<LesHouchesEvents version="3.0">
<header>
<!--
#*********************************************************************
#                                                                    *
#                        MadGraph5_aMC@NLO                           *
#                                                                    *
#                           Going Beyond                             *
#                                                                    *
#                   http://madgraph.hep.uiuc.edu                     *
#                   http://madgraph.phys.ucl.ac.be                   *
#                   http://amcatnlo.cern.ch                          *
#                                                                    *
#                     The MadGraph5_aMC@NLO team                     *
#                                                                    *
#....................................................................*
#                                                                    *
# This file contains all the information necessary to reproduce      *
# the events generated:                                              *
#                                                                    *
# 1. software version                                                *
# 2. proc_card          : code generation info including model       *
# 3. param_card         : model primary parameters in the LH format  *
# 4. run_card           : running parameters (collider and cuts)     *
# 5. pythia_card        : present only if pythia has been run        *
# 6. pgs_card           : present only if pgs has been run           *
# 7. delphes_cards      : present only if delphes has been run       *
#                                                                    *
#                                                                    *
#*********************************************************************
-->
<MGVersion>
#5.2.2.3
</MGVersion>
<MG5ProcCard>
#************************************************************
#*                     MadGraph5_aMC@NLO                    *
#*                                                          *
#*                *                       *                 *
#*                  *        * *        *                   *
#*                    * * * * 5 * * * *                     *
#*                  *        * *        *                   *
#*                *                       *                 *
#*                                                          *
#*                                                          *
#*         VERSION 2.2.3                 2015-02-10         *
#*                                                          *
#*    The MadGraph5_aMC@NLO Development Team - Find us at   *
#*    https://server06.fynu.ucl.ac.be/projects/madgraph     *
#*                                                          *
#************************************************************
#*                                                          *
#*               Command File for MadGraph5_aMC@NLO         *
#*                                                          *
#*     run as ./bin/mg5_aMC  filename                       *
#*                                                          *
#************************************************************
set group_subprocesses Auto
set ignore_six_quark_processes False
set loop_optimized_output True
set gauge unitary
set complex_mass_scheme False
import model sm
define p = g u c d s u~ c~ d~ s~
define j = g u c d s u~ c~ d~ s~
define l+ = e+ mu+
define l- = e- mu-
define vl = ve vm vt
define vl~ = ve~ vm~ vt~
import model Zprime_UFO
generate p p > zph, zph > j j
add process p p > zph, zph > b b~
output Dijet_signal
</MG5ProcCard>
<MGProcCard>
#*********************************************************************
#                        MadGraph/MadEvent                           *
#                   http://madgraph.hep.uiuc.edu                     *
#                                                                    *
#                          proc_card.dat                             *
#*********************************************************************
#                                                                    *
#            This Files is generated by MADGRAPH 5                   *
#                                                                    *
# WARNING: This Files is generated for MADEVENT (compatibility issue)*
#          This files is NOT a valid MG4 proc_card.dat               *
#          Running this in MG4 will NEVER reproduce the result of MG5*
#                                                                    *
#*********************************************************************
#*********************************************************************
# Process(es) requested : mg2 input                                  *
#*********************************************************************
# Begin PROCESS # This is TAG. Do not modify this line
p p > zph , zph > j j           #Process
# Be carefull the coupling are here in MG5 convention
          
end_coup           # End the couplings input

done               # this tells MG there are no more procs
# End PROCESS  # This is TAG. Do not modify this line
#*********************************************************************
# Model information                                                  *
#*********************************************************************
# Begin MODEL  # This is TAG. Do not modify this line
Zprime_UFO
# End   MODEL  # This is TAG. Do not modify this line
#*********************************************************************
# Start multiparticle definitions                                    *
#*********************************************************************
# Begin MULTIPARTICLES # This is TAG. Do not modify this line

# End  MULTIPARTICLES # This is TAG. Do not modify this line
</MGProcCard>
<MGRunCard>
#*********************************************************************
#                       MadGraph5_aMC@NLO                            *
#                                                                    *
#                     run_card.dat MadEvent                          *
#                                                                    *
#  This file is used to set the parameters of the run.               *
#                                                                    *
#  Some notation/conventions:                                        *
#                                                                    *
#   Lines starting with a '# ' are info or comments                  *
#                                                                    *
#   mind the format:   value    = variable     ! comment             *
#*********************************************************************
#
#*******************                                                 
# Running parameters
#*******************                                                 
#                                                                    
#*********************************************************************
# Tag name for the run (one word)                                    *
#*********************************************************************
  tag_1     = run_tag ! name of the run 
#*********************************************************************
# Run to generate the grid pack                                      *
#*********************************************************************
  .false.     = gridpack  !True = setting up the grid pack
#*********************************************************************
# Number of events and rnd seed                                      *
# Warning: Do not generate more than 1M events in a single run       *
# If you want to run Pythia, avoid more than 50k events in a run.    *
#*********************************************************************
  2000 = nevents ! Number of unweighted events requested 
 1533 = iseed   ! rnd seed (0=assigned automatically=default))
#*********************************************************************
# Collider type and energy                                           *
# lpp: 0=No PDF, 1=proton, -1=antiproton, 2=photon from proton,      *
#                                         3=photon from electron     *
#*********************************************************************
        1     = lpp1    ! beam 1 type 
        1     = lpp2    ! beam 2 type
     4000     = ebeam1  ! beam 1 total energy in GeV
     4000     = ebeam2  ! beam 2 total energy in GeV
#*********************************************************************
# Beam polarization from -100 (left-handed) to 100 (right-handed)    *
#*********************************************************************
        0     = polbeam1 ! beam polarization for beam 1
        0     = polbeam2 ! beam polarization for beam 2
#*********************************************************************
# PDF CHOICE: this automatically fixes also alpha_s and its evol.    *
#*********************************************************************
 'nn23lo1'    = pdlabel     ! PDF set                                     
 230000    = lhaid     ! if pdlabel=lhapdf, this is the lhapdf number
#*********************************************************************
# Renormalization and factorization scales                           *
#*********************************************************************
 F        = fixed_ren_scale  ! if .true. use fixed ren scale
 F        = fixed_fac_scale  ! if .true. use fixed fac scale
 91.1880  = scale            ! fixed ren scale
 91.1880  = dsqrt_q2fact1    ! fixed fact scale for pdf1
 91.1880  = dsqrt_q2fact2    ! fixed fact scale for pdf2
 1        = scalefact        ! scale factor for event-by-event scales
#*********************************************************************
# Matching - Warning! ickkw > 1 is still beta
#*********************************************************************
 0        = ickkw            ! 0 no matching, 1 MLM, 2 CKKW matching
 1        = highestmult      ! for ickkw=2, highest mult group
 1        = ktscheme         ! for ickkw=1, 1 Durham kT, 2 Pythia pTE
 1        = alpsfact         ! scale factor for QCD emission vx
 F        = chcluster        ! cluster only according to channel diag
 T        = pdfwgt           ! for ickkw=1, perform pdf reweighting
 5        = asrwgtflavor     ! highest quark flavor for a_s reweight
 T        = clusinfo         ! include clustering tag in output
 3.0      = lhe_version       ! Change the way clustering information pass to shower.        
#*********************************************************************
#**********************************************************
#
#**********************************************************
# Automatic ptj and mjj cuts if xqcut > 0
# (turn off for VBF and single top processes)
#**********************************************************
   T  = auto_ptj_mjj  ! Automatic setting of ptj and mjj
#**********************************************************
#                                                                    
#**********************************
# BW cutoff (M+/-bwcutoff*Gamma)
#**********************************
  15  = bwcutoff      ! (M+/-bwcutoff*Gamma)
#**********************************************************
# Apply pt/E/eta/dr/mij cuts on decay products or not
# (note that etmiss/ptll/ptheavy/ht/sorted cuts always apply)
#**********************************************************
   T  = cut_decays    ! Cut decay products 
#*************************************************************
# Number of helicities to sum per event (0 = all helicities)
# 0 gives more stable result, but longer run time (needed for
# long decay chains e.g.).
# Use >=2 if most helicities contribute, e.g. pure QCD.
#*************************************************************
   0  = nhel          ! Number of helicities used per event
#*******************                                                 
# Standard Cuts
#*******************                                                 
#                                                                    
#*********************************************************************
# Minimum and maximum pt's (for max, -1 means no cut)                *
#*********************************************************************
 20  = ptj       ! minimum pt for the jets 
  0  = ptb       ! minimum pt for the b 
 10  = pta       ! minimum pt for the photons 
 10  = ptl       ! minimum pt for the charged leptons 
  0  = misset    ! minimum missing Et (sum of neutrino's momenta)
  0  = ptheavy   ! minimum pt for one heavy final state
 1.0 = ptonium   ! minimum pt for the quarkonium states
 -1  = ptjmax    ! maximum pt for the jets
 -1  = ptbmax    ! maximum pt for the b
 -1  = ptamax    ! maximum pt for the photons
 -1  = ptlmax    ! maximum pt for the charged leptons
 -1  = missetmax ! maximum missing Et (sum of neutrino's momenta)
#*********************************************************************
# Minimum and maximum E's (in the center of mass frame)              *
#*********************************************************************
  0  = ej     ! minimum E for the jets 
  0  = eb     ! minimum E for the b 
  0  = ea     ! minimum E for the photons 
  0  = el     ! minimum E for the charged leptons 
 -1   = ejmax ! maximum E for the jets
 -1   = ebmax ! maximum E for the b
 -1   = eamax ! maximum E for the photons
 -1   = elmax ! maximum E for the charged leptons
#*********************************************************************
# Maximum and minimum absolute rapidity (for max, -1 means no cut)   *
#*********************************************************************
   5  = etaj    ! max rap for the jets 
  -1  = etab    ! max rap for the b
 2.5  = etaa    ! max rap for the photons 
 2.5  = etal    ! max rap for the charged leptons 
 0.6  = etaonium ! max rap for the quarkonium states
   0  = etajmin ! min rap for the jets
   0  = etabmin ! min rap for the b
   0  = etaamin ! min rap for the photons
   0  = etalmin ! main rap for the charged leptons
#*********************************************************************
# Minimum and maximum DeltaR distance                                *
#*********************************************************************
 0.4 = drjj    ! min distance between jets 
 0   = drbb    ! min distance between b's 
 0.4 = drll    ! min distance between leptons 
 0.4 = draa    ! min distance between gammas 
 0   = drbj    ! min distance between b and jet 
 0.4 = draj    ! min distance between gamma and jet 
 0.4 = drjl    ! min distance between jet and lepton 
 0   = drab    ! min distance between gamma and b 
 0   = drbl    ! min distance between b and lepton 
 0.4 = dral    ! min distance between gamma and lepton 
 -1  = drjjmax ! max distance between jets
 -1  = drbbmax ! max distance between b's
 -1  = drllmax ! max distance between leptons
 -1  = draamax ! max distance between gammas
 -1  = drbjmax ! max distance between b and jet
 -1  = drajmax ! max distance between gamma and jet
 -1  = drjlmax ! max distance between jet and lepton
 -1  = drabmax ! max distance between gamma and b
 -1  = drblmax ! max distance between b and lepton
 -1  = dralmax ! maxdistance between gamma and lepton
#*********************************************************************
# Minimum and maximum invariant mass for pairs                       *
# WARNING: for four lepton final state mmll cut require to have      *
#          different lepton masses for each flavor!                  *           
#*********************************************************************
 0   = mmjj    ! min invariant mass of a jet pair 
 0   = mmbb    ! min invariant mass of a b pair 
 0   = mmaa    ! min invariant mass of gamma gamma pair
 0   = mmll    ! min invariant mass of l+l- (same flavour) lepton pair
 -1  = mmjjmax ! max invariant mass of a jet pair
 -1  = mmbbmax ! max invariant mass of a b pair
 -1  = mmaamax ! max invariant mass of gamma gamma pair
 -1  = mmllmax ! max invariant mass of l+l- (same flavour) lepton pair
#*********************************************************************
# Minimum and maximum invariant mass for all letpons                 *
#*********************************************************************
 0   = mmnl    ! min invariant mass for all letpons (l+- and vl) 
 -1  = mmnlmax ! max invariant mass for all letpons (l+- and vl) 
#*********************************************************************
# Minimum and maximum pt for 4-momenta sum of leptons                *
#*********************************************************************
 0   = ptllmin  ! Minimum pt for 4-momenta sum of leptons(l and vl)
 -1  = ptllmax  ! Maximum pt for 4-momenta sum of leptons(l and vl)
#*********************************************************************
# Inclusive cuts                                                     *
#*********************************************************************
 0  = xptj ! minimum pt for at least one jet  
 0  = xptb ! minimum pt for at least one b 
 0  = xpta ! minimum pt for at least one photon 
 0  = xptl ! minimum pt for at least one charged lepton 
#*********************************************************************
# Control the pt's of the jets sorted by pt                          *
#*********************************************************************
 0   = ptj1min ! minimum pt for the leading jet in pt
 0   = ptj2min ! minimum pt for the second jet in pt
 0   = ptj3min ! minimum pt for the third jet in pt
 0   = ptj4min ! minimum pt for the fourth jet in pt
 -1  = ptj1max ! maximum pt for the leading jet in pt 
 -1  = ptj2max ! maximum pt for the second jet in pt
 -1  = ptj3max ! maximum pt for the third jet in pt
 -1  = ptj4max ! maximum pt for the fourth jet in pt
 0   = cutuse  ! reject event if fails any (0) / all (1) jet pt cuts
#*********************************************************************
# Control the pt's of leptons sorted by pt                           *
#*********************************************************************
 0   = ptl1min ! minimum pt for the leading lepton in pt
 0   = ptl2min ! minimum pt for the second lepton in pt
 0   = ptl3min ! minimum pt for the third lepton in pt
 0   = ptl4min ! minimum pt for the fourth lepton in pt
 -1  = ptl1max ! maximum pt for the leading lepton in pt 
 -1  = ptl2max ! maximum pt for the second lepton in pt
 -1  = ptl3max ! maximum pt for the third lepton in pt
 -1  = ptl4max ! maximum pt for the fourth lepton in pt
#*********************************************************************
# Control the Ht(k)=Sum of k leading jets                            *
#*********************************************************************
 0   = htjmin ! minimum jet HT=Sum(jet pt)
 -1  = htjmax ! maximum jet HT=Sum(jet pt)
 0   = ihtmin  !inclusive Ht for all partons (including b)
 -1  = ihtmax  !inclusive Ht for all partons (including b)
 0   = ht2min ! minimum Ht for the two leading jets
 0   = ht3min ! minimum Ht for the three leading jets
 0   = ht4min ! minimum Ht for the four leading jets
 -1  = ht2max ! maximum Ht for the two leading jets
 -1  = ht3max ! maximum Ht for the three leading jets
 -1  = ht4max ! maximum Ht for the four leading jets
#***********************************************************************
# Photon-isolation cuts, according to hep-ph/9801442                   *
# When ptgmin=0, all the other parameters are ignored                  *
# When ptgmin>0, pta and draj are not going to be used                 *
#***********************************************************************
   0 = ptgmin ! Min photon transverse momentum
 0.4 = R0gamma ! Radius of isolation code
 1.0 = xn ! n parameter of eq.(3.4) in hep-ph/9801442
 1.0 = epsgamma ! epsilon_gamma parameter of eq.(3.4) in hep-ph/9801442
 .true. = isoEM ! isolate photons from EM energy (photons and leptons)
#*********************************************************************
# WBF cuts                                                           *
#*********************************************************************
 0   = xetamin ! minimum rapidity for two jets in the WBF case  
 0   = deltaeta ! minimum rapidity for two jets in the WBF case 
#*********************************************************************
# KT DURHAM CUT                                                      *
#*********************************************************************
 -1    =  ktdurham        
 0.4  =  dparameter 
#*********************************************************************
# maximal pdg code for quark to be considered as a light jet         *
# (otherwise b cuts are applied)                                     *
#*********************************************************************
 4 = maxjetflavor    ! Maximum jet pdg code
#*********************************************************************
# Jet measure cuts                                                   *
#*********************************************************************
 0   = xqcut   ! minimum kt jet measure between partons
#*********************************************************************
#
#*********************************************************************
# Store info for systematics studies                                 *
# WARNING: If use_syst is T, matched Pythia output is                *
#          meaningful ONLY if plotted taking matchscale              *
#          reweighting into account!                                 *
#*********************************************************************
   F  = use_syst      ! Enable systematics studies
#
#**************************************
# Parameter of the systematics study
#  will be used by SysCalc (if installed)
#**************************************                                  
#
0.5 1 2 = sys_scalefact  # factorization/renormalization scale factor
0.5 1 2 = sys_alpsfact  # \alpha_s emission scale factors
30 50 = sys_matchscale # variation of merging scale
# PDF sets and number of members (0 or none for all members).
CT10nlo.LHgrid = sys_pdf # matching scales
# MSTW2008nlo68cl.LHgrid 1  = sys_pdf
</MGRunCard>
<slha>
######################################################################
## PARAM_CARD AUTOMATICALY GENERATED BY MG5 FOLLOWING UFO MODEL   ####
######################################################################
##                                                                  ##
##  Width set on Auto will be computed following the information    ##
##        present in the decay.py files of the model.               ##
##        See  arXiv:1402.1178 for more details.                    ##
##                                                                  ##
######################################################################

###################################
## INFORMATION FOR CKMBLOCK
###################################
Block ckmblock 
    1 2.277360e-01 # cabi 

###################################
## INFORMATION FOR FRBLOCK
###################################
Block frblock 
    1 8.000000e-01 # gz 

###################################
## INFORMATION FOR MASS
###################################
Block mass 
    1 5.040000e-03 # MD 
    2 2.550000e-03 # MU 
    3 1.010000e-01 # MS 
    4 1.270000e+00 # MC 
    5 4.700000e+00 # MB 
    6 1.720000e+02 # MT 
   11 5.110000e-04 # Me 
   13 1.056600e-01 # MM 
   15 1.777000e+00 # MTA 
   23 9.118760e+01 # MZ 
   25 1.200000e+02 # MH 
  10030 1.200000e+03 # MZph 
  10031 3.000000e+02 # MZpl 
## Dependent parameters, given by model restrictions.
## Those values should be edited following the 
## analytical expression. MG5 ignores those values 
## but they are important for interfacing the output of MG5
## to external program such as Pythia.
  12 0.000000 # ve : 0.0 
  14 0.000000 # vm : 0.0 
  16 0.000000 # vt : 0.0 
  21 0.000000 # g : 0.0 
  22 0.000000 # a : 0.0 
  24 79.824360 # w+ : cmath.sqrt(MZ__exp__2/2. + cmath.sqrt(MZ__exp__4/4. - (aEW*cmath.pi*MZ__exp__2)/(Gf*sqrt__2))) 

###################################
## INFORMATION FOR SMINPUTS
###################################
Block sminputs 
    1 1.279000e+02 # aEWM1 
    2 1.166370e-05 # Gf 
    3 1.184000e-01 # aS 

###################################
## INFORMATION FOR YUKAWA
###################################
Block yukawa 
    1 5.040000e-03 # ymdo 
    2 2.550000e-03 # ymup 
    3 1.010000e-01 # yms 
    4 1.270000e+00 # ymc 
    5 4.700000e+00 # ymb 
    6 1.720000e+02 # ymt 
   11 5.110000e-04 # yme 
   13 1.056600e-01 # ymm 
   15 1.777000e+00 # ymtau 

###################################
## INFORMATION FOR DECAY
###################################
DECAY   6 1.508336e+00 # WT 
DECAY  23 2.495200e+00 # WZ 
DECAY  24 2.085000e+00 # WW 
DECAY  25 5.753088e-03 # WH 
## Dependent parameters, given by model restrictions.
## Those values should be edited following the 
## analytical expression. MG5 ignores those values 
## but they are important for interfacing the output of MG5
## to external program such as Pythia.
DECAY  1 0.000000 # d : 0.0 
DECAY  2 0.000000 # u : 0.0 
DECAY  3 0.000000 # s : 0.0 
DECAY  4 0.000000 # c : 0.0 
DECAY  5 0.000000 # b : 0.0 
DECAY  11 0.000000 # e- : 0.0 
DECAY  12 0.000000 # ve : 0.0 
DECAY  13 0.000000 # mu- : 0.0 
DECAY  14 0.000000 # vm : 0.0 
DECAY  15 0.000000 # ta- : 0.0 
DECAY  16 0.000000 # vt : 0.0 
DECAY  21 0.000000 # g : 0.0 
DECAY  22 0.000000 # a : 0.0 
DECAY  10030 0.308725 # zph : (gz__exp__2*MZph*(5 + cmath.sqrt(1 - (4*MT__exp__2)/MZph__exp__2)))/(144.*cmath.pi) 
DECAY  10031 0.132629 # zpl : (5*gz__exp__2*MZpl)/(144.*cmath.pi) 
#===========================================================
# QUANTUM NUMBERS OF NEW STATE(S) (NON SM PDG CODE)
#===========================================================

Block QNUMBERS 10030  # zph 
        1 0  # 3 times electric charge
        2 3  # number of spin states (2S+1)
        3 1  # colour rep (1: singlet, 3: triplet, 8: octet)
        4 0  # Particle/Antiparticle distinction (0=own anti)
Block QNUMBERS 10031  # zpl 
        1 0  # 3 times electric charge
        2 3  # number of spin states (2S+1)
        3 1  # colour rep (1: singlet, 3: triplet, 8: octet)
        4 0  # Particle/Antiparticle distinction (0=own anti)
</slha>
## END BANNER##
<MGGenerationInfo>
#  Number of Events        :         4035
#  Integrated weight (pb)  :  0.49102E+00
#  Max wgt                 :  0.16475E-03
#  Average wgt             :  0.12169E-03
</MGGenerationInfo>
</header>
<init>
     2212     2212  0.40000000000E+04  0.40000000000E+04 0 0  247000  247000 2   1
  0.49120047774E+00  0.10415827001E-02  0.16475500000E-03   0
</init>
<event>
 5   0  0.1597352E-03  0.1194845E+04  0.7818609E-02  0.9117381E-01
       -2   -1    0    0    0  501  0.00000000000E+00  0.00000000000E+00  0.41759347059E+03  0.41759347060E+03  0.25500000920E-02 0. -1.
        2   -1    0    0  501    0  0.00000000000E+00  0.00000000000E+00 -0.85469180786E+03  0.85469180786E+03  0.25500000920E-02 0.  1.
    10030    2    1    2    0    0  0.00000000000E+00  0.00000000000E+00 -0.43709833727E+03  0.12722852785E+04  0.11948451253E+04 0.  0.
        1    1    3    3  502    0  0.58885126575E+03 -0.90987870959E+02 -0.17226826890E+03  0.62024266407E+03  0.50400001928E-02 0. -1.
       -1    1    3    3    0  502 -0.58885126575E+03  0.90987870959E+02 -0.26483006837E+03  0.65204261439E+03  0.50400001928E-02 0.  1.
</event>
<event>
 5   0  0.1597352E-03  0.1212362E+04  0.7818609E-02  0.9102104E-01
        2   -1    0    0  501    0  0.00000000000E+00  0.00000000000E+00  0.97038745532E+03  0.97038745533E+03  0.25500000920E-02 0.  1.
       -2   -1    0    0    0  501  0.00000000000E+00  0.00000000000E+00 -0.37866872822E+03  0.37866872823E+03  0.25500000920E-02 0. -1.
    10030    2    1    2    0    0  0.00000000000E+00  0.00000000000E+00  0.59171872710E+03  0.13490561836E+04  0.12123619651E+04 0.  0.
        1    1    3    3  502    0 -0.55294332046E+03  0.81891738083E+02  0.55682911820E+03  0.78899381449E+03  0.50400001928E-02 0. -1.
       -1    1    3    3    0  502  0.55294332046E+03 -0.81891738083E+02  0.34889608898E+02  0.56006236906E+03  0.50400001928E-02 0.  1.
</event>
<event>
 5   0  0.1647550E-03  0.1200043E+04  0.7818609E-02  0.9112819E-01
       -2   -1    0    0    0  501  0.00000000000E+00  0.00000000000E+00  0.41223808594E+03  0.41223808594E+03  0.25500000920E-02 0. -1.
        2   -1    0    0  501    0  0.00000000000E+00  0.00000000000E+00 -0.87334428694E+03  0.87334428694E+03  0.25500000920E-02 0.  1.
    10030    2    1    2    0    0  0.00000000000E+00  0.00000000000E+00 -0.46110620100E+03  0.12855823729E+04  0.12000429613E+04 0.  0.
        3    1    3    3  502    0 -0.25512869957E+03  0.37628860391E+03 -0.65005475409E+03  0.79325592358E+03  0.10100000352E+00 0.  1.
       -3    1    3    3    0  502  0.25512869957E+03 -0.37628860391E+03  0.18894855308E+03  0.49232644931E+03  0.10100000352E+00 0. -1.
</event>
<event>
 5   0  0.1597352E-03  0.1196627E+04  0.7818609E-02  0.9115814E-01
        2   -1    0    0  501    0  0.00000000000E+00  0.00000000000E+00  0.11509412576E+04  0.11509412576E+04  0.25500000920E-02 0.  1.
       -2   -1    0    0    0  501  0.00000000000E+00  0.00000000000E+00 -0.31103143439E+03  0.31103143440E+03  0.25500000920E-02 0. -1.
    10030    2    1    2    0    0  0.00000000000E+00  0.00000000000E+00  0.83990982323E+03  0.14619726920E+04  0.11966267760E+04 0.  0.
        1    1    3    3  502    0  0.14351979021E+03  0.44379861432E+03  0.87778133922E+03  0.99400966785E+03  0.50400001928E-02 0.  1.
       -1    1    3    3    0  502 -0.14351979021E+03 -0.44379861432E+03 -0.37871515991E+02  0.46796302419E+03  0.50400001928E-02 0. -1.
</event>
<event>
 5   0  0.1647550E-03  0.1200281E+04  0.7818609E-02  0.9112611E-01
       -2   -1    0    0    0  501  0.00000000000E+00  0.00000000000E+00  0.84258661128E+03  0.84258661129E+03  0.25500000920E-02 0. -1.
        2   -1    0    0  501    0  0.00000000000E+00  0.00000000000E+00 -0.42745555152E+03  0.42745555153E+03  0.25500000920E-02 0.  1.
    10030    2    1    2    0    0  0.00000000000E+00  0.00000000000E+00  0.41513105976E+03  0.12700421628E+04  0.12002805083E+04 0.  0.
        3    1    3    3  502    0 -0.46522920515E+02  0.33268966390E+03  0.73378430421E+03  0.80702305414E+03  0.10100000352E+00 0. -1.
       -3    1    3    3    0  502  0.46522920515E+02 -0.33268966390E+03 -0.31865324445E+03  0.46301910868E+03  0.10100000352E+00 0.  1.
</event>
<event>
 5   0  0.9169078E-04  0.1195300E+04  0.7818609E-02  0.9116980E-01
        1   -1    0    0  501    0  0.00000000000E+00  0.00000000000E+00  0.68273450267E+03  0.68273450268E+03  0.50400001928E-02 0.  1.
       -1   -1    0    0    0  501  0.00000000000E+00  0.00000000000E+00 -0.52316919413E+03  0.52316919415E+03  0.50400001928E-02 0. -1.
    10030    2    1    2    0    0  0.00000000000E+00  0.00000000000E+00  0.15956530854E+03  0.12059036968E+04  0.11953002294E+04 0.  0.
        1    1    3    3  502    0  0.21284524328E+03  0.36474926703E+03 -0.34686425406E+03  0.54649788303E+03  0.50400001928E-02 0. -1.
       -1    1    3    3    0  502 -0.21284524328E+03 -0.36474926703E+03  0.50642956260E+03  0.65940581381E+03  0.50400001928E-02 0.  1.
</event>
<event>
 5   0  0.9208078E-04  0.1200362E+04  0.7818609E-02  0.9112540E-01
        1   -1    0    0  501    0  0.00000000000E+00  0.00000000000E+00  0.70722904529E+03  0.70722904531E+03  0.50400001928E-02 0.  1.
       -1   -1    0    0    0  501  0.00000000000E+00  0.00000000000E+00 -0.50933625221E+03  0.50933625224E+03  0.50400001928E-02 0. -1.
    10030    2    1    2    0    0  0.00000000000E+00  0.00000000000E+00  0.19789279308E+03  0.12165652975E+04  0.12003622643E+04 0.  0.
        3    1    3    3  502    0 -0.49043753022E+03  0.65968525586E+02 -0.24525021785E+03  0.55229385020E+03  0.10100000352E+00 0. -1.
       -3    1    3    3    0  502  0.49043753022E+03 -0.65968525586E+02  0.44314301093E+03  0.66427144734E+03  0.10100000352E+00 0.  1.
</event>
<event>
 5   0  0.1597352E-03  0.1205623E+04  0.7818609E-02  0.9107949E-01
        2   -1    0    0  501    0  0.00000000000E+00  0.00000000000E+00  0.90386356651E+03  0.90386356651E+03  0.25500000920E-02 0.  1.
       -2   -1    0    0    0  501  0.00000000000E+00  0.00000000000E+00 -0.40203148898E+03  0.40203148899E+03  0.25500000920E-02 0. -1.
    10030    2    1    2    0    0  0.00000000000E+00  0.00000000000E+00  0.50183207753E+03  0.13058950555E+04  0.12056228523E+04 0.  0.
        1    1    3    3  502    0  0.44587480357E+03  0.27870634234E+03 -0.68389769608E+02  0.53024402527E+03  0.50400001928E-02 0. -1.
       -1    1    3    3    0  502 -0.44587480357E+03 -0.27870634234E+03  0.57022184714E+03  0.77565103023E+03  0.50400001928E-02 0.  1.
</event>
<event>
 5   0  0.6137750E-04  0.1208670E+04  0.7818609E-02  0.9105302E-01
        4   -1    0    0  501    0  0.00000000000E+00  0.00000000000E+00  0.12783924080E+04  0.12783930389E+04  0.12699999809E+01 0.  1.
       -4   -1    0    0    0  501  0.00000000000E+00  0.00000000000E+00 -0.28568530663E+03  0.28568812948E+03  0.12699999809E+01 0. -1.
    10030    2    1    2    0    0  0.00000000000E+00  0.00000000000E+00  0.99270710141E+03  0.15640811683E+04  0.12086697282E+04 0.  0.
        5    1    3    3  502    0 -0.50182771864E+03  0.20870689322E+03  0.83825982867E+03  0.99904517257E+03  0.46999998093E+01 0.  1.
       -5    1    3    3    0  502  0.50182771864E+03 -0.20870689322E+03  0.15444727274E+03  0.56503599578E+03  0.46999998093E+01 0. -1.
</event>
<event>
 5   0  0.1597352E-03  0.1205884E+04  0.7818609E-02  0.9107722E-01
        2   -1    0    0  501    0  0.00000000000E+00  0.00000000000E+00  0.31248287585E+03  0.31248287586E+03  0.25500000920E-02 0.  1.
       -2   -1    0    0    0  501  0.00000000000E+00  0.00000000000E+00 -0.11633883643E+04  0.11633883643E+04  0.25500000920E-02 0. -1.
    10030    2    1    2    0    0  0.00000000000E+00  0.00000000000E+00 -0.85090548848E+03  0.14758712402E+04  0.12058838117E+04 0.  0.
        1    1    3    3  502    0 -0.21400208256E+03 -0.38735610215E+03  0.75741460629E+02  0.44897484350E+03  0.50400001928E-02 0.  1.
       -1    1    3    3    0  502  0.21400208256E+03  0.38735610215E+03 -0.92664694911E+03  0.10268963967E+04  0.50400001928E-02 0. -1.
</event>
<event>
 5   0  0.1567019E-03  0.1194263E+04  0.7818609E-02  0.9117893E-01
        2   -1    0    0  501    0  0.00000000000E+00  0.00000000000E+00  0.21346282688E+04  0.21346282688E+04  0.25500000920E-02 0.  1.
       -2   -1    0    0    0  501  0.00000000000E+00  0.00000000000E+00 -0.16703903657E+03  0.16703903659E+03  0.25500000920E-02 0. -1.
    10030    2    1    2    0    0  0.00000000000E+00  0.00000000000E+00  0.19675892323E+04  0.23016673054E+04  0.11942633704E+04 0.  0.
        5    1    3    3  502    0  0.40301453908E+03 -0.15493150205E+03  0.18888142677E+03  0.47129902654E+03  0.46999998093E+01 0. -1.
       -5    1    3    3    0  502 -0.40301453908E+03  0.15493150205E+03  0.17787078055E+04  0.18303682789E+04  0.46999998093E+01 0.  1.
</event>
<event>
 5   0  0.1567019E-03  0.1195045E+04  0.7818609E-02  0.9117204E-01
       -2   -1    0    0    0  501  0.00000000000E+00  0.00000000000E+00  0.29081139061E+03  0.29081139062E+03  0.25500000920E-02 0.  1.
        2   -1    0    0  501    0  0.00000000000E+00  0.00000000000E+00 -0.12277142423E+04  0.12277142424E+04  0.25500000920E-02 0. -1.
    10030    2    1    2    0    0  0.00000000000E+00  0.00000000000E+00 -0.93690285174E+03  0.15185256330E+04  0.11950452478E+04 0.  0.
        5    1    3    3  502    0  0.11205756525E+03  0.37352807570E+03 -0.10436816368E+04  0.11141694531E+04  0.46999998093E+01 0. -1.
       -5    1    3    3    0  502 -0.11205756525E+03 -0.37352807570E+03  0.10677878504E+03  0.40435617987E+03  0.46999998093E+01 0.  1.
</event>
<event>
 5   0  0.9170776E-04  0.1204095E+04  0.7818609E-02  0.9109280E-01
       -1   -1    0    0    0  501  0.00000000000E+00  0.00000000000E+00  0.36392631665E+03  0.36392631669E+03  0.50400001928E-02 0. -1.
        1   -1    0    0  501    0  0.00000000000E+00  0.00000000000E+00 -0.99597398341E+03  0.99597398342E+03  0.50400001928E-02 0.  1.
    10030    2    1    2    0    0  0.00000000000E+00  0.00000000000E+00 -0.63204766676E+03  0.13599003001E+04  0.12040949187E+04 0.  0.
        5    1    3    3  502    0  0.19604337641E+02 -0.30456114276E+03 -0.90211110810E+03  0.95234886522E+03  0.46999998093E+01 0.  1.
       -5    1    3    3    0  502 -0.19604337641E+02  0.30456114276E+03  0.27006344134E+03  0.40755143489E+03  0.46999998093E+01 0. -1.
</event>
<event>
 5   0  0.6137750E-04  0.1199621E+04  0.7818609E-02  0.9113188E-01
        3   -1    0    0  501    0  0.00000000000E+00  0.00000000000E+00  0.13786483165E+04  0.13786483202E+04  0.10100000352E+00 0.  1.
       -3   -1    0    0    0  501  0.00000000000E+00  0.00000000000E+00 -0.26096032796E+03  0.26096034751E+03  0.10100000352E+00 0. -1.
    10030    2    1    2    0    0  0.00000000000E+00  0.00000000000E+00  0.11176879886E+04  0.16396086678E+04  0.11996208332E+04 0.  0.
        1    1    3    3  502    0  0.53649643907E+03  0.19840786180E+03  0.31214847445E+03  0.65163699932E+03  0.50400001928E-02 0. -1.
       -1    1    3    3    0  502 -0.53649643907E+03 -0.19840786180E+03  0.80553951414E+03  0.98797166843E+03  0.50400001928E-02 0.  1.
</event>
<event>
 5   0  0.9169078E-04  0.1199381E+04  0.7818609E-02  0.9113399E-01
        1   -1    0    0  501    0  0.00000000000E+00  0.00000000000E+00  0.87161378577E+03  0.87161378578E+03  0.50400001928E-02 0. -1.
       -1   -1    0    0    0  501  0.00000000000E+00  0.00000000000E+00 -0.41260085174E+03  0.41260085177E+03  0.50400001928E-02 0.  1.
    10030    2    1    2    0    0  0.00000000000E+00  0.00000000000E+00  0.45901293403E+03  0.12842146376E+04  0.11993808243E+04 0.  0.
        1    1    3    3  502    0 -0.57764392470E+03 -0.13101004893E+03  0.32990689416E+03  0.67799313824E+03  0.50400001928E-02 0.  1.
       -1    1    3    3    0  502  0.57764392470E+03  0.13101004893E+03  0.12910603987E+03  0.60622149931E+03  0.50400001928E-02 0. -1.
</event>
<event>
 5   0  0.9208078E-04  0.1211237E+04  0.7818609E-02  0.9103077E-01
       -1   -1    0    0    0  501  0.00000000000E+00  0.00000000000E+00  0.11821017572E+04  0.11821017572E+04  0.50400001928E-02 0. -1.
        1   -1    0    0  501    0  0.00000000000E+00  0.00000000000E+00 -0.31027250080E+03  0.31027250084E+03  0.50400001928E-02 0.  1.
    10030    2    1    2    0    0  0.00000000000E+00  0.00000000000E+00  0.87182925638E+03  0.14923742580E+04  0.12112368364E+04 0.  0.
        3    1    3    3  502    0  0.30204300140E+03 -0.37064787347E+03 -0.22064696741E+02  0.47864045153E+03  0.10100000352E+00 0.  1.
       -3    1    3    3    0  502 -0.30204300140E+03  0.37064787347E+03  0.89389395313E+03  0.10137338065E+04  0.10100000352E+00 0. -1.
</event>
<event>
 5   0  0.9208078E-04  0.1200110E+04  0.7818609E-02  0.9112760E-01
        1   -1    0    0  501    0  0.00000000000E+00  0.00000000000E+00  0.31724742155E+03  0.31724742159E+03  0.50400001928E-02 0.  1.
       -1   -1    0    0    0  501  0.00000000000E+00  0.00000000000E+00 -0.11349691340E+04  0.11349691340E+04  0.50400001928E-02 0. -1.
    10030    2    1    2    0    0  0.00000000000E+00  0.00000000000E+00 -0.81772171244E+03  0.14522165556E+04  0.12001100472E+04 0.  0.
        3    1    3    3  502    0 -0.15286739732E+03 -0.48062245658E+03 -0.80227235912E+03  0.94763248960E+03  0.10100000352E+00 0. -1.
       -3    1    3    3    0  502  0.15286739732E+03  0.48062245658E+03 -0.15449353325E+02  0.50458406600E+03  0.10100000352E+00 0.  1.
</event>
<event>
 5   0  0.1597352E-03  0.1200335E+04  0.7818609E-02  0.9112564E-01
       -2   -1    0    0    0  501  0.00000000000E+00  0.00000000000E+00  0.27103023103E+03  0.27103023104E+03  0.25500000920E-02 0.  1.
        2   -1    0    0  501    0  0.00000000000E+00  0.00000000000E+00 -0.13290063296E+04  0.13290063296E+04  0.25500000920E-02 0. -1.
    10030    2    1    2    0    0  0.00000000000E+00  0.00000000000E+00 -0.10579760986E+04  0.16000365607E+04  0.12003347743E+04 0.  0.
        1    1    3    3  502    0  0.43419124248E+03 -0.32458724181E+03 -0.87227418181E+03  0.10270059206E+04  0.50400001928E-02 0. -1.
       -1    1    3    3    0  502 -0.43419124248E+03  0.32458724181E+03 -0.18570191679E+03  0.57303064012E+03  0.50400001928E-02 0.  1.
</event>
<event>
 5   0  0.8908478E-04  0.1201639E+04  0.7818609E-02  0.9111423E-01
        1   -1    0    0  501    0  0.00000000000E+00  0.00000000000E+00  0.80013205033E+03  0.80013205035E+03  0.50400001928E-02 0.  1.
       -1   -1    0    0    0  501  0.00000000000E+00  0.00000000000E+00 -0.45115562634E+03  0.45115562637E+03  0.50400001928E-02 0. -1.
    10030    2    1    2    0    0  0.00000000000E+00  0.00000000000E+00  0.34897642399E+03  0.12512876767E+04  0.12016390079E+04 0.  0.
        4    1    3    3  502    0  0.40325538566E+03 -0.56638814907E+02  0.63450969244E+03  0.75394099511E+03  0.12699999809E+01 0.  1.
       -4    1    3    3    0  502 -0.40325538566E+03  0.56638814907E+02 -0.28553326845E+03  0.49734668161E+03  0.12699999809E+01 0. -1.
</event>
<event>
 5   0  0.9169078E-04  0.1197075E+04  0.7818609E-02  0.9115420E-01
       -1   -1    0    0    0  501  0.00000000000E+00  0.00000000000E+00  0.62147303059E+03  0.62147303061E+03  0.50400001928E-02 0. -1.
        1   -1    0    0  501    0  0.00000000000E+00  0.00000000000E+00 -0.57644883056E+03  0.57644883058E+03  0.50400001928E-02 0.  1.
    10030    2    1    2    0    0  0.00000000000E+00  0.00000000000E+00  0.45024200032E+02  0.11979218612E+04  0.11970754391E+04 0.  0.
        1    1    3    3  502    0 -0.57443595409E+03 -0.16095631266E+03 -0.26141221741E+02  0.59713228303E+03  0.50400001928E-02 0.  1.
       -1    1    3    3    0  502  0.57443595409E+03  0.16095631266E+03  0.71165421773E+02  0.60078957816E+03  0.50400001928E-02 0. -1.
</event>
<event>
 5   0  0.1537557E-03  0.1193195E+04  0.7818609E-02  0.9118834E-01
       -2   -1    0    0    0  501  0.00000000000E+00  0.00000000000E+00  0.14195731113E+03  0.14195731115E+03  0.25500000920E-02 0. -1.
        2   -1    0    0  501    0  0.00000000000E+00  0.00000000000E+00 -0.25072913969E+04  0.25072913969E+04  0.25500000920E-02 0.  1.
    10030    2    1    2    0    0  0.00000000000E+00  0.00000000000E+00 -0.23653340858E+04  0.26492487080E+04  0.11931946110E+04 0.  0.
        2    1    3    3  502    0 -0.77868318756E+02 -0.52850618151E+03 -0.17723898303E+04  0.18511477439E+04  0.25500000920E-02 0.  1.
       -2    1    3    3    0  502  0.77868318756E+02  0.52850618151E+03 -0.59294425544E+03  0.79810096418E+03  0.25500000920E-02 0. -1.
</event>
<event>
 5   0  0.9208078E-04  0.1202004E+04  0.7818609E-02  0.9111104E-01
       -1   -1    0    0    0  501  0.00000000000E+00  0.00000000000E+00  0.51240210085E+03  0.51240210087E+03  0.50400001928E-02 0.  1.
        1   -1    0    0  501    0  0.00000000000E+00  0.00000000000E+00 -0.70492168983E+03  0.70492168985E+03  0.50400001928E-02 0. -1.
    10030    2    1    2    0    0  0.00000000000E+00  0.00000000000E+00 -0.19251958898E+03  0.12173237907E+04  0.12020039182E+04 0.  0.
        3    1    3    3  502    0  0.58161350011E+02  0.12566933291E+03 -0.68854507956E+03  0.70233173120E+03  0.10100000352E+00 0. -1.
       -3    1    3    3    0  502 -0.58161350011E+02 -0.12566933291E+03  0.49602549057E+03  0.51499205952E+03  0.10100000352E+00 0.  1.
</event>
<event>
 5   0  0.6137750E-04  0.1197451E+04  0.7818609E-02  0.9115091E-01
        3   -1    0    0  501    0  0.00000000000E+00  0.00000000000E+00  0.61676116524E+03  0.61676117351E+03  0.10100000352E+00 0. -1.
       -3   -1    0    0    0  501  0.00000000000E+00  0.00000000000E+00 -0.58121698799E+03  0.58121699677E+03  0.10100000352E+00 0.  1.
    10030    2    1    2    0    0  0.00000000000E+00  0.00000000000E+00  0.35544177242E+02  0.11979781703E+04  0.11974507539E+04 0.  0.
        3    1    3    3  502    0  0.14467691594E+03  0.23478492160E+03  0.54943507648E+03  0.61476359918E+03  0.10100000352E+00 0. -1.
       -3    1    3    3    0  502 -0.14467691594E+03 -0.23478492160E+03 -0.51389089924E+03  0.58321457109E+03  0.10100000352E+00 0.  1.
</event>
<event>
 5   0  0.1647550E-03  0.1242674E+04  0.7818609E-02  0.9076303E-01
        2   -1    0    0  501    0  0.00000000000E+00  0.00000000000E+00  0.38087674711E+03  0.38087674711E+03  0.25500000920E-02 0. -1.
       -2   -1    0    0    0  501  0.00000000000E+00  0.00000000000E+00 -0.10136075454E+04  0.10136075454E+04  0.25500000920E-02 0.  1.
    10030    2    1    2    0    0  0.00000000000E+00  0.00000000000E+00 -0.63273079830E+03  0.13944842925E+04  0.12426738023E+04 0.  0.
        3    1    3    3  502    0 -0.19726821486E+03 -0.26900013859E+03 -0.90460190941E+03  0.96414752391E+03  0.10100000352E+00 0.  1.
       -3    1    3    3    0  502  0.19726821486E+03  0.26900013859E+03  0.27187111111E+03  0.43033676861E+03  0.10100000352E+00 0. -1.
</event>
<event>
 5   0  0.9169078E-04  0.1202088E+04  0.7818609E-02  0.9111031E-01
        1   -1    0    0  501    0  0.00000000000E+00  0.00000000000E+00  0.92024711993E+03  0.92024711994E+03  0.50400001928E-02 0. -1.
       -1   -1    0    0    0  501  0.00000000000E+00  0.00000000000E+00 -0.39256180799E+03  0.39256180803E+03  0.50400001928E-02 0.  1.
    10030    2    1    2    0    0  0.00000000000E+00  0.00000000000E+00  0.52768531193E+03  0.13128089280E+04  0.12020879722E+04 0.  0.
        1    1    3    3  502    0 -0.40669561951E+03  0.81844410659E+02  0.73882020168E+03  0.84732232646E+03  0.50400001928E-02 0. -1.
       -1    1    3    3    0  502  0.40669561951E+03 -0.81844410659E+02 -0.21113488975E+03  0.46548660150E+03  0.50400001928E-02 0.  1.
</event>
<event>
 5   0  0.1537557E-03  0.1204297E+04  0.7818609E-02  0.9109104E-01
        2   -1    0    0  501    0  0.00000000000E+00  0.00000000000E+00  0.95051595835E+03  0.95051595835E+03  0.25500000920E-02 0.  1.
       -2   -1    0    0    0  501  0.00000000000E+00  0.00000000000E+00 -0.38145893678E+03  0.38145893679E+03  0.25500000920E-02 0. -1.
    10030    2    1    2    0    0  0.00000000000E+00  0.00000000000E+00  0.56905702157E+03  0.13319748951E+04  0.12042969848E+04 0.  0.
        2    1    3    3  502    0  0.14888047701E+03 -0.26430414553E+03  0.85982910246E+03  0.91177199080E+03  0.25500000920E-02 0.  1.
       -2    1    3    3    0  502 -0.14888047701E+03  0.26430414553E+03 -0.29077208089E+03  0.42020290433E+03  0.25500000920E-02 0. -1.
</event>
<event>
 5   0  0.9358428E-04  0.1201934E+04  0.7818609E-02  0.9111166E-01
       -1   -1    0    0    0  501  0.00000000000E+00  0.00000000000E+00  0.61282895194E+03  0.61282895196E+03  0.50400001928E-02 0. -1.
        1   -1    0    0  501    0  0.00000000000E+00  0.00000000000E+00 -0.58933449547E+03  0.58933449549E+03  0.50400001928E-02 0.  1.
    10030    2    1    2    0    0  0.00000000000E+00  0.00000000000E+00  0.23494456468E+02  0.12021634475E+04  0.12019338438E+04 0.  0.
        2    1    3    3  502    0 -0.32516064062E+02 -0.56000288864E+03  0.22742865798E+03  0.60529688929E+03  0.25500000920E-02 0.  1.
       -2    1    3    3    0  502  0.32516064062E+02  0.56000288864E+03 -0.20393420151E+03  0.59686655817E+03  0.25500000920E-02 0. -1.
</event>
<event>
 5   0  0.1647550E-03  0.1193046E+04  0.7818609E-02  0.9118965E-01
        2   -1    0    0  501    0  0.00000000000E+00  0.00000000000E+00  0.98019331115E+03  0.98019331116E+03  0.25500000920E-02 0. -1.
       -2   -1    0    0    0  501  0.00000000000E+00  0.00000000000E+00 -0.36302994654E+03  0.36302994655E+03  0.25500000920E-02 0.  1.
    10030    2    1    2    0    0  0.00000000000E+00  0.00000000000E+00  0.61716336461E+03  0.13432232577E+04  0.11930457248E+04 0.  0.
        3    1    3    3  502    0  0.23743516877E+03 -0.55257579033E+02  0.92154998922E+03  0.95324878822E+03  0.10100000352E+00 0. -1.
       -3    1    3    3    0  502 -0.23743516877E+03  0.55257579033E+02 -0.30438662460E+03  0.38997446949E+03  0.10100000352E+00 0.  1.
</event>
<event>
 5   0  0.1567019E-03  0.1199978E+04  0.7818609E-02  0.9112876E-01
        2   -1    0    0  501    0  0.00000000000E+00  0.00000000000E+00  0.68252831550E+03  0.68252831550E+03  0.25500000920E-02 0.  1.
       -2   -1    0    0    0  501  0.00000000000E+00  0.00000000000E+00 -0.52743131757E+03  0.52743131758E+03  0.25500000920E-02 0. -1.
    10030    2    1    2    0    0  0.00000000000E+00  0.00000000000E+00  0.15509699792E+03  0.12099596331E+04  0.11999780143E+04 0.  0.
        5    1    3    3  502    0  0.56583896037E+02  0.11741959339E+03 -0.51296416758E+03  0.52928576914E+03  0.46999998093E+01 0. -1.
       -5    1    3    3    0  502 -0.56583896037E+02 -0.11741959339E+03  0.66806116550E+03  0.68067386394E+03  0.46999998093E+01 0.  1.
</event>
<event>
 5   0  0.9358428E-04  0.1177909E+04  0.7818609E-02  0.9132416E-01
        1   -1    0    0  501    0  0.00000000000E+00  0.00000000000E+00  0.12362223140E+04  0.12362223140E+04  0.50400001928E-02 0. -1.
       -1   -1    0    0    0  501  0.00000000000E+00  0.00000000000E+00 -0.28058645116E+03  0.28058645121E+03  0.50400001928E-02 0.  1.
    10030    2    1    2    0    0  0.00000000000E+00  0.00000000000E+00  0.95563586280E+03  0.15168087652E+04  0.11779087095E+04 0.  0.
        2    1    3    3  502    0  0.98947888275E+01 -0.58794893971E+03  0.43539428589E+03  0.73167618982E+03  0.25500000920E-02 0.  1.
       -2    1    3    3    0  502 -0.98947888275E+01  0.58794893971E+03  0.52024157691E+03  0.78513257537E+03  0.25500000920E-02 0. -1.
</event>
<event>
 5   0  0.1647550E-03  0.1201002E+04  0.7818609E-02  0.9111980E-01
       -2   -1    0    0    0  501  0.00000000000E+00  0.00000000000E+00  0.23772123837E+03  0.23772123838E+03  0.25500000920E-02 0. -1.
        2   -1    0    0  501    0  0.00000000000E+00  0.00000000000E+00 -0.15169096230E+04  0.15169096230E+04  0.25500000920E-02 0.  1.
    10030    2    1    2    0    0  0.00000000000E+00  0.00000000000E+00 -0.12791883846E+04  0.17546308613E+04  0.12010023049E+04 0.  0.
        3    1    3    3  502    0  0.17691336242E+03  0.55026514852E+03 -0.40171333105E+03  0.70389181131E+03  0.10100000352E+00 0. -1.
       -3    1    3    3    0  502 -0.17691336242E+03 -0.55026514852E+03 -0.87747505354E+03  0.10507390500E+04  0.10100000352E+00 0.  1.
</event>
<event>
 5   0  0.1597352E-03  0.1198166E+04  0.7818609E-02  0.9114463E-01
       -2   -1    0    0    0  501  0.00000000000E+00  0.00000000000E+00  0.69063218115E+03  0.69063218116E+03  0.25500000920E-02 0.  1.
        2   -1    0    0  501    0  0.00000000000E+00  0.00000000000E+00 -0.51966944953E+03  0.51966944954E+03  0.25500000920E-02 0. -1.
    10030    2    1    2    0    0  0.00000000000E+00  0.00000000000E+00  0.17096273162E+03  0.12103016307E+04  0.11981660076E+04 0.  0.
        1    1    3    3  502    0  0.45147232956E+03  0.39314865490E+03  0.10823317736E+03  0.60836465209E+03  0.50400001928E-02 0. -1.
       -1    1    3    3    0  502 -0.45147232956E+03 -0.39314865490E+03  0.62729554262E+02  0.60193697860E+03  0.50400001928E-02 0.  1.
</event>
<event>
 5   0  0.9208078E-04  0.1197561E+04  0.7818609E-02  0.9114994E-01
        1   -1    0    0  501    0  0.00000000000E+00  0.00000000000E+00  0.47674924524E+03  0.47674924526E+03  0.50400001928E-02 0.  1.
       -1   -1    0    0    0  501  0.00000000000E+00  0.00000000000E+00 -0.75204734927E+03  0.75204734928E+03  0.50400001928E-02 0. -1.
    10030    2    1    2    0    0  0.00000000000E+00  0.00000000000E+00 -0.27529810403E+03  0.12287965945E+04  0.11975608647E+04 0.  0.
        3    1    3    3  502    0 -0.56470462911E+03  0.84052099008E+02  0.47563645463E+02  0.57290346836E+03  0.10100000352E+00 0.  1.
       -3    1    3    3    0  502  0.56470462911E+03 -0.84052099008E+02 -0.32286174949E+03  0.65589312618E+03  0.10100000352E+00 0. -1.
</event>
<event>
 5   0  0.1647550E-03  0.1201375E+04  0.7818609E-02  0.9111654E-01
        2   -1    0    0  501    0  0.00000000000E+00  0.00000000000E+00  0.45466713784E+03  0.45466713785E+03  0.25500000920E-02 0.  1.
       -2   -1    0    0    0  501  0.00000000000E+00  0.00000000000E+00 -0.79360405918E+03  0.79360405919E+03  0.25500000920E-02 0. -1.
    10030    2    1    2    0    0  0.00000000000E+00  0.00000000000E+00 -0.33893692134E+03  0.12482711970E+04  0.12013753555E+04 0.  0.
        3    1    3    3  502    0  0.11408576447E+03 -0.20725802190E+03  0.40422029952E+03  0.46836471904E+03  0.10100000352E+00 0.  1.
       -3    1    3    3    0  502 -0.11408576447E+03  0.20725802190E+03 -0.74315722086E+03  0.77990647799E+03  0.10100000352E+00 0. -1.
</event>
<event>
 5   0  0.8908478E-04  0.1210060E+04  0.7818609E-02  0.9104096E-01
       -1   -1    0    0    0  501  0.00000000000E+00  0.00000000000E+00  0.23327626609E+03  0.23327626614E+03  0.50400001928E-02 0. -1.
        1   -1    0    0  501    0  0.00000000000E+00  0.00000000000E+00 -0.15692179793E+04  0.15692179793E+04  0.50400001928E-02 0.  1.
    10030    2    1    2    0    0  0.00000000000E+00  0.00000000000E+00 -0.13359417132E+04  0.18024942455E+04  0.12100600166E+04 0.  0.
        4    1    3    3  502    0  0.15315543742E+03  0.68003190074E+01 -0.15398038775E+04  0.15474173408E+04  0.12699999809E+01 0.  1.
       -4    1    3    3    0  502 -0.15315543742E+03 -0.68003190074E+01  0.20386216433E+03  0.25507690467E+03  0.12699999809E+01 0. -1.
</event>
<event>
 5   0  0.9169078E-04  0.1199166E+04  0.7818609E-02  0.9113587E-01
        1   -1    0    0  501    0  0.00000000000E+00  0.00000000000E+00  0.10728795980E+04  0.10728795980E+04  0.50400001928E-02 0. -1.
       -1   -1    0    0    0  501  0.00000000000E+00  0.00000000000E+00 -0.33507953908E+03  0.33507953912E+03  0.50400001928E-02 0.  1.
    10030    2    1    2    0    0  0.00000000000E+00  0.00000000000E+00  0.73780005891E+03  0.14079591371E+04  0.11991663791E+04 0.  0.
        1    1    3    3  502    0  0.10792193661E+03 -0.58213736759E+03  0.48009399417E+03  0.76224753355E+03  0.50400001928E-02 0. -1.
       -1    1    3    3    0  502 -0.10792193661E+03  0.58213736759E+03  0.25770606474E+03  0.64571160356E+03  0.50400001928E-02 0.  1.
</event>
<event>
 5   0  0.9208078E-04  0.1204748E+04  0.7818609E-02  0.9108710E-01
       -1   -1    0    0    0  501  0.00000000000E+00  0.00000000000E+00  0.34943783949E+03  0.34943783953E+03  0.50400001928E-02 0. -1.
        1   -1    0    0  501    0  0.00000000000E+00  0.00000000000E+00 -0.10383956343E+04  0.10383956343E+04  0.50400001928E-02 0.  1.
    10030    2    1    2    0    0  0.00000000000E+00  0.00000000000E+00 -0.68895779478E+03  0.13878334738E+04  0.12047484833E+04 0.  0.
        3    1    3    3  502    0 -0.11061700180E+03  0.34423550124E+03  0.21052717282E+03  0.41839682372E+03  0.10100000352E+00 0. -1.
       -3    1    3    3    0  502  0.11061700180E+03 -0.34423550124E+03 -0.89948496760E+03  0.96943665009E+03  0.10100000352E+00 0.  1.
</event>
<event>
 5   0  0.1551501E-03  0.1205084E+04  0.7818609E-02  0.9108418E-01
       -2   -1    0    0    0  501  0.00000000000E+00  0.00000000000E+00  0.10477790089E+03  0.10477790092E+03  0.25500000920E-02 0. -1.
        2   -1    0    0  501    0  0.00000000000E+00  0.00000000000E+00 -0.34650163217E+04  0.34650163217E+04  0.25500000920E-02 0.  1.
    10030    2    1    2    0    0  0.00000000000E+00  0.00000000000E+00 -0.33602384208E+04  0.35697942226E+04  0.12050844564E+04 0.  0.
        4    1    3    3  502    0 -0.55840703117E+03 -0.11689574508E+02 -0.10104842416E+04  0.11545713811E+04  0.12699999809E+01 0. -1.
       -4    1    3    3    0  502  0.55840703117E+03  0.11689574508E+02 -0.23497541792E+04  0.24152228415E+04  0.12699999809E+01 0.  1.
</event>
<event>
 5   0  0.1551501E-03  0.1195276E+04  0.7818609E-02  0.9117002E-01
        2   -1    0    0  501    0  0.00000000000E+00  0.00000000000E+00  0.12923896030E+04  0.12923896030E+04  0.25500000920E-02 0.  1.
       -2   -1    0    0    0  501  0.00000000000E+00  0.00000000000E+00 -0.27636483731E+03  0.27636483732E+03  0.25500000920E-02 0. -1.
    10030    2    1    2    0    0  0.00000000000E+00  0.00000000000E+00  0.10160247657E+04  0.15687544403E+04  0.11952757713E+04 0.  0.
        4    1    3    3  502    0  0.24952416951E+03  0.41190477211E+03  0.43538695998E+02  0.48355463332E+03  0.12699999809E+01 0. -1.
       -4    1    3    3    0  502 -0.24952416951E+03 -0.41190477211E+03  0.97248606968E+03  0.10851998070E+04  0.12699999809E+01 0.  1.
</event>
<event>
 5   0  0.6137750E-04  0.1187713E+04  0.7818609E-02  0.9123680E-01
       -4   -1    0    0    0  501  0.00000000000E+00  0.00000000000E+00  0.23093822938E+03  0.23094172141E+03  0.12699999809E+01 0.  1.
        4   -1    0    0  501    0  0.00000000000E+00  0.00000000000E+00 -0.15270829446E+04  0.15270834727E+04  0.12699999809E+01 0. -1.
    10030    2    1    2    0    0  0.00000000000E+00  0.00000000000E+00 -0.12961447152E+04  0.17580251941E+04  0.11877127011E+04 0.  0.
        4    1    3    3  502    0  0.47001082496E+02 -0.21102429055E+03  0.17061869112E+03  0.27541369541E+03  0.12699999809E+01 0.  1.
       -4    1    3    3    0  502 -0.47001082496E+02  0.21102429055E+03 -0.14667634063E+04  0.14826114987E+04  0.12699999809E+01 0. -1.
</event>
<event>
 5   0  0.9208078E-04  0.1195303E+04  0.7818609E-02  0.9116977E-01
        1   -1    0    0  501    0  0.00000000000E+00  0.00000000000E+00  0.19657457236E+04  0.19657457236E+04  0.50400001928E-02 0.  1.
       -1   -1    0    0    0  501  0.00000000000E+00  0.00000000000E+00 -0.18170590006E+03  0.18170590013E+03  0.50400001928E-02 0. -1.
    10030    2    1    2    0    0  0.00000000000E+00  0.00000000000E+00  0.17840398235E+04  0.21474516237E+04  0.11953034695E+04 0.  0.
        3    1    3    3  502    0  0.34212356724E+03 -0.46677009413E+03  0.11600934360E+04  0.12964334331E+04  0.10100000352E+00 0.  1.
       -3    1    3    3    0  502 -0.34212356724E+03  0.46677009413E+03  0.62394638752E+03  0.85101819060E+03  0.10100000352E+00 0. -1.
</event>
<event>
 5   0  0.9170776E-04  0.1210850E+04  0.7818609E-02  0.9103412E-01
        1   -1    0    0  501    0  0.00000000000E+00  0.00000000000E+00  0.11021550222E+04  0.11021550222E+04  0.50400001928E-02 0. -1.
       -1   -1    0    0    0  501  0.00000000000E+00  0.00000000000E+00 -0.33256596591E+03  0.33256596594E+03  0.50400001928E-02 0.  1.
    10030    2    1    2    0    0  0.00000000000E+00  0.00000000000E+00  0.76958905631E+03  0.14347209882E+04  0.12108497010E+04 0.  0.
        5    1    3    3  502    0  0.12708650135E+03  0.73659108907E+01  0.10860958748E+04  0.10935408427E+04  0.46999998093E+01 0. -1.
       -5    1    3    3    0  502 -0.12708650135E+03 -0.73659108907E+01 -0.31650681851E+03  0.34118014542E+03  0.46999998093E+01 0.  1.
</event>
<event>
 5   0  0.1537557E-03  0.1200204E+04  0.7818609E-02  0.9112678E-01
        2   -1    0    0  501    0  0.00000000000E+00  0.00000000000E+00  0.86109859255E+03  0.86109859256E+03  0.25500000920E-02 0. -1.
       -2   -1    0    0    0  501  0.00000000000E+00  0.00000000000E+00 -0.41821261174E+03  0.41821261174E+03  0.25500000920E-02 0.  1.
    10030    2    1    2    0    0  0.00000000000E+00  0.00000000000E+00  0.44288598082E+03  0.12793112043E+04  0.12002038016E+04 0.  0.
        2    1    3    3  502    0 -0.31126926093E+03 -0.17580750285E+03 -0.29232803568E+03  0.46179271465E+03  0.25500000920E-02 0.  1.
       -2    1    3    3    0  502  0.31126926093E+03  0.17580750285E+03  0.73521401650E+03  0.81751848965E+03  0.25500000920E-02 0. -1.
</event>
<event>
 5   0  0.1647550E-03  0.1199527E+04  0.7818609E-02  0.9113270E-01
       -2   -1    0    0    0  501  0.00000000000E+00  0.00000000000E+00  0.44118526327E+03  0.44118526327E+03  0.25500000920E-02 0.  1.
        2   -1    0    0  501    0  0.00000000000E+00  0.00000000000E+00 -0.81534107208E+03  0.81534107209E+03  0.25500000920E-02 0. -1.
    10030    2    1    2    0    0  0.00000000000E+00  0.00000000000E+00 -0.37415580882E+03  0.12565263354E+04  0.11995273495E+04 0.  0.
        3    1    3    3  502    0  0.34274617271E+03 -0.47961716626E+03 -0.30282218400E+03  0.66272833831E+03  0.10100000352E+00 0.  1.
       -3    1    3    3    0  502 -0.34274617271E+03  0.47961716626E+03 -0.71333624819E+02  0.59379799705E+03  0.10100000352E+00 0. -1.
</event>
<event>
 5   0  0.1597352E-03  0.1179906E+04  0.7818609E-02  0.9130629E-01
       -2   -1    0    0    0  501  0.00000000000E+00  0.00000000000E+00  0.24345216062E+03  0.24345216063E+03  0.25500000920E-02 0.  1.
        2   -1    0    0  501    0  0.00000000000E+00  0.00000000000E+00 -0.14296214616E+04  0.14296214616E+04  0.25500000920E-02 0. -1.
    10030    2    1    2    0    0  0.00000000000E+00  0.00000000000E+00 -0.11861693009E+04  0.16730736222E+04  0.11799058161E+04 0.  0.
        1    1    3    3  502    0  0.48123657022E+02  0.35910036220E+03  0.67111192962E+02  0.36847370156E+03  0.50400001928E-02 0.  1.
       -1    1    3    3    0  502 -0.48123657022E+02 -0.35910036220E+03 -0.12532804939E+04  0.13045999206E+04  0.50400001928E-02 0. -1.
</event>
<event>
 5   0  0.1537557E-03  0.1238747E+04  0.7818609E-02  0.9079601E-01
       -2   -1    0    0    0  501  0.00000000000E+00  0.00000000000E+00  0.37983392010E+03  0.37983392011E+03  0.25500000920E-02 0. -1.
        2   -1    0    0  501    0  0.00000000000E+00  0.00000000000E+00 -0.10099777441E+04  0.10099777441E+04  0.25500000920E-02 0.  1.
    10030    2    1    2    0    0  0.00000000000E+00  0.00000000000E+00 -0.63014382398E+03  0.13898116642E+04  0.12387474412E+04 0.  0.
        2    1    3    3  502    0 -0.17665979066E+03 -0.47165179436E+03  0.89389922147E+02  0.51152190075E+03  0.25500000920E-02 0. -1.
       -2    1    3    3    0  502  0.17665979066E+03  0.47165179436E+03 -0.71953374613E+03  0.87828976345E+03  0.25500000920E-02 0.  1.
</event>
<event>
 5   0  0.1647550E-03  0.1192550E+04  0.7818609E-02  0.9119402E-01
       -2   -1    0    0    0  501  0.00000000000E+00  0.00000000000E+00  0.19396719810E+03  0.19396719812E+03  0.25500000920E-02 0.  1.
        2   -1    0    0  501    0  0.00000000000E+00  0.00000000000E+00 -0.18330112966E+04  0.18330112966E+04  0.25500000920E-02 0. -1.
    10030    2    1    2    0    0  0.00000000000E+00  0.00000000000E+00 -0.16390440985E+04  0.20269784947E+04  0.11925503181E+04 0.  0.
        3    1    3    3  502    0  0.33161186766E+03  0.20714323210E+03 -0.54337101339E+02  0.39474964238E+03  0.10100000352E+00 0.  1.
       -3    1    3    3    0  502 -0.33161186766E+03 -0.20714323210E+03 -0.15847069971E+04  0.16322288523E+04  0.10100000352E+00 0. -1.
</event>
<event>
 5   0  0.9208078E-04  0.1126020E+04  0.7818609E-02  0.9180196E-01
       -1   -1    0    0    0  501  0.00000000000E+00  0.00000000000E+00  0.84875901279E+03  0.84875901280E+03  0.50400001928E-02 0. -1.
        1   -1    0    0  501    0  0.00000000000E+00  0.00000000000E+00 -0.37346317010E+03  0.37346317013E+03  0.50400001928E-02 0.  1.
    10030    2    1    2    0    0  0.00000000000E+00  0.00000000000E+00  0.47529584269E+03  0.12222221829E+04  0.11260199494E+04 0.  0.
        3    1    3    3  502    0 -0.16821699619E+03 -0.51010773872E+02 -0.34291421662E+03  0.38534299918E+03  0.10100000352E+00 0.  1.
       -3    1    3    3    0  502  0.16821699619E+03  0.51010773872E+02  0.81821005930E+03  0.83687918376E+03  0.10100000352E+00 0. -1.
</event>
<event>
 5   0  0.1567019E-03  0.1224073E+04  0.7818609E-02  0.9092043E-01
       -2   -1    0    0    0  501  0.00000000000E+00  0.00000000000E+00  0.23190446104E+03  0.23190446105E+03  0.25500000920E-02 0.  1.
        2   -1    0    0  501    0  0.00000000000E+00  0.00000000000E+00 -0.16152706710E+04  0.16152706710E+04  0.25500000920E-02 0. -1.
    10030    2    1    2    0    0  0.00000000000E+00  0.00000000000E+00 -0.13833662099E+04  0.18471751320E+04  0.12240726684E+04 0.  0.
        5    1    3    3  502    0  0.37714575780E+03  0.47070758762E+03 -0.84822980252E+03  0.10408268077E+04  0.46999998093E+01 0. -1.
       -5    1    3    3    0  502 -0.37714575780E+03 -0.47070758762E+03 -0.53513640742E+03  0.80634832437E+03  0.46999998093E+01 0.  1.
</event>
<event>
 5   0  0.9170776E-04  0.1213402E+04  0.7818609E-02  0.9101206E-01
       -1   -1    0    0    0  501  0.00000000000E+00  0.00000000000E+00  0.17131674227E+04  0.17131674227E+04  0.50400001928E-02 0. -1.
        1   -1    0    0  501    0  0.00000000000E+00  0.00000000000E+00 -0.21485689272E+03  0.21485689278E+03  0.50400001928E-02 0.  1.
    10030    2    1    2    0    0  0.00000000000E+00  0.00000000000E+00  0.14983105300E+04  0.19280243155E+04  0.12134015481E+04 0.  0.
        5    1    3    3  502    0 -0.25745987156E+02  0.62952713438E+02 -0.20875104251E+03  0.21960188463E+03  0.46999998093E+01 0.  1.
       -5    1    3    3    0  502  0.25745987156E+02 -0.62952713438E+02  0.17070615725E+04  0.17084224308E+04  0.46999998093E+01 0. -1.
</event>
<event>
 5   0  0.9208078E-04  0.1198272E+04  0.7818609E-02  0.9114371E-01
       -1   -1    0    0    0  501  0.00000000000E+00  0.00000000000E+00  0.35388466800E+03  0.35388466804E+03  0.50400001928E-02 0.  1.
        1   -1    0    0  501    0  0.00000000000E+00  0.00000000000E+00 -0.10143522056E+04  0.10143522056E+04  0.50400001928E-02 0. -1.
    10030    2    1    2    0    0  0.00000000000E+00  0.00000000000E+00 -0.66046753763E+03  0.13682368737E+04  0.11982715778E+04 0.  0.
        3    1    3    3  502    0 -0.23427483445E+03  0.49474917058E+02 -0.95734441827E+03  0.98683373010E+03  0.10100000352E+00 0. -1.
       -3    1    3    3    0  502  0.23427483445E+03 -0.49474917058E+02  0.29687688064E+03  0.38140314358E+03  0.10100000352E+00 0.  1.
</event>
<event>
 5   0  0.1647550E-03  0.1200195E+04  0.7818609E-02  0.9112686E-01
       -2   -1    0    0    0  501  0.00000000000E+00  0.00000000000E+00  0.62665902242E+03  0.62665902243E+03  0.25500000920E-02 0.  1.
        2   -1    0    0  501    0  0.00000000000E+00  0.00000000000E+00 -0.57466191124E+03  0.57466191124E+03  0.25500000920E-02 0. -1.
    10030    2    1    2    0    0  0.00000000000E+00  0.00000000000E+00  0.51997111184E+02  0.12013209337E+04  0.12001951034E+04 0.  0.
        3    1    3    3  502    0 -0.15105613730E+03  0.73202372263E+02 -0.55068468161E+03  0.57569972440E+03  0.10100000352E+00 0. -1.
       -3    1    3    3    0  502  0.15105613730E+03 -0.73202372263E+02  0.60268179279E+03  0.62562120927E+03  0.10100000352E+00 0.  1.
</event>
<event>
 5   0  0.9169078E-04  0.1203103E+04  0.7818609E-02  0.9110145E-01
       -1   -1    0    0    0  501  0.00000000000E+00  0.00000000000E+00  0.32118940297E+03  0.32118940301E+03  0.50400001928E-02 0.  1.
        1   -1    0    0  501    0  0.00000000000E+00  0.00000000000E+00 -0.11266377363E+04  0.11266377363E+04  0.50400001928E-02 0. -1.
    10030    2    1    2    0    0  0.00000000000E+00  0.00000000000E+00 -0.80544833331E+03  0.14478271393E+04  0.12031028251E+04 0.  0.
        1    1    3    3  502    0 -0.55691787614E+01  0.23799022463E+03 -0.10675406467E+04  0.10937611235E+04  0.50400001928E-02 0. -1.
       -1    1    3    3    0  502  0.55691787614E+01 -0.23799022463E+03  0.26209231343E+03  0.35406601582E+03  0.50400001928E-02 0.  1.
</event>
<event>
 5   0  0.9208078E-04  0.1199059E+04  0.7818609E-02  0.9113680E-01
        1   -1    0    0  501    0  0.00000000000E+00  0.00000000000E+00  0.24263663106E+04  0.24263663106E+04  0.50400001928E-02 0.  1.
       -1   -1    0    0    0  501  0.00000000000E+00  0.00000000000E+00 -0.14813744156E+03  0.14813744165E+03  0.50400001928E-02 0. -1.
    10030    2    1    2    0    0  0.00000000000E+00  0.00000000000E+00  0.22782288690E+04  0.25745037522E+04  0.11990591272E+04 0.  0.
        3    1    3    3  502    0 -0.53781882773E+03  0.37512605443E+02  0.17022100200E+04  0.17855462048E+04  0.10100000352E+00 0.  1.
       -3    1    3    3    0  502  0.53781882773E+03 -0.37512605443E+02  0.57601884896E+03  0.78895754739E+03  0.10100000352E+00 0. -1.
</event>
<event>
 5   0  0.9358428E-04  0.1198013E+04  0.7818609E-02  0.9114597E-01
        1   -1    0    0  501    0  0.00000000000E+00  0.00000000000E+00  0.13906508758E+04  0.13906508759E+04  0.50400001928E-02 0.  1.
       -1   -1    0    0    0  501  0.00000000000E+00  0.00000000000E+00 -0.25801520292E+03  0.25801520297E+03  0.50400001928E-02 0. -1.
    10030    2    1    2    0    0  0.00000000000E+00  0.00000000000E+00  0.11326356729E+04  0.16486660788E+04  0.11980134690E+04 0.  0.
        2    1    3    3  502    0 -0.75201463276E+02  0.53081539156E+03  0.93401148473E+03  0.10769390389E+04  0.25500000920E-02 0.  1.
       -2    1    3    3    0  502  0.75201463276E+02 -0.53081539156E+03  0.19862418819E+03  0.57172703988E+03  0.25500000920E-02 0. -1.
</event>
<event>
 5   0  0.9170776E-04  0.1193904E+04  0.7818609E-02  0.9118210E-01
        1   -1    0    0  501    0  0.00000000000E+00  0.00000000000E+00  0.52281038338E+03  0.52281038340E+03  0.50400001928E-02 0. -1.
       -1   -1    0    0    0  501  0.00000000000E+00  0.00000000000E+00 -0.68160741731E+03  0.68160741733E+03  0.50400001928E-02 0.  1.
    10030    2    1    2    0    0  0.00000000000E+00  0.00000000000E+00 -0.15879703393E+03  0.12044178007E+04  0.11939035726E+04 0.  0.
        5    1    3    3  502    0 -0.50009152719E+03  0.77768911286E+02 -0.39871378275E+03  0.64430917243E+03  0.46999998093E+01 0.  1.
       -5    1    3    3    0  502  0.50009152719E+03 -0.77768911286E+02  0.23991674882E+03  0.56010862830E+03  0.46999998093E+01 0. -1.
</event>
<event>
 5   0  0.1551501E-03  0.1183491E+04  0.7818609E-02  0.9127430E-01
       -2   -1    0    0    0  501  0.00000000000E+00  0.00000000000E+00  0.48180852837E+03  0.48180852837E+03  0.25500000920E-02 0.  1.
        2   -1    0    0  501    0  0.00000000000E+00  0.00000000000E+00 -0.72676792154E+03  0.72676792154E+03  0.25500000920E-02 0. -1.
    10030    2    1    2    0    0  0.00000000000E+00  0.00000000000E+00 -0.24495939317E+03  0.12085764499E+04  0.11834914157E+04 0.  0.
        4    1    3    3  502    0  0.52715593289E+03 -0.10365405174E+03 -0.37577707582E+03  0.65562761049E+03  0.12699999809E+01 0. -1.
       -4    1    3    3    0  502 -0.52715593289E+03  0.10365405174E+03  0.13081768265E+03  0.55294883942E+03  0.12699999809E+01 0.  1.
</event>
<event>
 5   0  0.1597352E-03  0.1202485E+04  0.7818609E-02  0.9110684E-01
       -2   -1    0    0    0  501  0.00000000000E+00  0.00000000000E+00  0.20504279369E+03  0.20504279370E+03  0.25500000920E-02 0. -1.
        2   -1    0    0  501    0  0.00000000000E+00  0.00000000000E+00 -0.17630108089E+04  0.17630108089E+04  0.25500000920E-02 0.  1.
    10030    2    1    2    0    0  0.00000000000E+00  0.00000000000E+00 -0.15579680152E+04  0.19680536026E+04  0.12024851959E+04 0.  0.
        1    1    3    3  502    0  0.25251447785E+03  0.51196158589E+03 -0.47007457149E+03  0.73948517885E+03  0.50400001928E-02 0. -1.
       -1    1    3    3    0  502 -0.25251447785E+03 -0.51196158589E+03 -0.10878934438E+04  0.12285684238E+04  0.50400001928E-02 0.  1.
</event>
<event>
 5   0  0.8908478E-04  0.1269509E+04  0.7818609E-02  0.9054100E-01
       -1   -1    0    0    0  501  0.00000000000E+00  0.00000000000E+00  0.25546133259E+03  0.25546133264E+03  0.50400001928E-02 0.  1.
        1   -1    0    0  501    0  0.00000000000E+00  0.00000000000E+00 -0.15771987953E+04  0.15771987953E+04  0.50400001928E-02 0. -1.
    10030    2    1    2    0    0  0.00000000000E+00  0.00000000000E+00 -0.13217374627E+04  0.18326601279E+04  0.12695090485E+04 0.  0.
        4    1    3    3  502    0  0.15098221532E+03 -0.95384607899E+02 -0.15401817986E+04  0.15505016732E+04  0.12699999809E+01 0. -1.
       -4    1    3    3    0  502 -0.15098221532E+03  0.95384607899E+02  0.21844433597E+03  0.28215845474E+03  0.12699999809E+01 0.  1.
</event>
<event>
 5   0  0.1537557E-03  0.1193191E+04  0.7818609E-02  0.9118838E-01
       -2   -1    0    0    0  501  0.00000000000E+00  0.00000000000E+00  0.69265051632E+03  0.69265051633E+03  0.25500000920E-02 0. -1.
        2   -1    0    0  501    0  0.00000000000E+00  0.00000000000E+00 -0.51386101047E+03  0.51386101048E+03  0.25500000920E-02 0.  1.
    10030    2    1    2    0    0  0.00000000000E+00  0.00000000000E+00  0.17878950585E+03  0.12065115268E+04  0.11931908384E+04 0.  0.
        2    1    3    3  502    0 -0.59046901000E+03 -0.27912577926E+02  0.17087555918E+03  0.61533017194E+03  0.25500000920E-02 0. -1.
       -2    1    3    3    0  502  0.59046901000E+03  0.27912577926E+02  0.79139466751E+01  0.59118135486E+03  0.25500000920E-02 0.  1.
</event>
<event>
 5   0  0.9170776E-04  0.1197277E+04  0.7818609E-02  0.9115243E-01
        1   -1    0    0  501    0  0.00000000000E+00  0.00000000000E+00  0.35101266442E+03  0.35101266446E+03  0.50400001928E-02 0.  1.
       -1   -1    0    0    0  501  0.00000000000E+00  0.00000000000E+00 -0.10209554118E+04  0.10209554118E+04  0.50400001928E-02 0. -1.
    10030    2    1    2    0    0  0.00000000000E+00  0.00000000000E+00 -0.66994274736E+03  0.13719680763E+04  0.11972773770E+04 0.  0.
        5    1    3    3  502    0  0.30668151580E+03  0.18838714689E+03 -0.88309687901E+03  0.95363801149E+03  0.46999998093E+01 0. -1.
       -5    1    3    3    0  502 -0.30668151580E+03 -0.18838714689E+03  0.21315413165E+03  0.41833006476E+03  0.46999998093E+01 0.  1.
</event>
<event>
 5   0  0.1537557E-03  0.1208758E+04  0.7818609E-02  0.9105225E-01
       -2   -1    0    0    0  501  0.00000000000E+00  0.00000000000E+00  0.22101538059E+03  0.22101538061E+03  0.25500000920E-02 0.  1.
        2   -1    0    0  501    0  0.00000000000E+00  0.00000000000E+00 -0.16527096200E+04  0.16527096200E+04  0.25500000920E-02 0. -1.
    10030    2    1    2    0    0  0.00000000000E+00  0.00000000000E+00 -0.14316942394E+04  0.18737250006E+04  0.12087584468E+04 0.  0.
        2    1    3    3  502    0  0.16343649059E+03 -0.24767447943E+03 -0.15320134910E+04  0.15604869339E+04  0.25500000920E-02 0. -1.
       -2    1    3    3    0  502 -0.16343649059E+03  0.24767447943E+03  0.10031925157E+03  0.31323806675E+03  0.25500000920E-02 0.  1.
</event>
<event>
 5   0  0.9358428E-04  0.1210524E+04  0.7818609E-02  0.9103695E-01
        1   -1    0    0  501    0  0.00000000000E+00  0.00000000000E+00  0.18178450253E+04  0.18178450254E+04  0.50400001928E-02 0. -1.
       -1   -1    0    0    0  501  0.00000000000E+00  0.00000000000E+00 -0.20152535126E+03  0.20152535133E+03  0.50400001928E-02 0.  1.
    10030    2    1    2    0    0  0.00000000000E+00  0.00000000000E+00  0.16163196741E+04  0.20193703767E+04  0.12105236179E+04 0.  0.
        2    1    3    3  502    0 -0.53142086803E+03  0.86157925693E+02  0.12695871732E+04  0.13790151984E+04  0.25500000920E-02 0. -1.
       -2    1    3    3    0  502  0.53142086803E+03 -0.86157925693E+02  0.34673250089E+03  0.64035517826E+03  0.25500000920E-02 0.  1.
</event>
<event>
 5   0  0.9358428E-04  0.1207815E+04  0.7818609E-02  0.9106043E-01
        1   -1    0    0  501    0  0.00000000000E+00  0.00000000000E+00  0.78751632341E+03  0.78751632342E+03  0.50400001928E-02 0.  1.
       -1   -1    0    0    0  501  0.00000000000E+00  0.00000000000E+00 -0.46310689784E+03  0.46310689786E+03  0.50400001928E-02 0. -1.
    10030    2    1    2    0    0  0.00000000000E+00  0.00000000000E+00  0.32440942557E+03  0.12506232213E+04  0.12078149553E+04 0.  0.
        2    1    3    3  502    0  0.22574638331E+03  0.37525869874E+03 -0.26837480951E+03  0.51362005310E+03  0.25500000920E-02 0. -1.
       -2    1    3    3    0  502 -0.22574638331E+03 -0.37525869874E+03  0.59278423508E+03  0.73700316819E+03  0.25500000920E-02 0.  1.
</event>
<event>
 5   0  0.9358428E-04  0.1194798E+04  0.7818609E-02  0.9117422E-01
       -1   -1    0    0    0  501  0.00000000000E+00  0.00000000000E+00  0.42088272831E+03  0.42088272834E+03  0.50400001928E-02 0. -1.
        1   -1    0    0  501    0  0.00000000000E+00  0.00000000000E+00 -0.84794544957E+03  0.84794544959E+03  0.50400001928E-02 0.  1.
    10030    2    1    2    0    0  0.00000000000E+00  0.00000000000E+00 -0.42706272126E+03  0.12688281779E+04  0.11947980487E+04 0.  0.
        2    1    3    3  502    0 -0.41645778572E+03 -0.20870908750E+03 -0.61072302892E+03  0.76810102757E+03  0.25500000920E-02 0.  1.
       -2    1    3    3    0  502  0.41645778572E+03  0.20870908750E+03  0.18366030766E+03  0.50072715036E+03  0.25500000920E-02 0. -1.
</event>
<event>
 5   0  0.1537557E-03  0.1200986E+04  0.7818609E-02  0.9111994E-01
       -2   -1    0    0    0  501  0.00000000000E+00  0.00000000000E+00  0.22876422379E+03  0.22876422380E+03  0.25500000920E-02 0. -1.
        2   -1    0    0  501    0  0.00000000000E+00  0.00000000000E+00 -0.15762609158E+04  0.15762609158E+04  0.25500000920E-02 0.  1.
    10030    2    1    2    0    0  0.00000000000E+00  0.00000000000E+00 -0.13474966920E+04  0.18050251396E+04  0.12009864361E+04 0.  0.
        2    1    3    3  502    0 -0.49829217444E+03 -0.30930907369E+03 -0.47996126836E+03  0.75784563950E+03  0.25500000920E-02 0. -1.
       -2    1    3    3    0  502  0.49829217444E+03  0.30930907369E+03 -0.86753542369E+03  0.10471795001E+04  0.25500000920E-02 0.  1.
</event>
<event>
 5   0  0.9170776E-04  0.1214608E+04  0.7818609E-02  0.9100165E-01
        1   -1    0    0  501    0  0.00000000000E+00  0.00000000000E+00  0.26541041237E+03  0.26541041242E+03  0.50400001928E-02 0. -1.
       -1   -1    0    0    0  501  0.00000000000E+00  0.00000000000E+00 -0.13896151065E+04  0.13896151065E+04  0.50400001928E-02 0.  1.
    10030    2    1    2    0    0  0.00000000000E+00  0.00000000000E+00 -0.11242046941E+04  0.16550255189E+04  0.12146082800E+04 0.  0.
        5    1    3    3  502    0  0.14405088774E+03  0.14732094036E+03  0.21630157638E+03  0.29876843821E+03  0.46999998093E+01 0. -1.
       -5    1    3    3    0  502 -0.14405088774E+03 -0.14732094036E+03 -0.13405062705E+04  0.13562570807E+04  0.46999998093E+01 0.  1.
</event>
<event>
 5   0  0.1567019E-03  0.1206461E+04  0.7818609E-02  0.9107220E-01
        2   -1    0    0  501    0  0.00000000000E+00  0.00000000000E+00  0.10782843494E+04  0.10782843494E+04  0.25500000920E-02 0. -1.
       -2   -1    0    0    0  501  0.00000000000E+00  0.00000000000E+00 -0.33746866666E+03  0.33746866667E+03  0.25500000920E-02 0.  1.
    10030    2    1    2    0    0  0.00000000000E+00  0.00000000000E+00  0.74081568272E+03  0.14157530160E+04  0.12064612413E+04 0.  0.
        5    1    3    3  502    0 -0.24365130304E+03 -0.51209449488E+03  0.12917832098E+03  0.58164925666E+03  0.46999998093E+01 0.  1.
       -5    1    3    3    0  502  0.24365130304E+03  0.51209449488E+03  0.61163736173E+03  0.83410375939E+03  0.46999998093E+01 0. -1.
</event>
<event>
 5   0  0.1567019E-03  0.1200834E+04  0.7818609E-02  0.9112127E-01
       -2   -1    0    0    0  501  0.00000000000E+00  0.00000000000E+00  0.48307403640E+03  0.48307403640E+03  0.25500000920E-02 0.  1.
        2   -1    0    0  501    0  0.00000000000E+00  0.00000000000E+00 -0.74626379964E+03  0.74626379964E+03  0.25500000920E-02 0. -1.
    10030    2    1    2    0    0  0.00000000000E+00  0.00000000000E+00 -0.26318976324E+03  0.12293378360E+04  0.12008341533E+04 0.  0.
        5    1    3    3  502    0 -0.39114020588E+03 -0.22526288998E+03 -0.53690219078E+03  0.70144143214E+03  0.46999998093E+01 0. -1.
       -5    1    3    3    0  502  0.39114020588E+03  0.22526288998E+03  0.27371242754E+03  0.52789640390E+03  0.46999998093E+01 0.  1.
</event>
<event>
 5   0  0.1551501E-03  0.1199543E+04  0.7818609E-02  0.9113257E-01
        2   -1    0    0  501    0  0.00000000000E+00  0.00000000000E+00  0.98384846343E+03  0.98384846344E+03  0.25500000920E-02 0.  1.
       -2   -1    0    0    0  501  0.00000000000E+00  0.00000000000E+00 -0.36563132325E+03  0.36563132326E+03  0.25500000920E-02 0. -1.
    10030    2    1    2    0    0  0.00000000000E+00  0.00000000000E+00  0.61821714018E+03  0.13494797867E+04  0.11995429389E+04 0.  0.
        4    1    3    3  502    0  0.14442924656E+03 -0.27878246859E+02 -0.34502275739E+03  0.37507241958E+03  0.12699999809E+01 0. -1.
       -4    1    3    3    0  502 -0.14442924656E+03  0.27878246859E+02  0.96323989758E+03  0.97440736712E+03  0.12699999809E+01 0.  1.
</event>
<event>
 5   0  0.8908478E-04  0.1198278E+04  0.7818609E-02  0.9114366E-01
        1   -1    0    0  501    0  0.00000000000E+00  0.00000000000E+00  0.17313625046E+04  0.17313625046E+04  0.50400001928E-02 0.  1.
       -1   -1    0    0    0  501  0.00000000000E+00  0.00000000000E+00 -0.20733223457E+03  0.20733223463E+03  0.50400001928E-02 0. -1.
    10030    2    1    2    0    0  0.00000000000E+00  0.00000000000E+00  0.15240302700E+04  0.19386947392E+04  0.11982775254E+04 0.  0.
        4    1    3    3  502    0  0.50941648402E+03  0.30766705746E+03  0.87412380554E+03  0.10574772871E+04  0.12699999809E+01 0.  1.
       -4    1    3    3    0  502 -0.50941648402E+03 -0.30766705746E+03  0.64990646446E+03  0.88121745210E+03  0.12699999809E+01 0. -1.
</event>
<event>
 5   0  0.9358428E-04  0.1197679E+04  0.7818609E-02  0.9114891E-01
        1   -1    0    0  501    0  0.00000000000E+00  0.00000000000E+00  0.11815918999E+04  0.11815919000E+04  0.50400001928E-02 0.  1.
       -1   -1    0    0    0  501  0.00000000000E+00  0.00000000000E+00 -0.30349624460E+03  0.30349624464E+03  0.50400001928E-02 0. -1.
    10030    2    1    2    0    0  0.00000000000E+00  0.00000000000E+00  0.87809565534E+03  0.14850881446E+04  0.11976789291E+04 0.  0.
        2    1    3    3  502    0 -0.47687618278E+03 -0.35540494355E+03  0.35238154217E+03  0.69130045484E+03  0.25500000920E-02 0. -1.
       -2    1    3    3    0  502  0.47687618278E+03  0.35540494355E+03  0.52571411318E+03  0.79378768975E+03  0.25500000920E-02 0.  1.
</event>
<event>
 5   0  0.6137750E-04  0.1202541E+04  0.7818609E-02  0.9110635E-01
        3   -1    0    0  501    0  0.00000000000E+00  0.00000000000E+00  0.84658320558E+03  0.84658321160E+03  0.10100000352E+00 0. -1.
       -3   -1    0    0    0  501  0.00000000000E+00  0.00000000000E+00 -0.42704140617E+03  0.42704141811E+03  0.10100000352E+00 0.  1.
    10030    2    1    2    0    0  0.00000000000E+00  0.00000000000E+00  0.41954179941E+03  0.12736246297E+04  0.12025408001E+04 0.  0.
        5    1    3    3  502    0 -0.44566983269E+03 -0.39094520552E+03  0.10362569069E+03  0.60184726240E+03  0.46999998093E+01 0. -1.
       -5    1    3    3    0  502  0.44566983269E+03  0.39094520552E+03  0.31591610872E+03  0.67177736731E+03  0.46999998093E+01 0.  1.
</event>
<event>
 5   0  0.1537557E-03  0.1200959E+04  0.7818609E-02  0.9112018E-01
       -2   -1    0    0    0  501  0.00000000000E+00  0.00000000000E+00  0.33621949798E+03  0.33621949799E+03  0.25500000920E-02 0. -1.
        2   -1    0    0  501    0  0.00000000000E+00  0.00000000000E+00 -0.10724405237E+04  0.10724405237E+04  0.25500000920E-02 0.  1.
    10030    2    1    2    0    0  0.00000000000E+00  0.00000000000E+00 -0.73622102576E+03  0.14086600217E+04  0.12009586413E+04 0.  0.
        2    1    3    3  502    0 -0.44205765395E+02 -0.49400410171E+03 -0.76515104516E+03  0.91183897928E+03  0.25500000920E-02 0. -1.
       -2    1    3    3    0  502  0.44205765395E+02  0.49400410171E+03  0.28930019405E+02  0.49682104246E+03  0.25500000920E-02 0.  1.
</event>
<event>
 5   0  0.9358428E-04  0.1198910E+04  0.7818609E-02  0.9113811E-01
       -1   -1    0    0    0  501  0.00000000000E+00  0.00000000000E+00  0.60268380305E+03  0.60268380307E+03  0.50400001928E-02 0. -1.
        1   -1    0    0  501    0  0.00000000000E+00  0.00000000000E+00 -0.59624310405E+03  0.59624310407E+03  0.50400001928E-02 0.  1.
    10030    2    1    2    0    0  0.00000000000E+00  0.00000000000E+00  0.64406990001E+01  0.11989269071E+04  0.11989096071E+04 0.  0.
        2    1    3    3  502    0  0.35586780460E+03 -0.35062080924E+03 -0.32809880661E+03  0.59768358947E+03  0.25500000920E-02 0.  1.
       -2    1    3    3    0  502 -0.35586780460E+03  0.35062080924E+03  0.33453950561E+03  0.60124331767E+03  0.25500000920E-02 0. -1.
</event>
<event>
 5   0  0.1647550E-03  0.1201233E+04  0.7818609E-02  0.9111778E-01
        2   -1    0    0  501    0  0.00000000000E+00  0.00000000000E+00  0.65664148306E+03  0.65664148307E+03  0.25500000920E-02 0. -1.
       -2   -1    0    0    0  501  0.00000000000E+00  0.00000000000E+00 -0.54937144801E+03  0.54937144801E+03  0.25500000920E-02 0.  1.
    10030    2    1    2    0    0  0.00000000000E+00  0.00000000000E+00  0.10727003506E+03  0.12060129311E+04  0.12012328373E+04 0.  0.
        3    1    3    3  502    0  0.45696853283E+03 -0.90372494881E+02 -0.32702099142E+03  0.56914863336E+03  0.10100000352E+00 0.  1.
       -3    1    3    3    0  502 -0.45696853283E+03  0.90372494881E+02  0.43429102648E+03  0.63686429772E+03  0.10100000352E+00 0. -1.
</event>
<event>
 5   0  0.1567019E-03  0.1202785E+04  0.7818609E-02  0.9110422E-01
        2   -1    0    0  501    0  0.00000000000E+00  0.00000000000E+00  0.77583860323E+03  0.77583860323E+03  0.25500000920E-02 0. -1.
       -2   -1    0    0    0  501  0.00000000000E+00  0.00000000000E+00 -0.46617038891E+03  0.46617038891E+03  0.25500000920E-02 0.  1.
    10030    2    1    2    0    0  0.00000000000E+00  0.00000000000E+00  0.30966821432E+03  0.12420089921E+04  0.12027850737E+04 0.  0.
        5    1    3    3  502    0 -0.36968127134E+03 -0.46139330018E+03  0.41233419995E+02  0.59268060940E+03  0.46999998093E+01 0.  1.
       -5    1    3    3    0  502  0.36968127134E+03  0.46139330018E+03  0.26843479433E+03  0.64932838274E+03  0.46999998093E+01 0. -1.
</event>
<event>
 5   0  0.9170776E-04  0.1182400E+04  0.7818609E-02  0.9128403E-01
        1   -1    0    0  501    0  0.00000000000E+00  0.00000000000E+00  0.65555001298E+03  0.65555001300E+03  0.50400001928E-02 0. -1.
       -1   -1    0    0    0  501  0.00000000000E+00  0.00000000000E+00 -0.53316665553E+03  0.53316665556E+03  0.50400001928E-02 0.  1.
    10030    2    1    2    0    0  0.00000000000E+00  0.00000000000E+00  0.12238335745E+03  0.11887166686E+04  0.11823999458E+04 0.  0.
        5    1    3    3  502    0 -0.18881222755E+03  0.34445867887E+02 -0.50095447058E+03  0.53648303485E+03  0.46999998093E+01 0.  1.
       -5    1    3    3    0  502  0.18881222755E+03 -0.34445867887E+02  0.62333782803E+03  0.65223363371E+03  0.46999998093E+01 0. -1.
</event>
<event>
 5   0  0.9208078E-04  0.1199397E+04  0.7818609E-02  0.9113385E-01
       -1   -1    0    0    0  501  0.00000000000E+00  0.00000000000E+00  0.27014408422E+03  0.27014408427E+03  0.50400001928E-02 0. -1.
        1   -1    0    0  501    0  0.00000000000E+00  0.00000000000E+00 -0.13312831690E+04  0.13312831690E+04  0.50400001928E-02 0.  1.
    10030    2    1    2    0    0  0.00000000000E+00  0.00000000000E+00 -0.10611390848E+04  0.16014272532E+04  0.11993969694E+04 0.  0.
        3    1    3    3  502    0 -0.18976881440E+03  0.54694395101E+03 -0.73946815225E+03  0.93913420067E+03  0.10100000352E+00 0. -1.
       -3    1    3    3    0  502  0.18976881440E+03 -0.54694395101E+03 -0.32167093250E+03  0.66229305257E+03  0.10100000352E+00 0.  1.
</event>
<event>
 5   0  0.1647550E-03  0.1202118E+04  0.7818609E-02  0.9111005E-01
       -2   -1    0    0    0  501  0.00000000000E+00  0.00000000000E+00  0.43865614285E+03  0.43865614286E+03  0.25500000920E-02 0. -1.
        2   -1    0    0  501    0  0.00000000000E+00  0.00000000000E+00 -0.82358753764E+03  0.82358753765E+03  0.25500000920E-02 0.  1.
    10030    2    1    2    0    0  0.00000000000E+00  0.00000000000E+00 -0.38493139479E+03  0.12622436805E+04  0.12021176857E+04 0.  0.
        3    1    3    3  502    0  0.25316337313E+03  0.41319044822E+03  0.18092368026E+03  0.51725373684E+03  0.10100000352E+00 0. -1.
       -3    1    3    3    0  502 -0.25316337313E+03 -0.41319044822E+03 -0.56585507506E+03  0.74498994366E+03  0.10100000352E+00 0.  1.
</event>
<event>
 5   0  0.1551501E-03  0.1216942E+04  0.7818609E-02  0.9098155E-01
        2   -1    0    0  501    0  0.00000000000E+00  0.00000000000E+00  0.16858777896E+04  0.16858777896E+04  0.25500000920E-02 0.  1.
       -2   -1    0    0    0  501  0.00000000000E+00  0.00000000000E+00 -0.21961088158E+03  0.21961088160E+03  0.25500000920E-02 0. -1.
    10030    2    1    2    0    0  0.00000000000E+00  0.00000000000E+00  0.14662669080E+04  0.19054886712E+04  0.12169422462E+04 0.  0.
        4    1    3    3  502    0 -0.32591327776E+03 -0.37592477083E+03  0.18466372684E+03  0.53069878731E+03  0.12699999809E+01 0. -1.
       -4    1    3    3    0  502  0.32591327776E+03  0.37592477083E+03  0.12816031811E+04  0.13747898838E+04  0.12699999809E+01 0.  1.
</event>
<event>
 5   0  0.1597352E-03  0.1199635E+04  0.7818609E-02  0.9113176E-01
        2   -1    0    0  501    0  0.00000000000E+00  0.00000000000E+00  0.68820286799E+03  0.68820286799E+03  0.25500000920E-02 0. -1.
       -2   -1    0    0    0  501  0.00000000000E+00  0.00000000000E+00 -0.52278361596E+03  0.52278361597E+03  0.25500000920E-02 0.  1.
    10030    2    1    2    0    0  0.00000000000E+00  0.00000000000E+00  0.16541925203E+03  0.12109864840E+04  0.11996352510E+04 0.  0.
        1    1    3    3  502    0  0.28706629391E+03 -0.36828226027E+02  0.61305480913E+03  0.67793773634E+03  0.50400001928E-02 0. -1.
       -1    1    3    3    0  502 -0.28706629391E+03  0.36828226027E+02 -0.44763555711E+03  0.53304874762E+03  0.50400001928E-02 0.  1.
</event>
<event>
 5   0  0.1537557E-03  0.1178317E+04  0.7818609E-02  0.9132050E-01
        2   -1    0    0  501    0  0.00000000000E+00  0.00000000000E+00  0.12513481153E+04  0.12513481153E+04  0.25500000920E-02 0.  1.
       -2   -1    0    0    0  501  0.00000000000E+00  0.00000000000E+00 -0.27738724508E+03  0.27738724509E+03  0.25500000920E-02 0. -1.
    10030    2    1    2    0    0  0.00000000000E+00  0.00000000000E+00  0.97396087026E+03  0.15287353604E+04  0.11783174553E+04 0.  0.
        2    1    3    3  502    0  0.33893263672E+03 -0.12562581902E+03 -0.11662011281E+03  0.37981236072E+03  0.25500000920E-02 0. -1.
       -2    1    3    3    0  502 -0.33893263672E+03  0.12562581902E+03  0.10905809831E+04  0.11489229997E+04  0.25500000920E-02 0.  1.
</event>
<event>
 5   0  0.9169078E-04  0.1199605E+04  0.7818609E-02  0.9113203E-01
        1   -1    0    0  501    0  0.00000000000E+00  0.00000000000E+00  0.14433130397E+04  0.14433130397E+04  0.50400001928E-02 0. -1.
       -1   -1    0    0    0  501  0.00000000000E+00  0.00000000000E+00 -0.24926175493E+03  0.24926175498E+03  0.50400001928E-02 0.  1.
    10030    2    1    2    0    0  0.00000000000E+00  0.00000000000E+00  0.11940512848E+04  0.16925747947E+04  0.11996045036E+04 0.  0.
        1    1    3    3  502    0 -0.31378183347E+03  0.45186151456E+03  0.93425269653E+03  0.10841890833E+04  0.50400001928E-02 0.  1.
       -1    1    3    3    0  502  0.31378183347E+03 -0.45186151456E+03  0.25979858826E+03  0.60838571140E+03  0.50400001928E-02 0. -1.
</event>
<event>
 5   0  0.1551501E-03  0.1200602E+04  0.7818609E-02  0.9112330E-01
       -2   -1    0    0    0  501  0.00000000000E+00  0.00000000000E+00  0.22121471201E+03  0.22121471202E+03  0.25500000920E-02 0. -1.
        2   -1    0    0  501    0  0.00000000000E+00  0.00000000000E+00 -0.16290120705E+04  0.16290120705E+04  0.25500000920E-02 0.  1.
    10030    2    1    2    0    0  0.00000000000E+00  0.00000000000E+00 -0.14077973585E+04  0.18502267826E+04  0.12006022423E+04 0.  0.
        4    1    3    3  502    0  0.21563361075E+03 -0.21759736681E+03  0.91683966726E+02  0.31977184177E+03  0.12699999809E+01 0. -1.
       -4    1    3    3    0  502 -0.21563361075E+03  0.21759736681E+03 -0.14994813253E+04  0.15304549408E+04  0.12699999809E+01 0.  1.
</event>
<event>
 5   0  0.1551501E-03  0.1198767E+04  0.7818609E-02  0.9113937E-01
        2   -1    0    0  501    0  0.00000000000E+00  0.00000000000E+00  0.16627085353E+04  0.16627085353E+04  0.25500000920E-02 0. -1.
       -2   -1    0    0    0  501  0.00000000000E+00  0.00000000000E+00 -0.21606943661E+03  0.21606943662E+03  0.25500000920E-02 0.  1.
    10030    2    1    2    0    0  0.00000000000E+00  0.00000000000E+00  0.14466390987E+04  0.18787779720E+04  0.11987668605E+04 0.  0.
        4    1    3    3  502    0  0.29555064471E+03 -0.50777593980E+03  0.90923830150E+03  0.10825444519E+04  0.12699999809E+01 0. -1.
       -4    1    3    3    0  502 -0.29555064471E+03  0.50777593980E+03  0.53740079723E+03  0.79623352001E+03  0.12699999809E+01 0.  1.
</event>
<event>
 5   0  0.1647550E-03  0.1188422E+04  0.7818609E-02  0.9123051E-01
        2   -1    0    0  501    0  0.00000000000E+00  0.00000000000E+00  0.15464788859E+04  0.15464788859E+04  0.25500000920E-02 0. -1.
       -2   -1    0    0    0  501  0.00000000000E+00  0.00000000000E+00 -0.22831661582E+03  0.22831661584E+03  0.25500000920E-02 0.  1.
    10030    2    1    2    0    0  0.00000000000E+00  0.00000000000E+00  0.13181622700E+04  0.17747955017E+04  0.11884221904E+04 0.  0.
        3    1    3    3  502    0  0.26382650828E+03  0.45331903058E+03  0.24203797345E+03  0.57765470720E+03  0.10100000352E+00 0. -1.
       -3    1    3    3    0  502 -0.26382650828E+03 -0.45331903058E+03  0.10761242966E+04  0.11971407945E+04  0.10100000352E+00 0.  1.
</event>
<event>
 5   0  0.9208078E-04  0.1193904E+04  0.7818609E-02  0.9118209E-01
       -1   -1    0    0    0  501  0.00000000000E+00  0.00000000000E+00  0.34195828825E+03  0.34195828829E+03  0.50400001928E-02 0.  1.
        1   -1    0    0  501    0  0.00000000000E+00  0.00000000000E+00 -0.10420911147E+04  0.10420911147E+04  0.50400001928E-02 0. -1.
    10030    2    1    2    0    0  0.00000000000E+00  0.00000000000E+00 -0.70013282644E+03  0.13840494030E+04  0.11939040059E+04 0.  0.
        3    1    3    3  502    0  0.31474408928E+03 -0.41483530660E+03 -0.68844333258E+03  0.86319546205E+03  0.10100000352E+00 0. -1.
       -3    1    3    3    0  502 -0.31474408928E+03  0.41483530660E+03 -0.11689493863E+02  0.52085394095E+03  0.10100000352E+00 0.  1.
</event>
<event>
 5   0  0.6137750E-04  0.1201440E+04  0.7818609E-02  0.9111597E-01
        4   -1    0    0  501    0  0.00000000000E+00  0.00000000000E+00  0.19059519572E+04  0.19059523803E+04  0.12699999809E+01 0. -1.
       -4   -1    0    0    0  501  0.00000000000E+00  0.00000000000E+00 -0.18933292788E+03  0.18933718726E+03  0.12699999809E+01 0.  1.
    10030    2    1    2    0    0  0.00000000000E+00  0.00000000000E+00  0.17166190293E+04  0.20952895675E+04  0.12014397530E+04 0.  0.
        1    1    3    3  502    0  0.32988562560E+02 -0.57947664003E+03  0.11283900834E+04  0.12689151280E+04  0.50400001928E-02 0. -1.
       -1    1    3    3    0  502 -0.32988562560E+02  0.57947664003E+03  0.58822894588E+03  0.82637443958E+03  0.50400001928E-02 0.  1.
</event>
<event>
 5   0  0.1597352E-03  0.1201038E+04  0.7818609E-02  0.9111949E-01
        2   -1    0    0  501    0  0.00000000000E+00  0.00000000000E+00  0.59468223075E+03  0.59468223076E+03  0.25500000920E-02 0.  1.
       -2   -1    0    0    0  501  0.00000000000E+00  0.00000000000E+00 -0.60641281095E+03  0.60641281095E+03  0.25500000920E-02 0. -1.
    10030    2    1    2    0    0  0.00000000000E+00  0.00000000000E+00 -0.11730580195E+02  0.12010950417E+04  0.12010377566E+04 0.  0.
        1    1    3    3  502    0  0.55577859803E+03 -0.90359123488E+02 -0.21460545901E+03  0.60258619657E+03  0.50400001928E-02 0. -1.
       -1    1    3    3    0  502 -0.55577859803E+03  0.90359123488E+02  0.20287487882E+03  0.59850884514E+03  0.50400001928E-02 0.  1.
</event>
<event>
 5   0  0.1551501E-03  0.1167796E+04  0.7818609E-02  0.9141521E-01
        2   -1    0    0  501    0  0.00000000000E+00  0.00000000000E+00  0.69866148749E+03  0.69866148750E+03  0.25500000920E-02 0.  1.
       -2   -1    0    0    0  501  0.00000000000E+00  0.00000000000E+00 -0.48798585380E+03  0.48798585380E+03  0.25500000920E-02 0. -1.
    10030    2    1    2    0    0  0.00000000000E+00  0.00000000000E+00  0.21067563370E+03  0.11866473413E+04  0.11677960824E+04 0.  0.
        4    1    3    3  502    0 -0.55654191693E+03 -0.17584652716E+03  0.12217034027E+03  0.59631209224E+03  0.12699999809E+01 0.  1.
       -4    1    3    3    0  502  0.55654191693E+03  0.17584652716E+03  0.88505293425E+02  0.59033524906E+03  0.12699999809E+01 0. -1.
</event>
<event>
 5   0  0.1647550E-03  0.1197653E+04  0.7818609E-02  0.9114913E-01
       -2   -1    0    0    0  501  0.00000000000E+00  0.00000000000E+00  0.61847813247E+03  0.61847813248E+03  0.25500000920E-02 0. -1.
        2   -1    0    0  501    0  0.00000000000E+00  0.00000000000E+00 -0.57979935506E+03  0.57979935506E+03  0.25500000920E-02 0.  1.
    10030    2    1    2    0    0  0.00000000000E+00  0.00000000000E+00  0.38678777412E+02  0.11982774875E+04  0.11976530755E+04 0.  0.
        3    1    3    3  502    0 -0.69039674646E+02  0.13456915420E+03 -0.56037436067E+03  0.58042636762E+03  0.10100000352E+00 0.  1.
       -3    1    3    3    0  502  0.69039674646E+02 -0.13456915420E+03  0.59905313808E+03  0.61785111992E+03  0.10100000352E+00 0. -1.
</event>
<event>
 5   0  0.9169078E-04  0.1192042E+04  0.7818609E-02  0.9119850E-01
       -1   -1    0    0    0  501  0.00000000000E+00  0.00000000000E+00  0.14469091110E+03  0.14469091119E+03  0.50400001928E-02 0. -1.
        1   -1    0    0  501    0  0.00000000000E+00  0.00000000000E+00 -0.24551733632E+04  0.24551733632E+04  0.50400001928E-02 0.  1.
    10030    2    1    2    0    0  0.00000000000E+00  0.00000000000E+00 -0.23104824521E+04  0.25998642744E+04  0.11920424002E+04 0.  0.
        1    1    3    3  502    0  0.12281314801E+02 -0.55091739604E+03 -0.16505791629E+04  0.17401357364E+04  0.50400001928E-02 0.  1.
       -1    1    3    3    0  502 -0.12281314801E+02  0.55091739604E+03 -0.65990328917E+03  0.85972853799E+03  0.50400001928E-02 0. -1.
</event>
<event>
 5   0  0.1537557E-03  0.1198996E+04  0.7818609E-02  0.9113736E-01
       -2   -1    0    0    0  501  0.00000000000E+00  0.00000000000E+00  0.66281442806E+03  0.66281442806E+03  0.25500000920E-02 0. -1.
        2   -1    0    0  501    0  0.00000000000E+00  0.00000000000E+00 -0.54223011526E+03  0.54223011527E+03  0.25500000920E-02 0.  1.
    10030    2    1    2    0    0  0.00000000000E+00  0.00000000000E+00  0.12058431279E+03  0.12050445433E+04  0.11989961530E+04 0.  0.
        2    1    3    3  502    0 -0.33951237536E+03  0.34857700399E+03  0.41223482451E+03  0.63773986176E+03  0.25500000920E-02 0. -1.
       -2    1    3    3    0  502  0.33951237536E+03 -0.34857700399E+03 -0.29165051172E+03  0.56730468157E+03  0.25500000920E-02 0.  1.
</event>
<event>
 5   0  0.8908478E-04  0.1200586E+04  0.7818609E-02  0.9112343E-01
        1   -1    0    0  501    0  0.00000000000E+00  0.00000000000E+00  0.58670349874E+03  0.58670349876E+03  0.50400001928E-02 0. -1.
       -1   -1    0    0    0  501  0.00000000000E+00  0.00000000000E+00 -0.61419773724E+03  0.61419773726E+03  0.50400001928E-02 0.  1.
    10030    2    1    2    0    0  0.00000000000E+00  0.00000000000E+00 -0.27494238504E+02  0.12009012360E+04  0.12005864590E+04 0.  0.
        4    1    3    3  502    0 -0.45003223326E+03 -0.19331649261E+03  0.33340305018E+03  0.59250272915E+03  0.12699999809E+01 0. -1.
       -4    1    3    3    0  502  0.45003223326E+03  0.19331649261E+03 -0.36089728868E+03  0.60839850687E+03  0.12699999809E+01 0.  1.
</event>
<event>
 5   0  0.9358428E-04  0.1277961E+04  0.7818609E-02  0.9047227E-01
        1   -1    0    0  501    0  0.00000000000E+00  0.00000000000E+00  0.51149913626E+03  0.51149913628E+03  0.50400001928E-02 0. -1.
       -1   -1    0    0    0  501  0.00000000000E+00  0.00000000000E+00 -0.79823470614E+03  0.79823470615E+03  0.50400001928E-02 0.  1.
    10030    2    1    2    0    0  0.00000000000E+00  0.00000000000E+00 -0.28673556988E+03  0.13097338424E+04  0.12779614435E+04 0.  0.
        2    1    3    3  502    0 -0.25051099556E+03 -0.55949570775E+03  0.41406457874E+02  0.61441492548E+03  0.25500000920E-02 0. -1.
       -2    1    3    3    0  502  0.25051099556E+03  0.55949570775E+03 -0.32814202775E+03  0.69531891696E+03  0.25500000920E-02 0.  1.
</event>
<event>
 5   0  0.1567019E-03  0.1195890E+04  0.7818609E-02  0.9116462E-01
       -2   -1    0    0    0  501  0.00000000000E+00  0.00000000000E+00  0.20917452335E+03  0.20917452337E+03  0.25500000920E-02 0. -1.
        2   -1    0    0  501    0  0.00000000000E+00  0.00000000000E+00 -0.17092805122E+04  0.17092805122E+04  0.25500000920E-02 0.  1.
    10030    2    1    2    0    0  0.00000000000E+00  0.00000000000E+00 -0.15001059889E+04  0.19184550356E+04  0.11958895207E+04 0.  0.
        5    1    3    3  502    0 -0.81013223987E+02 -0.24564650552E+02  0.19948244890E+03  0.21675308980E+03  0.46999998093E+01 0. -1.
       -5    1    3    3    0  502  0.81013223987E+02  0.24564650552E+02 -0.16995884378E+04  0.17017019458E+04  0.46999998093E+01 0.  1.
</event>
<event>
 5   0  0.9169078E-04  0.1194783E+04  0.7818609E-02  0.9117436E-01
       -1   -1    0    0    0  501  0.00000000000E+00  0.00000000000E+00  0.53207061017E+03  0.53207061019E+03  0.50400001928E-02 0.  1.
        1   -1    0    0  501    0  0.00000000000E+00  0.00000000000E+00 -0.67073131237E+03  0.67073131239E+03  0.50400001928E-02 0. -1.
    10030    2    1    2    0    0  0.00000000000E+00  0.00000000000E+00 -0.13866070220E+03  0.12028019226E+04  0.11947826893E+04 0.  0.
        1    1    3    3  502    0  0.31573888618E+03 -0.47991849620E+03 -0.23433166030E+03  0.62042254495E+03  0.50400001928E-02 0. -1.
       -1    1    3    3    0  502 -0.31573888618E+03  0.47991849620E+03  0.95670958099E+02  0.58237937763E+03  0.50400001928E-02 0.  1.
</event>
<event>
 5   0  0.1551501E-03  0.1195362E+04  0.7818609E-02  0.9116926E-01
        2   -1    0    0  501    0  0.00000000000E+00  0.00000000000E+00  0.12159780965E+04  0.12159780965E+04  0.25500000920E-02 0. -1.
       -2   -1    0    0    0  501  0.00000000000E+00  0.00000000000E+00 -0.29377404873E+03  0.29377404874E+03  0.25500000920E-02 0.  1.
    10030    2    1    2    0    0  0.00000000000E+00  0.00000000000E+00  0.92220404781E+03  0.15097521453E+04  0.11953623862E+04 0.  0.
        4    1    3    3  502    0 -0.54321800479E+03  0.10498217835E+03  0.74664835641E+03  0.92929674460E+03  0.12699999809E+01 0. -1.
       -4    1    3    3    0  502  0.54321800479E+03 -0.10498217835E+03  0.17555569140E+03  0.58045540068E+03  0.12699999809E+01 0.  1.
</event>
<event>
 5   0  0.9170776E-04  0.1183180E+04  0.7818609E-02  0.9127708E-01
        1   -1    0    0  501    0  0.00000000000E+00  0.00000000000E+00  0.10163276914E+04  0.10163276914E+04  0.50400001928E-02 0. -1.
       -1   -1    0    0    0  501  0.00000000000E+00  0.00000000000E+00 -0.34435627227E+03  0.34435627231E+03  0.50400001928E-02 0.  1.
    10030    2    1    2    0    0  0.00000000000E+00  0.00000000000E+00  0.67197141912E+03  0.13606839637E+04  0.11831801473E+04 0.  0.
        5    1    3    3  502    0  0.11621381807E+03 -0.20146287039E+03 -0.28955027414E+03  0.37142211957E+03  0.46999998093E+01 0.  1.
       -5    1    3    3    0  502 -0.11621381807E+03  0.20146287039E+03  0.96152169326E+03  0.98926184414E+03  0.46999998093E+01 0. -1.
</event>
<event>
 5   0  0.1647550E-03  0.1205647E+04  0.7818609E-02  0.9107928E-01
       -2   -1    0    0    0  501  0.00000000000E+00  0.00000000000E+00  0.18666400174E+03  0.18666400176E+03  0.25500000920E-02 0.  1.
        2   -1    0    0  501    0  0.00000000000E+00  0.00000000000E+00 -0.19467944304E+04  0.19467944304E+04  0.25500000920E-02 0. -1.
    10030    2    1    2    0    0  0.00000000000E+00  0.00000000000E+00 -0.17601304286E+04  0.21334584321E+04  0.12056474426E+04 0.  0.
        3    1    3    3  502    0 -0.53073211744E+03  0.26373453698E+03 -0.10752298080E+04  0.12277424961E+04  0.10100000352E+00 0. -1.
       -3    1    3    3    0  502  0.53073211744E+03 -0.26373453698E+03 -0.68490062065E+03  0.90571593607E+03  0.10100000352E+00 0.  1.
</event>
<event>
 5   0  0.1647550E-03  0.1166417E+04  0.7818609E-02  0.9142770E-01
       -2   -1    0    0    0  501  0.00000000000E+00  0.00000000000E+00  0.28981946929E+03  0.28981946930E+03  0.25500000920E-02 0.  1.
        2   -1    0    0  501    0  0.00000000000E+00  0.00000000000E+00 -0.11735999734E+04  0.11735999734E+04  0.25500000920E-02 0. -1.
    10030    2    1    2    0    0  0.00000000000E+00  0.00000000000E+00 -0.88378050408E+03  0.14634194427E+04  0.11664169434E+04 0.  0.
        3    1    3    3  502    0  0.45734303794E+03  0.14574757314E+03 -0.85748682276E+03  0.98269459693E+03  0.10100000352E+00 0. -1.
       -3    1    3    3    0  502 -0.45734303794E+03 -0.14574757314E+03 -0.26293681322E+02  0.48072484574E+03  0.10100000352E+00 0.  1.
</event>
<event>
 5   0  0.9208078E-04  0.1201137E+04  0.7818609E-02  0.9111862E-01
       -1   -1    0    0    0  501  0.00000000000E+00  0.00000000000E+00  0.23196242543E+03  0.23196242548E+03  0.50400001928E-02 0.  1.
        1   -1    0    0  501    0  0.00000000000E+00  0.00000000000E+00 -0.15549169287E+04  0.15549169288E+04  0.50400001928E-02 0. -1.
    10030    2    1    2    0    0  0.00000000000E+00  0.00000000000E+00 -0.13229545033E+04  0.17868793542E+04  0.12011366320E+04 0.  0.
        3    1    3    3  502    0  0.17777329432E+03  0.38190739833E+03 -0.12982669046E+04  0.13649005718E+04  0.10100000352E+00 0. -1.
       -3    1    3    3    0  502 -0.17777329432E+03 -0.38190739833E+03 -0.24687598674E+02  0.42197878241E+03  0.10100000352E+00 0.  1.
</event>
<event>
 5   0  0.1537557E-03  0.1207834E+04  0.7818609E-02  0.9106027E-01
        2   -1    0    0  501    0  0.00000000000E+00  0.00000000000E+00  0.13756604558E+04  0.13756604558E+04  0.25500000920E-02 0. -1.
       -2   -1    0    0    0  501  0.00000000000E+00  0.00000000000E+00 -0.26512059912E+03  0.26512059913E+03  0.25500000920E-02 0.  1.
    10030    2    1    2    0    0  0.00000000000E+00  0.00000000000E+00  0.11105398567E+04  0.16407810550E+04  0.12078343003E+04 0.  0.
        2    1    3    3  502    0  0.24323131276E+03  0.35114441878E+03  0.11352051490E+04  0.12129116228E+04  0.25500000920E-02 0.  1.
       -2    1    3    3    0  502 -0.24323131276E+03 -0.35114441878E+03 -0.24665292276E+02  0.42786943219E+03  0.25500000920E-02 0. -1.
</event>
<event>
 5   0  0.1551501E-03  0.1198003E+04  0.7818609E-02  0.9114606E-01
       -2   -1    0    0    0  501  0.00000000000E+00  0.00000000000E+00  0.27380989968E+03  0.27380989969E+03  0.25500000920E-02 0. -1.
        2   -1    0    0  501    0  0.00000000000E+00  0.00000000000E+00 -0.13104082827E+04  0.13104082827E+04  0.25500000920E-02 0.  1.
    10030    2    1    2    0    0  0.00000000000E+00  0.00000000000E+00 -0.10365983831E+04  0.15842181824E+04  0.11980029390E+04 0.  0.
        4    1    3    3  502    0 -0.36433832834E+03 -0.19710942422E+03  0.53861073069E+02  0.41772858497E+03  0.12699999809E+01 0. -1.
       -4    1    3    3    0  502  0.36433832834E+03  0.19710942422E+03 -0.10904594561E+04  0.11664895975E+04  0.12699999809E+01 0.  1.
</event>
<event>
 5   0  0.1551501E-03  0.1190502E+04  0.7818609E-02  0.9121211E-01
        2   -1    0    0  501    0  0.00000000000E+00  0.00000000000E+00  0.11861520158E+04  0.11861520158E+04  0.25500000920E-02 0. -1.
       -2   -1    0    0    0  501  0.00000000000E+00  0.00000000000E+00 -0.29871705801E+03  0.29871705802E+03  0.25500000920E-02 0.  1.
    10030    2    1    2    0    0  0.00000000000E+00  0.00000000000E+00  0.88743495780E+03  0.14848690738E+04  0.11905021470E+04 0.  0.
        4    1    3    3  502    0  0.33802977551E+03  0.25148064025E+03 -0.80749623010E+02  0.42898572944E+03  0.12699999809E+01 0.  1.
       -4    1    3    3    0  502 -0.33802977551E+03 -0.25148064025E+03  0.96818458080E+03  0.10558833444E+04  0.12699999809E+01 0. -1.
</event>
<event>
 5   0  0.8908478E-04  0.1198314E+04  0.7818609E-02  0.9114334E-01
       -1   -1    0    0    0  501  0.00000000000E+00  0.00000000000E+00  0.46985947945E+03  0.46985947948E+03  0.50400001928E-02 0.  1.
        1   -1    0    0  501    0  0.00000000000E+00  0.00000000000E+00 -0.76403491352E+03  0.76403491354E+03  0.50400001928E-02 0. -1.
    10030    2    1    2    0    0  0.00000000000E+00  0.00000000000E+00 -0.29417543407E+03  0.12338943930E+04  0.11983138934E+04 0.  0.
        4    1    3    3  502    0  0.51435081866E+03 -0.30462228308E+03 -0.10544008945E+03  0.60701789543E+03  0.12699999809E+01 0.  1.
       -4    1    3    3    0  502 -0.51435081866E+03  0.30462228308E+03 -0.18873534462E+03  0.62687649758E+03  0.12699999809E+01 0. -1.
</event>
<event>
 5   0  0.9208078E-04  0.1198488E+04  0.7818609E-02  0.9114181E-01
       -1   -1    0    0    0  501  0.00000000000E+00  0.00000000000E+00  0.42617226443E+03  0.42617226446E+03  0.50400001928E-02 0. -1.
        1   -1    0    0  501    0  0.00000000000E+00  0.00000000000E+00 -0.84260130593E+03  0.84260130595E+03  0.50400001928E-02 0.  1.
    10030    2    1    2    0    0  0.00000000000E+00  0.00000000000E+00 -0.41642904150E+03  0.12687735704E+04  0.11984878916E+04 0.  0.
        3    1    3    3  502    0  0.24643726875E+03  0.26395486974E+03  0.29804577200E+03  0.46822515213E+03  0.10100000352E+00 0. -1.
       -3    1    3    3    0  502 -0.24643726875E+03 -0.26395486974E+03 -0.71447481350E+03  0.80054841828E+03  0.10100000352E+00 0.  1.
</event>
<event>
 5   0  0.9169078E-04  0.1189702E+04  0.7818609E-02  0.9121918E-01
       -1   -1    0    0    0  501  0.00000000000E+00  0.00000000000E+00  0.79850030532E+03  0.79850030534E+03  0.50400001928E-02 0.  1.
        1   -1    0    0  501    0  0.00000000000E+00  0.00000000000E+00 -0.44314071921E+03  0.44314071924E+03  0.50400001928E-02 0. -1.
    10030    2    1    2    0    0  0.00000000000E+00  0.00000000000E+00  0.35535958611E+03  0.12416410246E+04  0.11897024832E+04 0.  0.
        1    1    3    3  502    0  0.32803456232E+03 -0.31134928953E+03 -0.22558645368E+03  0.50540508730E+03  0.50400001928E-02 0. -1.
       -1    1    3    3    0  502 -0.32803456232E+03  0.31134928953E+03  0.58094603979E+03  0.73623593727E+03  0.50400001928E-02 0.  1.
</event>
<event>
 5   0  0.9358428E-04  0.1204919E+04  0.7818609E-02  0.9108562E-01
        1   -1    0    0  501    0  0.00000000000E+00  0.00000000000E+00  0.55251034112E+03  0.55251034115E+03  0.50400001928E-02 0. -1.
       -1   -1    0    0    0  501  0.00000000000E+00  0.00000000000E+00 -0.65692375402E+03  0.65692375404E+03  0.50400001928E-02 0.  1.
    10030    2    1    2    0    0  0.00000000000E+00  0.00000000000E+00 -0.10441341289E+03  0.12094340952E+04  0.12049185324E+04 0.  0.
        2    1    3    3  502    0  0.35856033662E+03 -0.44892821468E+03  0.12973237158E+03  0.58900980058E+03  0.25500000920E-02 0. -1.
       -2    1    3    3    0  502 -0.35856033662E+03  0.44892821468E+03 -0.23414578447E+03  0.62042429460E+03  0.25500000920E-02 0.  1.
</event>
<event>
 5   0  0.9169078E-04  0.1201916E+04  0.7818609E-02  0.9111181E-01
        1   -1    0    0  501    0  0.00000000000E+00  0.00000000000E+00  0.32781209665E+03  0.32781209669E+03  0.50400001928E-02 0. -1.
       -1   -1    0    0    0  501  0.00000000000E+00  0.00000000000E+00 -0.11016991190E+04  0.11016991190E+04  0.50400001928E-02 0.  1.
    10030    2    1    2    0    0  0.00000000000E+00  0.00000000000E+00 -0.77388702230E+03  0.14295112157E+04  0.12019156345E+04 0.  0.
        1    1    3    3  502    0  0.57498994523E+03 -0.15749821366E+03 -0.29690353596E+03  0.66601113663E+03  0.50400001928E-02 0. -1.
       -1    1    3    3    0  502 -0.57498994523E+03  0.15749821366E+03 -0.47698348634E+03  0.76350007903E+03  0.50400001928E-02 0.  1.
</event>
<event>
 5   0  0.1537557E-03  0.1197570E+04  0.7818609E-02  0.9114986E-01
       -2   -1    0    0    0  501  0.00000000000E+00  0.00000000000E+00  0.22185058848E+03  0.22185058850E+03  0.25500000920E-02 0.  1.
        2   -1    0    0  501    0  0.00000000000E+00  0.00000000000E+00 -0.16161474367E+04  0.16161474367E+04  0.25500000920E-02 0. -1.
    10030    2    1    2    0    0  0.00000000000E+00  0.00000000000E+00 -0.13942968483E+04  0.18379980252E+04  0.11975696388E+04 0.  0.
        2    1    3    3  502    0 -0.20045759890E+03  0.18833260887E+03  0.11915892330E+03  0.29975201339E+03  0.25500000920E-02 0.  1.
       -2    1    3    3    0  502  0.20045759890E+03 -0.18833260887E+03 -0.15134557716E+04  0.15382460119E+04  0.25500000920E-02 0. -1.
</event>
<event>
 5   0  0.8908478E-04  0.1201167E+04  0.7818609E-02  0.9111836E-01
        1   -1    0    0  501    0  0.00000000000E+00  0.00000000000E+00  0.63092204781E+03  0.63092204783E+03  0.50400001928E-02 0.  1.
       -1   -1    0    0    0  501  0.00000000000E+00  0.00000000000E+00 -0.57170393648E+03  0.57170393650E+03  0.50400001928E-02 0. -1.
    10030    2    1    2    0    0  0.00000000000E+00  0.00000000000E+00  0.59218111327E+02  0.12026259843E+04  0.12011671297E+04 0.  0.
        4    1    3    3  502    0 -0.20745870561E+03 -0.31430803580E+03  0.49801307148E+03  0.62437752055E+03  0.12699999809E+01 0.  1.
       -4    1    3    3    0  502  0.20745870561E+03  0.31430803580E+03 -0.43879496016E+03  0.57824846378E+03  0.12699999809E+01 0. -1.
</event>
<event>
 5   0  0.1537557E-03  0.1200071E+04  0.7818609E-02  0.9112794E-01
       -2   -1    0    0    0  501  0.00000000000E+00  0.00000000000E+00  0.63766906789E+03  0.63766906790E+03  0.25500000920E-02 0.  1.
        2   -1    0    0  501    0  0.00000000000E+00  0.00000000000E+00 -0.56462317123E+03  0.56462317124E+03  0.25500000920E-02 0. -1.
    10030    2    1    2    0    0  0.00000000000E+00  0.00000000000E+00  0.73045896659E+02  0.12022922391E+04  0.12000712168E+04 0.  0.
        2    1    3    3  502    0  0.42012751264E+03  0.27366376551E+03  0.36674448478E+03  0.62120890251E+03  0.25500000920E-02 0.  1.
       -2    1    3    3    0  502 -0.42012751264E+03 -0.27366376551E+03 -0.29369858812E+03  0.58108333663E+03  0.25500000920E-02 0. -1.
</event>
<event>
 5   0  0.8908478E-04  0.1198423E+04  0.7818609E-02  0.9114238E-01
       -1   -1    0    0    0  501  0.00000000000E+00  0.00000000000E+00  0.34832112858E+03  0.34832112862E+03  0.50400001928E-02 0. -1.
        1   -1    0    0  501    0  0.00000000000E+00  0.00000000000E+00 -0.10308140929E+04  0.10308140929E+04  0.50400001928E-02 0.  1.
    10030    2    1    2    0    0  0.00000000000E+00  0.00000000000E+00 -0.68249296434E+03  0.13791352216E+04  0.11984228440E+04 0.  0.
        4    1    3    3  502    0 -0.23268192076E+03 -0.51688163466E+03 -0.11766917453E+03  0.57892585711E+03  0.12699999809E+01 0. -1.
       -4    1    3    3    0  502  0.23268192076E+03  0.51688163466E+03 -0.56482378981E+03  0.80020936444E+03  0.12699999809E+01 0.  1.
</event>
<event>
 5   0  0.9208078E-04  0.1198254E+04  0.7818609E-02  0.9114386E-01
       -1   -1    0    0    0  501  0.00000000000E+00  0.00000000000E+00  0.58307064726E+03  0.58307064728E+03  0.50400001928E-02 0.  1.
        1   -1    0    0  501    0  0.00000000000E+00  0.00000000000E+00 -0.61562520532E+03  0.61562520535E+03  0.50400001928E-02 0. -1.
    10030    2    1    2    0    0  0.00000000000E+00  0.00000000000E+00 -0.32554558062E+02  0.11986958526E+04  0.11982537076E+04 0.  0.
        3    1    3    3  502    0  0.20514929275E+02  0.49741827396E+03  0.31717314521E+03  0.59029197507E+03  0.10100000352E+00 0.  1.
       -3    1    3    3    0  502 -0.20514929275E+02 -0.49741827396E+03 -0.34972770327E+03  0.60840387756E+03  0.10100000352E+00 0. -1.
</event>
<event>
 5   0  0.1537557E-03  0.1193960E+04  0.7818609E-02  0.9118160E-01
       -2   -1    0    0    0  501  0.00000000000E+00  0.00000000000E+00  0.45077001846E+03  0.45077001847E+03  0.25500000920E-02 0. -1.
        2   -1    0    0  501    0  0.00000000000E+00  0.00000000000E+00 -0.79061363216E+03  0.79061363217E+03  0.25500000920E-02 0.  1.
    10030    2    1    2    0    0  0.00000000000E+00  0.00000000000E+00 -0.33984361370E+03  0.12413836506E+04  0.11939596669E+04 0.  0.
        2    1    3    3  502    0 -0.55503529093E+03  0.87903670201E+02  0.39559677263E+02  0.56334376493E+03  0.25500000920E-02 0. -1.
       -2    1    3    3    0  502  0.55503529093E+03 -0.87903670201E+02 -0.37940329096E+03  0.67803988571E+03  0.25500000920E-02 0.  1.
</event>
<event>
 5   0  0.1597352E-03  0.1193795E+04  0.7818609E-02  0.9118305E-01
        2   -1    0    0  501    0  0.00000000000E+00  0.00000000000E+00  0.14784219266E+04  0.14784219266E+04  0.25500000920E-02 0. -1.
       -2   -1    0    0    0  501  0.00000000000E+00  0.00000000000E+00 -0.24099135169E+03  0.24099135171E+03  0.25500000920E-02 0.  1.
    10030    2    1    2    0    0  0.00000000000E+00  0.00000000000E+00  0.12374305749E+04  0.17194132783E+04  0.11937954573E+04 0.  0.
        1    1    3    3  502    0  0.41244535635E+03 -0.97774128792E+02  0.12240078123E+04  0.12953246994E+04  0.50400001928E-02 0. -1.
       -1    1    3    3    0  502 -0.41244535635E+03  0.97774128792E+02  0.13422762660E+02  0.42408857898E+03  0.50400001928E-02 0.  1.
</event>
<event>
 5   0  0.1567019E-03  0.1204256E+04  0.7818609E-02  0.9109139E-01
       -2   -1    0    0    0  501  0.00000000000E+00  0.00000000000E+00  0.60654903404E+03  0.60654903404E+03  0.25500000920E-02 0.  1.
        2   -1    0    0  501    0  0.00000000000E+00  0.00000000000E+00 -0.59773918458E+03  0.59773918458E+03  0.25500000920E-02 0. -1.
    10030    2    1    2    0    0  0.00000000000E+00  0.00000000000E+00  0.88098494593E+01  0.12042882186E+04  0.12042559944E+04 0.  0.
        5    1    3    3  502    0  0.21464649782E+03 -0.43873037728E+03 -0.34771040740E+03  0.59956824498E+03  0.46999998093E+01 0. -1.
       -5    1    3    3    0  502 -0.21464649782E+03  0.43873037728E+03  0.35652025686E+03  0.60471997365E+03  0.46999998093E+01 0.  1.
</event>
<event>
 5   0  0.8908478E-04  0.1199890E+04  0.7818609E-02  0.9112952E-01
       -1   -1    0    0    0  501  0.00000000000E+00  0.00000000000E+00  0.20757601046E+03  0.20757601053E+03  0.50400001928E-02 0.  1.
        1   -1    0    0  501    0  0.00000000000E+00  0.00000000000E+00 -0.17339878246E+04  0.17339878246E+04  0.50400001928E-02 0. -1.
    10030    2    1    2    0    0  0.00000000000E+00  0.00000000000E+00 -0.15264118142E+04  0.19415638352E+04  0.11998904532E+04 0.  0.
        4    1    3    3  502    0  0.44920986819E+03 -0.38154798412E+03 -0.94458160179E+03  0.11133752221E+04  0.12699999809E+01 0. -1.
       -4    1    3    3    0  502 -0.44920986819E+03  0.38154798412E+03 -0.58183021239E+03  0.82818861307E+03  0.12699999809E+01 0.  1.
</event>
<event>
 5   0  0.9169078E-04  0.1202229E+04  0.7818609E-02  0.9110908E-01
        1   -1    0    0  501    0  0.00000000000E+00  0.00000000000E+00  0.19104408742E+04  0.19104408742E+04  0.50400001928E-02 0.  1.
       -1   -1    0    0    0  501  0.00000000000E+00  0.00000000000E+00 -0.18913880322E+03  0.18913880329E+03  0.50400001928E-02 0. -1.
    10030    2    1    2    0    0  0.00000000000E+00  0.00000000000E+00  0.17213020710E+04  0.20995796775E+04  0.12022287647E+04 0.  0.
        1    1    3    3  502    0 -0.34209082834E+03  0.19767870564E+03  0.69477990790E+02  0.40116106083E+03  0.50400001928E-02 0. -1.
       -1    1    3    3    0  502  0.34209082834E+03 -0.19767870564E+03  0.16518240802E+04  0.16984186166E+04  0.50400001928E-02 0.  1.
</event>
<event>
 5   0  0.9208078E-04  0.1193053E+04  0.7818609E-02  0.9118959E-01
        1   -1    0    0  501    0  0.00000000000E+00  0.00000000000E+00  0.89267291583E+03  0.89267291585E+03  0.50400001928E-02 0.  1.
       -1   -1    0    0    0  501  0.00000000000E+00  0.00000000000E+00 -0.39862735778E+03  0.39862735781E+03  0.50400001928E-02 0. -1.
    10030    2    1    2    0    0  0.00000000000E+00  0.00000000000E+00  0.49404555806E+03  0.12913002737E+04  0.11930529675E+04 0.  0.
        3    1    3    3  502    0  0.57559943817E+03 -0.79450227012E+02  0.10093853746E+03  0.58975897649E+03  0.10100000352E+00 0. -1.
       -3    1    3    3    0  502 -0.57559943817E+03  0.79450227012E+02  0.39310702059E+03  0.70154129717E+03  0.10100000352E+00 0.  1.
</event>
<event>
 5   0  0.1647550E-03  0.1206898E+04  0.7818609E-02  0.9106840E-01
       -2   -1    0    0    0  501  0.00000000000E+00  0.00000000000E+00  0.83025303779E+03  0.83025303780E+03  0.25500000920E-02 0. -1.
        2   -1    0    0  501    0  0.00000000000E+00  0.00000000000E+00 -0.43860173377E+03  0.43860173378E+03  0.25500000920E-02 0.  1.
    10030    2    1    2    0    0  0.00000000000E+00  0.00000000000E+00  0.39165130402E+03  0.12688547716E+04  0.12068975464E+04 0.  0.
        3    1    3    3  502    0 -0.75503914886E+02 -0.59815821488E+03  0.22275956686E+03  0.64274094784E+03  0.10100000352E+00 0. -1.
       -3    1    3    3    0  502  0.75503914886E+02  0.59815821488E+03  0.16889173716E+03  0.62611382374E+03  0.10100000352E+00 0.  1.
</event>
<event>
 5   0  0.1537557E-03  0.1200837E+04  0.7818609E-02  0.9112124E-01
       -2   -1    0    0    0  501  0.00000000000E+00  0.00000000000E+00  0.62677251655E+03  0.62677251655E+03  0.25500000920E-02 0. -1.
        2   -1    0    0  501    0  0.00000000000E+00  0.00000000000E+00 -0.57517276607E+03  0.57517276607E+03  0.25500000920E-02 0.  1.
    10030    2    1    2    0    0  0.00000000000E+00  0.00000000000E+00  0.51599750482E+02  0.12019452826E+04  0.12008371780E+04 0.  0.
        2    1    3    3  502    0  0.23365773645E+03  0.30951278912E+03  0.48459865766E+03  0.62066896446E+03  0.25500000920E-02 0. -1.
       -2    1    3    3    0  502 -0.23365773645E+03 -0.30951278912E+03 -0.43299890718E+03  0.58127631816E+03  0.25500000920E-02 0.  1.
</event>
<event>
 5   0  0.6137750E-04  0.1203248E+04  0.7818609E-02  0.9110019E-01
        4   -1    0    0  501    0  0.00000000000E+00  0.00000000000E+00  0.50158459243E+03  0.50158620023E+03  0.12699999809E+01 0. -1.
       -4   -1    0    0    0  501  0.00000000000E+00  0.00000000000E+00 -0.72161214799E+03  0.72161326555E+03  0.12699999809E+01 0.  1.
    10030    2    1    2    0    0  0.00000000000E+00  0.00000000000E+00 -0.22002755555E+03  0.12231994658E+04  0.12032476087E+04 0.  0.
        4    1    3    3  502    0 -0.40902807878E+03  0.30889483136E+03 -0.43024443184E+03  0.66920241340E+03  0.12699999809E+01 0.  1.
       -4    1    3    3    0  502  0.40902807878E+03 -0.30889483136E+03  0.21021687628E+03  0.55399705238E+03  0.12699999809E+01 0. -1.
</event>
<event>
 5   0  0.9358428E-04  0.1209209E+04  0.7818609E-02  0.9104834E-01
       -1   -1    0    0    0  501  0.00000000000E+00  0.00000000000E+00  0.62780952910E+03  0.62780952912E+03  0.50400001928E-02 0. -1.
        1   -1    0    0  501    0  0.00000000000E+00  0.00000000000E+00 -0.58225684358E+03  0.58225684360E+03  0.50400001928E-02 0.  1.
    10030    2    1    2    0    0  0.00000000000E+00  0.00000000000E+00  0.45552685526E+02  0.12100663727E+04  0.12092086583E+04 0.  0.
        2    1    3    3  502    0  0.49521480750E+03  0.14596050312E+03  0.33764889109E+03  0.61688649499E+03  0.25500000920E-02 0. -1.
       -2    1    3    3    0  502 -0.49521480750E+03 -0.14596050312E+03 -0.29209620557E+03  0.59317987773E+03  0.25500000920E-02 0.  1.
</event>
<event>
 5   0  0.1551501E-03  0.1201680E+04  0.7818609E-02  0.9111387E-01
       -2   -1    0    0    0  501  0.00000000000E+00  0.00000000000E+00  0.39592045209E+03  0.39592045210E+03  0.25500000920E-02 0. -1.
        2   -1    0    0  501    0  0.00000000000E+00  0.00000000000E+00 -0.91182130385E+03  0.91182130385E+03  0.25500000920E-02 0.  1.
    10030    2    1    2    0    0  0.00000000000E+00  0.00000000000E+00 -0.51590085176E+03  0.13077417559E+04  0.12016799954E+04 0.  0.
        4    1    3    3  502    0 -0.11700982812E+03 -0.49400468387E+03 -0.60767898832E+03  0.79183792110E+03  0.12699999809E+01 0. -1.
       -4    1    3    3    0  502  0.11700982812E+03  0.49400468387E+03  0.91778136554E+02  0.51590383484E+03  0.12699999809E+01 0.  1.
</event>
<event>
 5   0  0.9208078E-04  0.1201450E+04  0.7818609E-02  0.9111588E-01
        1   -1    0    0  501    0  0.00000000000E+00  0.00000000000E+00  0.15682229869E+04  0.15682229869E+04  0.50400001928E-02 0. -1.
       -1   -1    0    0    0  501  0.00000000000E+00  0.00000000000E+00 -0.23011430815E+03  0.23011430821E+03  0.50400001928E-02 0.  1.
    10030    2    1    2    0    0  0.00000000000E+00  0.00000000000E+00  0.13381086788E+04  0.17983372951E+04  0.12014500368E+04 0.  0.
        3    1    3    3  502    0 -0.12775610917E+03  0.45082075607E+02 -0.20694987961E+03  0.24735052020E+03  0.10100000352E+00 0.  1.
       -3    1    3    3    0  502  0.12775610917E+03 -0.45082075607E+02  0.15450585584E+04  0.15509867749E+04  0.10100000352E+00 0. -1.
</event>
<event>
 5   0  0.1597352E-03  0.1198878E+04  0.7818609E-02  0.9113839E-01
       -2   -1    0    0    0  501  0.00000000000E+00  0.00000000000E+00  0.82896931541E+03  0.82896931541E+03  0.25500000920E-02 0. -1.
        2   -1    0    0  501    0  0.00000000000E+00  0.00000000000E+00 -0.43346237373E+03  0.43346237374E+03  0.25500000920E-02 0.  1.
    10030    2    1    2    0    0  0.00000000000E+00  0.00000000000E+00  0.39550694168E+03  0.12624316891E+04  0.11988778207E+04 0.  0.
        1    1    3    3  502    0 -0.22087002555E+03 -0.11944547696E+02 -0.38891716917E+03  0.44741793092E+03  0.50400001928E-02 0.  1.
       -1    1    3    3    0  502  0.22087002555E+03  0.11944547696E+02  0.78442411085E+03  0.81501375823E+03  0.50400001928E-02 0. -1.
</event>
<event>
 5   0  0.6137750E-04  0.1194751E+04  0.7818609E-02  0.9117463E-01
       -4   -1    0    0    0  501  0.00000000000E+00  0.00000000000E+00  0.46647845405E+03  0.46648018285E+03  0.12699999809E+01 0.  1.
        4   -1    0    0  501    0  0.00000000000E+00  0.00000000000E+00 -0.76499992430E+03  0.76500097848E+03  0.12699999809E+01 0. -1.
    10030    2    1    2    0    0  0.00000000000E+00  0.00000000000E+00 -0.29852147025E+03  0.12314811613E+04  0.11947513476E+04 0.  0.
        1    1    3    3  502    0  0.18658236607E+02 -0.56183530791E+03 -0.35758974173E+03  0.66624129745E+03  0.50400001928E-02 0. -1.
       -1    1    3    3    0  502 -0.18658236607E+02  0.56183530791E+03  0.59068271480E+02  0.56523986389E+03  0.50400001928E-02 0.  1.
</event>
<event>
 5   0  0.8908478E-04  0.1200838E+04  0.7818609E-02  0.9112123E-01
        1   -1    0    0  501    0  0.00000000000E+00  0.00000000000E+00  0.21066389256E+04  0.21066389256E+04  0.50400001928E-02 0.  1.
       -1   -1    0    0    0  501  0.00000000000E+00  0.00000000000E+00 -0.17112720954E+03  0.17112720962E+03  0.50400001928E-02 0. -1.
    10030    2    1    2    0    0  0.00000000000E+00  0.00000000000E+00  0.19355117161E+04  0.22777661352E+04  0.12008384420E+04 0.  0.
        4    1    3    3  502    0  0.21586738453E+03  0.27062424947E+03  0.18982880288E+04  0.19295945857E+04  0.12699999809E+01 0.  1.
       -4    1    3    3    0  502 -0.21586738453E+03 -0.27062424947E+03  0.37223687299E+02  0.34817154953E+03  0.12699999809E+01 0. -1.
</event>
<event>
 5   0  0.1551501E-03  0.1199754E+04  0.7818609E-02  0.9113072E-01
        2   -1    0    0  501    0  0.00000000000E+00  0.00000000000E+00  0.99717566099E+03  0.99717566099E+03  0.25500000920E-02 0.  1.
       -2   -1    0    0    0  501  0.00000000000E+00  0.00000000000E+00 -0.36087170343E+03  0.36087170344E+03  0.25500000920E-02 0. -1.
    10030    2    1    2    0    0  0.00000000000E+00  0.00000000000E+00  0.63630395755E+03  0.13580473644E+04  0.11997541072E+04 0.  0.
        4    1    3    3  502    0  0.31962855238E+03 -0.37563484647E+03  0.70465027249E+03  0.86011485791E+03  0.12699999809E+01 0.  1.
       -4    1    3    3    0  502 -0.31962855238E+03  0.37563484647E+03 -0.68346314939E+02  0.49793250652E+03  0.12699999809E+01 0. -1.
</event>
<event>
 5   0  0.1537557E-03  0.1198515E+04  0.7818609E-02  0.9114157E-01
       -2   -1    0    0    0  501  0.00000000000E+00  0.00000000000E+00  0.41578089751E+03  0.41578089752E+03  0.25500000920E-02 0. -1.
        2   -1    0    0  501    0  0.00000000000E+00  0.00000000000E+00 -0.86369916786E+03  0.86369916786E+03  0.25500000920E-02 0.  1.
    10030    2    1    2    0    0  0.00000000000E+00  0.00000000000E+00 -0.44791827035E+03  0.12794800654E+04  0.11985151066E+04 0.  0.
        2    1    3    3  502    0 -0.35691351587E+03 -0.30712201581E+03  0.17175438447E+03  0.50120929660E+03  0.25500000920E-02 0. -1.
       -2    1    3    3    0  502  0.35691351587E+03  0.30712201581E+03 -0.61967265482E+03  0.77827076878E+03  0.25500000920E-02 0.  1.
</event>
<event>
 5   0  0.9170776E-04  0.1200899E+04  0.7818609E-02  0.9112070E-01
       -1   -1    0    0    0  501  0.00000000000E+00  0.00000000000E+00  0.26380672987E+03  0.26380672992E+03  0.50400001928E-02 0.  1.
        1   -1    0    0  501    0  0.00000000000E+00  0.00000000000E+00 -0.13666804913E+04  0.13666804913E+04  0.50400001928E-02 0. -1.
    10030    2    1    2    0    0  0.00000000000E+00  0.00000000000E+00 -0.11028737614E+04  0.16304872212E+04  0.12008988487E+04 0.  0.
        5    1    3    3  502    0 -0.33226106251E+03 -0.44448872010E+03 -0.86267762399E+03  0.10257691791E+04  0.46999998093E+01 0. -1.
       -5    1    3    3    0  502  0.33226106251E+03  0.44448872010E+03 -0.24019613741E+03  0.60471804205E+03  0.46999998093E+01 0.  1.
</event>
<event>
 5   0  0.1567019E-03  0.1215343E+04  0.7818609E-02  0.9099532E-01
        2   -1    0    0  501    0  0.00000000000E+00  0.00000000000E+00  0.19669210269E+04  0.19669210269E+04  0.25500000920E-02 0. -1.
       -2   -1    0    0    0  501  0.00000000000E+00  0.00000000000E+00 -0.18773732820E+03  0.18773732822E+03  0.25500000920E-02 0.  1.
    10030    2    1    2    0    0  0.00000000000E+00  0.00000000000E+00  0.17791836987E+04  0.21546583552E+04  0.12153427474E+04 0.  0.
        5    1    3    3  502    0 -0.46369115625E+03  0.37928967050E+03  0.70903396213E+03  0.92823563387E+03  0.46999998093E+01 0. -1.
       -5    1    3    3    0  502  0.46369115625E+03 -0.37928967050E+03  0.10701497366E+04  0.12264227213E+04  0.46999998093E+01 0.  1.
</event>
<event>
 5   0  0.1537557E-03  0.1197473E+04  0.7818609E-02  0.9115072E-01
       -2   -1    0    0    0  501  0.00000000000E+00  0.00000000000E+00  0.24029808252E+03  0.24029808253E+03  0.25500000920E-02 0.  1.
        2   -1    0    0  501    0  0.00000000000E+00  0.00000000000E+00 -0.14918354038E+04  0.14918354038E+04  0.25500000920E-02 0. -1.
    10030    2    1    2    0    0  0.00000000000E+00  0.00000000000E+00 -0.12515373212E+04  0.17321334863E+04  0.11974726502E+04 0.  0.
        2    1    3    3  502    0 -0.59333497651E+03 -0.11345679844E+02 -0.51086528701E+03  0.78304435397E+03  0.25500000920E-02 0.  1.
       -2    1    3    3    0  502  0.59333497651E+03  0.11345679844E+02 -0.74067203423E+03  0.94908913232E+03  0.25500000920E-02 0. -1.
</event>
<event>
 5   0  0.1567019E-03  0.1197691E+04  0.7818609E-02  0.9114880E-01
        2   -1    0    0  501    0  0.00000000000E+00  0.00000000000E+00  0.20831044446E+04  0.20831044446E+04  0.25500000920E-02 0. -1.
       -2   -1    0    0    0  501  0.00000000000E+00  0.00000000000E+00 -0.17215445929E+03  0.17215445931E+03  0.25500000920E-02 0.  1.
    10030    2    1    2    0    0  0.00000000000E+00  0.00000000000E+00  0.19109499853E+04  0.22552589039E+04  0.11976906434E+04 0.  0.
        5    1    3    3  502    0 -0.45890152119E+03  0.16865257993E+03  0.30438130260E+03  0.57593781456E+03  0.46999998093E+01 0.  1.
       -5    1    3    3    0  502  0.45890152119E+03 -0.16865257993E+03  0.16065686827E+04  0.16793210893E+04  0.46999998093E+01 0. -1.
</event>
<event>
 5   0  0.9208078E-04  0.1201752E+04  0.7818609E-02  0.9111324E-01
       -1   -1    0    0    0  501  0.00000000000E+00  0.00000000000E+00  0.42864129133E+03  0.42864129136E+03  0.50400001928E-02 0.  1.
        1   -1    0    0  501    0  0.00000000000E+00  0.00000000000E+00 -0.84231790690E+03  0.84231790692E+03  0.50400001928E-02 0. -1.
    10030    2    1    2    0    0  0.00000000000E+00  0.00000000000E+00 -0.41367661557E+03  0.12709591983E+04  0.12017524460E+04 0.  0.
        3    1    3    3  502    0  0.90205011360E+02 -0.59149877640E+03 -0.14848398187E+03  0.61648621203E+03  0.10100000352E+00 0.  1.
       -3    1    3    3    0  502 -0.90205011360E+02  0.59149877640E+03 -0.26519263370E+03  0.65447298625E+03  0.10100000352E+00 0. -1.
</event>
<event>
 5   0  0.1597352E-03  0.1197931E+04  0.7818609E-02  0.9114670E-01
        2   -1    0    0  501    0  0.00000000000E+00  0.00000000000E+00  0.13234304338E+04  0.13234304338E+04  0.25500000920E-02 0.  1.
       -2   -1    0    0    0  501  0.00000000000E+00  0.00000000000E+00 -0.27108291475E+03  0.27108291476E+03  0.25500000920E-02 0. -1.
    10030    2    1    2    0    0  0.00000000000E+00  0.00000000000E+00  0.10523475190E+04  0.15945133486E+04  0.11979305146E+04 0.  0.
        1    1    3    3  502    0  0.22166561181E+03  0.31974440567E+03 -0.79986637990E+02  0.39720270732E+03  0.50400001928E-02 0. -1.
       -1    1    3    3    0  502 -0.22166561181E+03 -0.31974440567E+03  0.11323341570E+04  0.11973106412E+04  0.50400001928E-02 0.  1.
</event>
<event>
 5   0  0.9208078E-04  0.1199982E+04  0.7818609E-02  0.9112872E-01
        1   -1    0    0  501    0  0.00000000000E+00  0.00000000000E+00  0.13763334945E+04  0.13763334945E+04  0.50400001928E-02 0.  1.
       -1   -1    0    0    0  501  0.00000000000E+00  0.00000000000E+00 -0.26155677950E+03  0.26155677955E+03  0.50400001928E-02 0. -1.
    10030    2    1    2    0    0  0.00000000000E+00  0.00000000000E+00  0.11147767150E+04  0.16378902741E+04  0.11999822605E+04 0.  0.
        3    1    3    3  502    0 -0.14609739426E+03 -0.42510968495E+03  0.10998108554E+04  0.11881273588E+04  0.10100000352E+00 0.  1.
       -3    1    3    3    0  502  0.14609739426E+03  0.42510968495E+03  0.14965859660E+02  0.44976291533E+03  0.10100000352E+00 0. -1.
</event>
<event>
 5   0  0.1537557E-03  0.1204184E+04  0.7818609E-02  0.9109202E-01
       -2   -1    0    0    0  501  0.00000000000E+00  0.00000000000E+00  0.20254785380E+03  0.20254785382E+03  0.25500000920E-02 0.  1.
        2   -1    0    0  501    0  0.00000000000E+00  0.00000000000E+00 -0.17897729347E+04  0.17897729347E+04  0.25500000920E-02 0. -1.
    10030    2    1    2    0    0  0.00000000000E+00  0.00000000000E+00 -0.15872250809E+04  0.19923207885E+04  0.12041838177E+04 0.  0.
        2    1    3    3  502    0  0.20241605302E+03 -0.21689943249E+02  0.14387966544E+03  0.24928712420E+03  0.25500000920E-02 0.  1.
       -2    1    3    3    0  502 -0.20241605302E+03  0.21689943249E+02 -0.17311047463E+04  0.17430336643E+04  0.25500000920E-02 0. -1.
</event>
<event>
 5   0  0.1647550E-03  0.1192278E+04  0.7818609E-02  0.9119643E-01
        2   -1    0    0  501    0  0.00000000000E+00  0.00000000000E+00  0.11002207348E+04  0.11002207348E+04  0.25500000920E-02 0. -1.
       -2   -1    0    0    0  501  0.00000000000E+00  0.00000000000E+00 -0.32300933608E+03  0.32300933609E+03  0.25500000920E-02 0.  1.
    10030    2    1    2    0    0  0.00000000000E+00  0.00000000000E+00  0.77721139872E+03  0.14232300709E+04  0.11922777681E+04 0.  0.
        3    1    3    3  502    0 -0.16471534825E+03 -0.26052182064E+03 -0.22051095040E+03  0.37898265716E+03  0.10100000352E+00 0.  1.
       -3    1    3    3    0  502  0.16471534825E+03  0.26052182064E+03  0.99772234912E+03  0.10442474137E+04  0.10100000352E+00 0. -1.
</event>
<event>
 5   0  0.1597352E-03  0.1200804E+04  0.7818609E-02  0.9112153E-01
       -2   -1    0    0    0  501  0.00000000000E+00  0.00000000000E+00  0.10879633148E+03  0.10879633151E+03  0.25500000920E-02 0. -1.
        2   -1    0    0  501    0  0.00000000000E+00  0.00000000000E+00 -0.33133716136E+04  0.33133716136E+04  0.25500000920E-02 0.  1.
    10030    2    1    2    0    0  0.00000000000E+00  0.00000000000E+00 -0.32045752821E+04  0.34221679451E+04  0.12008041913E+04 0.  0.
        1    1    3    3  502    0 -0.46873238029E+03 -0.22736648598E+03 -0.24528618124E+04  0.25075758481E+04  0.50400001928E-02 0.  1.
       -1    1    3    3    0  502  0.46873238029E+03  0.22736648598E+03 -0.75171346965E+03  0.91459209693E+03  0.50400001928E-02 0. -1.
</event>
<event>
 5   0  0.1567019E-03  0.1201924E+04  0.7818609E-02  0.9111174E-01
       -2   -1    0    0    0  501  0.00000000000E+00  0.00000000000E+00  0.62943656813E+03  0.62943656814E+03  0.25500000920E-02 0. -1.
        2   -1    0    0  501    0  0.00000000000E+00  0.00000000000E+00 -0.57377543150E+03  0.57377543150E+03  0.25500000920E-02 0.  1.
    10030    2    1    2    0    0  0.00000000000E+00  0.00000000000E+00  0.55661136637E+02  0.12032119996E+04  0.12019238553E+04 0.  0.
        5    1    3    3  502    0  0.56444918980E+03 -0.18987877404E+03 -0.52731215566E+02  0.59787917490E+03  0.46999998093E+01 0. -1.
       -5    1    3    3    0  502 -0.56444918980E+03  0.18987877404E+03  0.10839235220E+03  0.60533282474E+03  0.46999998093E+01 0.  1.
</event>
<event>
 5   0  0.8908478E-04  0.1194963E+04  0.7818609E-02  0.9117277E-01
       -1   -1    0    0    0  501  0.00000000000E+00  0.00000000000E+00  0.12558107950E+04  0.12558107950E+04  0.50400001928E-02 0.  1.
        1   -1    0    0  501    0  0.00000000000E+00  0.00000000000E+00 -0.28426604601E+03  0.28426604606E+03  0.50400001928E-02 0. -1.
    10030    2    1    2    0    0  0.00000000000E+00  0.00000000000E+00  0.97154474896E+03  0.15400768410E+04  0.11949633790E+04 0.  0.
        4    1    3    3  502    0 -0.46602257966E+03 -0.32076232185E+03  0.23814284465E+03  0.61382337788E+03  0.12699999809E+01 0.  1.
       -4    1    3    3    0  502  0.46602257966E+03  0.32076232185E+03  0.73340190431E+03  0.92625346316E+03  0.12699999809E+01 0. -1.
</event>
<event>
 5   0  0.9170776E-04  0.1208553E+04  0.7818609E-02  0.9105403E-01
       -1   -1    0    0    0  501  0.00000000000E+00  0.00000000000E+00  0.27315956791E+03  0.27315956796E+03  0.50400001928E-02 0.  1.
        1   -1    0    0  501    0  0.00000000000E+00  0.00000000000E+00 -0.13367637189E+04  0.13367637189E+04  0.50400001928E-02 0. -1.
    10030    2    1    2    0    0  0.00000000000E+00  0.00000000000E+00 -0.10636041510E+04  0.16099232869E+04  0.12085525225E+04 0.  0.
        5    1    3    3  502    0 -0.56120678627E+03 -0.20178329830E+03 -0.66135369058E+03  0.89055058839E+03  0.46999998093E+01 0. -1.
       -5    1    3    3    0  502  0.56120678627E+03  0.20178329830E+03 -0.40225046042E+03  0.71937269850E+03  0.46999998093E+01 0.  1.
</event>
<event>
 5   0  0.6137750E-04  0.1201797E+04  0.7818609E-02  0.9111285E-01
       -3   -1    0    0    0  501  0.00000000000E+00  0.00000000000E+00  0.40390387986E+03  0.40390389249E+03  0.10100000352E+00 0.  1.
        3   -1    0    0  501    0  0.00000000000E+00  0.00000000000E+00 -0.89397315998E+03  0.89397316569E+03  0.10100000352E+00 0. -1.
    10030    2    1    2    0    0  0.00000000000E+00  0.00000000000E+00 -0.49006928012E+03  0.12978770582E+04  0.12017973868E+04 0.  0.
        3    1    3    3  502    0  0.20321301799E+02  0.27508068787E+03  0.33149595652E+03  0.43124461682E+03  0.10100000352E+00 0.  1.
       -3    1    3    3    0  502 -0.20321301799E+02 -0.27508068787E+03 -0.82156523664E+03  0.86663244135E+03  0.10100000352E+00 0. -1.
</event>
<event>
 5   0  0.1551501E-03  0.1153035E+04  0.7818609E-02  0.9154988E-01
       -2   -1    0    0    0  501  0.00000000000E+00  0.00000000000E+00  0.10477564015E+04  0.10477564015E+04  0.25500000920E-02 0. -1.
        2   -1    0    0  501    0  0.00000000000E+00  0.00000000000E+00 -0.31722290358E+03  0.31722290359E+03  0.25500000920E-02 0.  1.
    10030    2    1    2    0    0  0.00000000000E+00  0.00000000000E+00  0.73053349797E+03  0.13649793051E+04  0.11530348268E+04 0.  0.
        4    1    3    3  502    0  0.35662389138E+03  0.18717854207E+03  0.85358742940E+03  0.94383765503E+03  0.12699999809E+01 0. -1.
       -4    1    3    3    0  502 -0.35662389138E+03 -0.18717854207E+03 -0.12305393143E+03  0.42114165011E+03  0.12699999809E+01 0.  1.
</event>
<event>
 5   0  0.8908478E-04  0.1203209E+04  0.7818609E-02  0.9110052E-01
        1   -1    0    0  501    0  0.00000000000E+00  0.00000000000E+00  0.63951517081E+03  0.63951517083E+03  0.50400001928E-02 0. -1.
       -1   -1    0    0    0  501  0.00000000000E+00  0.00000000000E+00 -0.56594103971E+03  0.56594103974E+03  0.50400001928E-02 0.  1.
    10030    2    1    2    0    0  0.00000000000E+00  0.00000000000E+00  0.73574131093E+02  0.12054562106E+04  0.12032088442E+04 0.  0.
        4    1    3    3  502    0 -0.24541232392E+03  0.13113346279E+03 -0.49759749853E+03  0.57011233739E+03  0.12699999809E+01 0.  1.
       -4    1    3    3    0  502  0.24541232392E+03 -0.13113346279E+03  0.57117162963E+03  0.63534387318E+03  0.12699999809E+01 0. -1.
</event>
<event>
 5   0  0.6137750E-04  0.1207318E+04  0.7818609E-02  0.9106475E-01
       -3   -1    0    0    0  501  0.00000000000E+00  0.00000000000E+00  0.84364979747E+03  0.84364980351E+03  0.10100000352E+00 0.  1.
        3   -1    0    0  501    0  0.00000000000E+00  0.00000000000E+00 -0.43193796789E+03  0.43193797970E+03  0.10100000352E+00 0. -1.
    10030    2    1    2    0    0  0.00000000000E+00  0.00000000000E+00  0.41171182957E+03  0.12755877832E+04  0.12073183350E+04 0.  0.
        5    1    3    3  502    0  0.24920140581E+03  0.18500838638E+03  0.75287033493E+03  0.81434960238E+03  0.46999998093E+01 0.  1.
       -5    1    3    3    0  502 -0.24920140581E+03 -0.18500838638E+03 -0.34115850535E+03  0.46123818084E+03  0.46999998093E+01 0. -1.
</event>
<event>
 5   0  0.9169078E-04  0.1213360E+04  0.7818609E-02  0.9101242E-01
       -1   -1    0    0    0  501  0.00000000000E+00  0.00000000000E+00  0.39819850337E+03  0.39819850340E+03  0.50400001928E-02 0. -1.
        1   -1    0    0  501    0  0.00000000000E+00  0.00000000000E+00 -0.92431423621E+03  0.92431423622E+03  0.50400001928E-02 0.  1.
    10030    2    1    2    0    0  0.00000000000E+00  0.00000000000E+00 -0.52611573284E+03  0.13225127396E+04  0.12133598733E+04 0.  0.
        1    1    3    3  502    0  0.44150855491E+03 -0.65840647227E+02  0.18474924944E+03  0.48311187118E+03  0.50400001928E-02 0. -1.
       -1    1    3    3    0  502 -0.44150855491E+03  0.65840647227E+02 -0.71086498228E+03  0.83940086844E+03  0.50400001928E-02 0.  1.
</event>
<event>
 5   0  0.1597352E-03  0.1193285E+04  0.7818609E-02  0.9118754E-01
        2   -1    0    0  501    0  0.00000000000E+00  0.00000000000E+00  0.55620777909E+03  0.55620777910E+03  0.25500000920E-02 0. -1.
       -2   -1    0    0    0  501  0.00000000000E+00  0.00000000000E+00 -0.64001686630E+03  0.64001686631E+03  0.25500000920E-02 0.  1.
    10030    2    1    2    0    0  0.00000000000E+00  0.00000000000E+00 -0.83809087207E+02  0.11962246454E+04  0.11932851458E+04 0.  0.
        1    1    3    3  502    0 -0.59243351391E+03  0.23714910912E+02  0.24911684296E+02  0.59343108905E+03  0.50400001928E-02 0. -1.
       -1    1    3    3    0  502  0.59243351391E+03 -0.23714910912E+02 -0.10872077150E+03  0.60279355636E+03  0.50400001928E-02 0.  1.
</event>
<event>
 5   0  0.9170776E-04  0.1205462E+04  0.7818609E-02  0.9108089E-01
       -1   -1    0    0    0  501  0.00000000000E+00  0.00000000000E+00  0.41013372257E+03  0.41013372260E+03  0.50400001928E-02 0.  1.
        1   -1    0    0  501    0  0.00000000000E+00  0.00000000000E+00 -0.88577129364E+03  0.88577129366E+03  0.50400001928E-02 0. -1.
    10030    2    1    2    0    0  0.00000000000E+00  0.00000000000E+00 -0.47563757107E+03  0.12959050163E+04  0.12054620326E+04 0.  0.
        5    1    3    3  502    0  0.27784060570E+03  0.15809373571E+03  0.31147043635E+03  0.44634622678E+03  0.46999998093E+01 0.  1.
       -5    1    3    3    0  502 -0.27784060570E+03 -0.15809373571E+03 -0.78710800742E+03  0.84955878948E+03  0.46999998093E+01 0. -1.
</event>
<event>
 5   0  0.1551501E-03  0.1199325E+04  0.7818609E-02  0.9113447E-01
       -2   -1    0    0    0  501  0.00000000000E+00  0.00000000000E+00  0.37604386574E+03  0.37604386575E+03  0.25500000920E-02 0.  1.
        2   -1    0    0  501    0  0.00000000000E+00  0.00000000000E+00 -0.95625875932E+03  0.95625875932E+03  0.25500000920E-02 0. -1.
    10030    2    1    2    0    0  0.00000000000E+00  0.00000000000E+00 -0.58021489358E+03  0.13323026251E+04  0.11993252111E+04 0.  0.
        4    1    3    3  502    0 -0.75767497727E+02  0.23673052396E+03 -0.89633644388E+03  0.93016272137E+03  0.12699999809E+01 0. -1.
       -4    1    3    3    0  502  0.75767497727E+02 -0.23673052396E+03  0.31612155031E+03  0.40213990371E+03  0.12699999809E+01 0.  1.
</event>
<event>
 5   0  0.1597352E-03  0.1194284E+04  0.7818609E-02  0.9117875E-01
        2   -1    0    0  501    0  0.00000000000E+00  0.00000000000E+00  0.11035810929E+04  0.11035810929E+04  0.25500000920E-02 0. -1.
       -2   -1    0    0    0  501  0.00000000000E+00  0.00000000000E+00 -0.32311042887E+03  0.32311042888E+03  0.25500000920E-02 0.  1.
    10030    2    1    2    0    0  0.00000000000E+00  0.00000000000E+00  0.78047066404E+03  0.14266915218E+04  0.11942839867E+04 0.  0.
        1    1    3    3  502    0  0.43172651707E+03 -0.30811161887E+03  0.71795221985E+03  0.89262307008E+03  0.50400001928E-02 0. -1.
       -1    1    3    3    0  502 -0.43172651707E+03  0.30811161887E+03  0.62518444189E+02  0.53406845171E+03  0.50400001928E-02 0.  1.
</event>
<event>
 5   0  0.1647550E-03  0.1199002E+04  0.7818609E-02  0.9113731E-01
       -2   -1    0    0    0  501  0.00000000000E+00  0.00000000000E+00  0.53681750351E+03  0.53681750352E+03  0.25500000920E-02 0.  1.
        2   -1    0    0  501    0  0.00000000000E+00  0.00000000000E+00 -0.66950396274E+03  0.66950396274E+03  0.25500000920E-02 0. -1.
    10030    2    1    2    0    0  0.00000000000E+00  0.00000000000E+00 -0.13268645922E+03  0.12063214663E+04  0.11990019948E+04 0.  0.
        3    1    3    3  502    0  0.35183859674E+03  0.26392781888E+03  0.34351710724E+03  0.55807912065E+03  0.10100000352E+00 0.  1.
       -3    1    3    3    0  502 -0.35183859674E+03 -0.26392781888E+03 -0.47620356646E+03  0.64824234562E+03  0.10100000352E+00 0. -1.
</event>
<event>
 5   0  0.1537557E-03  0.1183930E+04  0.7818609E-02  0.9127040E-01
       -2   -1    0    0    0  501  0.00000000000E+00  0.00000000000E+00  0.44706997170E+03  0.44706997170E+03  0.25500000920E-02 0.  1.
        2   -1    0    0  501    0  0.00000000000E+00  0.00000000000E+00 -0.78382032349E+03  0.78382032350E+03  0.25500000920E-02 0. -1.
    10030    2    1    2    0    0  0.00000000000E+00  0.00000000000E+00 -0.33675035179E+03  0.12308902952E+04  0.11839299470E+04 0.  0.
        2    1    3    3  502    0 -0.11320527479E+03  0.30203390210E+03  0.34768265665E+03  0.47426062666E+03  0.25500000920E-02 0.  1.
       -2    1    3    3    0  502  0.11320527479E+03 -0.30203390210E+03 -0.68443300845E+03  0.75662966854E+03  0.25500000920E-02 0. -1.
</event>
<event>
 5   0  0.1597352E-03  0.1203251E+04  0.7818609E-02  0.9110016E-01
        2   -1    0    0  501    0  0.00000000000E+00  0.00000000000E+00  0.18064281606E+04  0.18064281606E+04  0.25500000920E-02 0. -1.
       -2   -1    0    0    0  501  0.00000000000E+00  0.00000000000E+00 -0.20036944267E+03  0.20036944269E+03  0.25500000920E-02 0.  1.
    10030    2    1    2    0    0  0.00000000000E+00  0.00000000000E+00  0.16060587180E+04  0.20067976033E+04  0.12032506036E+04 0.  0.
        1    1    3    3  502    0  0.14473655504E+03 -0.19939102677E+02  0.17763907610E+04  0.17823889513E+04  0.50400001928E-02 0. -1.
       -1    1    3    3    0  502 -0.14473655504E+03  0.19939102677E+02 -0.17033204301E+03  0.22440865198E+03  0.50400001928E-02 0.  1.
</event>
<event>
 5   0  0.1647550E-03  0.1162677E+04  0.7818609E-02  0.9146167E-01
       -2   -1    0    0    0  501  0.00000000000E+00  0.00000000000E+00  0.35399174644E+03  0.35399174645E+03  0.25500000920E-02 0. -1.
        2   -1    0    0  501    0  0.00000000000E+00  0.00000000000E+00 -0.95469583250E+03  0.95469583250E+03  0.25500000920E-02 0.  1.
    10030    2    1    2    0    0  0.00000000000E+00  0.00000000000E+00 -0.60070408606E+03  0.13086875790E+04  0.11626769888E+04 0.  0.
        3    1    3    3  502    0 -0.28125073710E+03 -0.40945581737E+03 -0.64026717014E+03  0.81036911520E+03  0.10100000352E+00 0.  1.
       -3    1    3    3    0  502  0.28125073710E+03  0.40945581737E+03  0.39563084084E+02  0.49831846376E+03  0.10100000352E+00 0. -1.
</event>
<event>
 5   0  0.1537557E-03  0.1194355E+04  0.7818609E-02  0.9117812E-01
       -2   -1    0    0    0  501  0.00000000000E+00  0.00000000000E+00  0.37666658255E+03  0.37666658256E+03  0.25500000920E-02 0. -1.
        2   -1    0    0  501    0  0.00000000000E+00  0.00000000000E+00 -0.94678151367E+03  0.94678151367E+03  0.25500000920E-02 0.  1.
    10030    2    1    2    0    0  0.00000000000E+00  0.00000000000E+00 -0.57011493111E+03  0.13234480962E+04  0.11943549844E+04 0.  0.
        2    1    3    3  502    0  0.43740467396E+03  0.23722610062E+03  0.80815509411E+02  0.50411329896E+03  0.25500000920E-02 0. -1.
       -2    1    3    3    0  502 -0.43740467396E+03 -0.23722610062E+03 -0.65093044052E+03  0.81933479727E+03  0.25500000920E-02 0.  1.
</event>
<event>
 5   0  0.9208078E-04  0.1200754E+04  0.7818609E-02  0.9112197E-01
        1   -1    0    0  501    0  0.00000000000E+00  0.00000000000E+00  0.66791084295E+03  0.66791084297E+03  0.50400001928E-02 0.  1.
       -1   -1    0    0    0  501  0.00000000000E+00  0.00000000000E+00 -0.53967137069E+03  0.53967137071E+03  0.50400001928E-02 0. -1.
    10030    2    1    2    0    0  0.00000000000E+00  0.00000000000E+00  0.12823947226E+03  0.12075822137E+04  0.12007536969E+04 0.  0.
        3    1    3    3  502    0  0.43911008946E+03  0.20453855074E+03 -0.29257835381E+03  0.56591147075E+03  0.10100000352E+00 0. -1.
       -3    1    3    3    0  502 -0.43911008946E+03 -0.20453855074E+03  0.42081782607E+03  0.64167074294E+03  0.10100000352E+00 0.  1.
</event>
<event>
 5   0  0.9169078E-04  0.1201176E+04  0.7818609E-02  0.9111828E-01
       -1   -1    0    0    0  501  0.00000000000E+00  0.00000000000E+00  0.15577840396E+03  0.15577840404E+03  0.50400001928E-02 0. -1.
        1   -1    0    0  501    0  0.00000000000E+00  0.00000000000E+00 -0.23155073897E+04  0.23155073897E+04  0.50400001928E-02 0.  1.
    10030    2    1    2    0    0  0.00000000000E+00  0.00000000000E+00 -0.21597289857E+04  0.24712857937E+04  0.12011761663E+04 0.  0.
        1    1    3    3  502    0  0.50649978281E+03  0.17926183982E+03 -0.16320316703E+04  0.17181979542E+04  0.50400001928E-02 0. -1.
       -1    1    3    3    0  502 -0.50649978281E+03 -0.17926183982E+03 -0.52769731543E+03  0.75308783946E+03  0.50400001928E-02 0.  1.
</event>
<event>
 5   0  0.1537557E-03  0.1189849E+04  0.7818609E-02  0.9121789E-01
        2   -1    0    0  501    0  0.00000000000E+00  0.00000000000E+00  0.79785921025E+03  0.79785921025E+03  0.25500000920E-02 0.  1.
       -2   -1    0    0    0  501  0.00000000000E+00  0.00000000000E+00 -0.44360572380E+03  0.44360572380E+03  0.25500000920E-02 0. -1.
    10030    2    1    2    0    0  0.00000000000E+00  0.00000000000E+00  0.35425348645E+03  0.12414649341E+04  0.11898485827E+04 0.  0.
        2    1    3    3  502    0  0.92362422930E+02 -0.11400401347E+03 -0.42443188128E+03  0.44907700243E+03  0.25500000920E-02 0. -1.
       -2    1    3    3    0  502 -0.92362422930E+02  0.11400401347E+03  0.77868536773E+03  0.79238793163E+03  0.25500000920E-02 0.  1.
</event>
<event>
 5   0  0.1567019E-03  0.1201958E+04  0.7818609E-02  0.9111144E-01
        2   -1    0    0  501    0  0.00000000000E+00  0.00000000000E+00  0.85245574795E+03  0.85245574795E+03  0.25500000920E-02 0.  1.
       -2   -1    0    0    0  501  0.00000000000E+00  0.00000000000E+00 -0.42368870938E+03  0.42368870939E+03  0.25500000920E-02 0. -1.
    10030    2    1    2    0    0  0.00000000000E+00  0.00000000000E+00  0.42876703857E+03  0.12761444573E+04  0.12019581950E+04 0.  0.
        5    1    3    3  502    0  0.31390367532E+03  0.14455405783E+03 -0.30761457549E+03  0.46268802671E+03  0.46999998093E+01 0. -1.
       -5    1    3    3    0  502 -0.31390367532E+03 -0.14455405783E+03  0.73638161405E+03  0.81345643063E+03  0.46999998093E+01 0.  1.
</event>
<event>
 5   0  0.1567019E-03  0.1197010E+04  0.7818609E-02  0.9115477E-01
       -2   -1    0    0    0  501  0.00000000000E+00  0.00000000000E+00  0.40413586219E+03  0.40413586219E+03  0.25500000920E-02 0. -1.
        2   -1    0    0  501    0  0.00000000000E+00  0.00000000000E+00 -0.88635636717E+03  0.88635636717E+03  0.25500000920E-02 0.  1.
    10030    2    1    2    0    0  0.00000000000E+00  0.00000000000E+00 -0.48222050498E+03  0.12904922294E+04  0.11970102667E+04 0.  0.
        5    1    3    3  502    0 -0.48547172384E+03  0.14696858036E+03 -0.58357128684E+03  0.77321413275E+03  0.46999998093E+01 0.  1.
       -5    1    3    3    0  502  0.48547172384E+03 -0.14696858036E+03  0.10135078186E+03  0.51727809662E+03  0.46999998093E+01 0. -1.
</event>
<event>
 5   0  0.8908478E-04  0.1198065E+04  0.7818609E-02  0.9114552E-01
       -1   -1    0    0    0  501  0.00000000000E+00  0.00000000000E+00  0.31535744119E+03  0.31535744123E+03  0.50400001928E-02 0.  1.
        1   -1    0    0  501    0  0.00000000000E+00  0.00000000000E+00 -0.11378832488E+04  0.11378832488E+04  0.50400001928E-02 0. -1.
    10030    2    1    2    0    0  0.00000000000E+00  0.00000000000E+00 -0.82252580758E+03  0.14532406900E+04  0.11980650229E+04 0.  0.
        4    1    3    3  502    0  0.11930265006E+03 -0.44644078560E+03 -0.87362662397E+03  0.98831553078E+03  0.12699999809E+01 0. -1.
       -4    1    3    3    0  502 -0.11930265006E+03  0.44644078560E+03  0.51100816395E+02  0.46492515924E+03  0.12699999809E+01 0.  1.
</event>
<event>
 5   0  0.9170776E-04  0.1146407E+04  0.7818609E-02  0.9161105E-01
       -1   -1    0    0    0  501  0.00000000000E+00  0.00000000000E+00  0.60186087370E+03  0.60186087373E+03  0.50400001928E-02 0. -1.
        1   -1    0    0  501    0  0.00000000000E+00  0.00000000000E+00 -0.54591032445E+03  0.54591032447E+03  0.50400001928E-02 0.  1.
    10030    2    1    2    0    0  0.00000000000E+00  0.00000000000E+00  0.55950549255E+02  0.11477711982E+04  0.11464066728E+04 0.  0.
        5    1    3    3  502    0 -0.32443679181E+03  0.29664502721E+03  0.39622071710E+03  0.59183650674E+03  0.46999998093E+01 0. -1.
       -5    1    3    3    0  502  0.32443679181E+03 -0.29664502721E+03 -0.34027016785E+03  0.55593469146E+03  0.46999998093E+01 0.  1.
</event>
<event>
 5   0  0.1597352E-03  0.1153104E+04  0.7818609E-02  0.9154925E-01
        2   -1    0    0  501    0  0.00000000000E+00  0.00000000000E+00  0.47838285632E+03  0.47838285633E+03  0.25500000920E-02 0.  1.
       -2   -1    0    0    0  501  0.00000000000E+00  0.00000000000E+00 -0.69486621104E+03  0.69486621104E+03  0.25500000920E-02 0. -1.
    10030    2    1    2    0    0  0.00000000000E+00  0.00000000000E+00 -0.21648335472E+03  0.11732490674E+04  0.11531037816E+04 0.  0.
        1    1    3    3  502    0  0.18430680402E+03 -0.30004727919E+03 -0.57274199003E+03  0.67233232477E+03  0.50400001928E-02 0. -1.
       -1    1    3    3    0  502 -0.18430680402E+03  0.30004727919E+03  0.35625863531E+03  0.50091674260E+03  0.50400001928E-02 0.  1.
</event>
<event>
 5   0  0.1551501E-03  0.1220498E+04  0.7818609E-02  0.9095102E-01
        2   -1    0    0  501    0  0.00000000000E+00  0.00000000000E+00  0.17828636924E+04  0.17828636924E+04  0.25500000920E-02 0. -1.
       -2   -1    0    0    0  501  0.00000000000E+00  0.00000000000E+00 -0.20887947071E+03  0.20887947073E+03  0.25500000920E-02 0.  1.
    10030    2    1    2    0    0  0.00000000000E+00  0.00000000000E+00  0.15739842217E+04  0.19917431631E+04  0.12204976435E+04 0.  0.
        4    1    3    3  502    0 -0.15729697883E+03 -0.39969322950E+03  0.79591302935E+02  0.43684483019E+03  0.12699999809E+01 0.  1.
       -4    1    3    3    0  502  0.15729697883E+03  0.39969322950E+03  0.14943929188E+04  0.15548983329E+04  0.12699999809E+01 0. -1.
</event>
<event>
 5   0  0.1537557E-03  0.1201265E+04  0.7818609E-02  0.9111750E-01
        2   -1    0    0  501    0  0.00000000000E+00  0.00000000000E+00  0.70897039454E+03  0.70897039455E+03  0.25500000920E-02 0.  1.
       -2   -1    0    0    0  501  0.00000000000E+00  0.00000000000E+00 -0.50884998837E+03  0.50884998838E+03  0.25500000920E-02 0. -1.
    10030    2    1    2    0    0  0.00000000000E+00  0.00000000000E+00  0.20012040617E+03  0.12178203829E+04  0.12012652946E+04 0.  0.
        2    1    3    3  502    0  0.55529336256E+03 -0.80207050360E+02  0.31743461746E+03  0.64463061190E+03  0.25500000920E-02 0. -1.
       -2    1    3    3    0  502 -0.55529336256E+03  0.80207050360E+02 -0.11731421129E+03  0.57318977102E+03  0.25500000920E-02 0.  1.
</event>
<event>
 5   0  0.1537557E-03  0.1197340E+04  0.7818609E-02  0.9115188E-01
        2   -1    0    0  501    0  0.00000000000E+00  0.00000000000E+00  0.71600212347E+03  0.71600212348E+03  0.25500000920E-02 0. -1.
       -2   -1    0    0    0  501  0.00000000000E+00  0.00000000000E+00 -0.50056481759E+03  0.50056481760E+03  0.25500000920E-02 0.  1.
    10030    2    1    2    0    0  0.00000000000E+00  0.00000000000E+00  0.21543730588E+03  0.12165669411E+04  0.11973395046E+04 0.  0.
        2    1    3    3  502    0  0.38736629717E+03  0.23199754033E+03 -0.29169697435E+03  0.53755244558E+03  0.25500000920E-02 0.  1.
       -2    1    3    3    0  502 -0.38736629717E+03 -0.23199754033E+03  0.50713428023E+03  0.67901449549E+03  0.25500000920E-02 0. -1.
</event>
<event>
 5   0  0.6137750E-04  0.1196943E+04  0.7818609E-02  0.9115536E-01
       -4   -1    0    0    0  501  0.00000000000E+00  0.00000000000E+00  0.12734122682E+04  0.12734129015E+04  0.12699999809E+01 0.  1.
        4   -1    0    0  501    0  0.00000000000E+00  0.00000000000E+00 -0.28126442209E+03  0.28126728931E+03  0.12699999809E+01 0. -1.
    10030    2    1    2    0    0  0.00000000000E+00  0.00000000000E+00  0.99214784608E+03  0.15546801908E+04  0.11969432514E+04 0.  0.
        4    1    3    3  502    0  0.44461282152E+03 -0.70309392824E+02 -0.16188293273E+02  0.45043051131E+03  0.12699999809E+01 0. -1.
       -4    1    3    3    0  502 -0.44461282152E+03  0.70309392824E+02  0.10083361393E+04  0.11042496795E+04  0.12699999809E+01 0.  1.
</event>
<event>
 5   0  0.9169078E-04  0.1198950E+04  0.7818609E-02  0.9113776E-01
        1   -1    0    0  501    0  0.00000000000E+00  0.00000000000E+00  0.17579757426E+04  0.17579757426E+04  0.50400001928E-02 0. -1.
       -1   -1    0    0    0  501  0.00000000000E+00  0.00000000000E+00 -0.20442275873E+03  0.20442275879E+03  0.50400001928E-02 0.  1.
    10030    2    1    2    0    0  0.00000000000E+00  0.00000000000E+00  0.15535529839E+04  0.19623985014E+04  0.11989499592E+04 0.  0.
        1    1    3    3  502    0  0.34053287876E+03 -0.21159409094E+03  0.15062585845E+04  0.15587012620E+04  0.50400001928E-02 0. -1.
       -1    1    3    3    0  502 -0.34053287876E+03  0.21159409094E+03  0.47294399371E+02  0.40369723937E+03  0.50400001928E-02 0.  1.
</event>
<event>
 5   0  0.1567019E-03  0.1196431E+04  0.7818609E-02  0.9115986E-01
       -2   -1    0    0    0  501  0.00000000000E+00  0.00000000000E+00  0.41354880249E+03  0.41354880249E+03  0.25500000920E-02 0. -1.
        2   -1    0    0  501    0  0.00000000000E+00  0.00000000000E+00 -0.86534419008E+03  0.86534419009E+03  0.25500000920E-02 0.  1.
    10030    2    1    2    0    0  0.00000000000E+00  0.00000000000E+00 -0.45179538760E+03  0.12788929926E+04  0.11964314499E+04 0.  0.
        5    1    3    3  502    0 -0.15441491472E+02 -0.27015782141E+03 -0.79616208340E+03  0.84090418073E+03  0.46999998093E+01 0.  1.
       -5    1    3    3    0  502  0.15441491472E+02  0.27015782141E+03  0.34436669581E+03  0.43798881185E+03  0.46999998093E+01 0. -1.
</event>
<event>
 5   0  0.1597352E-03  0.1201463E+04  0.7818609E-02  0.9111577E-01
        2   -1    0    0  501    0  0.00000000000E+00  0.00000000000E+00  0.63157244189E+03  0.63157244190E+03  0.25500000920E-02 0.  1.
       -2   -1    0    0    0  501  0.00000000000E+00  0.00000000000E+00 -0.57139658556E+03  0.57139658557E+03  0.25500000920E-02 0. -1.
    10030    2    1    2    0    0  0.00000000000E+00  0.00000000000E+00  0.60175856329E+02  0.12029690275E+04  0.12014630029E+04 0.  0.
        1    1    3    3  502    0 -0.41086559332E+03  0.25656704650E+03 -0.32566175160E+03  0.58368892538E+03  0.50400001928E-02 0.  1.
       -1    1    3    3    0  502  0.41086559332E+03 -0.25656704650E+03  0.38583760793E+03  0.61928010209E+03  0.50400001928E-02 0. -1.
</event>
<event>
 5   0  0.8908478E-04  0.1196479E+04  0.7818609E-02  0.9115944E-01
       -1   -1    0    0    0  501  0.00000000000E+00  0.00000000000E+00  0.28493804336E+03  0.28493804340E+03  0.50400001928E-02 0. -1.
        1   -1    0    0  501    0  0.00000000000E+00  0.00000000000E+00 -0.12560300718E+04  0.12560300718E+04  0.50400001928E-02 0.  1.
    10030    2    1    2    0    0  0.00000000000E+00  0.00000000000E+00 -0.97109202840E+03  0.15409681152E+04  0.11964794208E+04 0.  0.
        4    1    3    3  502    0  0.29873568057E+03 -0.37265768470E+03 -0.21587064635E+02  0.47810497914E+03  0.12699999809E+01 0. -1.
       -4    1    3    3    0  502 -0.29873568057E+03  0.37265768470E+03 -0.94950496376E+03  0.10628631360E+04  0.12699999809E+01 0.  1.
</event>
<event>
 5   0  0.9208078E-04  0.1207100E+04  0.7818609E-02  0.9106665E-01
        1   -1    0    0  501    0  0.00000000000E+00  0.00000000000E+00  0.66984498663E+03  0.66984498665E+03  0.50400001928E-02 0.  1.
       -1   -1    0    0    0  501  0.00000000000E+00  0.00000000000E+00 -0.54381612633E+03  0.54381612635E+03  0.50400001928E-02 0. -1.
    10030    2    1    2    0    0  0.00000000000E+00  0.00000000000E+00  0.12602886030E+03  0.12136611130E+04  0.12070998399E+04 0.  0.
        3    1    3    3  502    0  0.28215214557E+03 -0.51664096559E+03 -0.70919155081E+02  0.59292264026E+03  0.10100000352E+00 0. -1.
       -3    1    3    3    0  502 -0.28215214557E+03  0.51664096559E+03  0.19694801538E+03  0.62073847274E+03  0.10100000352E+00 0.  1.
</event>
<event>
 5   0  0.1567019E-03  0.1203111E+04  0.7818609E-02  0.9110138E-01
        2   -1    0    0  501    0  0.00000000000E+00  0.00000000000E+00  0.11117093545E+04  0.11117093545E+04  0.25500000920E-02 0.  1.
       -2   -1    0    0    0  501  0.00000000000E+00  0.00000000000E+00 -0.32550661839E+03  0.32550661840E+03  0.25500000920E-02 0. -1.
    10030    2    1    2    0    0  0.00000000000E+00  0.00000000000E+00  0.78620273611E+03  0.14372159729E+04  0.12031105562E+04 0.  0.
        5    1    3    3  502    0  0.23938339401E+03  0.23821144626E+03  0.98775628037E+03  0.10439030903E+04  0.46999998093E+01 0.  1.
       -5    1    3    3    0  502 -0.23938339401E+03 -0.23821144626E+03 -0.20155354425E+03  0.39331288265E+03  0.46999998093E+01 0. -1.
</event>
<event>
 5   0  0.1567019E-03  0.1340919E+04  0.7818609E-02  0.8997731E-01
       -2   -1    0    0    0  501  0.00000000000E+00  0.00000000000E+00  0.61161323466E+03  0.61161323467E+03  0.25500000920E-02 0.  1.
        2   -1    0    0  501    0  0.00000000000E+00  0.00000000000E+00 -0.73496801441E+03  0.73496801442E+03  0.25500000920E-02 0. -1.
    10030    2    1    2    0    0  0.00000000000E+00  0.00000000000E+00 -0.12335477975E+03  0.13465812491E+04  0.13409193334E+04 0.  0.
        5    1    3    3  502    0 -0.54818986924E+03 -0.25132113356E+03  0.23250944146E+03  0.64634137673E+03  0.46999998093E+01 0.  1.
       -5    1    3    3    0  502  0.54818986924E+03  0.25132113356E+03 -0.35586422121E+03  0.70023987236E+03  0.46999998093E+01 0. -1.
</event>
<event>
 5   0  0.1537557E-03  0.1230341E+04  0.7818609E-02  0.9086706E-01
        2   -1    0    0  501    0  0.00000000000E+00  0.00000000000E+00  0.12132544777E+04  0.12132544777E+04  0.25500000920E-02 0. -1.
       -2   -1    0    0    0  501  0.00000000000E+00  0.00000000000E+00 -0.31191681693E+03  0.31191681694E+03  0.25500000920E-02 0.  1.
    10030    2    1    2    0    0  0.00000000000E+00  0.00000000000E+00  0.90133766075E+03  0.15251712946E+04  0.12303405623E+04 0.  0.
        2    1    3    3  502    0 -0.39672199449E+02  0.18983626833E+03 -0.27302953139E+03  0.33489821917E+03  0.25500000920E-02 0.  1.
       -2    1    3    3    0  502  0.39672199449E+02 -0.18983626833E+03  0.11743671921E+04  0.11902730755E+04  0.25500000920E-02 0. -1.
</event>
<event>
 5   0  0.1551501E-03  0.1182281E+04  0.7818609E-02  0.9128509E-01
        2   -1    0    0  501    0  0.00000000000E+00  0.00000000000E+00  0.58667443117E+03  0.58667443118E+03  0.25500000920E-02 0. -1.
       -2   -1    0    0    0  501  0.00000000000E+00  0.00000000000E+00 -0.59564015643E+03  0.59564015643E+03  0.25500000920E-02 0.  1.
    10030    2    1    2    0    0  0.00000000000E+00  0.00000000000E+00 -0.89657252561E+01  0.11823145876E+04  0.11822805927E+04 0.  0.
        4    1    3    3  502    0  0.26484654052E+03 -0.47942051037E+03 -0.22687972745E+03  0.59284377320E+03  0.12699999809E+01 0.  1.
       -4    1    3    3    0  502 -0.26484654052E+03  0.47942051037E+03  0.21791400219E+03  0.58947081441E+03  0.12699999809E+01 0. -1.
</event>
<event>
 5   0  0.9169078E-04  0.1199165E+04  0.7818609E-02  0.9113587E-01
       -1   -1    0    0    0  501  0.00000000000E+00  0.00000000000E+00  0.36964498486E+03  0.36964498489E+03  0.50400001928E-02 0.  1.
        1   -1    0    0  501    0  0.00000000000E+00  0.00000000000E+00 -0.97255317810E+03  0.97255317811E+03  0.50400001928E-02 0. -1.
    10030    2    1    2    0    0  0.00000000000E+00  0.00000000000E+00 -0.60290819324E+03  0.13421981630E+04  0.11991653845E+04 0.  0.
        1    1    3    3  502    0  0.39569510386E+03 -0.30898790921E+03  0.65442189727E+02  0.50629124373E+03  0.50400001928E-02 0.  1.
       -1    1    3    3    0  502 -0.39569510386E+03  0.30898790921E+03 -0.66835038296E+03  0.83590691927E+03  0.50400001928E-02 0. -1.
</event>
<event>
 5   0  0.9169078E-04  0.1192835E+04  0.7818609E-02  0.9119151E-01
       -1   -1    0    0    0  501  0.00000000000E+00  0.00000000000E+00  0.54403611946E+03  0.54403611949E+03  0.50400001928E-02 0.  1.
        1   -1    0    0  501    0  0.00000000000E+00  0.00000000000E+00 -0.65384278142E+03  0.65384278144E+03  0.50400001928E-02 0. -1.
    10030    2    1    2    0    0  0.00000000000E+00  0.00000000000E+00 -0.10980666196E+03  0.11978789009E+04  0.11928354280E+04 0.  0.
        1    1    3    3  502    0  0.11694297342E+03 -0.58482670061E+03 -0.58940374099E+02  0.59930951644E+03  0.50400001928E-02 0. -1.
       -1    1    3    3    0  502 -0.11694297342E+03  0.58482670061E+03 -0.50866287860E+02  0.59856938448E+03  0.50400001928E-02 0.  1.
</event>
<event>
 5   0  0.9208078E-04  0.1191776E+04  0.7818609E-02  0.9120086E-01
        1   -1    0    0  501    0  0.00000000000E+00  0.00000000000E+00  0.10847396244E+04  0.10847396244E+04  0.50400001928E-02 0. -1.
       -1   -1    0    0    0  501  0.00000000000E+00  0.00000000000E+00 -0.32734339643E+03  0.32734339647E+03  0.50400001928E-02 0.  1.
    10030    2    1    2    0    0  0.00000000000E+00  0.00000000000E+00  0.75739622795E+03  0.14120830209E+04  0.11917757388E+04 0.  0.
        3    1    3    3  502    0 -0.27056107558E+03  0.90694091958E+01 -0.25027736415E+03  0.36867915456E+03  0.10100000352E+00 0.  1.
       -3    1    3    3    0  502  0.27056107558E+03 -0.90694091958E+01  0.10076735921E+04  0.10434038663E+04  0.10100000352E+00 0. -1.
</event>
<event>
 5   0  0.1597352E-03  0.1200444E+04  0.7818609E-02  0.9112468E-01
       -2   -1    0    0    0  501  0.00000000000E+00  0.00000000000E+00  0.41223491609E+03  0.41223491609E+03  0.25500000920E-02 0. -1.
        2   -1    0    0  501    0  0.00000000000E+00  0.00000000000E+00 -0.87393543091E+03  0.87393543091E+03  0.25500000920E-02 0.  1.
    10030    2    1    2    0    0  0.00000000000E+00  0.00000000000E+00 -0.46170051482E+03  0.12861703470E+04  0.12004444161E+04 0.  0.
        1    1    3    3  502    0 -0.62339787360E+02  0.36841250713E+03 -0.73413183636E+03  0.82374970572E+03  0.50400001928E-02 0.  1.
       -1    1    3    3    0  502  0.62339787360E+02 -0.36841250713E+03  0.27243132154E+03  0.46242064128E+03  0.50400001928E-02 0. -1.
</event>
<event>
 5   0  0.6137750E-04  0.1182368E+04  0.7818609E-02  0.9128431E-01
        3   -1    0    0  501    0  0.00000000000E+00  0.00000000000E+00  0.10446241730E+04  0.10446241779E+04  0.10100000352E+00 0. -1.
       -3   -1    0    0    0  501  0.00000000000E+00  0.00000000000E+00 -0.33456867872E+03  0.33456869396E+03  0.10100000352E+00 0.  1.
    10030    2    1    2    0    0  0.00000000000E+00  0.00000000000E+00  0.71005549427E+03  0.13791928718E+04  0.11823680361E+04 0.  0.
        4    1    3    3  502    0 -0.40838133872E+03  0.10178045473E+03 -0.12924890181E+03  0.44027431255E+03  0.12699999809E+01 0.  1.
       -4    1    3    3    0  502  0.40838133872E+03 -0.10178045473E+03  0.83930439608E+03  0.93891855927E+03  0.12699999809E+01 0. -1.
</event>
<event>
 5   0  0.1537557E-03  0.1200844E+04  0.7818609E-02  0.9112118E-01
       -2   -1    0    0    0  501  0.00000000000E+00  0.00000000000E+00  0.29256873417E+03  0.29256873418E+03  0.25500000920E-02 0. -1.
        2   -1    0    0  501    0  0.00000000000E+00  0.00000000000E+00 -0.12322124596E+04  0.12322124596E+04  0.25500000920E-02 0.  1.
    10030    2    1    2    0    0  0.00000000000E+00  0.00000000000E+00 -0.93964372544E+03  0.15247811938E+04  0.12008444355E+04 0.  0.
        2    1    3    3  502    0  0.57688437010E+03  0.99086670932E+02 -0.63967106339E+03  0.86705986770E+03  0.25500000920E-02 0.  1.
       -2    1    3    3    0  502 -0.57688437010E+03 -0.99086670932E+02 -0.29997266204E+03  0.65772132610E+03  0.25500000920E-02 0. -1.
</event>
<event>
 5   0  0.8908478E-04  0.1203845E+04  0.7818609E-02  0.9109498E-01
       -1   -1    0    0    0  501  0.00000000000E+00  0.00000000000E+00  0.31867208577E+03  0.31867208581E+03  0.50400001928E-02 0.  1.
        1   -1    0    0  501    0  0.00000000000E+00  0.00000000000E+00 -0.11369387979E+04  0.11369387979E+04  0.50400001928E-02 0. -1.
    10030    2    1    2    0    0  0.00000000000E+00  0.00000000000E+00 -0.81826671208E+03  0.14556108837E+04  0.12038449371E+04 0.  0.
        4    1    3    3  502    0 -0.23570873391E+03  0.36662484656E+03 -0.91108696293E+03  0.10099769563E+04  0.12699999809E+01 0. -1.
       -4    1    3    3    0  502  0.23570873391E+03 -0.36662484656E+03  0.92820250847E+02  0.44563392737E+03  0.12699999809E+01 0.  1.
</event>
<event>
 5   0  0.9170776E-04  0.1211063E+04  0.7818609E-02  0.9103228E-01
        1   -1    0    0  501    0  0.00000000000E+00  0.00000000000E+00  0.49957738605E+03  0.49957738607E+03  0.50400001928E-02 0.  1.
       -1   -1    0    0    0  501  0.00000000000E+00  0.00000000000E+00 -0.73395661587E+03  0.73395661588E+03  0.50400001928E-02 0. -1.
    10030    2    1    2    0    0  0.00000000000E+00  0.00000000000E+00 -0.23437922982E+03  0.12335340020E+04  0.12110625544E+04 0.  0.
        5    1    3    3  502    0  0.21170731553E+03 -0.55743687682E+03 -0.99256568633E+01  0.59638617334E+03  0.46999998093E+01 0. -1.
       -5    1    3    3    0  502 -0.21170731553E+03  0.55743687682E+03 -0.22445357296E+03  0.63714782861E+03  0.46999998093E+01 0.  1.
</event>
<event>
 5   0  0.1597352E-03  0.1190998E+04  0.7818609E-02  0.9120773E-01
       -2   -1    0    0    0  501  0.00000000000E+00  0.00000000000E+00  0.65684300624E+03  0.65684300625E+03  0.25500000920E-02 0. -1.
        2   -1    0    0  501    0  0.00000000000E+00  0.00000000000E+00 -0.53988418005E+03  0.53988418006E+03  0.25500000920E-02 0.  1.
    10030    2    1    2    0    0  0.00000000000E+00  0.00000000000E+00  0.11695882619E+03  0.11967271863E+04  0.11909981492E+04 0.  0.
        1    1    3    3  502    0 -0.41440547194E+03  0.41302364548E+03  0.16991246986E+03  0.60925419518E+03  0.50400001928E-02 0. -1.
       -1    1    3    3    0  502  0.41440547194E+03 -0.41302364548E+03 -0.52953643671E+02  0.58747299113E+03  0.50400001928E-02 0.  1.
</event>
<event>
 5   0  0.9208078E-04  0.1210639E+04  0.7818609E-02  0.9103595E-01
       -1   -1    0    0    0  501  0.00000000000E+00  0.00000000000E+00  0.13214233712E+04  0.13214233713E+04  0.50400001928E-02 0.  1.
        1   -1    0    0  501    0  0.00000000000E+00  0.00000000000E+00 -0.27728556578E+03  0.27728556582E+03  0.50400001928E-02 0. -1.
    10030    2    1    2    0    0  0.00000000000E+00  0.00000000000E+00  0.10441378055E+04  0.15987089371E+04  0.12106388845E+04 0.  0.
        3    1    3    3  502    0 -0.28617532335E+03  0.30055705166E+03 -0.59843859559E+02  0.41929960020E+03  0.10100000352E+00 0. -1.
       -3    1    3    3    0  502  0.28617532335E+03 -0.30055705166E+03  0.11039816650E+04  0.11794093369E+04  0.10100000352E+00 0.  1.
</event>
<event>
 5   0  0.1537557E-03  0.1207974E+04  0.7818609E-02  0.9105905E-01
        2   -1    0    0  501    0  0.00000000000E+00  0.00000000000E+00  0.77593138523E+03  0.77593138524E+03  0.25500000920E-02 0.  1.
       -2   -1    0    0    0  501  0.00000000000E+00  0.00000000000E+00 -0.47014524687E+03  0.47014524688E+03  0.25500000920E-02 0. -1.
    10030    2    1    2    0    0  0.00000000000E+00  0.00000000000E+00  0.30578613836E+03  0.12460766321E+04  0.12079742591E+04 0.  0.
        2    1    3    3  502    0  0.15849251401E+03 -0.52564162099E+02  0.75164773538E+03  0.76997219836E+03  0.25500000920E-02 0.  1.
       -2    1    3    3    0  502 -0.15849251401E+03  0.52564162099E+02 -0.44586159702E+03  0.47610443376E+03  0.25500000920E-02 0. -1.
</event>
<event>
 5   0  0.1537557E-03  0.1201188E+04  0.7818609E-02  0.9111818E-01
        2   -1    0    0  501    0  0.00000000000E+00  0.00000000000E+00  0.19194390233E+04  0.19194390233E+04  0.25500000920E-02 0.  1.
       -2   -1    0    0    0  501  0.00000000000E+00  0.00000000000E+00 -0.18792625499E+03  0.18792625501E+03  0.25500000920E-02 0. -1.
    10030    2    1    2    0    0  0.00000000000E+00  0.00000000000E+00  0.17315127683E+04  0.21073652783E+04  0.12011877245E+04 0.  0.
        2    1    3    3  502    0 -0.36148065302E+03 -0.12429430096E+03  0.53039291612E+02  0.38591514899E+03  0.25500000920E-02 0. -1.
       -2    1    3    3    0  502  0.36148065302E+03  0.12429430096E+03  0.16784734767E+04  0.17214501293E+04  0.25500000920E-02 0.  1.
</event>
<event>
 5   0  0.1537557E-03  0.1182487E+04  0.7818609E-02  0.9128326E-01
        2   -1    0    0  501    0  0.00000000000E+00  0.00000000000E+00  0.22966496713E+04  0.22966496713E+04  0.25500000920E-02 0.  1.
       -2   -1    0    0    0  501  0.00000000000E+00  0.00000000000E+00 -0.15220809231E+03  0.15220809233E+03  0.25500000920E-02 0. -1.
    10030    2    1    2    0    0  0.00000000000E+00  0.00000000000E+00  0.21444415790E+04  0.24488577637E+04  0.11824866430E+04 0.  0.
        2    1    3    3  502    0 -0.18879105182E+03  0.19721334332E+03 -0.13854957846E+02  0.27336262344E+03  0.25500000920E-02 0. -1.
       -2    1    3    3    0  502  0.18879105182E+03 -0.19721334332E+03  0.21582965369E+04  0.21754951402E+04  0.25500000920E-02 0.  1.
</event>
<event>
 5   0  0.1647550E-03  0.1202082E+04  0.7818609E-02  0.9111036E-01
        2   -1    0    0  501    0  0.00000000000E+00  0.00000000000E+00  0.71827915834E+03  0.71827915834E+03  0.25500000920E-02 0. -1.
       -2   -1    0    0    0  501  0.00000000000E+00  0.00000000000E+00 -0.50293857007E+03  0.50293857008E+03  0.25500000920E-02 0.  1.
    10030    2    1    2    0    0  0.00000000000E+00  0.00000000000E+00  0.21534058826E+03  0.12212177284E+04  0.12020820152E+04 0.  0.
        3    1    3    3  502    0  0.91388921776E+02  0.36289125908E+03  0.58548519784E+03  0.69486324412E+03  0.10100000352E+00 0. -1.
       -3    1    3    3    0  502 -0.91388921776E+02 -0.36289125908E+03 -0.37014460958E+03  0.52635448430E+03  0.10100000352E+00 0.  1.
</event>
<event>
 5   0  0.1597352E-03  0.1204192E+04  0.7818609E-02  0.9109195E-01
       -2   -1    0    0    0  501  0.00000000000E+00  0.00000000000E+00  0.44663418344E+03  0.44663418345E+03  0.25500000920E-02 0.  1.
        2   -1    0    0  501    0  0.00000000000E+00  0.00000000000E+00 -0.81166994082E+03  0.81166994083E+03  0.25500000920E-02 0. -1.
    10030    2    1    2    0    0  0.00000000000E+00  0.00000000000E+00 -0.36503575738E+03  0.12583041243E+04  0.12041919137E+04 0.  0.
        1    1    3    3  502    0  0.43663785744E+03  0.90641598560E+02  0.24019869534E+03  0.50652140252E+03  0.50400001928E-02 0.  1.
       -1    1    3    3    0  502 -0.43663785744E+03 -0.90641598560E+02 -0.60523445272E+03  0.75178272176E+03  0.50400001928E-02 0. -1.
</event>
<event>
 5   0  0.1567019E-03  0.1209080E+04  0.7818609E-02  0.9104945E-01
        2   -1    0    0  501    0  0.00000000000E+00  0.00000000000E+00  0.73800547938E+03  0.73800547938E+03  0.25500000920E-02 0.  1.
       -2   -1    0    0    0  501  0.00000000000E+00  0.00000000000E+00 -0.49521157564E+03  0.49521157564E+03  0.25500000920E-02 0. -1.
    10030    2    1    2    0    0  0.00000000000E+00  0.00000000000E+00  0.24279390374E+03  0.12332170550E+04  0.12090804047E+04 0.  0.
        5    1    3    3  502    0  0.57545172693E+03  0.17921790442E+03  0.73741444680E+02  0.60722618352E+03  0.46999998093E+01 0.  1.
       -5    1    3    3    0  502 -0.57545172693E+03 -0.17921790442E+03  0.16905245906E+03  0.62599087150E+03  0.46999998093E+01 0. -1.
</event>
<event>
 5   0  0.8908478E-04  0.1202567E+04  0.7818609E-02  0.9110613E-01
        1   -1    0    0  501    0  0.00000000000E+00  0.00000000000E+00  0.36339196969E+03  0.36339196973E+03  0.50400001928E-02 0.  1.
       -1   -1    0    0    0  501  0.00000000000E+00  0.00000000000E+00 -0.99490840388E+03  0.99490840389E+03  0.50400001928E-02 0. -1.
    10030    2    1    2    0    0  0.00000000000E+00  0.00000000000E+00 -0.63151643419E+03  0.13583003736E+04  0.12025667958E+04 0.  0.
        4    1    3    3  502    0 -0.51032480605E+03 -0.18079477936E+03 -0.20307981195E+02  0.54178610808E+03  0.12699999809E+01 0.  1.
       -4    1    3    3    0  502  0.51032480605E+03  0.18079477936E+03 -0.61120845300E+03  0.81651426554E+03  0.12699999809E+01 0. -1.
</event>
<event>
 5   0  0.9170776E-04  0.1197721E+04  0.7818609E-02  0.9114854E-01
        1   -1    0    0  501    0  0.00000000000E+00  0.00000000000E+00  0.70466673627E+03  0.70466673629E+03  0.50400001928E-02 0. -1.
       -1   -1    0    0    0  501  0.00000000000E+00  0.00000000000E+00 -0.50894122244E+03  0.50894122246E+03  0.50400001928E-02 0.  1.
    10030    2    1    2    0    0  0.00000000000E+00  0.00000000000E+00  0.19572551384E+03  0.12136079588E+04  0.11977210864E+04 0.  0.
        5    1    3    3  502    0  0.76803057900E+02  0.77972489325E+02 -0.49870248990E+03  0.51059248156E+03  0.46999998093E+01 0.  1.
       -5    1    3    3    0  502 -0.76803057900E+02 -0.77972489325E+02  0.69442800374E+03  0.70301547719E+03  0.46999998093E+01 0. -1.
</event>
<event>
 5   0  0.1551501E-03  0.1204362E+04  0.7818609E-02  0.9109047E-01
       -2   -1    0    0    0  501  0.00000000000E+00  0.00000000000E+00  0.29919455239E+03  0.29919455240E+03  0.25500000920E-02 0.  1.
        2   -1    0    0  501    0  0.00000000000E+00  0.00000000000E+00 -0.12119940977E+04  0.12119940977E+04  0.25500000920E-02 0. -1.
    10030    2    1    2    0    0  0.00000000000E+00  0.00000000000E+00 -0.91279954534E+03  0.15111886501E+04  0.12043621242E+04 0.  0.
        4    1    3    3  502    0  0.22562154567E+02  0.10103887788E+02 -0.12113554329E+04  0.12116083266E+04  0.12699999809E+01 0. -1.
       -4    1    3    3    0  502 -0.22562154567E+02 -0.10103887788E+02  0.29855588755E+03  0.29958032354E+03  0.12699999809E+01 0.  1.
</event>
<event>
 5   0  0.1537557E-03  0.1190662E+04  0.7818609E-02  0.9121070E-01
        2   -1    0    0  501    0  0.00000000000E+00  0.00000000000E+00  0.72041121874E+03  0.72041121875E+03  0.25500000920E-02 0. -1.
       -2   -1    0    0    0  501  0.00000000000E+00  0.00000000000E+00 -0.49196745180E+03  0.49196745181E+03  0.25500000920E-02 0.  1.
    10030    2    1    2    0    0  0.00000000000E+00  0.00000000000E+00  0.22844376694E+03  0.12123786706E+04  0.11906617850E+04 0.  0.
        2    1    3    3  502    0  0.40324730212E+03  0.43389541864E+03  0.17484989700E+03  0.61761323453E+03  0.25500000920E-02 0.  1.
       -2    1    3    3    0  502 -0.40324730212E+03 -0.43389541864E+03  0.53593869945E+02  0.59476543602E+03  0.25500000920E-02 0. -1.
</event>
<event>
 5   0  0.9170776E-04  0.1199622E+04  0.7818609E-02  0.9113187E-01
       -1   -1    0    0    0  501  0.00000000000E+00  0.00000000000E+00  0.15148775165E+04  0.15148775165E+04  0.50400001928E-02 0.  1.
        1   -1    0    0  501    0  0.00000000000E+00  0.00000000000E+00 -0.23749343573E+03  0.23749343578E+03  0.50400001928E-02 0. -1.
    10030    2    1    2    0    0  0.00000000000E+00  0.00000000000E+00  0.12773840808E+04  0.17523709523E+04  0.11996223842E+04 0.  0.
        5    1    3    3  502    0  0.28734914797E+03 -0.15512320694E+03  0.13736179250E+04  0.14119068794E+04  0.46999998093E+01 0.  1.
       -5    1    3    3    0  502 -0.28734914797E+03  0.15512320694E+03 -0.96233844221E+02  0.34046407291E+03  0.46999998093E+01 0. -1.
</event>
<event>
 5   0  0.9358428E-04  0.1203512E+04  0.7818609E-02  0.9109788E-01
        1   -1    0    0  501    0  0.00000000000E+00  0.00000000000E+00  0.31371311583E+03  0.31371311588E+03  0.50400001928E-02 0.  1.
       -1   -1    0    0    0  501  0.00000000000E+00  0.00000000000E+00 -0.11542715372E+04  0.11542715372E+04  0.50400001928E-02 0. -1.
    10030    2    1    2    0    0  0.00000000000E+00  0.00000000000E+00 -0.84055842138E+03  0.14679846531E+04  0.12035117291E+04 0.  0.
        2    1    3    3  502    0 -0.57259416554E+02 -0.55908109289E+03 -0.68262440706E+03  0.88420947198E+03  0.25500000920E-02 0.  1.
       -2    1    3    3    0  502  0.57259416554E+02  0.55908109289E+03 -0.15793401431E+03  0.58377518112E+03  0.25500000920E-02 0. -1.
</event>
<event>
 5   0  0.1567019E-03  0.1207904E+04  0.7818609E-02  0.9105966E-01
        2   -1    0    0  501    0  0.00000000000E+00  0.00000000000E+00  0.23359402884E+04  0.23359402884E+04  0.25500000920E-02 0. -1.
       -2   -1    0    0    0  501  0.00000000000E+00  0.00000000000E+00 -0.15615051747E+03  0.15615051749E+03  0.25500000920E-02 0.  1.
    10030    2    1    2    0    0  0.00000000000E+00  0.00000000000E+00  0.21797897709E+04  0.24920908059E+04  0.12079044413E+04 0.  0.
        5    1    3    3  502    0  0.67553442899E+02  0.50665859576E+02  0.23236628797E+04  0.23252014462E+04  0.46999998093E+01 0. -1.
       -5    1    3    3    0  502 -0.67553442899E+02 -0.50665859576E+02 -0.14387310873E+03  0.16688935972E+03  0.46999998093E+01 0.  1.
</event>
<event>
 5   0  0.9358428E-04  0.1207233E+04  0.7818609E-02  0.9106549E-01
        1   -1    0    0  501    0  0.00000000000E+00  0.00000000000E+00  0.96747474868E+03  0.96747474869E+03  0.50400001928E-02 0. -1.
       -1   -1    0    0    0  501  0.00000000000E+00  0.00000000000E+00 -0.37660225774E+03  0.37660225778E+03  0.50400001928E-02 0.  1.
    10030    2    1    2    0    0  0.00000000000E+00  0.00000000000E+00  0.59087249094E+03  0.13440770065E+04  0.12072334897E+04 0.  0.
        2    1    3    3  502    0 -0.32147812620E+03  0.11897205119E+03  0.84859527465E+03  0.91521389563E+03  0.25500000920E-02 0. -1.
       -2    1    3    3    0  502  0.32147812620E+03 -0.11897205119E+03 -0.25772278371E+03  0.42886311084E+03  0.25500000920E-02 0.  1.
</event>
<event>
 5   0  0.9208078E-04  0.1223311E+04  0.7818609E-02  0.9092693E-01
        1   -1    0    0  501    0  0.00000000000E+00  0.00000000000E+00  0.28159714331E+04  0.28159714331E+04  0.50400001928E-02 0. -1.
       -1   -1    0    0    0  501  0.00000000000E+00  0.00000000000E+00 -0.13285739806E+03  0.13285739816E+03  0.50400001928E-02 0.  1.
    10030    2    1    2    0    0  0.00000000000E+00  0.00000000000E+00  0.26831140350E+04  0.29488288312E+04  0.12233113059E+04 0.  0.
        3    1    3    3  502    0  0.15726907548E+03 -0.36027720332E+03  0.21197371817E+03  0.44661627011E+03  0.10100000352E+00 0.  1.
       -3    1    3    3    0  502 -0.15726907548E+03  0.36027720332E+03  0.24711403168E+04  0.25022125611E+04  0.10100000352E+00 0. -1.
</event>
<event>
 5   0  0.9169078E-04  0.1194490E+04  0.7818609E-02  0.9117693E-01
        1   -1    0    0  501    0  0.00000000000E+00  0.00000000000E+00  0.66599509585E+03  0.66599509587E+03  0.50400001928E-02 0.  1.
       -1   -1    0    0    0  501  0.00000000000E+00  0.00000000000E+00 -0.53559233876E+03  0.53559233878E+03  0.50400001928E-02 0. -1.
    10030    2    1    2    0    0  0.00000000000E+00  0.00000000000E+00  0.13040275709E+03  0.12015874347E+04  0.11944904705E+04 0.  0.
        1    1    3    3  502    0 -0.30655081008E+03  0.10510011292E+03 -0.43945892548E+03  0.54602525592E+03  0.50400001928E-02 0. -1.
       -1    1    3    3    0  502  0.30655081008E+03 -0.10510011292E+03  0.56986168257E+03  0.65556217873E+03  0.50400001928E-02 0.  1.
</event>
<event>
 5   0  0.1597352E-03  0.1187857E+04  0.7818609E-02  0.9123552E-01
       -2   -1    0    0    0  501  0.00000000000E+00  0.00000000000E+00  0.52214279781E+03  0.52214279782E+03  0.25500000920E-02 0.  1.
        2   -1    0    0  501    0  0.00000000000E+00  0.00000000000E+00 -0.67558353006E+03  0.67558353007E+03  0.25500000920E-02 0. -1.
    10030    2    1    2    0    0  0.00000000000E+00  0.00000000000E+00 -0.15344073225E+03  0.11977263279E+04  0.11878570193E+04 0.  0.
        1    1    3    3  502    0  0.30796779728E+03 -0.36556984971E+03 -0.43216247765E+03  0.64439885653E+03  0.50400001928E-02 0. -1.
       -1    1    3    3    0  502 -0.30796779728E+03  0.36556984971E+03  0.27872174540E+03  0.55332747136E+03  0.50400001928E-02 0.  1.
</event>
<event>
 5   0  0.6137750E-04  0.1219156E+04  0.7818609E-02  0.9096253E-01
        3   -1    0    0  501    0  0.00000000000E+00  0.00000000000E+00  0.42474377769E+03  0.42474378969E+03  0.10100000352E+00 0.  1.
       -3   -1    0    0    0  501  0.00000000000E+00  0.00000000000E+00 -0.87484558264E+03  0.87484558847E+03  0.10100000352E+00 0. -1.
    10030    2    1    2    0    0  0.00000000000E+00  0.00000000000E+00 -0.45010180495E+03  0.12995893782E+04  0.12191558215E+04 0.  0.
        1    1    3    3  502    0  0.17290853054E+03 -0.38990445300E+03 -0.68928554131E+03  0.81057843537E+03  0.50400001928E-02 0. -1.
       -1    1    3    3    0  502 -0.17290853054E+03  0.38990445300E+03  0.23918373636E+03  0.48901094279E+03  0.50400001928E-02 0.  1.
</event>
<event>
 5   0  0.1647550E-03  0.1198555E+04  0.7818609E-02  0.9114123E-01
        2   -1    0    0  501    0  0.00000000000E+00  0.00000000000E+00  0.96816666715E+03  0.96816666716E+03  0.25500000920E-02 0. -1.
       -2   -1    0    0    0  501  0.00000000000E+00  0.00000000000E+00 -0.37094159383E+03  0.37094159384E+03  0.25500000920E-02 0.  1.
    10030    2    1    2    0    0  0.00000000000E+00  0.00000000000E+00  0.59722507333E+03  0.13391082610E+04  0.11985546072E+04 0.  0.
        3    1    3    3  502    0 -0.36700314991E+03  0.30421942770E+03 -0.10714623822E+03  0.48859093197E+03  0.10100000352E+00 0.  1.
       -3    1    3    3    0  502  0.36700314991E+03 -0.30421942770E+03  0.70437131154E+03  0.85051732902E+03  0.10100000352E+00 0. -1.
</event>
<event>
 5   0  0.1567019E-03  0.1185904E+04  0.7818609E-02  0.9125285E-01
       -2   -1    0    0    0  501  0.00000000000E+00  0.00000000000E+00  0.71950454522E+03  0.71950454523E+03  0.25500000920E-02 0.  1.
        2   -1    0    0  501    0  0.00000000000E+00  0.00000000000E+00 -0.48865879183E+03  0.48865879184E+03  0.25500000920E-02 0. -1.
    10030    2    1    2    0    0  0.00000000000E+00  0.00000000000E+00  0.23084575339E+03  0.12081633371E+04  0.11859042487E+04 0.  0.
        5    1    3    3  502    0  0.17094420626E+03 -0.39839670004E+03 -0.29667958567E+03  0.52534057411E+03  0.46999998093E+01 0. -1.
       -5    1    3    3    0  502 -0.17094420626E+03  0.39839670004E+03  0.52752533906E+03  0.68282276295E+03  0.46999998093E+01 0.  1.
</event>
<event>
 5   0  0.1551501E-03  0.1199383E+04  0.7818609E-02  0.9113397E-01
       -2   -1    0    0    0  501  0.00000000000E+00  0.00000000000E+00  0.42434002686E+03  0.42434002687E+03  0.25500000920E-02 0.  1.
        2   -1    0    0  501    0  0.00000000000E+00  0.00000000000E+00 -0.84750441604E+03  0.84750441604E+03  0.25500000920E-02 0. -1.
    10030    2    1    2    0    0  0.00000000000E+00  0.00000000000E+00 -0.42316438918E+03  0.12718444429E+04  0.11993832526E+04 0.  0.
        4    1    3    3  502    0  0.53064047889E+03  0.84261569559E+02  0.70872939716E+02  0.54194456952E+03  0.12699999809E+01 0.  1.
       -4    1    3    3    0  502 -0.53064047889E+03 -0.84261569559E+02 -0.49403732890E+03  0.72989987340E+03  0.12699999809E+01 0. -1.
</event>
<event>
 5   0  0.1597352E-03  0.1202789E+04  0.7818609E-02  0.9110419E-01
        2   -1    0    0  501    0  0.00000000000E+00  0.00000000000E+00  0.87160935665E+03  0.87160935666E+03  0.25500000920E-02 0.  1.
       -2   -1    0    0    0  501  0.00000000000E+00  0.00000000000E+00 -0.41495115085E+03  0.41495115085E+03  0.25500000920E-02 0. -1.
    10030    2    1    2    0    0  0.00000000000E+00  0.00000000000E+00  0.45665820581E+03  0.12865605075E+04  0.12027889352E+04 0.  0.
        1    1    3    3  502    0  0.46538566430E+03 -0.12037377654E+03 -0.15822929449E+03  0.50607328746E+03  0.50400001928E-02 0. -1.
       -1    1    3    3    0  502 -0.46538566430E+03  0.12037377654E+03  0.61488750030E+03  0.78048722005E+03  0.50400001928E-02 0.  1.
</event>
<event>
 5   0  0.9358428E-04  0.1187090E+04  0.7818609E-02  0.9124233E-01
       -1   -1    0    0    0  501  0.00000000000E+00  0.00000000000E+00  0.54431831676E+03  0.54431831679E+03  0.50400001928E-02 0.  1.
        1   -1    0    0  501    0  0.00000000000E+00  0.00000000000E+00 -0.64722331232E+03  0.64722331234E+03  0.50400001928E-02 0. -1.
    10030    2    1    2    0    0  0.00000000000E+00  0.00000000000E+00 -0.10290499556E+03  0.11915416291E+04  0.11870897253E+04 0.  0.
        2    1    3    3  502    0 -0.44368654045E+03  0.31955629752E+03 -0.28323304144E+03  0.61578805545E+03  0.25500000920E-02 0. -1.
       -2    1    3    3    0  502  0.44368654045E+03 -0.31955629752E+03  0.18032804588E+03  0.57575357368E+03  0.25500000920E-02 0.  1.
</event>
<event>
 5   0  0.9208078E-04  0.1156023E+04  0.7818609E-02  0.9152245E-01
        1   -1    0    0  501    0  0.00000000000E+00  0.00000000000E+00  0.31284403979E+03  0.31284403984E+03  0.50400001928E-02 0.  1.
       -1   -1    0    0    0  501  0.00000000000E+00  0.00000000000E+00 -0.10679352824E+04  0.10679352824E+04  0.50400001928E-02 0. -1.
    10030    2    1    2    0    0  0.00000000000E+00  0.00000000000E+00 -0.75509124256E+03  0.13807793222E+04  0.11560228164E+04 0.  0.
        3    1    3    3  502    0  0.29852607861E+02 -0.17091927628E+03  0.28100532053E+03  0.33025532179E+03  0.10100000352E+00 0.  1.
       -3    1    3    3    0  502 -0.29852607861E+02  0.17091927628E+03 -0.10360965631E+04  0.10505240004E+04  0.10100000352E+00 0. -1.
</event>
<event>
 5   0  0.6137750E-04  0.1208287E+04  0.7818609E-02  0.9105634E-01
       -3   -1    0    0    0  501  0.00000000000E+00  0.00000000000E+00  0.79485249276E+03  0.79485249917E+03  0.10100000352E+00 0.  1.
        3   -1    0    0  501    0  0.00000000000E+00  0.00000000000E+00 -0.45919122565E+03  0.45919123676E+03  0.10100000352E+00 0. -1.
    10030    2    1    2    0    0  0.00000000000E+00  0.00000000000E+00  0.33566126711E+03  0.12540437359E+04  0.12082868887E+04 0.  0.
        5    1    3    3  502    0  0.42988372380E+03 -0.37406618988E+03  0.37603061046E+03  0.68274932472E+03  0.46999998093E+01 0.  1.
       -5    1    3    3    0  502 -0.42988372380E+03  0.37406618988E+03 -0.40369343349E+02  0.57129441121E+03  0.46999998093E+01 0. -1.
</event>
<event>
 5   0  0.1647550E-03  0.1194681E+04  0.7818609E-02  0.9117525E-01
       -2   -1    0    0    0  501  0.00000000000E+00  0.00000000000E+00  0.91287290677E+03  0.91287290677E+03  0.25500000920E-02 0. -1.
        2   -1    0    0  501    0  0.00000000000E+00  0.00000000000E+00 -0.39087130790E+03  0.39087130791E+03  0.25500000920E-02 0.  1.
    10030    2    1    2    0    0  0.00000000000E+00  0.00000000000E+00  0.52200159887E+03  0.13037442147E+04  0.11946812580E+04 0.  0.
        3    1    3    3  502    0 -0.45214928350E+03  0.36416282886E+03  0.41441262130E+03  0.71329613162E+03  0.10100000352E+00 0. -1.
       -3    1    3    3    0  502  0.45214928350E+03 -0.36416282886E+03  0.10758897756E+03  0.59044808306E+03  0.10100000352E+00 0.  1.
</event>
<event>
 5   0  0.1647550E-03  0.1199037E+04  0.7818609E-02  0.9113700E-01
       -2   -1    0    0    0  501  0.00000000000E+00  0.00000000000E+00  0.28227496651E+03  0.28227496652E+03  0.25500000920E-02 0.  1.
        2   -1    0    0  501    0  0.00000000000E+00  0.00000000000E+00 -0.12733063628E+04  0.12733063628E+04  0.25500000920E-02 0. -1.
    10030    2    1    2    0    0  0.00000000000E+00  0.00000000000E+00 -0.99103139625E+03  0.15555813293E+04  0.11990371319E+04 0.  0.
        3    1    3    3  502    0  0.33793255215E+03 -0.10257445019E+03  0.13300417589E+03  0.37737255947E+03  0.10100000352E+00 0.  1.
       -3    1    3    3    0  502 -0.33793255215E+03  0.10257445019E+03 -0.11240355721E+04  0.11782087698E+04  0.10100000352E+00 0. -1.
</event>
<event>
 5   0  0.9358428E-04  0.1205088E+04  0.7818609E-02  0.9108415E-01
       -1   -1    0    0    0  501  0.00000000000E+00  0.00000000000E+00  0.39065048753E+03  0.39065048756E+03  0.50400001928E-02 0. -1.
        1   -1    0    0  501    0  0.00000000000E+00  0.00000000000E+00 -0.92937132747E+03  0.92937132749E+03  0.50400001928E-02 0.  1.
    10030    2    1    2    0    0  0.00000000000E+00  0.00000000000E+00 -0.53872083994E+03  0.13200218150E+04  0.12050881498E+04 0.  0.
        2    1    3    3  502    0  0.32893793515E+03  0.43477891249E+03 -0.55039687320E+03  0.77470612878E+03  0.25500000920E-02 0.  1.
       -2    1    3    3    0  502 -0.32893793515E+03 -0.43477891249E+03  0.11676033263E+02  0.54531568627E+03  0.25500000920E-02 0. -1.
</event>
<event>
 5   0  0.9169078E-04  0.1192519E+04  0.7818609E-02  0.9119430E-01
       -1   -1    0    0    0  501  0.00000000000E+00  0.00000000000E+00  0.15174229883E+03  0.15174229891E+03  0.50400001928E-02 0.  1.
        1   -1    0    0  501    0  0.00000000000E+00  0.00000000000E+00 -0.23429536828E+04  0.23429536828E+04  0.50400001928E-02 0. -1.
    10030    2    1    2    0    0  0.00000000000E+00  0.00000000000E+00 -0.21912113839E+04  0.24946959817E+04  0.11925186422E+04 0.  0.
        1    1    3    3  502    0  0.33734328896E+03  0.40642026618E+03 -0.51682071656E+03  0.73897332865E+03  0.50400001928E-02 0.  1.
       -1    1    3    3    0  502 -0.33734328896E+03 -0.40642026618E+03 -0.16743906674E+04  0.17557226530E+04  0.50400001928E-02 0. -1.
</event>
<event>
 5   0  0.1567019E-03  0.1194394E+04  0.7818609E-02  0.9117778E-01
       -2   -1    0    0    0  501  0.00000000000E+00  0.00000000000E+00  0.35609893061E+03  0.35609893062E+03  0.25500000920E-02 0.  1.
        2   -1    0    0  501    0  0.00000000000E+00  0.00000000000E+00 -0.10015311104E+04  0.10015311104E+04  0.25500000920E-02 0. -1.
    10030    2    1    2    0    0  0.00000000000E+00  0.00000000000E+00 -0.64543217979E+03  0.13576300410E+04  0.11943938335E+04 0.  0.
        5    1    3    3  502    0  0.49496821449E+03  0.28611712438E+03 -0.51882199063E+03  0.77204591196E+03  0.46999998093E+01 0. -1.
       -5    1    3    3    0  502 -0.49496821449E+03 -0.28611712438E+03 -0.12661018916E+03  0.58558412906E+03  0.46999998093E+01 0.  1.
</event>
<event>
 5   0  0.8908478E-04  0.1198184E+04  0.7818609E-02  0.9114448E-01
        1   -1    0    0  501    0  0.00000000000E+00  0.00000000000E+00  0.58067700731E+03  0.58067700734E+03  0.50400001928E-02 0.  1.
       -1   -1    0    0    0  501  0.00000000000E+00  0.00000000000E+00 -0.61809092810E+03  0.61809092812E+03  0.50400001928E-02 0. -1.
    10030    2    1    2    0    0  0.00000000000E+00  0.00000000000E+00 -0.37413920781E+02  0.11987679355E+04  0.11981839431E+04 0.  0.
        4    1    3    3  502    0  0.39214632315E+03  0.35171903308E+03 -0.30419593070E+03  0.60829416744E+03  0.12699999809E+01 0. -1.
       -4    1    3    3    0  502 -0.39214632315E+03 -0.35171903308E+03  0.26678200992E+03  0.59047376801E+03  0.12699999809E+01 0.  1.
</event>
<event>
 5   0  0.9169078E-04  0.1199312E+04  0.7818609E-02  0.9113459E-01
       -1   -1    0    0    0  501  0.00000000000E+00  0.00000000000E+00  0.21683836066E+03  0.21683836072E+03  0.50400001928E-02 0.  1.
        1   -1    0    0  501    0  0.00000000000E+00  0.00000000000E+00 -0.16583191682E+04  0.16583191682E+04  0.50400001928E-02 0. -1.
    10030    2    1    2    0    0  0.00000000000E+00  0.00000000000E+00 -0.14414808076E+04  0.18751575290E+04  0.11993118193E+04 0.  0.
        1    1    3    3  502    0  0.10961241028E+03  0.47828855534E+03 -0.12596755484E+04  0.13518717801E+04  0.50400001928E-02 0. -1.
       -1    1    3    3    0  502 -0.10961241028E+03 -0.47828855534E+03 -0.18180525920E+03  0.52328574886E+03  0.50400001928E-02 0.  1.
</event>
<event>
 5   0  0.1551501E-03  0.1200228E+04  0.7818609E-02  0.9112657E-01
       -2   -1    0    0    0  501  0.00000000000E+00  0.00000000000E+00  0.24795110584E+03  0.24795110586E+03  0.25500000920E-02 0.  1.
        2   -1    0    0  501    0  0.00000000000E+00  0.00000000000E+00 -0.14524508973E+04  0.14524508973E+04  0.25500000920E-02 0. -1.
    10030    2    1    2    0    0  0.00000000000E+00  0.00000000000E+00 -0.12044997915E+04  0.17004020032E+04  0.12002279886E+04 0.  0.
        4    1    3    3  502    0 -0.99373483066E+02  0.28064736223E+03  0.13594409439E+03  0.32729259198E+03  0.12699999809E+01 0.  1.
       -4    1    3    3    0  502  0.99373483066E+02 -0.28064736223E+03 -0.13404438859E+04  0.13731094112E+04  0.12699999809E+01 0. -1.
</event>
<event>
 5   0  0.9169078E-04  0.1205262E+04  0.7818609E-02  0.9108263E-01
       -1   -1    0    0    0  501  0.00000000000E+00  0.00000000000E+00  0.28553051613E+03  0.28553051617E+03  0.50400001928E-02 0. -1.
        1   -1    0    0  501    0  0.00000000000E+00  0.00000000000E+00 -0.12718926313E+04  0.12718926313E+04  0.50400001928E-02 0.  1.
    10030    2    1    2    0    0  0.00000000000E+00  0.00000000000E+00 -0.98636211513E+03  0.15574231474E+04  0.12052620620E+04 0.  0.
        1    1    3    3  502    0 -0.12972395768E+03 -0.12216328153E+01  0.26727290982E+03  0.29709359793E+03  0.50400001928E-02 0. -1.
       -1    1    3    3    0  502  0.12972395768E+03  0.12216328153E+01 -0.12536350249E+04  0.12603295495E+04  0.50400001928E-02 0.  1.
</event>
<event>
 5   0  0.9169078E-04  0.1198524E+04  0.7818609E-02  0.9114149E-01
        1   -1    0    0  501    0  0.00000000000E+00  0.00000000000E+00  0.29383958089E+04  0.29383958089E+04  0.50400001928E-02 0. -1.
       -1   -1    0    0    0  501  0.00000000000E+00  0.00000000000E+00 -0.12221469842E+03  0.12221469853E+03  0.50400001928E-02 0.  1.
    10030    2    1    2    0    0  0.00000000000E+00  0.00000000000E+00  0.28161811105E+04  0.30606105074E+04  0.11985243557E+04 0.  0.
        1    1    3    3  502    0  0.41055994925E+03  0.10666464267E+03  0.24890364467E+04  0.25249236129E+04  0.50400001928E-02 0. -1.
       -1    1    3    3    0  502 -0.41055994925E+03 -0.10666464267E+03  0.32714466378E+03  0.53568689455E+03  0.50400001928E-02 0.  1.
</event>
<event>
 5   0  0.9169078E-04  0.1208873E+04  0.7818609E-02  0.9105125E-01
        1   -1    0    0  501    0  0.00000000000E+00  0.00000000000E+00  0.64454474221E+03  0.64454474223E+03  0.50400001928E-02 0.  1.
       -1   -1    0    0    0  501  0.00000000000E+00  0.00000000000E+00 -0.56682445616E+03  0.56682445618E+03  0.50400001928E-02 0. -1.
    10030    2    1    2    0    0  0.00000000000E+00  0.00000000000E+00  0.77720286053E+02  0.12113691984E+04  0.12088733978E+04 0.  0.
        1    1    3    3  502    0 -0.23594306207E+03  0.18266639475E+03  0.56559505895E+03  0.63947940627E+03  0.50400001928E-02 0.  1.
       -1    1    3    3    0  502  0.23594306207E+03 -0.18266639475E+03 -0.48787477290E+03  0.57188979215E+03  0.50400001928E-02 0. -1.
</event>
<event>
 5   0  0.9170776E-04  0.1214029E+04  0.7818609E-02  0.9100665E-01
        1   -1    0    0  501    0  0.00000000000E+00  0.00000000000E+00  0.14424229813E+04  0.14424229813E+04  0.50400001928E-02 0. -1.
       -1   -1    0    0    0  501  0.00000000000E+00  0.00000000000E+00 -0.25544980926E+03  0.25544980931E+03  0.50400001928E-02 0.  1.
    10030    2    1    2    0    0  0.00000000000E+00  0.00000000000E+00  0.11869731721E+04  0.16978727907E+04  0.12140291191E+04 0.  0.
        5    1    3    3  502    0  0.17256535134E+03  0.33943278286E+03 -0.67613726317E+02  0.38676494224E+03  0.46999998093E+01 0.  1.
       -5    1    3    3    0  502 -0.17256535134E+03 -0.33943278286E+03  0.12545868984E+04  0.13111078484E+04  0.46999998093E+01 0. -1.
</event>
<event>
 5   0  0.9170776E-04  0.1192276E+04  0.7818609E-02  0.9119644E-01
        1   -1    0    0  501    0  0.00000000000E+00  0.00000000000E+00  0.16925698373E+04  0.16925698373E+04  0.50400001928E-02 0.  1.
       -1   -1    0    0    0  501  0.00000000000E+00  0.00000000000E+00 -0.20996513070E+03  0.20996513076E+03  0.50400001928E-02 0. -1.
    10030    2    1    2    0    0  0.00000000000E+00  0.00000000000E+00  0.14826047066E+04  0.19025349680E+04  0.11922762216E+04 0.  0.
        5    1    3    3  502    0 -0.44318069742E+03 -0.39867484228E+03  0.74575801105E+03  0.95473968258E+03  0.46999998093E+01 0.  1.
       -5    1    3    3    0  502  0.44318069742E+03  0.39867484228E+03  0.73684669551E+03  0.94779528545E+03  0.46999998093E+01 0. -1.
</event>
<event>
 5   0  0.9358428E-04  0.1200471E+04  0.7818609E-02  0.9112444E-01
       -1   -1    0    0    0  501  0.00000000000E+00  0.00000000000E+00  0.28751868305E+03  0.28751868309E+03  0.50400001928E-02 0.  1.
        1   -1    0    0  501    0  0.00000000000E+00  0.00000000000E+00 -0.12530753186E+04  0.12530753186E+04  0.50400001928E-02 0. -1.
    10030    2    1    2    0    0  0.00000000000E+00  0.00000000000E+00 -0.96555663553E+03  0.15405940017E+04  0.12004708500E+04 0.  0.
        2    1    3    3  502    0 -0.25004129859E+03 -0.21412032730E+03  0.16133618873E+03  0.36660268870E+03  0.25500000920E-02 0.  1.
       -2    1    3    3    0  502  0.25004129859E+03  0.21412032730E+03 -0.11268928243E+04  0.11739913130E+04  0.25500000920E-02 0. -1.
</event>
<event>
 5   0  0.9358428E-04  0.1204355E+04  0.7818609E-02  0.9109053E-01
        1   -1    0    0  501    0  0.00000000000E+00  0.00000000000E+00  0.61688521675E+03  0.61688521677E+03  0.50400001928E-02 0.  1.
       -1   -1    0    0    0  501  0.00000000000E+00  0.00000000000E+00 -0.58782056101E+03  0.58782056103E+03  0.50400001928E-02 0. -1.
    10030    2    1    2    0    0  0.00000000000E+00  0.00000000000E+00  0.29064655740E+02  0.12047057778E+04  0.12043551207E+04 0.  0.
        2    1    3    3  502    0 -0.53409940196E+03 -0.27292208788E+03 -0.39047967009E+02  0.60106021408E+03  0.25500000920E-02 0. -1.
       -2    1    3    3    0  502  0.53409940196E+03  0.27292208788E+03  0.68112622749E+02  0.60364556372E+03  0.25500000920E-02 0.  1.
</event>
<event>
 5   0  0.9358428E-04  0.1181645E+04  0.7818609E-02  0.9129076E-01
       -1   -1    0    0    0  501  0.00000000000E+00  0.00000000000E+00  0.16508196022E+03  0.16508196030E+03  0.50400001928E-02 0. -1.
        1   -1    0    0  501    0  0.00000000000E+00  0.00000000000E+00 -0.21145341478E+04  0.21145341478E+04  0.50400001928E-02 0.  1.
    10030    2    1    2    0    0  0.00000000000E+00  0.00000000000E+00 -0.19494521875E+04  0.22796161081E+04  0.11816453650E+04 0.  0.
        2    1    3    3  502    0 -0.17937956030E+03 -0.17190239598E+03 -0.20088572294E+04  0.20241627475E+04  0.25500000920E-02 0.  1.
       -2    1    3    3    0  502  0.17937956030E+03  0.17190239598E+03  0.59405041863E+02  0.25545336053E+03  0.25500000920E-02 0. -1.
</event>
<event>
 5   0  0.1567019E-03  0.1196220E+04  0.7818609E-02  0.9116172E-01
       -2   -1    0    0    0  501  0.00000000000E+00  0.00000000000E+00  0.81376792151E+03  0.81376792152E+03  0.25500000920E-02 0.  1.
        2   -1    0    0  501    0  0.00000000000E+00  0.00000000000E+00 -0.43960372300E+03  0.43960372301E+03  0.25500000920E-02 0. -1.
    10030    2    1    2    0    0  0.00000000000E+00  0.00000000000E+00  0.37416419851E+03  0.12533716445E+04  0.11962197256E+04 0.  0.
        5    1    3    3  502    0  0.58230221639E+02 -0.42734800964E+03 -0.24707738763E+03  0.49707786667E+03  0.46999998093E+01 0. -1.
       -5    1    3    3    0  502 -0.58230221639E+02  0.42734800964E+03  0.62124158615E+03  0.75629377785E+03  0.46999998093E+01 0.  1.
</event>
<event>
 5   0  0.9169078E-04  0.1243755E+04  0.7818609E-02  0.9075397E-01
       -1   -1    0    0    0  501  0.00000000000E+00  0.00000000000E+00  0.29021976306E+03  0.29021976311E+03  0.50400001928E-02 0.  1.
        1   -1    0    0  501    0  0.00000000000E+00  0.00000000000E+00 -0.13325467213E+04  0.13325467213E+04  0.50400001928E-02 0. -1.
    10030    2    1    2    0    0  0.00000000000E+00  0.00000000000E+00 -0.10423269582E+04  0.16227664844E+04  0.12437546281E+04 0.  0.
        1    1    3    3  502    0  0.19495919489E+03  0.12892881843E+03 -0.12730556088E+04  0.12943346982E+04  0.50400001928E-02 0. -1.
       -1    1    3    3    0  502 -0.19495919489E+03 -0.12892881843E+03  0.23072865063E+03  0.32843178613E+03  0.50400001928E-02 0.  1.
</event>
<event>
 5   0  0.9170776E-04  0.1222727E+04  0.7818609E-02  0.9093193E-01
       -1   -1    0    0    0  501  0.00000000000E+00  0.00000000000E+00  0.38673610596E+03  0.38673610600E+03  0.50400001928E-02 0.  1.
        1   -1    0    0  501    0  0.00000000000E+00  0.00000000000E+00 -0.96646139246E+03  0.96646139247E+03  0.50400001928E-02 0. -1.
    10030    2    1    2    0    0  0.00000000000E+00  0.00000000000E+00 -0.57972528650E+03  0.13531974985E+04  0.12227273049E+04 0.  0.
        5    1    3    3  502    0 -0.58438265367E+03 -0.75117857948E+02 -0.47035265980E+03  0.75392273681E+03  0.46999998093E+01 0. -1.
       -5    1    3    3    0  502  0.58438265367E+03  0.75117857948E+02 -0.10937262670E+03  0.59927476166E+03  0.46999998093E+01 0.  1.
</event>
<event>
 5   0  0.1647550E-03  0.1203849E+04  0.7818609E-02  0.9109494E-01
        2   -1    0    0  501    0  0.00000000000E+00  0.00000000000E+00  0.75142346943E+03  0.75142346944E+03  0.25500000920E-02 0. -1.
       -2   -1    0    0    0  501  0.00000000000E+00  0.00000000000E+00 -0.48216917715E+03  0.48216917716E+03  0.25500000920E-02 0.  1.
    10030    2    1    2    0    0  0.00000000000E+00  0.00000000000E+00  0.26925429228E+03  0.12335926466E+04  0.12038492197E+04 0.  0.
        3    1    3    3  502    0  0.52777186884E+03  0.28155803177E+03  0.20332956220E+03  0.63179188967E+03  0.10100000352E+00 0. -1.
       -3    1    3    3    0  502 -0.52777186884E+03 -0.28155803177E+03  0.65924730083E+02  0.60180075692E+03  0.10100000352E+00 0.  1.
</event>
<event>
 5   0  0.8908478E-04  0.1199043E+04  0.7818609E-02  0.9113695E-01
        1   -1    0    0  501    0  0.00000000000E+00  0.00000000000E+00  0.73995095249E+03  0.73995095251E+03  0.50400001928E-02 0. -1.
       -1   -1    0    0    0  501  0.00000000000E+00  0.00000000000E+00 -0.48574303416E+03  0.48574303418E+03  0.50400001928E-02 0.  1.
    10030    2    1    2    0    0  0.00000000000E+00  0.00000000000E+00  0.25420791834E+03  0.12256939867E+04  0.11990429864E+04 0.  0.
        4    1    3    3  502    0 -0.41980164614E+03  0.41473344502E+03  0.23522423319E+03  0.63527104869E+03  0.12699999809E+01 0.  1.
       -4    1    3    3    0  502  0.41980164614E+03 -0.41473344502E+03  0.18983685144E+02  0.59042293800E+03  0.12699999809E+01 0. -1.
</event>
<event>
 5   0  0.1551501E-03  0.1218869E+04  0.7818609E-02  0.9096499E-01
       -2   -1    0    0    0  501  0.00000000000E+00  0.00000000000E+00  0.97676087355E+03  0.97676087355E+03  0.25500000920E-02 0.  1.
        2   -1    0    0  501    0  0.00000000000E+00  0.00000000000E+00 -0.38024684323E+03  0.38024684324E+03  0.25500000920E-02 0. -1.
    10030    2    1    2    0    0  0.00000000000E+00  0.00000000000E+00  0.59651403032E+03  0.13570077168E+04  0.12188687194E+04 0.  0.
        4    1    3    3  502    0  0.41655593927E+03 -0.50243341327E+02  0.79035228574E+03  0.89481930710E+03  0.12699999809E+01 0.  1.
       -4    1    3    3    0  502 -0.41655593927E+03  0.50243341327E+02 -0.19383825542E+03  0.46218840969E+03  0.12699999809E+01 0. -1.
</event>
<event>
 5   0  0.1597352E-03  0.1204099E+04  0.7818609E-02  0.9109276E-01
        2   -1    0    0  501    0  0.00000000000E+00  0.00000000000E+00  0.96498113370E+03  0.96498113370E+03  0.25500000920E-02 0.  1.
       -2   -1    0    0    0  501  0.00000000000E+00  0.00000000000E+00 -0.37561716951E+03  0.37561716952E+03  0.25500000920E-02 0. -1.
    10030    2    1    2    0    0  0.00000000000E+00  0.00000000000E+00  0.58936396419E+03  0.13405983032E+04  0.12040988034E+04 0.  0.
        1    1    3    3  502    0 -0.17637115303E+02 -0.11003880474E+03  0.95339732985E+03  0.95988857425E+03  0.50400001928E-02 0.  1.
       -1    1    3    3    0  502  0.17637115303E+02  0.11003880474E+03 -0.36403336566E+03  0.38070972896E+03  0.50400001928E-02 0. -1.
</event>
<event>
 5   0  0.9208078E-04  0.1188261E+04  0.7818609E-02  0.9123194E-01
       -1   -1    0    0    0  501  0.00000000000E+00  0.00000000000E+00  0.38179842574E+03  0.38179842577E+03  0.50400001928E-02 0. -1.
        1   -1    0    0  501    0  0.00000000000E+00  0.00000000000E+00 -0.92454767124E+03  0.92454767126E+03  0.50400001928E-02 0.  1.
    10030    2    1    2    0    0  0.00000000000E+00  0.00000000000E+00 -0.54274924551E+03  0.13063460970E+04  0.11882606540E+04 0.  0.
        3    1    3    3  502    0  0.38144277719E+02 -0.32482113690E+02  0.37947195731E+03  0.38276500652E+03  0.10100000352E+00 0. -1.
       -3    1    3    3    0  502 -0.38144277719E+02  0.32482113690E+02 -0.92222120281E+03  0.92358109051E+03  0.10100000352E+00 0.  1.
</event>
<event>
 5   0  0.1647550E-03  0.1206176E+04  0.7818609E-02  0.9107467E-01
       -2   -1    0    0    0  501  0.00000000000E+00  0.00000000000E+00  0.68045880245E+03  0.68045880246E+03  0.25500000920E-02 0. -1.
        2   -1    0    0  501    0  0.00000000000E+00  0.00000000000E+00 -0.53451490319E+03  0.53451490320E+03  0.25500000920E-02 0.  1.
    10030    2    1    2    0    0  0.00000000000E+00  0.00000000000E+00  0.14594389926E+03  0.12149737057E+04  0.12061763900E+04 0.  0.
        3    1    3    3  502    0  0.47094944509E+02  0.45011186003E+03 -0.32855393717E+03  0.55925514764E+03  0.10100000352E+00 0.  1.
       -3    1    3    3    0  502 -0.47094944509E+02 -0.45011186003E+03  0.47449783643E+03  0.65571855801E+03  0.10100000352E+00 0. -1.
</event>
<event>
 5   0  0.8908478E-04  0.1205594E+04  0.7818609E-02  0.9107975E-01
       -1   -1    0    0    0  501  0.00000000000E+00  0.00000000000E+00  0.23280136909E+03  0.23280136914E+03  0.50400001928E-02 0.  1.
        1   -1    0    0  501    0  0.00000000000E+00  0.00000000000E+00 -0.15608324582E+04  0.15608324582E+04  0.50400001928E-02 0. -1.
    10030    2    1    2    0    0  0.00000000000E+00  0.00000000000E+00 -0.13280310891E+04  0.17936338274E+04  0.12055935190E+04 0.  0.
        4    1    3    3  502    0  0.17489122478E+03  0.18502613721E+03 -0.14769109350E+04  0.14986958113E+04  0.12699999809E+01 0. -1.
       -4    1    3    3    0  502 -0.17489122478E+03 -0.18502613721E+03  0.14887984583E+03  0.29493801612E+03  0.12699999809E+01 0.  1.
</event>
<event>
 5   0  0.1537557E-03  0.1202027E+04  0.7818609E-02  0.9111084E-01
       -2   -1    0    0    0  501  0.00000000000E+00  0.00000000000E+00  0.46450962700E+03  0.46450962700E+03  0.25500000920E-02 0.  1.
        2   -1    0    0  501    0  0.00000000000E+00  0.00000000000E+00 -0.77763104537E+03  0.77763104538E+03  0.25500000920E-02 0. -1.
    10030    2    1    2    0    0  0.00000000000E+00  0.00000000000E+00 -0.31312141838E+03  0.12421406724E+04  0.12020267998E+04 0.  0.
        2    1    3    3  502    0  0.35014059553E+03  0.40439819034E+03 -0.43971360136E+03  0.69244810940E+03  0.25500000920E-02 0. -1.
       -2    1    3    3    0  502 -0.35014059553E+03 -0.40439819034E+03  0.12659218298E+03  0.54969256297E+03  0.25500000920E-02 0.  1.
</event>
<event>
 5   0  0.8908478E-04  0.1188394E+04  0.7818609E-02  0.9123076E-01
       -1   -1    0    0    0  501  0.00000000000E+00  0.00000000000E+00  0.35298094887E+03  0.35298094890E+03  0.50400001928E-02 0. -1.
        1   -1    0    0  501    0  0.00000000000E+00  0.00000000000E+00 -0.10002525090E+04  0.10002525090E+04  0.50400001928E-02 0.  1.
    10030    2    1    2    0    0  0.00000000000E+00  0.00000000000E+00 -0.64727156016E+03  0.13532334579E+04  0.11883940084E+04 0.  0.
        4    1    3    3  502    0  0.27234792759E+03 -0.34201789501E+03  0.13457041382E+03  0.45744993534E+03  0.12699999809E+01 0. -1.
       -4    1    3    3    0  502 -0.27234792759E+03  0.34201789501E+03 -0.78184197399E+03  0.89578352260E+03  0.12699999809E+01 0.  1.
</event>
<event>
 5   0  0.8908478E-04  0.1212146E+04  0.7818609E-02  0.9102291E-01
       -1   -1    0    0    0  501  0.00000000000E+00  0.00000000000E+00  0.33917260762E+03  0.33917260766E+03  0.50400001928E-02 0.  1.
        1   -1    0    0  501    0  0.00000000000E+00  0.00000000000E+00 -0.10830024191E+04  0.10830024191E+04  0.50400001928E-02 0. -1.
    10030    2    1    2    0    0  0.00000000000E+00  0.00000000000E+00 -0.74382981150E+03  0.14221750268E+04  0.12121464509E+04 0.  0.
        4    1    3    3  502    0 -0.41280702895E+03 -0.43005176571E+03 -0.50027395053E+03  0.77822220658E+03  0.12699999809E+01 0. -1.
       -4    1    3    3    0  502  0.41280702895E+03  0.43005176571E+03 -0.24355586097E+03  0.64395282021E+03  0.12699999809E+01 0.  1.
</event>
<event>
 5   0  0.9358428E-04  0.1199334E+04  0.7818609E-02  0.9113440E-01
       -1   -1    0    0    0  501  0.00000000000E+00  0.00000000000E+00  0.21017715411E+03  0.21017715417E+03  0.50400001928E-02 0.  1.
        1   -1    0    0  501    0  0.00000000000E+00  0.00000000000E+00 -0.17109397531E+04  0.17109397531E+04  0.50400001928E-02 0. -1.
    10030    2    1    2    0    0  0.00000000000E+00  0.00000000000E+00 -0.15007625990E+04  0.19211169073E+04  0.11993338955E+04 0.  0.
        2    1    3    3  502    0  0.12523984467E+02 -0.55083951844E+03 -0.11295068044E+04  0.12567285493E+04  0.25500000920E-02 0. -1.
       -2    1    3    3    0  502 -0.12523984467E+02  0.55083951844E+03 -0.37125579453E+03  0.66438835799E+03  0.25500000920E-02 0.  1.
</event>
<event>
 5   0  0.1537557E-03  0.1194666E+04  0.7818609E-02  0.9117538E-01
       -2   -1    0    0    0  501  0.00000000000E+00  0.00000000000E+00  0.19311959581E+03  0.19311959583E+03  0.25500000920E-02 0. -1.
        2   -1    0    0  501    0  0.00000000000E+00  0.00000000000E+00 -0.18475939796E+04  0.18475939796E+04  0.25500000920E-02 0.  1.
    10030    2    1    2    0    0  0.00000000000E+00  0.00000000000E+00 -0.16544743838E+04  0.20407135754E+04  0.11946658153E+04 0.  0.
        2    1    3    3  502    0  0.23592888712E+03 -0.39319813605E+02 -0.17622232932E+04  0.17783811241E+04  0.25500000920E-02 0.  1.
       -2    1    3    3    0  502 -0.23592888712E+03  0.39319813605E+02  0.10774890942E+03  0.26233245131E+03  0.25500000920E-02 0. -1.
</event>
<event>
 5   0  0.1597352E-03  0.1201479E+04  0.7818609E-02  0.9111563E-01
        2   -1    0    0  501    0  0.00000000000E+00  0.00000000000E+00  0.80724763107E+03  0.80724763108E+03  0.25500000920E-02 0.  1.
       -2   -1    0    0    0  501  0.00000000000E+00  0.00000000000E+00 -0.44705958569E+03  0.44705958570E+03  0.25500000920E-02 0. -1.
    10030    2    1    2    0    0  0.00000000000E+00  0.00000000000E+00  0.36018804538E+03  0.12543072168E+04  0.12014787414E+04 0.  0.
        1    1    3    3  502    0 -0.37421937274E+03  0.29531633716E+03 -0.20154205488E+03  0.51756263180E+03  0.50400001928E-02 0. -1.
       -1    1    3    3    0  502  0.37421937274E+03 -0.29531633716E+03  0.56173010027E+03  0.73674458498E+03  0.50400001928E-02 0.  1.
</event>
<event>
 5   0  0.1567019E-03  0.1200952E+04  0.7818609E-02  0.9112024E-01
        2   -1    0    0  501    0  0.00000000000E+00  0.00000000000E+00  0.41959158233E+03  0.41959158234E+03  0.25500000920E-02 0. -1.
       -2   -1    0    0    0  501  0.00000000000E+00  0.00000000000E+00 -0.85933890039E+03  0.85933890040E+03  0.25500000920E-02 0.  1.
    10030    2    1    2    0    0  0.00000000000E+00  0.00000000000E+00 -0.43974731806E+03  0.12789304827E+04  0.12009519041E+04 0.  0.
        5    1    3    3  502    0  0.29826293751E+03 -0.29828268922E+03  0.23520939184E+03  0.48298953466E+03  0.46999998093E+01 0. -1.
       -5    1    3    3    0  502 -0.29826293751E+03  0.29828268922E+03 -0.67495670991E+03  0.79594094808E+03  0.46999998093E+01 0.  1.
</event>
<event>
 5   0  0.1597352E-03  0.1278941E+04  0.7818609E-02  0.9046434E-01
        2   -1    0    0  501    0  0.00000000000E+00  0.00000000000E+00  0.51888370382E+03  0.51888370383E+03  0.25500000920E-02 0.  1.
       -2   -1    0    0    0  501  0.00000000000E+00  0.00000000000E+00 -0.78808111537E+03  0.78808111538E+03  0.25500000920E-02 0. -1.
    10030    2    1    2    0    0  0.00000000000E+00  0.00000000000E+00 -0.26919741155E+03  0.13069648192E+04  0.12789408869E+04 0.  0.
        1    1    3    3  502    0  0.12615386781E+03 -0.14994471674E+03  0.48744619367E+03  0.52535893272E+03  0.50400001928E-02 0.  1.
       -1    1    3    3    0  502 -0.12615386781E+03  0.14994471674E+03 -0.75664360522E+03  0.78160588649E+03  0.50400001928E-02 0. -1.
</event>
<event>
 5   0  0.9169078E-04  0.1202836E+04  0.7818609E-02  0.9110378E-01
       -1   -1    0    0    0  501  0.00000000000E+00  0.00000000000E+00  0.14409536443E+04  0.14409536443E+04  0.50400001928E-02 0. -1.
        1   -1    0    0  501    0  0.00000000000E+00  0.00000000000E+00 -0.25101667252E+03  0.25101667257E+03  0.50400001928E-02 0.  1.
    10030    2    1    2    0    0  0.00000000000E+00  0.00000000000E+00  0.11899369718E+04  0.16919703169E+04  0.12028356315E+04 0.  0.
        1    1    3    3  502    0 -0.47007941338E+03 -0.85889845967E+02  0.11086402362E+04  0.12072426823E+04  0.50400001928E-02 0.  1.
       -1    1    3    3    0  502  0.47007941338E+03  0.85889845967E+02  0.81296735574E+02  0.48472763462E+03  0.50400001928E-02 0. -1.
</event>
<event>
 5   0  0.1567019E-03  0.1204653E+04  0.7818609E-02  0.9108793E-01
        2   -1    0    0  501    0  0.00000000000E+00  0.00000000000E+00  0.25538828792E+03  0.25538828793E+03  0.25500000920E-02 0. -1.
       -2   -1    0    0    0  501  0.00000000000E+00  0.00000000000E+00 -0.14205711136E+04  0.14205711136E+04  0.25500000920E-02 0.  1.
    10030    2    1    2    0    0  0.00000000000E+00  0.00000000000E+00 -0.11651828257E+04  0.16759594016E+04  0.12046530199E+04 0.  0.
        5    1    3    3  502    0  0.35410924106E+03 -0.46518211982E+03 -0.38104244164E+03  0.69785613957E+03  0.46999998093E+01 0. -1.
       -5    1    3    3    0  502 -0.35410924106E+03  0.46518211982E+03 -0.78414038407E+03  0.97810326200E+03  0.46999998093E+01 0.  1.
</event>
<event>
 5   0  0.6137750E-04  0.1181434E+04  0.7818609E-02  0.9129264E-01
        3   -1    0    0  501    0  0.00000000000E+00  0.00000000000E+00  0.68092394201E+03  0.68092394950E+03  0.10100000352E+00 0.  1.
       -3   -1    0    0    0  501  0.00000000000E+00  0.00000000000E+00 -0.51246055670E+03  0.51246056665E+03  0.10100000352E+00 0. -1.
    10030    2    1    2    0    0  0.00000000000E+00  0.00000000000E+00  0.16846338531E+03  0.11933845162E+04  0.11814341671E+04 0.  0.
        4    1    3    3  502    0 -0.26516722246E+03 -0.31030042429E+03  0.51556983358E+03  0.65758183930E+03  0.12699999809E+01 0.  1.
       -4    1    3    3    0  502  0.26516722246E+03  0.31030042429E+03 -0.34710644827E+03  0.53580267685E+03  0.12699999809E+01 0. -1.
</event>
<event>
 5   0  0.1551501E-03  0.1195027E+04  0.7818609E-02  0.9117221E-01
       -2   -1    0    0    0  501  0.00000000000E+00  0.00000000000E+00  0.31717405845E+03  0.31717405846E+03  0.25500000920E-02 0.  1.
        2   -1    0    0  501    0  0.00000000000E+00  0.00000000000E+00 -0.11256348923E+04  0.11256348923E+04  0.25500000920E-02 0. -1.
    10030    2    1    2    0    0  0.00000000000E+00  0.00000000000E+00 -0.80846083386E+03  0.14428089508E+04  0.11950266727E+04 0.  0.
        4    1    3    3  502    0  0.13396948497E+03 -0.52866037034E+03 -0.69895844288E+03  0.88655181904E+03  0.12699999809E+01 0.  1.
       -4    1    3    3    0  502 -0.13396948497E+03  0.52866037034E+03 -0.10950239098E+03  0.55625713173E+03  0.12699999809E+01 0. -1.
</event>
<event>
 5   0  0.1551501E-03  0.1194969E+04  0.7818609E-02  0.9117272E-01
        2   -1    0    0  501    0  0.00000000000E+00  0.00000000000E+00  0.88550894386E+03  0.88550894386E+03  0.25500000920E-02 0.  1.
       -2   -1    0    0    0  501  0.00000000000E+00  0.00000000000E+00 -0.40314382556E+03  0.40314382556E+03  0.25500000920E-02 0. -1.
    10030    2    1    2    0    0  0.00000000000E+00  0.00000000000E+00  0.48236511830E+03  0.12886527694E+04  0.11949685572E+04 0.  0.
        4    1    3    3  502    0 -0.25797669925E+03 -0.53475775558E+03  0.31326621145E+03  0.67130854802E+03  0.12699999809E+01 0. -1.
       -4    1    3    3    0  502  0.25797669925E+03  0.53475775558E+03  0.16909890686E+03  0.61734422141E+03  0.12699999809E+01 0.  1.
</event>
<event>
 5   0  0.9358428E-04  0.1205999E+04  0.7818609E-02  0.9107622E-01
       -1   -1    0    0    0  501  0.00000000000E+00  0.00000000000E+00  0.19393663923E+03  0.19393663929E+03  0.50400001928E-02 0. -1.
        1   -1    0    0  501    0  0.00000000000E+00  0.00000000000E+00 -0.18748823232E+04  0.18748823232E+04  0.50400001928E-02 0.  1.
    10030    2    1    2    0    0  0.00000000000E+00  0.00000000000E+00 -0.16809456840E+04  0.20688189625E+04  0.12059989665E+04 0.  0.
        2    1    3    3  502    0 -0.55732966935E+03 -0.22489817642E+03 -0.75620951243E+03  0.96594429280E+03  0.25500000920E-02 0. -1.
       -2    1    3    3    0  502  0.55732966935E+03  0.22489817642E+03 -0.92473617158E+03  0.11028746697E+04  0.25500000920E-02 0.  1.
</event>
<event>
 5   0  0.9169078E-04  0.1184887E+04  0.7818609E-02  0.9126188E-01
       -1   -1    0    0    0  501  0.00000000000E+00  0.00000000000E+00  0.90456985958E+03  0.90456985959E+03  0.50400001928E-02 0. -1.
        1   -1    0    0  501    0  0.00000000000E+00  0.00000000000E+00 -0.38801814886E+03  0.38801814889E+03  0.50400001928E-02 0.  1.
    10030    2    1    2    0    0  0.00000000000E+00  0.00000000000E+00  0.51655171072E+03  0.12925880085E+04  0.11848873743E+04 0.  0.
        1    1    3    3  502    0 -0.16879810476E+03 -0.24208729875E+02 -0.36066725035E+03  0.39894827769E+03  0.50400001928E-02 0.  1.
       -1    1    3    3    0  502  0.16879810476E+03  0.24208729875E+02  0.87721896107E+03  0.89363973079E+03  0.50400001928E-02 0. -1.
</event>
<event>
 5   0  0.9170776E-04  0.1196665E+04  0.7818609E-02  0.9115781E-01
        1   -1    0    0  501    0  0.00000000000E+00  0.00000000000E+00  0.11529556339E+04  0.11529556339E+04  0.50400001928E-02 0.  1.
       -1   -1    0    0    0  501  0.00000000000E+00  0.00000000000E+00 -0.31050774840E+03  0.31050774844E+03  0.50400001928E-02 0. -1.
    10030    2    1    2    0    0  0.00000000000E+00  0.00000000000E+00  0.84244788549E+03  0.14634633823E+04  0.11966647950E+04 0.  0.
        5    1    3    3  502    0  0.17057905115E+03 -0.47919754834E+03  0.35941586598E+02  0.50994253664E+03  0.46999998093E+01 0. -1.
       -5    1    3    3    0  502 -0.17057905115E+03  0.47919754834E+03  0.80650629889E+03  0.95352084569E+03  0.46999998093E+01 0.  1.
</event>
<event>
 5   0  0.1551501E-03  0.1184751E+04  0.7818609E-02  0.9126309E-01
       -2   -1    0    0    0  501  0.00000000000E+00  0.00000000000E+00  0.81423928022E+03  0.81423928022E+03  0.25500000920E-02 0.  1.
        2   -1    0    0  501    0  0.00000000000E+00  0.00000000000E+00 -0.43096523498E+03  0.43096523499E+03  0.25500000920E-02 0. -1.
    10030    2    1    2    0    0  0.00000000000E+00  0.00000000000E+00  0.38327404523E+03  0.12452045152E+04  0.11847511515E+04 0.  0.
        4    1    3    3  502    0 -0.18568305212E+03 -0.43452367929E+03 -0.18382829886E+03  0.50703400288E+03  0.12699999809E+01 0. -1.
       -4    1    3    3    0  502  0.18568305212E+03  0.43452367929E+03  0.56710234409E+03  0.73817051234E+03  0.12699999809E+01 0.  1.
</event>
<event>
 5   0  0.1567019E-03  0.1211600E+04  0.7818609E-02  0.9102763E-01
       -2   -1    0    0    0  501  0.00000000000E+00  0.00000000000E+00  0.80125676339E+03  0.80125676340E+03  0.25500000920E-02 0.  1.
        2   -1    0    0  501    0  0.00000000000E+00  0.00000000000E+00 -0.45802284657E+03  0.45802284657E+03  0.25500000920E-02 0. -1.
    10030    2    1    2    0    0  0.00000000000E+00  0.00000000000E+00  0.34323391683E+03  0.12592796100E+04  0.12116004351E+04 0.  0.
        5    1    3    3  502    0 -0.26578617858E+03 -0.45062838113E+03  0.48902563832E+03  0.71615389096E+03  0.46999998093E+01 0.  1.
       -5    1    3    3    0  502  0.26578617858E+03  0.45062838113E+03 -0.14579172150E+03  0.54312571901E+03  0.46999998093E+01 0. -1.
</event>
<event>
 5   0  0.1597352E-03  0.1198617E+04  0.7818609E-02  0.9114068E-01
       -2   -1    0    0    0  501  0.00000000000E+00  0.00000000000E+00  0.33987301941E+03  0.33987301942E+03  0.25500000920E-02 0. -1.
        2   -1    0    0  501    0  0.00000000000E+00  0.00000000000E+00 -0.10567785936E+04  0.10567785936E+04  0.25500000920E-02 0.  1.
    10030    2    1    2    0    0  0.00000000000E+00  0.00000000000E+00 -0.71690557419E+03  0.13966516130E+04  0.11986167552E+04 0.  0.
        1    1    3    3  502    0 -0.54474622063E+03 -0.20290613107E+03 -0.18858956610E+03  0.61113449206E+03  0.50400001928E-02 0.  1.
       -1    1    3    3    0  502  0.54474622063E+03  0.20290613107E+03 -0.52831600809E+03  0.78551712097E+03  0.50400001928E-02 0. -1.
</event>
<event>
 5   0  0.1597352E-03  0.1201733E+04  0.7818609E-02  0.9111341E-01
        2   -1    0    0  501    0  0.00000000000E+00  0.00000000000E+00  0.12904472896E+04  0.12904472896E+04  0.25500000920E-02 0. -1.
       -2   -1    0    0    0  501  0.00000000000E+00  0.00000000000E+00 -0.27977943149E+03  0.27977943151E+03  0.25500000920E-02 0.  1.
    10030    2    1    2    0    0  0.00000000000E+00  0.00000000000E+00  0.10106678581E+04  0.15702267211E+04  0.12017330969E+04 0.  0.
        1    1    3    3  502    0 -0.59226014100E+03  0.94747028662E+02  0.55229169527E+03  0.81533747046E+03  0.50400001928E-02 0.  1.
       -1    1    3    3    0  502  0.59226014100E+03 -0.94747028662E+02  0.45837616283E+03  0.75488925064E+03  0.50400001928E-02 0. -1.
</event>
<event>
 5   0  0.9170776E-04  0.1197028E+04  0.7818609E-02  0.9115462E-01
       -1   -1    0    0    0  501  0.00000000000E+00  0.00000000000E+00  0.37712949390E+03  0.37712949394E+03  0.50400001928E-02 0. -1.
        1   -1    0    0  501    0  0.00000000000E+00  0.00000000000E+00 -0.94985610103E+03  0.94985610105E+03  0.50400001928E-02 0.  1.
    10030    2    1    2    0    0  0.00000000000E+00  0.00000000000E+00 -0.57272660713E+03  0.13269855950E+04  0.11970275698E+04 0.  0.
        5    1    3    3  502    0 -0.38868264846E+03  0.34795128066E+03  0.38831399198E+02  0.52313885584E+03  0.46999998093E+01 0. -1.
       -5    1    3    3    0  502  0.38868264846E+03 -0.34795128066E+03 -0.61155800633E+03  0.80384673914E+03  0.46999998093E+01 0.  1.
</event>
<event>
 5   0  0.9170776E-04  0.1193602E+04  0.7818609E-02  0.9118475E-01
       -1   -1    0    0    0  501  0.00000000000E+00  0.00000000000E+00  0.51422339702E+03  0.51422339704E+03  0.50400001928E-02 0.  1.
        1   -1    0    0  501    0  0.00000000000E+00  0.00000000000E+00 -0.69263987166E+03  0.69263987168E+03  0.50400001928E-02 0. -1.
    10030    2    1    2    0    0  0.00000000000E+00  0.00000000000E+00 -0.17841647465E+03  0.12068632687E+04  0.11936023253E+04 0.  0.
        5    1    3    3  502    0  0.18361566909E+03  0.40632085639E+03  0.31185742599E+03  0.54414014410E+03  0.46999998093E+01 0.  1.
       -5    1    3    3    0  502 -0.18361566909E+03 -0.40632085639E+03 -0.49027390064E+03  0.66272312463E+03  0.46999998093E+01 0. -1.
</event>
<event>
 5   0  0.1551501E-03  0.1200036E+04  0.7818609E-02  0.9112825E-01
        2   -1    0    0  501    0  0.00000000000E+00  0.00000000000E+00  0.24598966046E+03  0.24598966048E+03  0.25500000920E-02 0. -1.
       -2   -1    0    0    0  501  0.00000000000E+00  0.00000000000E+00 -0.14635647464E+04  0.14635647464E+04  0.25500000920E-02 0.  1.
    10030    2    1    2    0    0  0.00000000000E+00  0.00000000000E+00 -0.12175750859E+04  0.17095544069E+04  0.12000363245E+04 0.  0.
        4    1    3    3  502    0  0.10731194178E+02 -0.57652249285E+03 -0.84514358294E+03  0.10231141833E+04  0.12699999809E+01 0. -1.
       -4    1    3    3    0  502 -0.10731194178E+02  0.57652249285E+03 -0.37243150300E+03  0.68644022363E+03  0.12699999809E+01 0.  1.
</event>
<event>
 5   0  0.8908478E-04  0.1193161E+04  0.7818609E-02  0.9118864E-01
       -1   -1    0    0    0  501  0.00000000000E+00  0.00000000000E+00  0.26336973587E+03  0.26336973591E+03  0.50400001928E-02 0.  1.
        1   -1    0    0  501    0  0.00000000000E+00  0.00000000000E+00 -0.13513638785E+04  0.13513638785E+04  0.50400001928E-02 0. -1.
    10030    2    1    2    0    0  0.00000000000E+00  0.00000000000E+00 -0.10879941426E+04  0.16147336144E+04  0.11931610919E+04 0.  0.
        4    1    3    3  502    0  0.44947440730E+03  0.35788582131E+03 -0.76136143757E+03  0.95382511785E+03  0.12699999809E+01 0. -1.
       -4    1    3    3    0  502 -0.44947440730E+03 -0.35788582131E+03 -0.32663270505E+03  0.66090849656E+03  0.12699999809E+01 0.  1.
</event>
<event>
 5   0  0.1551501E-03  0.1239459E+04  0.7818609E-02  0.9079003E-01
       -2   -1    0    0    0  501  0.00000000000E+00  0.00000000000E+00  0.61808311984E+03  0.61808311985E+03  0.25500000920E-02 0.  1.
        2   -1    0    0  501    0  0.00000000000E+00  0.00000000000E+00 -0.62138010792E+03  0.62138010793E+03  0.25500000920E-02 0. -1.
    10030    2    1    2    0    0  0.00000000000E+00  0.00000000000E+00 -0.32969880817E+01  0.12394632278E+04  0.12394588427E+04 0.  0.
        4    1    3    3  502    0  0.18217463538E+02 -0.60019318086E+03  0.15164657687E+03  0.61932384703E+03  0.12699999809E+01 0.  1.
       -4    1    3    3    0  502 -0.18217463538E+02  0.60019318086E+03 -0.15494356496E+03  0.62013938074E+03  0.12699999809E+01 0. -1.
</event>
<event>
 5   0  0.9208078E-04  0.1201730E+04  0.7818609E-02  0.9111344E-01
       -1   -1    0    0    0  501  0.00000000000E+00  0.00000000000E+00  0.28082588346E+03  0.28082588351E+03  0.50400001928E-02 0.  1.
        1   -1    0    0  501    0  0.00000000000E+00  0.00000000000E+00 -0.12856318574E+04  0.12856318574E+04  0.50400001928E-02 0. -1.
    10030    2    1    2    0    0  0.00000000000E+00  0.00000000000E+00 -0.10048059739E+04  0.15664577409E+04  0.12017299234E+04 0.  0.
        3    1    3    3  502    0  0.51173653717E+02 -0.22392320108E+03  0.22133825308E+03  0.31898428691E+03  0.10100000352E+00 0.  1.
       -3    1    3    3    0  502 -0.51173653717E+02  0.22392320108E+03 -0.12261442270E+04  0.12474734540E+04  0.10100000352E+00 0. -1.
</event>
<event>
 5   0  0.8908478E-04  0.1196176E+04  0.7818609E-02  0.9116210E-01
       -1   -1    0    0    0  501  0.00000000000E+00  0.00000000000E+00  0.40314573873E+03  0.40314573876E+03  0.50400001928E-02 0. -1.
        1   -1    0    0  501    0  0.00000000000E+00  0.00000000000E+00 -0.88729488361E+03  0.88729488363E+03  0.50400001928E-02 0.  1.
    10030    2    1    2    0    0  0.00000000000E+00  0.00000000000E+00 -0.48414914489E+03  0.12904406224E+04  0.11961758255E+04 0.  0.
        4    1    3    3  502    0 -0.33112448182E+03  0.49694477083E+03 -0.27801693278E+03  0.65870521141E+03  0.12699999809E+01 0.  1.
       -4    1    3    3    0  502  0.33112448182E+03 -0.49694477083E+03 -0.20613221210E+03  0.63173541098E+03  0.12699999809E+01 0. -1.
</event>
<event>
 5   0  0.9358428E-04  0.1201528E+04  0.7818609E-02  0.9111520E-01
       -1   -1    0    0    0  501  0.00000000000E+00  0.00000000000E+00  0.27898392122E+03  0.27898392126E+03  0.50400001928E-02 0.  1.
        1   -1    0    0  501    0  0.00000000000E+00  0.00000000000E+00 -0.12936861388E+04  0.12936861389E+04  0.50400001928E-02 0. -1.
    10030    2    1    2    0    0  0.00000000000E+00  0.00000000000E+00 -0.10147022176E+04  0.15726700601E+04  0.12015284131E+04 0.  0.
        2    1    3    3  502    0  0.10916547841E+03 -0.10522449179E+03  0.25352838360E+03  0.29540808494E+03  0.25500000920E-02 0.  1.
       -2    1    3    3    0  502 -0.10916547841E+03  0.10522449179E+03 -0.12682306012E+04  0.12772619752E+04  0.25500000920E-02 0. -1.
</event>
<event>
 5   0  0.1597352E-03  0.1240267E+04  0.7818609E-02  0.9078323E-01
       -2   -1    0    0    0  501  0.00000000000E+00  0.00000000000E+00  0.38998449466E+03  0.38998449467E+03  0.25500000920E-02 0. -1.
        2   -1    0    0  501    0  0.00000000000E+00  0.00000000000E+00 -0.98610464806E+03  0.98610464806E+03  0.25500000920E-02 0.  1.
    10030    2    1    2    0    0  0.00000000000E+00  0.00000000000E+00 -0.59612015340E+03  0.13760891427E+04  0.12402669436E+04 0.  0.
        1    1    3    3  502    0 -0.95882758330E+02  0.48773821573E+03  0.11333265473E+03  0.50982973735E+03  0.50400001928E-02 0. -1.
       -1    1    3    3    0  502  0.95882758330E+02 -0.48773821573E+03 -0.70945280812E+03  0.86625940538E+03  0.50400001928E-02 0.  1.
</event>
<event>
 5   0  0.9169078E-04  0.1206495E+04  0.7818609E-02  0.9107191E-01
       -1   -1    0    0    0  501  0.00000000000E+00  0.00000000000E+00  0.54179679937E+03  0.54179679940E+03  0.50400001928E-02 0.  1.
        1   -1    0    0  501    0  0.00000000000E+00  0.00000000000E+00 -0.67166759021E+03  0.67166759023E+03  0.50400001928E-02 0. -1.
    10030    2    1    2    0    0  0.00000000000E+00  0.00000000000E+00 -0.12987079083E+03  0.12134643896E+04  0.12064946757E+04 0.  0.
        1    1    3    3  502    0  0.14980906038E+03  0.48179788878E+03 -0.39750458058E+03  0.64232534732E+03  0.50400001928E-02 0. -1.
       -1    1    3    3    0  502 -0.14980906038E+03 -0.48179788878E+03  0.26763378974E+03  0.57113904230E+03  0.50400001928E-02 0.  1.
</event>
<event>
 5   0  0.1597352E-03  0.1182038E+04  0.7818609E-02  0.9128725E-01
       -2   -1    0    0    0  501  0.00000000000E+00  0.00000000000E+00  0.51349636299E+03  0.51349636299E+03  0.25500000920E-02 0. -1.
        2   -1    0    0  501    0  0.00000000000E+00  0.00000000000E+00 -0.68024528010E+03  0.68024528011E+03  0.25500000920E-02 0.  1.
    10030    2    1    2    0    0  0.00000000000E+00  0.00000000000E+00 -0.16674891711E+03  0.11937416431E+04  0.11820380320E+04 0.  0.
        1    1    3    3  502    0  0.52513286719E+03 -0.15197410415E+03 -0.31019301184E+03  0.62855418315E+03  0.50400001928E-02 0. -1.
       -1    1    3    3    0  502 -0.52513286719E+03  0.15197410415E+03  0.14344409473E+03  0.56518745994E+03  0.50400001928E-02 0.  1.
</event>
<event>
 5   0  0.1537557E-03  0.1190595E+04  0.7818609E-02  0.9121129E-01
        2   -1    0    0  501    0  0.00000000000E+00  0.00000000000E+00  0.84126525871E+03  0.84126525871E+03  0.25500000920E-02 0.  1.
       -2   -1    0    0    0  501  0.00000000000E+00  0.00000000000E+00 -0.42124546944E+03  0.42124546944E+03  0.25500000920E-02 0. -1.
    10030    2    1    2    0    0  0.00000000000E+00  0.00000000000E+00  0.42001978927E+03  0.12625107282E+04  0.11905951097E+04 0.  0.
        2    1    3    3  502    0 -0.99611965861E+02  0.46204319886E+02 -0.41041363307E+03  0.42484907100E+03  0.25500000920E-02 0. -1.
       -2    1    3    3    0  502  0.99611965861E+02 -0.46204319886E+02  0.83043342234E+03  0.83766165715E+03  0.25500000920E-02 0.  1.
</event>
<event>
 5   0  0.1551501E-03  0.1206561E+04  0.7818609E-02  0.9107133E-01
        2   -1    0    0  501    0  0.00000000000E+00  0.00000000000E+00  0.19787743018E+04  0.19787743018E+04  0.25500000920E-02 0.  1.
       -2   -1    0    0    0  501  0.00000000000E+00  0.00000000000E+00 -0.18392569666E+03  0.18392569667E+03  0.25500000920E-02 0. -1.
    10030    2    1    2    0    0  0.00000000000E+00  0.00000000000E+00  0.17948486052E+04  0.21626999985E+04  0.12065611332E+04 0.  0.
        4    1    3    3  502    0 -0.36231960453E+03 -0.31387927389E+03  0.24091254980E+03  0.53650364766E+03  0.12699999809E+01 0. -1.
       -4    1    3    3    0  502  0.36231960453E+03  0.31387927389E+03  0.15539360554E+04  0.16261963508E+04  0.12699999809E+01 0.  1.
</event>
<event>
 5   0  0.9358428E-04  0.1216260E+04  0.7818609E-02  0.9098742E-01
        1   -1    0    0  501    0  0.00000000000E+00  0.00000000000E+00  0.75818774611E+03  0.75818774612E+03  0.50400001928E-02 0.  1.
       -1   -1    0    0    0  501  0.00000000000E+00  0.00000000000E+00 -0.48777147941E+03  0.48777147943E+03  0.50400001928E-02 0. -1.
    10030    2    1    2    0    0  0.00000000000E+00  0.00000000000E+00  0.27041626670E+03  0.12459592256E+04  0.12162604304E+04 0.  0.
        2    1    3    3  502    0 -0.27831697849E+03 -0.14929109870E+03  0.66758452737E+03  0.73852371245E+03  0.25500000920E-02 0.  1.
       -2    1    3    3    0  502  0.27831697849E+03  0.14929109870E+03 -0.39716826067E+03  0.50743551310E+03  0.25500000920E-02 0. -1.
</event>
<event>
 5   0  0.9169078E-04  0.1197954E+04  0.7818609E-02  0.9114650E-01
        1   -1    0    0  501    0  0.00000000000E+00  0.00000000000E+00  0.27169399109E+03  0.27169399114E+03  0.50400001928E-02 0. -1.
       -1   -1    0    0    0  501  0.00000000000E+00  0.00000000000E+00 -0.13205049420E+04  0.13205049420E+04  0.50400001928E-02 0.  1.
    10030    2    1    2    0    0  0.00000000000E+00  0.00000000000E+00 -0.10488109509E+04  0.15921989332E+04  0.11979536852E+04 0.  0.
        1    1    3    3  502    0  0.14829702863E+03 -0.45717933510E+03 -0.99948779382E+03  0.11090449960E+04  0.50400001928E-02 0.  1.
       -1    1    3    3    0  502 -0.14829702863E+03  0.45717933510E+03 -0.49323157118E+02  0.48315393717E+03  0.50400001928E-02 0. -1.
</event>
<event>
 5   0  0.1551501E-03  0.1205175E+04  0.7818609E-02  0.9108338E-01
        2   -1    0    0  501    0  0.00000000000E+00  0.00000000000E+00  0.88184398844E+03  0.88184398844E+03  0.25500000920E-02 0.  1.
       -2   -1    0    0    0  501  0.00000000000E+00  0.00000000000E+00 -0.41176440934E+03  0.41176440935E+03  0.25500000920E-02 0. -1.
    10030    2    1    2    0    0  0.00000000000E+00  0.00000000000E+00  0.47007957909E+03  0.12936083978E+04  0.12051754545E+04 0.  0.
        4    1    3    3  502    0 -0.27071632307E+03  0.85580496860E+02 -0.33546725474E+03  0.43948975064E+03  0.12699999809E+01 0. -1.
       -4    1    3    3    0  502  0.27071632307E+03 -0.85580496860E+02  0.80554683383E+03  0.85411864715E+03  0.12699999809E+01 0.  1.
</event>
<event>
 5   0  0.1647550E-03  0.1226123E+04  0.7818609E-02  0.9090294E-01
       -2   -1    0    0    0  501  0.00000000000E+00  0.00000000000E+00  0.27205237496E+03  0.27205237497E+03  0.25500000920E-02 0. -1.
        2   -1    0    0  501    0  0.00000000000E+00  0.00000000000E+00 -0.13815139647E+04  0.13815139647E+04  0.25500000920E-02 0.  1.
    10030    2    1    2    0    0  0.00000000000E+00  0.00000000000E+00 -0.11094615898E+04  0.16535663397E+04  0.12261225961E+04 0.  0.
        3    1    3    3  502    0 -0.12427299653E+03 -0.54965526893E+03 -0.88030160422E+03  0.10452251513E+04  0.10100000352E+00 0.  1.
       -3    1    3    3    0  502  0.12427299653E+03  0.54965526893E+03 -0.22915998557E+03  0.60834118841E+03  0.10100000352E+00 0. -1.
</event>
<event>
 5   0  0.6137750E-04  0.1201111E+04  0.7818609E-02  0.9111885E-01
        4   -1    0    0  501    0  0.00000000000E+00  0.00000000000E+00  0.31696703191E+03  0.31696957617E+03  0.12699999809E+01 0. -1.
       -4   -1    0    0    0  501  0.00000000000E+00  0.00000000000E+00 -0.11378608779E+04  0.11378615867E+04  0.12699999809E+01 0.  1.
    10030    2    1    2    0    0  0.00000000000E+00  0.00000000000E+00 -0.82089384603E+03  0.14548311629E+04  0.12011107384E+04 0.  0.
        5    1    3    3  502    0 -0.45602962239E+03  0.23682856460E+03 -0.33999488296E+02  0.51500372883E+03  0.46999998093E+01 0. -1.
       -5    1    3    3    0  502  0.45602962239E+03 -0.23682856460E+03 -0.78689435774E+03  0.93982743402E+03  0.46999998093E+01 0.  1.
</event>
<event>
 5   0  0.6137750E-04  0.1193809E+04  0.7818609E-02  0.9118293E-01
       -3   -1    0    0    0  501  0.00000000000E+00  0.00000000000E+00  0.62880790989E+03  0.62880791800E+03  0.10100000352E+00 0.  1.
        3   -1    0    0  501    0  0.00000000000E+00  0.00000000000E+00 -0.56661988368E+03  0.56661989268E+03  0.10100000352E+00 0. -1.
    10030    2    1    2    0    0  0.00000000000E+00  0.00000000000E+00  0.62188026212E+02  0.11954278107E+04  0.11938091556E+04 0.  0.
        1    1    3    3  502    0 -0.39913129694E+02 -0.92333021106E+02  0.62025953367E+03  0.62836321808E+03  0.50400001928E-02 0.  1.
       -1    1    3    3    0  502  0.39913129694E+02  0.92333021106E+02 -0.55807150746E+03  0.56706459259E+03  0.50400001928E-02 0. -1.
</event>
<event>
 5   0  0.9208078E-04  0.1202845E+04  0.7818609E-02  0.9110370E-01
       -1   -1    0    0    0  501  0.00000000000E+00  0.00000000000E+00  0.72440631542E+03  0.72440631544E+03  0.50400001928E-02 0.  1.
        1   -1    0    0  501    0  0.00000000000E+00  0.00000000000E+00 -0.49931767863E+03  0.49931767865E+03  0.50400001928E-02 0. -1.
    10030    2    1    2    0    0  0.00000000000E+00  0.00000000000E+00  0.22508863679E+03  0.12237239941E+04  0.12028447611E+04 0.  0.
        3    1    3    3  502    0  0.29096649581E+02 -0.41871089740E+02 -0.49711480808E+03  0.49972286898E+03  0.10100000352E+00 0. -1.
       -3    1    3    3    0  502 -0.29096649581E+02  0.41871089740E+02  0.72220344487E+03  0.72400112511E+03  0.10100000352E+00 0.  1.
</event>
<event>
 5   0  0.1537557E-03  0.1199693E+04  0.7818609E-02  0.9113125E-01
        2   -1    0    0  501    0  0.00000000000E+00  0.00000000000E+00  0.82478870073E+03  0.82478870073E+03  0.25500000920E-02 0.  1.
       -2   -1    0    0    0  501  0.00000000000E+00  0.00000000000E+00 -0.43625214177E+03  0.43625214177E+03  0.25500000920E-02 0. -1.
    10030    2    1    2    0    0  0.00000000000E+00  0.00000000000E+00  0.38853655896E+03  0.12610408425E+04  0.11996930227E+04 0.  0.
        2    1    3    3  502    0  0.18181101245E+03  0.53982766748E+03 -0.33528368694E+01  0.56963180771E+03  0.25500000920E-02 0.  1.
       -2    1    3    3    0  502 -0.18181101245E+03 -0.53982766748E+03  0.39188939583E+03  0.69140903480E+03  0.25500000920E-02 0. -1.
</event>
<event>
 5   0  0.1551501E-03  0.1200844E+04  0.7818609E-02  0.9112118E-01
       -2   -1    0    0    0  501  0.00000000000E+00  0.00000000000E+00  0.59118969208E+03  0.59118969209E+03  0.25500000920E-02 0. -1.
        2   -1    0    0  501    0  0.00000000000E+00  0.00000000000E+00 -0.60979882462E+03  0.60979882463E+03  0.25500000920E-02 0.  1.
    10030    2    1    2    0    0  0.00000000000E+00  0.00000000000E+00 -0.18609132537E+02  0.12009885167E+04  0.12008443352E+04 0.  0.
        4    1    3    3  502    0 -0.42041853870E+02  0.56331115211E+03  0.19423447517E+03  0.59734045218E+03  0.12699999809E+01 0. -1.
       -4    1    3    3    0  502  0.42041853870E+02 -0.56331115211E+03 -0.21284360770E+03  0.60364806453E+03  0.12699999809E+01 0.  1.
</event>
<event>
 5   0  0.9169078E-04  0.1190387E+04  0.7818609E-02  0.9121312E-01
        1   -1    0    0  501    0  0.00000000000E+00  0.00000000000E+00  0.11791753644E+04  0.11791753644E+04  0.50400001928E-02 0. -1.
       -1   -1    0    0    0  501  0.00000000000E+00  0.00000000000E+00 -0.30042649331E+03  0.30042649336E+03  0.50400001928E-02 0.  1.
    10030    2    1    2    0    0  0.00000000000E+00  0.00000000000E+00  0.87874887108E+03  0.14796018578E+04  0.11903873651E+04 0.  0.
        1    1    3    3  502    0 -0.21411092807E+03  0.20699422524E+03  0.10799086341E+04  0.11202199591E+04  0.50400001928E-02 0. -1.
       -1    1    3    3    0  502  0.21411092807E+03 -0.20699422524E+03 -0.20115976300E+03  0.35938189865E+03  0.50400001928E-02 0.  1.
</event>
<event>
 5   0  0.9169078E-04  0.1223780E+04  0.7818609E-02  0.9092292E-01
       -1   -1    0    0    0  501  0.00000000000E+00  0.00000000000E+00  0.92289019434E+03  0.92289019435E+03  0.50400001928E-02 0. -1.
        1   -1    0    0  501    0  0.00000000000E+00  0.00000000000E+00 -0.40569253025E+03  0.40569253028E+03  0.50400001928E-02 0.  1.
    10030    2    1    2    0    0  0.00000000000E+00  0.00000000000E+00  0.51719766409E+03  0.13285827246E+04  0.12237804674E+04 0.  0.
        1    1    3    3  502    0  0.84820692630E+02 -0.43617021139E+02 -0.39757279510E+03  0.40885342344E+03  0.50400001928E-02 0.  1.
       -1    1    3    3    0  502 -0.84820692630E+02  0.43617021139E+02  0.91477045919E+03  0.91972930119E+03  0.50400001928E-02 0. -1.
</event>
<event>
 5   0  0.1647550E-03  0.1196078E+04  0.7818609E-02  0.9116297E-01
        2   -1    0    0  501    0  0.00000000000E+00  0.00000000000E+00  0.78890858428E+03  0.78890858428E+03  0.25500000920E-02 0.  1.
       -2   -1    0    0    0  501  0.00000000000E+00  0.00000000000E+00 -0.45334841095E+03  0.45334841096E+03  0.25500000920E-02 0. -1.
    10030    2    1    2    0    0  0.00000000000E+00  0.00000000000E+00  0.33556017332E+03  0.12422569952E+04  0.11960776782E+04 0.  0.
        3    1    3    3  502    0  0.92952226788E+02  0.53765799446E+03  0.42204676449E+03  0.68981136341E+03  0.10100000352E+00 0. -1.
       -3    1    3    3    0  502 -0.92952226788E+02 -0.53765799446E+03 -0.86486591164E+02  0.55244563183E+03  0.10100000352E+00 0.  1.
</event>
<event>
 5   0  0.8908478E-04  0.1197071E+04  0.7818609E-02  0.9115424E-01
       -1   -1    0    0    0  501  0.00000000000E+00  0.00000000000E+00  0.24139946519E+03  0.24139946524E+03  0.50400001928E-02 0. -1.
        1   -1    0    0  501    0  0.00000000000E+00  0.00000000000E+00 -0.14840330612E+04  0.14840330612E+04  0.50400001928E-02 0.  1.
    10030    2    1    2    0    0  0.00000000000E+00  0.00000000000E+00 -0.12426335960E+04  0.17254325264E+04  0.11970710711E+04 0.  0.
        4    1    3    3  502    0 -0.67021192646E+02 -0.57251016435E+03 -0.38897549631E+03  0.69538714266E+03  0.12699999809E+01 0. -1.
       -4    1    3    3    0  502  0.67021192646E+02  0.57251016435E+03 -0.85365809968E+03  0.10300453838E+04  0.12699999809E+01 0.  1.
</event>
<event>
 5   0  0.9169078E-04  0.1197728E+04  0.7818609E-02  0.9114847E-01
        1   -1    0    0  501    0  0.00000000000E+00  0.00000000000E+00  0.77289551383E+03  0.77289551385E+03  0.50400001928E-02 0.  1.
       -1   -1    0    0    0  501  0.00000000000E+00  0.00000000000E+00 -0.46401889366E+03  0.46401889369E+03  0.50400001928E-02 0. -1.
    10030    2    1    2    0    0  0.00000000000E+00  0.00000000000E+00  0.30887662017E+03  0.12369144075E+04  0.11977280514E+04 0.  0.
        1    1    3    3  502    0  0.19983381983E+03 -0.53348779693E+03 -0.36252127732E+02  0.57083885801E+03  0.50400001928E-02 0.  1.
       -1    1    3    3    0  502 -0.19983381983E+03  0.53348779693E+03  0.34512874790E+03  0.66607554952E+03  0.50400001928E-02 0. -1.
</event>
<event>
 5   0  0.6137750E-04  0.1209370E+04  0.7818609E-02  0.9104695E-01
        3   -1    0    0  501    0  0.00000000000E+00  0.00000000000E+00  0.82812484354E+03  0.82812484970E+03  0.10100000352E+00 0. -1.
       -3   -1    0    0    0  501  0.00000000000E+00  0.00000000000E+00 -0.44153212476E+03  0.44153213631E+03  0.10100000352E+00 0.  1.
    10030    2    1    2    0    0  0.00000000000E+00  0.00000000000E+00  0.38659271878E+03  0.12696569860E+04  0.12093696424E+04 0.  0.
        3    1    3    3  502    0  0.28768225505E+03  0.66771563174E+02  0.74725945706E+03  0.80350247534E+03  0.10100000352E+00 0. -1.
       -3    1    3    3    0  502 -0.28768225505E+03 -0.66771563174E+02 -0.36066673828E+03  0.46615451067E+03  0.10100000352E+00 0.  1.
</event>
<event>
 5   0  0.9169078E-04  0.1204876E+04  0.7818609E-02  0.9108599E-01
        1   -1    0    0  501    0  0.00000000000E+00  0.00000000000E+00  0.13289613959E+04  0.13289613959E+04  0.50400001928E-02 0.  1.
       -1   -1    0    0    0  501  0.00000000000E+00  0.00000000000E+00 -0.27309413735E+03  0.27309413740E+03  0.50400001928E-02 0. -1.
    10030    2    1    2    0    0  0.00000000000E+00  0.00000000000E+00  0.10558672585E+04  0.16020555333E+04  0.12048760368E+04 0.  0.
        1    1    3    3  502    0  0.24614972347E+03  0.95339609570E+02 -0.19210511735E+03  0.32647159701E+03  0.50400001928E-02 0. -1.
       -1    1    3    3    0  502 -0.24614972347E+03 -0.95339609570E+02  0.12479723759E+04  0.12755839363E+04  0.50400001928E-02 0.  1.
</event>
<event>
 5   0  0.9208078E-04  0.1192875E+04  0.7818609E-02  0.9119116E-01
        1   -1    0    0  501    0  0.00000000000E+00  0.00000000000E+00  0.13967483060E+04  0.13967483060E+04  0.50400001928E-02 0.  1.
       -1   -1    0    0    0  501  0.00000000000E+00  0.00000000000E+00 -0.25469008022E+03  0.25469008027E+03  0.50400001928E-02 0. -1.
    10030    2    1    2    0    0  0.00000000000E+00  0.00000000000E+00  0.11420582257E+04  0.16514383862E+04  0.11928754137E+04 0.  0.
        3    1    3    3  502    0  0.10391910150E+03  0.80354729210E+02  0.13764724455E+04  0.13827264609E+04  0.10100000352E+00 0.  1.
       -3    1    3    3    0  502 -0.10391910150E+03 -0.80354729210E+02 -0.23441421981E+03  0.26871192533E+03  0.10100000352E+00 0. -1.
</event>
<event>
 5   0  0.1567019E-03  0.1190621E+04  0.7818609E-02  0.9121105E-01
        2   -1    0    0  501    0  0.00000000000E+00  0.00000000000E+00  0.12602218754E+04  0.12602218754E+04  0.25500000920E-02 0. -1.
       -2   -1    0    0    0  501  0.00000000000E+00  0.00000000000E+00 -0.28121618162E+03  0.28121618163E+03  0.25500000920E-02 0.  1.
    10030    2    1    2    0    0  0.00000000000E+00  0.00000000000E+00  0.97900569380E+03  0.15414380571E+04  0.11906213232E+04 0.  0.
        5    1    3    3  502    0 -0.41425241014E+03 -0.42335344875E+03  0.41247941157E+03  0.72179952677E+03  0.46999998093E+01 0. -1.
       -5    1    3    3    0  502  0.41425241014E+03  0.42335344875E+03  0.56652628222E+03  0.81963853028E+03  0.46999998093E+01 0.  1.
</event>
<event>
 5   0  0.8908478E-04  0.1190017E+04  0.7818609E-02  0.9121640E-01
       -1   -1    0    0    0  501  0.00000000000E+00  0.00000000000E+00  0.38522283500E+03  0.38522283504E+03  0.50400001928E-02 0.  1.
        1   -1    0    0  501    0  0.00000000000E+00  0.00000000000E+00 -0.91903942054E+03  0.91903942056E+03  0.50400001928E-02 0. -1.
    10030    2    1    2    0    0  0.00000000000E+00  0.00000000000E+00 -0.53381658554E+03  0.13042622556E+04  0.11900167580E+04 0.  0.
        4    1    3    3  502    0  0.35529120530E+03 -0.30773016378E+03  0.13295068763E+03  0.48847435194E+03  0.12699999809E+01 0.  1.
       -4    1    3    3    0  502 -0.35529120530E+03  0.30773016378E+03 -0.66676727317E+03  0.81578790365E+03  0.12699999809E+01 0. -1.
</event>
<event>
 5   0  0.9169078E-04  0.1198291E+04  0.7818609E-02  0.9114353E-01
       -1   -1    0    0    0  501  0.00000000000E+00  0.00000000000E+00  0.10221452407E+04  0.10221452408E+04  0.50400001928E-02 0.  1.
        1   -1    0    0  501    0  0.00000000000E+00  0.00000000000E+00 -0.35119818137E+03  0.35119818140E+03  0.50400001928E-02 0. -1.
    10030    2    1    2    0    0  0.00000000000E+00  0.00000000000E+00  0.67094705937E+03  0.13733434222E+04  0.11982913664E+04 0.  0.
        1    1    3    3  502    0  0.51610660210E+03 -0.78108809203E+01  0.68413298626E+03  0.85700932171E+03  0.50400001928E-02 0.  1.
       -1    1    3    3    0  502 -0.51610660210E+03  0.78108809203E+01 -0.13185926883E+02  0.51633410044E+03  0.50400001928E-02 0. -1.
</event>
<event>
 5   0  0.9169078E-04  0.1137609E+04  0.7818609E-02  0.9169292E-01
        1   -1    0    0  501    0  0.00000000000E+00  0.00000000000E+00  0.14833932225E+04  0.14833932225E+04  0.50400001928E-02 0. -1.
       -1   -1    0    0    0  501  0.00000000000E+00  0.00000000000E+00 -0.21810693044E+03  0.21810693050E+03  0.50400001928E-02 0.  1.
    10030    2    1    2    0    0  0.00000000000E+00  0.00000000000E+00  0.12652862921E+04  0.17015001530E+04  0.11376086189E+04 0.  0.
        1    1    3    3  502    0  0.21803717172E+03  0.10613312611E+03 -0.13691934611E+03  0.27848044110E+03  0.50400001928E-02 0.  1.
       -1    1    3    3    0  502 -0.21803717172E+03 -0.10613312611E+03  0.14022056382E+04  0.14230197119E+04  0.50400001928E-02 0. -1.
</event>
<event>
 5   0  0.1567019E-03  0.1136130E+04  0.7818609E-02  0.9170675E-01
        2   -1    0    0  501    0  0.00000000000E+00  0.00000000000E+00  0.43461397495E+03  0.43461397496E+03  0.25500000920E-02 0. -1.
       -2   -1    0    0    0  501  0.00000000000E+00  0.00000000000E+00 -0.74249353717E+03  0.74249353718E+03  0.25500000920E-02 0.  1.
    10030    2    1    2    0    0  0.00000000000E+00  0.00000000000E+00 -0.30787956222E+03  0.11771075121E+04  0.11361303932E+04 0.  0.
        5    1    3    3  502    0  0.46525470445E+03  0.94150107413E+01  0.18357874310E+03  0.50027375241E+03  0.46999998093E+01 0. -1.
       -5    1    3    3    0  502 -0.46525470445E+03 -0.94150107413E+01 -0.49145830532E+03  0.67683375973E+03  0.46999998093E+01 0.  1.
</event>
<event>
 5   0  0.1551501E-03  0.1199344E+04  0.7818609E-02  0.9113431E-01
        2   -1    0    0  501    0  0.00000000000E+00  0.00000000000E+00  0.66101972055E+03  0.66101972056E+03  0.25500000920E-02 0.  1.
       -2   -1    0    0    0  501  0.00000000000E+00  0.00000000000E+00 -0.54401792764E+03  0.54401792764E+03  0.25500000920E-02 0. -1.
    10030    2    1    2    0    0  0.00000000000E+00  0.00000000000E+00  0.11700179292E+03  0.12050376482E+04  0.11993441183E+04 0.  0.
        4    1    3    3  502    0  0.63811839315E+02  0.33498840288E+03 -0.43711125722E+03  0.55439791214E+03  0.12699999809E+01 0. -1.
       -4    1    3    3    0  502 -0.63811839315E+02 -0.33498840288E+03  0.55411305013E+03  0.65063973605E+03  0.12699999809E+01 0.  1.
</event>
<event>
 5   0  0.9170776E-04  0.1147731E+04  0.7818609E-02  0.9159879E-01
        1   -1    0    0  501    0  0.00000000000E+00  0.00000000000E+00  0.10498650257E+04  0.10498650257E+04  0.50400001928E-02 0. -1.
       -1   -1    0    0    0  501  0.00000000000E+00  0.00000000000E+00 -0.31368017657E+03  0.31368017661E+03  0.50400001928E-02 0.  1.
    10030    2    1    2    0    0  0.00000000000E+00  0.00000000000E+00  0.73618484908E+03  0.13635452023E+04  0.11477314088E+04 0.  0.
        5    1    3    3  502    0  0.12820648025E+03 -0.18066067718E+03  0.99699356512E+03  0.10213194607E+04  0.46999998093E+01 0. -1.
       -5    1    3    3    0  502 -0.12820648025E+03  0.18066067718E+03 -0.26080871604E+03  0.34222574161E+03  0.46999998093E+01 0.  1.
</event>
<event>
 5   0  0.1551501E-03  0.1194944E+04  0.7818609E-02  0.9117294E-01
        2   -1    0    0  501    0  0.00000000000E+00  0.00000000000E+00  0.10011630427E+04  0.10011630427E+04  0.25500000920E-02 0.  1.
       -2   -1    0    0    0  501  0.00000000000E+00  0.00000000000E+00 -0.35655809025E+03  0.35655809026E+03  0.25500000920E-02 0. -1.
    10030    2    1    2    0    0  0.00000000000E+00  0.00000000000E+00  0.64460495243E+03  0.13577211329E+04  0.11949439862E+04 0.  0.
        4    1    3    3  502    0  0.30464490514E+03  0.37318019444E+03  0.72385545103E+03  0.86950578068E+03  0.12699999809E+01 0.  1.
       -4    1    3    3    0  502 -0.30464490514E+03 -0.37318019444E+03 -0.79250498606E+02  0.48821535226E+03  0.12699999809E+01 0. -1.
</event>
<event>
 5   0  0.9208078E-04  0.1200885E+04  0.7818609E-02  0.9112082E-01
        1   -1    0    0  501    0  0.00000000000E+00  0.00000000000E+00  0.57017692413E+03  0.57017692416E+03  0.50400001928E-02 0.  1.
       -1   -1    0    0    0  501  0.00000000000E+00  0.00000000000E+00 -0.63231483332E+03  0.63231483334E+03  0.50400001928E-02 0. -1.
    10030    2    1    2    0    0  0.00000000000E+00  0.00000000000E+00 -0.62137909185E+02  0.12024917575E+04  0.12008852181E+04 0.  0.
        3    1    3    3  502    0 -0.53262695102E+03  0.22161488875E+03 -0.19780504435E+03  0.60986184800E+03  0.10100000352E+00 0. -1.
       -3    1    3    3    0  502  0.53262695102E+03 -0.22161488875E+03  0.13566713517E+03  0.59262990950E+03  0.10100000352E+00 0.  1.
</event>
<event>
 5   0  0.1537557E-03  0.1202937E+04  0.7818609E-02  0.9110289E-01
        2   -1    0    0  501    0  0.00000000000E+00  0.00000000000E+00  0.65198716183E+03  0.65198716183E+03  0.25500000920E-02 0.  1.
       -2   -1    0    0    0  501  0.00000000000E+00  0.00000000000E+00 -0.55486444408E+03  0.55486444409E+03  0.25500000920E-02 0. -1.
    10030    2    1    2    0    0  0.00000000000E+00  0.00000000000E+00  0.97122717746E+02  0.12068516059E+04  0.12029372288E+04 0.  0.
        2    1    3    3  502    0  0.25435017156E+03  0.49830977249E+03  0.27009169300E+03  0.62125370161E+03  0.25500000920E-02 0. -1.
       -2    1    3    3    0  502 -0.25435017156E+03 -0.49830977249E+03 -0.17296897525E+03  0.58559790431E+03  0.25500000920E-02 0.  1.
</event>
<event>
 5   0  0.1597352E-03  0.1201165E+04  0.7818609E-02  0.9111837E-01
        2   -1    0    0  501    0  0.00000000000E+00  0.00000000000E+00  0.44406151838E+03  0.44406151839E+03  0.25500000920E-02 0. -1.
       -2   -1    0    0    0  501  0.00000000000E+00  0.00000000000E+00 -0.81227340554E+03  0.81227340555E+03  0.25500000920E-02 0.  1.
    10030    2    1    2    0    0  0.00000000000E+00  0.00000000000E+00 -0.36821188716E+03  0.12563349239E+04  0.12011650375E+04 0.  0.
        1    1    3    3  502    0  0.45836690225E+01  0.21376237090E+03 -0.77111796769E+03  0.80021139792E+03  0.50400001928E-02 0.  1.
       -1    1    3    3    0  502 -0.45836690225E+01 -0.21376237090E+03  0.40290608053E+03  0.45612352602E+03  0.50400001928E-02 0. -1.
</event>
<event>
 5   0  0.8908478E-04  0.1208455E+04  0.7818609E-02  0.9105488E-01
       -1   -1    0    0    0  501  0.00000000000E+00  0.00000000000E+00  0.39272683192E+03  0.39272683195E+03  0.50400001928E-02 0. -1.
        1   -1    0    0  501    0  0.00000000000E+00  0.00000000000E+00 -0.92963009923E+03  0.92963009925E+03  0.50400001928E-02 0.  1.
    10030    2    1    2    0    0  0.00000000000E+00  0.00000000000E+00 -0.53690326732E+03  0.13223569312E+04  0.12084546889E+04 0.  0.
        4    1    3    3  502    0  0.19551564426E+03 -0.38376625319E+03  0.19526723212E+03  0.47289936464E+03  0.12699999809E+01 0. -1.
       -4    1    3    3    0  502 -0.19551564426E+03  0.38376625319E+03 -0.73217049943E+03  0.84945756656E+03  0.12699999809E+01 0.  1.
</event>
<event>
 5   0  0.1597352E-03  0.1199318E+04  0.7818609E-02  0.9113454E-01
        2   -1    0    0  501    0  0.00000000000E+00  0.00000000000E+00  0.17702973672E+04  0.17702973672E+04  0.25500000920E-02 0.  1.
       -2   -1    0    0    0  501  0.00000000000E+00  0.00000000000E+00 -0.20312453871E+03  0.20312453872E+03  0.25500000920E-02 0. -1.
    10030    2    1    2    0    0  0.00000000000E+00  0.00000000000E+00  0.15671728285E+04  0.19734219059E+04  0.11993178663E+04 0.  0.
        1    1    3    3  502    0 -0.30695384447E+02  0.59843829531E+03  0.74605577965E+03  0.95690638325E+03  0.50400001928E-02 0.  1.
       -1    1    3    3    0  502  0.30695384447E+02 -0.59843829531E+03  0.82111704884E+03  0.10165155227E+04  0.50400001928E-02 0. -1.
</event>
<event>
 5   0  0.6137750E-04  0.1208190E+04  0.7818609E-02  0.9105718E-01
       -4   -1    0    0    0  501  0.00000000000E+00  0.00000000000E+00  0.10571770607E+04  0.10571778235E+04  0.12699999809E+01 0. -1.
        4   -1    0    0  501    0  0.00000000000E+00  0.00000000000E+00 -0.34519143759E+03  0.34519377383E+03  0.12699999809E+01 0.  1.
    10030    2    1    2    0    0  0.00000000000E+00  0.00000000000E+00  0.71198562311E+03  0.14023715974E+04  0.12081897904E+04 0.  0.
        1    1    3    3  502    0 -0.41460150708E+02  0.34888953325E+03  0.92638758316E+03  0.99077586001E+03  0.50400001928E-02 0. -1.
       -1    1    3    3    0  502  0.41460150708E+02 -0.34888953325E+03 -0.21440196006E+03  0.41159573735E+03  0.50400001928E-02 0.  1.
</event>
<event>
 5   0  0.1551501E-03  0.1199625E+04  0.7818609E-02  0.9113185E-01
        2   -1    0    0  501    0  0.00000000000E+00  0.00000000000E+00  0.70135548671E+03  0.70135548672E+03  0.25500000920E-02 0. -1.
       -2   -1    0    0    0  501  0.00000000000E+00  0.00000000000E+00 -0.51297106981E+03  0.51297106982E+03  0.25500000920E-02 0.  1.
    10030    2    1    2    0    0  0.00000000000E+00  0.00000000000E+00  0.18838441690E+03  0.12143265565E+04  0.11996250653E+04 0.  0.
        4    1    3    3  502    0  0.41874271126E+03 -0.42887538444E+03  0.71695814039E+02  0.60367330259E+03  0.12699999809E+01 0. -1.
       -4    1    3    3    0  502 -0.41874271126E+03  0.42887538444E+03  0.11668860286E+03  0.61065325394E+03  0.12699999809E+01 0.  1.
</event>
<event>
 5   0  0.1647550E-03  0.1204887E+04  0.7818609E-02  0.9108590E-01
        2   -1    0    0  501    0  0.00000000000E+00  0.00000000000E+00  0.11607645121E+04  0.11607645121E+04  0.25500000920E-02 0. -1.
       -2   -1    0    0    0  501  0.00000000000E+00  0.00000000000E+00 -0.31267174257E+03  0.31267174258E+03  0.25500000920E-02 0.  1.
    10030    2    1    2    0    0  0.00000000000E+00  0.00000000000E+00  0.84809276953E+03  0.14734362547E+04  0.12048871528E+04 0.  0.
        3    1    3    3  502    0 -0.16647016049E+03 -0.47337708320E+03  0.16365525816E+02  0.50206176698E+03  0.10100000352E+00 0.  1.
       -3    1    3    3    0  502  0.16647016049E+03  0.47337708320E+03  0.83172724371E+03  0.97137448771E+03  0.10100000352E+00 0. -1.
</event>
<event>
 5   0  0.9358428E-04  0.1208448E+04  0.7818609E-02  0.9105494E-01
       -1   -1    0    0    0  501  0.00000000000E+00  0.00000000000E+00  0.18273726443E+03  0.18273726450E+03  0.50400001928E-02 0. -1.
        1   -1    0    0  501    0  0.00000000000E+00  0.00000000000E+00 -0.19978778696E+04  0.19978778696E+04  0.50400001928E-02 0.  1.
    10030    2    1    2    0    0  0.00000000000E+00  0.00000000000E+00 -0.18151406052E+04  0.21806151341E+04  0.12084481563E+04 0.  0.
        2    1    3    3  502    0 -0.56586335482E+03  0.12355678721E+03 -0.59701633742E+03  0.83180293529E+03  0.25500000920E-02 0.  1.
       -2    1    3    3    0  502  0.56586335482E+03 -0.12355678721E+03 -0.12181242678E+04  0.13488121988E+04  0.25500000920E-02 0. -1.
</event>
<event>
 5   0  0.8908478E-04  0.1189859E+04  0.7818609E-02  0.9121780E-01
        1   -1    0    0  501    0  0.00000000000E+00  0.00000000000E+00  0.12091817769E+04  0.12091817770E+04  0.50400001928E-02 0. -1.
       -1   -1    0    0    0  501  0.00000000000E+00  0.00000000000E+00 -0.29271118018E+03  0.29271118023E+03  0.50400001928E-02 0.  1.
    10030    2    1    2    0    0  0.00000000000E+00  0.00000000000E+00  0.91647059676E+03  0.15018929572E+04  0.11898588572E+04 0.  0.
        4    1    3    3  502    0  0.49405476312E+03 -0.33459209080E+02  0.87445036437E+03  0.10049252113E+04  0.12699999809E+01 0. -1.
       -4    1    3    3    0  502 -0.49405476312E+03  0.33459209080E+02  0.42020232393E+02  0.49696774590E+03  0.12699999809E+01 0.  1.
</event>
<event>
 5   0  0.9208078E-04  0.1196602E+04  0.7818609E-02  0.9115836E-01
        1   -1    0    0  501    0  0.00000000000E+00  0.00000000000E+00  0.93971617388E+03  0.93971617389E+03  0.50400001928E-02 0.  1.
       -1   -1    0    0    0  501  0.00000000000E+00  0.00000000000E+00 -0.38092770282E+03  0.38092770286E+03  0.50400001928E-02 0. -1.
    10030    2    1    2    0    0  0.00000000000E+00  0.00000000000E+00  0.55878847106E+03  0.13206438768E+04  0.11966017273E+04 0.  0.
        3    1    3    3  502    0  0.55437216450E+02 -0.36380709021E+03 -0.24124307559E+03  0.44003081207E+03  0.10100000352E+00 0. -1.
       -3    1    3    3    0  502 -0.55437216450E+02  0.36380709021E+03  0.80003154664E+03  0.88061306468E+03  0.10100000352E+00 0.  1.
</event>
<event>
 5   0  0.9208078E-04  0.1196343E+04  0.7818609E-02  0.9116064E-01
       -1   -1    0    0    0  501  0.00000000000E+00  0.00000000000E+00  0.17688023107E+03  0.17688023114E+03  0.50400001928E-02 0. -1.
        1   -1    0    0  501    0  0.00000000000E+00  0.00000000000E+00 -0.20228879474E+04  0.20228879475E+04  0.50400001928E-02 0.  1.
    10030    2    1    2    0    0  0.00000000000E+00  0.00000000000E+00 -0.18460077164E+04  0.21997681786E+04  0.11963425724E+04 0.  0.
        3    1    3    3  502    0  0.18688665601E+03 -0.21765705171E+03 -0.18881391559E+04  0.19098090733E+04  0.10100000352E+00 0.  1.
       -3    1    3    3    0  502 -0.18688665601E+03  0.21765705171E+03  0.42131439468E+02  0.28995910530E+03  0.10100000352E+00 0. -1.
</event>
<event>
 5   0  0.1597352E-03  0.1194365E+04  0.7818609E-02  0.9117803E-01
        2   -1    0    0  501    0  0.00000000000E+00  0.00000000000E+00  0.24604624787E+04  0.24604624787E+04  0.25500000920E-02 0.  1.
       -2   -1    0    0    0  501  0.00000000000E+00  0.00000000000E+00 -0.14494297957E+03  0.14494297959E+03  0.25500000920E-02 0. -1.
    10030    2    1    2    0    0  0.00000000000E+00  0.00000000000E+00  0.23155194992E+04  0.26054054583E+04  0.11943647061E+04 0.  0.
        1    1    3    3  502    0  0.31305389237E+03  0.47711480973E+03  0.15417475994E+04  0.16439668310E+04  0.50400001928E-02 0.  1.
       -1    1    3    3    0  502 -0.31305389237E+03 -0.47711480973E+03  0.77377189976E+03  0.96143862730E+03  0.50400001928E-02 0. -1.
</event>
<event>
 5   0  0.1567019E-03  0.1257738E+04  0.7818609E-02  0.9063767E-01
       -2   -1    0    0    0  501  0.00000000000E+00  0.00000000000E+00  0.81786441607E+03  0.81786441608E+03  0.25500000920E-02 0. -1.
        2   -1    0    0  501    0  0.00000000000E+00  0.00000000000E+00 -0.48354739422E+03  0.48354739423E+03  0.25500000920E-02 0.  1.
    10030    2    1    2    0    0  0.00000000000E+00  0.00000000000E+00  0.33431702185E+03  0.13014118103E+04  0.12577379810E+04 0.  0.
        5    1    3    3  502    0  0.43270012608E+03  0.41467370534E+03 -0.29902613772E+02  0.60008327532E+03  0.46999998093E+01 0.  1.
       -5    1    3    3    0  502 -0.43270012608E+03 -0.41467370534E+03  0.36421963563E+03  0.70132853498E+03  0.46999998093E+01 0. -1.
</event>
<event>
 5   0  0.1537557E-03  0.1204382E+04  0.7818609E-02  0.9109030E-01
       -2   -1    0    0    0  501  0.00000000000E+00  0.00000000000E+00  0.71062506411E+03  0.71062506412E+03  0.25500000920E-02 0. -1.
        2   -1    0    0  501    0  0.00000000000E+00  0.00000000000E+00 -0.51030263399E+03  0.51030263400E+03  0.25500000920E-02 0.  1.
    10030    2    1    2    0    0  0.00000000000E+00  0.00000000000E+00  0.20032243013E+03  0.12209276981E+04  0.12043817368E+04 0.  0.
        2    1    3    3  502    0  0.27477919645E+03  0.26477999183E+03 -0.37209475496E+03  0.53297894663E+03  0.25500000920E-02 0.  1.
       -2    1    3    3    0  502 -0.27477919645E+03 -0.26477999183E+03  0.57241718509E+03  0.68794875148E+03  0.25500000920E-02 0. -1.
</event>
<event>
 5   0  0.9169078E-04  0.1202726E+04  0.7818609E-02  0.9110474E-01
       -1   -1    0    0    0  501  0.00000000000E+00  0.00000000000E+00  0.35335547336E+03  0.35335547340E+03  0.50400001928E-02 0.  1.
        1   -1    0    0  501    0  0.00000000000E+00  0.00000000000E+00 -0.10234378160E+04  0.10234378161E+04  0.50400001928E-02 0. -1.
    10030    2    1    2    0    0  0.00000000000E+00  0.00000000000E+00 -0.67008234269E+03  0.13767932895E+04  0.12027258274E+04 0.  0.
        1    1    3    3  502    0 -0.43736857960E+03 -0.13635563876E+03  0.11089331512E+03  0.47136128607E+03  0.50400001928E-02 0.  1.
       -1    1    3    3    0  502  0.43736857960E+03  0.13635563876E+03 -0.78097565781E+03  0.90543200339E+03  0.50400001928E-02 0. -1.
</event>
<event>
 5   0  0.1537557E-03  0.1203533E+04  0.7818609E-02  0.9109770E-01
        2   -1    0    0  501    0  0.00000000000E+00  0.00000000000E+00  0.16197779779E+04  0.16197779779E+04  0.25500000920E-02 0.  1.
       -2   -1    0    0    0  501  0.00000000000E+00  0.00000000000E+00 -0.22356321966E+03  0.22356321968E+03  0.25500000920E-02 0. -1.
    10030    2    1    2    0    0  0.00000000000E+00  0.00000000000E+00  0.13962147582E+04  0.18433411976E+04  0.12035327663E+04 0.  0.
        2    1    3    3  502    0 -0.16554203679E+03 -0.20706148859E+02  0.15836498984E+04  0.15924132351E+04  0.25500000920E-02 0.  1.
       -2    1    3    3    0  502  0.16554203679E+03  0.20706148859E+02 -0.18743514021E+03  0.25092796245E+03  0.25500000920E-02 0. -1.
</event>
<event>
 5   0  0.9169078E-04  0.1192772E+04  0.7818609E-02  0.9119207E-01
       -1   -1    0    0    0  501  0.00000000000E+00  0.00000000000E+00  0.31228435876E+03  0.31228435880E+03  0.50400001928E-02 0.  1.
        1   -1    0    0  501    0  0.00000000000E+00  0.00000000000E+00 -0.11389492347E+04  0.11389492347E+04  0.50400001928E-02 0. -1.
    10030    2    1    2    0    0  0.00000000000E+00  0.00000000000E+00 -0.82666487598E+03  0.14512335936E+04  0.11927716151E+04 0.  0.
        1    1    3    3  502    0 -0.43858999091E+03 -0.38619677728E+03 -0.55814873891E+03  0.80810837496E+03  0.50400001928E-02 0.  1.
       -1    1    3    3    0  502  0.43858999091E+03  0.38619677728E+03 -0.26851613707E+03  0.64312521860E+03  0.50400001928E-02 0. -1.
</event>
<event>
 5   0  0.9170776E-04  0.1237716E+04  0.7818609E-02  0.9080469E-01
       -1   -1    0    0    0  501  0.00000000000E+00  0.00000000000E+00  0.31869535345E+03  0.31869535349E+03  0.50400001928E-02 0. -1.
        1   -1    0    0  501    0  0.00000000000E+00  0.00000000000E+00 -0.12017288374E+04  0.12017288374E+04  0.50400001928E-02 0.  1.
    10030    2    1    2    0    0  0.00000000000E+00  0.00000000000E+00 -0.88303348394E+03  0.15204241909E+04  0.12377162787E+04 0.  0.
        5    1    3    3  502    0 -0.31280701290E+03 -0.26324350047E+03 -0.10121898901E+04  0.10916482178E+04  0.46999998093E+01 0.  1.
       -5    1    3    3    0  502  0.31280701290E+03  0.26324350047E+03  0.12915640613E+03  0.42877597309E+03  0.46999998093E+01 0. -1.
</event>
<event>
 5   0  0.1551501E-03  0.1196851E+04  0.7818609E-02  0.9115617E-01
        2   -1    0    0  501    0  0.00000000000E+00  0.00000000000E+00  0.11940352495E+04  0.11940352495E+04  0.25500000920E-02 0. -1.
       -2   -1    0    0    0  501  0.00000000000E+00  0.00000000000E+00 -0.29991852205E+03  0.29991852206E+03  0.25500000920E-02 0.  1.
    10030    2    1    2    0    0  0.00000000000E+00  0.00000000000E+00  0.89411672741E+03  0.14939537715E+04  0.11968513480E+04 0.  0.
        4    1    3    3  502    0  0.46422272524E+03  0.34149481137E+03  0.64829266197E+03  0.86741364601E+03  0.12699999809E+01 0. -1.
       -4    1    3    3    0  502 -0.46422272524E+03 -0.34149481137E+03  0.24582406544E+03  0.62654012551E+03  0.12699999809E+01 0.  1.
</event>
<event>
 5   0  0.9169078E-04  0.1262301E+04  0.7818609E-02  0.9060006E-01
        1   -1    0    0  501    0  0.00000000000E+00  0.00000000000E+00  0.70299655754E+03  0.70299655756E+03  0.50400001928E-02 0. -1.
       -1   -1    0    0    0  501  0.00000000000E+00  0.00000000000E+00 -0.56664753866E+03  0.56664753868E+03  0.50400001928E-02 0.  1.
    10030    2    1    2    0    0  0.00000000000E+00  0.00000000000E+00  0.13634901888E+03  0.12696440962E+04  0.12623014997E+04 0.  0.
        1    1    3    3  502    0 -0.36529732273E+03 -0.31925016844E+03  0.47424117024E+03  0.67843016709E+03  0.50400001928E-02 0. -1.
       -1    1    3    3    0  502  0.36529732273E+03  0.31925016844E+03 -0.33789215136E+03  0.59121392915E+03  0.50400001928E-02 0.  1.
</event>
<event>
 5   0  0.9170776E-04  0.1201965E+04  0.7818609E-02  0.9111139E-01
       -1   -1    0    0    0  501  0.00000000000E+00  0.00000000000E+00  0.11025315098E+04  0.11025315098E+04  0.50400001928E-02 0. -1.
        1   -1    0    0  501    0  0.00000000000E+00  0.00000000000E+00 -0.32759124061E+03  0.32759124065E+03  0.50400001928E-02 0.  1.
    10030    2    1    2    0    0  0.00000000000E+00  0.00000000000E+00  0.77494026920E+03  0.14301227505E+04  0.12019645006E+04 0.  0.
        5    1    3    3  502    0  0.31483264410E+03 -0.33095369092E+02  0.99526108831E+03  0.10444049124E+04  0.46999998093E+01 0. -1.
       -5    1    3    3    0  502 -0.31483264410E+03  0.33095369092E+02 -0.22032081910E+03  0.38571783803E+03  0.46999998093E+01 0.  1.
</event>
<event>
 5   0  0.9169078E-04  0.1203537E+04  0.7818609E-02  0.9109767E-01
        1   -1    0    0  501    0  0.00000000000E+00  0.00000000000E+00  0.93536878453E+03  0.93536878454E+03  0.50400001928E-02 0. -1.
       -1   -1    0    0    0  501  0.00000000000E+00  0.00000000000E+00 -0.38714690459E+03  0.38714690462E+03  0.50400001928E-02 0.  1.
    10030    2    1    2    0    0  0.00000000000E+00  0.00000000000E+00  0.54822187994E+03  0.13225156892E+04  0.12035366710E+04 0.  0.
        1    1    3    3  502    0  0.35434968388E+03 -0.16206210822E+03 -0.22980530380E+03  0.45236965312E+03  0.50400001928E-02 0.  1.
       -1    1    3    3    0  502 -0.35434968388E+03  0.16206210822E+03  0.77802718374E+03  0.87014603605E+03  0.50400001928E-02 0. -1.
</event>
<event>
 5   0  0.9358428E-04  0.1199243E+04  0.7818609E-02  0.9113519E-01
        1   -1    0    0  501    0  0.00000000000E+00  0.00000000000E+00  0.95479878832E+03  0.95479878834E+03  0.50400001928E-02 0. -1.
       -1   -1    0    0    0  501  0.00000000000E+00  0.00000000000E+00 -0.37656729559E+03  0.37656729562E+03  0.50400001928E-02 0.  1.
    10030    2    1    2    0    0  0.00000000000E+00  0.00000000000E+00  0.57823149274E+03  0.13313660840E+04  0.11992430906E+04 0.  0.
        2    1    3    3  502    0 -0.54529551184E+03  0.19555130324E+03  0.46095405406E+03  0.74031489746E+03  0.25500000920E-02 0. -1.
       -2    1    3    3    0  502  0.54529551184E+03 -0.19555130324E+03  0.11727743868E+03  0.59105118650E+03  0.25500000920E-02 0.  1.
</event>
<event>
 5   0  0.9358428E-04  0.1206409E+04  0.7818609E-02  0.9107266E-01
       -1   -1    0    0    0  501  0.00000000000E+00  0.00000000000E+00  0.66017139936E+03  0.66017139938E+03  0.50400001928E-02 0.  1.
        1   -1    0    0  501    0  0.00000000000E+00  0.00000000000E+00 -0.55115295010E+03  0.55115295012E+03  0.50400001928E-02 0. -1.
    10030    2    1    2    0    0  0.00000000000E+00  0.00000000000E+00  0.10901844926E+03  0.12113243495E+04  0.12064085781E+04 0.  0.
        2    1    3    3  502    0 -0.36934783034E+03  0.71572713310E+02 -0.41891486916E+03  0.56305429638E+03  0.25500000920E-02 0. -1.
       -2    1    3    3    0  502  0.36934783034E+03 -0.71572713310E+02  0.52793331842E+03  0.64827005312E+03  0.25500000920E-02 0.  1.
</event>
<event>
 5   0  0.9170776E-04  0.1205408E+04  0.7818609E-02  0.9108136E-01
        1   -1    0    0  501    0  0.00000000000E+00  0.00000000000E+00  0.38626521068E+03  0.38626521072E+03  0.50400001928E-02 0.  1.
       -1   -1    0    0    0  501  0.00000000000E+00  0.00000000000E+00 -0.94042158979E+03  0.94042158980E+03  0.50400001928E-02 0. -1.
    10030    2    1    2    0    0  0.00000000000E+00  0.00000000000E+00 -0.55415637910E+03  0.13266868005E+04  0.12054080530E+04 0.  0.
        5    1    3    3  502    0  0.91740067798E+02 -0.48273828692E+03  0.10699850336E+03  0.50291476755E+03  0.46999998093E+01 0.  1.
       -5    1    3    3    0  502 -0.91740067798E+02  0.48273828692E+03 -0.66115488246E+03  0.82377203297E+03  0.46999998093E+01 0. -1.
</event>
<event>
 5   0  0.1597352E-03  0.1202582E+04  0.7818609E-02  0.9110599E-01
       -2   -1    0    0    0  501  0.00000000000E+00  0.00000000000E+00  0.31219504403E+03  0.31219504404E+03  0.25500000920E-02 0. -1.
        2   -1    0    0  501    0  0.00000000000E+00  0.00000000000E+00 -0.11580934921E+04  0.11580934921E+04  0.25500000920E-02 0.  1.
    10030    2    1    2    0    0  0.00000000000E+00  0.00000000000E+00 -0.84589844807E+03  0.14702885361E+04  0.12025823028E+04 0.  0.
        1    1    3    3  502    0  0.21661093400E+02 -0.24558999836E+03  0.24755750740E+03  0.34938284125E+03  0.50400001928E-02 0. -1.
       -1    1    3    3    0  502 -0.21661093400E+02  0.24558999836E+03 -0.10934559555E+04  0.11209056949E+04  0.50400001928E-02 0.  1.
</event>
<event>
 5   0  0.9358428E-04  0.1199472E+04  0.7818609E-02  0.9113319E-01
        1   -1    0    0  501    0  0.00000000000E+00  0.00000000000E+00  0.29483289785E+03  0.29483289790E+03  0.50400001928E-02 0.  1.
       -1   -1    0    0    0  501  0.00000000000E+00  0.00000000000E+00 -0.12199559189E+04  0.12199559189E+04  0.50400001928E-02 0. -1.
    10030    2    1    2    0    0  0.00000000000E+00  0.00000000000E+00 -0.92512302106E+03  0.15147888168E+04  0.11994717819E+04 0.  0.
        2    1    3    3  502    0  0.50093772946E+03 -0.27984189536E+03 -0.24225123718E+03  0.62284489010E+03  0.25500000920E-02 0.  1.
       -2    1    3    3    0  502 -0.50093772946E+03  0.27984189536E+03 -0.68287178387E+03  0.89194392672E+03  0.25500000920E-02 0. -1.
</event>
<event>
 5   0  0.1647550E-03  0.1215219E+04  0.7818609E-02  0.9099638E-01
       -2   -1    0    0    0  501  0.00000000000E+00  0.00000000000E+00  0.25876462575E+03  0.25876462576E+03  0.25500000920E-02 0.  1.
        2   -1    0    0  501    0  0.00000000000E+00  0.00000000000E+00 -0.14267385718E+04  0.14267385718E+04  0.25500000920E-02 0. -1.
    10030    2    1    2    0    0  0.00000000000E+00  0.00000000000E+00 -0.11679739461E+04  0.16855031976E+04  0.12152192767E+04 0.  0.
        3    1    3    3  502    0 -0.51043893549E+03  0.25512685209E+03 -0.87344007564E+03  0.10433288999E+04  0.10100000352E+00 0. -1.
       -3    1    3    3    0  502  0.51043893549E+03 -0.25512685209E+03 -0.29453387043E+03  0.64217429764E+03  0.10100000352E+00 0.  1.
</event>
<event>
 5   0  0.8908478E-04  0.1199181E+04  0.7818609E-02  0.9113574E-01
       -1   -1    0    0    0  501  0.00000000000E+00  0.00000000000E+00  0.22165656306E+03  0.22165656312E+03  0.50400001928E-02 0. -1.
        1   -1    0    0  501    0  0.00000000000E+00  0.00000000000E+00 -0.16219175687E+04  0.16219175687E+04  0.50400001928E-02 0.  1.
    10030    2    1    2    0    0  0.00000000000E+00  0.00000000000E+00 -0.14002610057E+04  0.18435741319E+04  0.11991808436E+04 0.  0.
        4    1    3    3  502    0 -0.50935164774E+03  0.13994522574E+03 -0.11362733900E+04  0.12530533097E+04  0.12699999809E+01 0.  1.
       -4    1    3    3    0  502  0.50935164774E+03 -0.13994522574E+03 -0.26398761565E+03  0.59052082214E+03  0.12699999809E+01 0. -1.
</event>
<event>
 5   0  0.1597352E-03  0.1193923E+04  0.7818609E-02  0.9118192E-01
        2   -1    0    0  501    0  0.00000000000E+00  0.00000000000E+00  0.23171332705E+04  0.23171332705E+04  0.25500000920E-02 0. -1.
       -2   -1    0    0    0  501  0.00000000000E+00  0.00000000000E+00 -0.15379477554E+03  0.15379477556E+03  0.25500000920E-02 0.  1.
    10030    2    1    2    0    0  0.00000000000E+00  0.00000000000E+00  0.21633384949E+04  0.24709280460E+04  0.11939229309E+04 0.  0.
        1    1    3    3  502    0 -0.24798178390E+03  0.36713652080E+03  0.25363039094E+03  0.51050226766E+03  0.50400001928E-02 0.  1.
       -1    1    3    3    0  502  0.24798178390E+03 -0.36713652080E+03  0.19097081040E+04  0.19604257784E+04  0.50400001928E-02 0. -1.
</event>
<event>
 5   0  0.9208078E-04  0.1148290E+04  0.7818609E-02  0.9159363E-01
       -1   -1    0    0    0  501  0.00000000000E+00  0.00000000000E+00  0.41134520190E+03  0.41134520194E+03  0.50400001928E-02 0.  1.
        1   -1    0    0  501    0  0.00000000000E+00  0.00000000000E+00 -0.80137650494E+03  0.80137650495E+03  0.50400001928E-02 0. -1.
    10030    2    1    2    0    0  0.00000000000E+00  0.00000000000E+00 -0.39003130303E+03  0.12127217069E+04  0.11482898245E+04 0.  0.
        3    1    3    3  502    0 -0.41984653437E+03 -0.38484388799E+03 -0.11837341234E+03  0.58171144522E+03  0.10100000352E+00 0.  1.
       -3    1    3    3    0  502  0.41984653437E+03  0.38484388799E+03 -0.27165789069E+03  0.63101026167E+03  0.10100000352E+00 0. -1.
</event>
<event>
 5   0  0.1551501E-03  0.1197181E+04  0.7818609E-02  0.9115328E-01
        2   -1    0    0  501    0  0.00000000000E+00  0.00000000000E+00  0.11459121960E+04  0.11459121960E+04  0.25500000920E-02 0.  1.
       -2   -1    0    0    0  501  0.00000000000E+00  0.00000000000E+00 -0.31268567138E+03  0.31268567139E+03  0.25500000920E-02 0. -1.
    10030    2    1    2    0    0  0.00000000000E+00  0.00000000000E+00  0.83322652459E+03  0.14585978674E+04  0.11971805617E+04 0.  0.
        4    1    3    3  502    0  0.16265099813E+03 -0.56122745250E+03  0.25833365336E+03  0.63888143657E+03  0.12699999809E+01 0.  1.
       -4    1    3    3    0  502 -0.16265099813E+03  0.56122745250E+03  0.57489287123E+03  0.81971643080E+03  0.12699999809E+01 0. -1.
</event>
<event>
 5   0  0.6137750E-04  0.1196667E+04  0.7818609E-02  0.9115779E-01
        3   -1    0    0  501    0  0.00000000000E+00  0.00000000000E+00  0.82257837120E+03  0.82257837740E+03  0.10100000352E+00 0. -1.
       -3   -1    0    0    0  501  0.00000000000E+00  0.00000000000E+00 -0.43522033623E+03  0.43522034795E+03  0.10100000352E+00 0.  1.
    10030    2    1    2    0    0  0.00000000000E+00  0.00000000000E+00  0.38735803497E+03  0.12577987253E+04  0.11966667816E+04 0.  0.
        1    1    3    3  502    0  0.52338961089E+03 -0.15577017726E+03 -0.63357656132E+02  0.54974105316E+03  0.50400001928E-02 0.  1.
       -1    1    3    3    0  502 -0.52338961089E+03  0.15577017726E+03  0.45071569110E+03  0.70805767219E+03  0.50400001928E-02 0. -1.
</event>
<event>
 5   0  0.1537557E-03  0.1189487E+04  0.7818609E-02  0.9122109E-01
       -2   -1    0    0    0  501  0.00000000000E+00  0.00000000000E+00  0.37860154160E+03  0.37860154161E+03  0.25500000920E-02 0. -1.
        2   -1    0    0  501    0  0.00000000000E+00  0.00000000000E+00 -0.93427974391E+03  0.93427974392E+03  0.25500000920E-02 0.  1.
    10030    2    1    2    0    0  0.00000000000E+00  0.00000000000E+00 -0.55567820231E+03  0.13128812855E+04  0.11894868664E+04 0.  0.
        2    1    3    3  502    0 -0.54621909732E+02  0.53528670116E+02  0.37315168877E+03  0.38090819680E+03  0.25500000920E-02 0. -1.
       -2    1    3    3    0  502  0.54621909732E+02 -0.53528670116E+02 -0.92882989108E+03  0.93197308873E+03  0.25500000920E-02 0.  1.
</event>
<event>
 5   0  0.1567019E-03  0.1215001E+04  0.7818609E-02  0.9099826E-01
        2   -1    0    0  501    0  0.00000000000E+00  0.00000000000E+00  0.74156799288E+03  0.74156799288E+03  0.25500000920E-02 0.  1.
       -2   -1    0    0    0  501  0.00000000000E+00  0.00000000000E+00 -0.49767126806E+03  0.49767126807E+03  0.25500000920E-02 0. -1.
    10030    2    1    2    0    0  0.00000000000E+00  0.00000000000E+00  0.24389672481E+03  0.12392392610E+04  0.12150013718E+04 0.  0.
        5    1    3    3  502    0  0.21888944505E+03  0.10650410909E+03 -0.44573292416E+03  0.50789333928E+03  0.46999998093E+01 0. -1.
       -5    1    3    3    0  502 -0.21888944505E+03 -0.10650410909E+03  0.68962964897E+03  0.73134592167E+03  0.46999998093E+01 0.  1.
</event>
<event>
 5   0  0.1537557E-03  0.1207111E+04  0.7818609E-02  0.9106655E-01
        2   -1    0    0  501    0  0.00000000000E+00  0.00000000000E+00  0.13248944093E+04  0.13248944094E+04  0.25500000920E-02 0.  1.
       -2   -1    0    0    0  501  0.00000000000E+00  0.00000000000E+00 -0.27494956126E+03  0.27494956128E+03  0.25500000920E-02 0. -1.
    10030    2    1    2    0    0  0.00000000000E+00  0.00000000000E+00  0.10499448481E+04  0.15998439706E+04  0.12071108260E+04 0.  0.
        2    1    3    3  502    0 -0.26264475513E+03 -0.10386563405E+03 -0.18196070636E+03  0.33597624321E+03  0.25500000920E-02 0. -1.
       -2    1    3    3    0  502  0.26264475513E+03  0.10386563405E+03  0.12319055544E+04  0.12638677274E+04  0.25500000920E-02 0.  1.
</event>
<event>
 5   0  0.1647550E-03  0.1188716E+04  0.7818609E-02  0.9122791E-01
       -2   -1    0    0    0  501  0.00000000000E+00  0.00000000000E+00  0.26662103875E+03  0.26662103876E+03  0.25500000920E-02 0.  1.
        2   -1    0    0  501    0  0.00000000000E+00  0.00000000000E+00 -0.13249568524E+04  0.13249568524E+04  0.25500000920E-02 0. -1.
    10030    2    1    2    0    0  0.00000000000E+00  0.00000000000E+00 -0.10583358136E+04  0.15915778911E+04  0.11887158992E+04 0.  0.
        3    1    3    3  502    0  0.59130967123E+03 -0.58587887162E+02 -0.51112026596E+03  0.78378798427E+03  0.10100000352E+00 0. -1.
       -3    1    3    3    0  502 -0.59130967123E+03  0.58587887162E+02 -0.54721554765E+03  0.80778990685E+03  0.10100000352E+00 0.  1.
</event>
<event>
 5   0  0.1647550E-03  0.1195708E+04  0.7818609E-02  0.9116622E-01
        2   -1    0    0  501    0  0.00000000000E+00  0.00000000000E+00  0.52817569446E+03  0.52817569446E+03  0.25500000920E-02 0. -1.
       -2   -1    0    0    0  501  0.00000000000E+00  0.00000000000E+00 -0.67672451587E+03  0.67672451588E+03  0.25500000920E-02 0.  1.
    10030    2    1    2    0    0  0.00000000000E+00  0.00000000000E+00 -0.14854882142E+03  0.12049002103E+04  0.11957080599E+04 0.  0.
        3    1    3    3  502    0  0.44715862687E+03 -0.33470338553E+03  0.14055985662E+03  0.57596378129E+03  0.10100000352E+00 0. -1.
       -3    1    3    3    0  502 -0.44715862687E+03  0.33470338553E+03 -0.28910867804E+03  0.62893642905E+03  0.10100000352E+00 0.  1.
</event>
<event>
 5   0  0.1537557E-03  0.1192472E+04  0.7818609E-02  0.9119472E-01
       -2   -1    0    0    0  501  0.00000000000E+00  0.00000000000E+00  0.21612348831E+03  0.21612348833E+03  0.25500000920E-02 0. -1.
        2   -1    0    0  501    0  0.00000000000E+00  0.00000000000E+00 -0.16448802622E+04  0.16448802622E+04  0.25500000920E-02 0.  1.
    10030    2    1    2    0    0  0.00000000000E+00  0.00000000000E+00 -0.14287567739E+04  0.18610037505E+04  0.11924718196E+04 0.  0.
        2    1    3    3  502    0 -0.10886637315E+03 -0.53905155522E+03 -0.10738948081E+04  0.12065150331E+04  0.25500000920E-02 0.  1.
       -2    1    3    3    0  502  0.10886637315E+03  0.53905155522E+03 -0.35486196582E+03  0.65448871738E+03  0.25500000920E-02 0. -1.
</event>
<event>
 5   0  0.6137750E-04  0.1186850E+04  0.7818609E-02  0.9124445E-01
        3   -1    0    0  501    0  0.00000000000E+00  0.00000000000E+00  0.24543482672E+03  0.24543484750E+03  0.10100000352E+00 0. -1.
       -3   -1    0    0    0  501  0.00000000000E+00  0.00000000000E+00 -0.14348138757E+04  0.14348138792E+04  0.10100000352E+00 0.  1.
    10030    2    1    2    0    0  0.00000000000E+00  0.00000000000E+00 -0.11893790490E+04  0.16802487267E+04  0.11868501429E+04 0.  0.
        4    1    3    3  502    0 -0.24216374099E+03  0.37456992804E+03 -0.11488241441E+04  0.12323734967E+04  0.12699999809E+01 0.  1.
       -4    1    3    3    0  502  0.24216374099E+03 -0.37456992804E+03 -0.40554904839E+02  0.44787523000E+03  0.12699999809E+01 0. -1.
</event>
<event>
 5   0  0.1567019E-03  0.1202402E+04  0.7818609E-02  0.9110756E-01
        2   -1    0    0  501    0  0.00000000000E+00  0.00000000000E+00  0.87002826753E+03  0.87002826753E+03  0.25500000920E-02 0.  1.
       -2   -1    0    0    0  501  0.00000000000E+00  0.00000000000E+00 -0.41543801783E+03  0.41543801783E+03  0.25500000920E-02 0. -1.
    10030    2    1    2    0    0  0.00000000000E+00  0.00000000000E+00  0.45459024970E+03  0.12854662854E+04  0.12024022936E+04 0.  0.
        5    1    3    3  502    0 -0.56963074062E+03 -0.15483285725E+02  0.43210678232E+03  0.71516241101E+03  0.46999998093E+01 0.  1.
       -5    1    3    3    0  502  0.56963074062E+03  0.15483285725E+02  0.22483467380E+02  0.57030387435E+03  0.46999998093E+01 0. -1.
</event>
<event>
 5   0  0.1647550E-03  0.1196829E+04  0.7818609E-02  0.9115637E-01
       -2   -1    0    0    0  501  0.00000000000E+00  0.00000000000E+00  0.24125671691E+03  0.24125671692E+03  0.25500000920E-02 0. -1.
        2   -1    0    0  501    0  0.00000000000E+00  0.00000000000E+00 -0.14843106345E+04  0.14843106345E+04  0.25500000920E-02 0.  1.
    10030    2    1    2    0    0  0.00000000000E+00  0.00000000000E+00 -0.12430539176E+04  0.17255673515E+04  0.11968289946E+04 0.  0.
        3    1    3    3  502    0  0.43001416812E+03  0.32381000520E+03 -0.24463162151E+03  0.59127806039E+03  0.10100000352E+00 0. -1.
       -3    1    3    3    0  502 -0.43001416812E+03 -0.32381000520E+03 -0.99842229613E+03  0.11342892911E+04  0.10100000352E+00 0.  1.
</event>
<event>
 5   0  0.8908478E-04  0.1204587E+04  0.7818609E-02  0.9108851E-01
       -1   -1    0    0    0  501  0.00000000000E+00  0.00000000000E+00  0.11437446302E+04  0.11437446302E+04  0.50400001928E-02 0. -1.
        1   -1    0    0  501    0  0.00000000000E+00  0.00000000000E+00 -0.31716670820E+03  0.31716670824E+03  0.50400001928E-02 0.  1.
    10030    2    1    2    0    0  0.00000000000E+00  0.00000000000E+00  0.82657792198E+03  0.14609113384E+04  0.12045874305E+04 0.  0.
        4    1    3    3  502    0 -0.48582814708E+03 -0.32443394453E+03  0.23558428285E+03  0.62991105729E+03  0.12699999809E+01 0.  1.
       -4    1    3    3    0  502  0.48582814708E+03  0.32443394453E+03  0.59099363912E+03  0.83100028114E+03  0.12699999809E+01 0. -1.
</event>
<event>
 5   0  0.1597352E-03  0.1212556E+04  0.7818609E-02  0.9101937E-01
       -2   -1    0    0    0  501  0.00000000000E+00  0.00000000000E+00  0.21839442987E+03  0.21839442989E+03  0.25500000920E-02 0. -1.
        2   -1    0    0  501    0  0.00000000000E+00  0.00000000000E+00 -0.16830691709E+04  0.16830691709E+04  0.25500000920E-02 0.  1.
    10030    2    1    2    0    0  0.00000000000E+00  0.00000000000E+00 -0.14646747411E+04  0.19014636008E+04  0.12125558660E+04 0.  0.
        1    1    3    3  502    0  0.35034434783E+03  0.31411722813E+03 -0.13318574058E+04  0.14125349356E+04  0.50400001928E-02 0.  1.
       -1    1    3    3    0  502 -0.35034434783E+03 -0.31411722813E+03 -0.13281733530E+03  0.48892866519E+03  0.50400001928E-02 0. -1.
</event>
<event>
 5   0  0.1537557E-03  0.1192023E+04  0.7818609E-02  0.9119868E-01
        2   -1    0    0  501    0  0.00000000000E+00  0.00000000000E+00  0.27093250699E+04  0.27093250699E+04  0.25500000920E-02 0. -1.
       -2   -1    0    0    0  501  0.00000000000E+00  0.00000000000E+00 -0.13111371232E+03  0.13111371235E+03  0.25500000920E-02 0.  1.
    10030    2    1    2    0    0  0.00000000000E+00  0.00000000000E+00  0.25782113576E+04  0.28404387823E+04  0.11920229324E+04 0.  0.
        2    1    3    3  502    0 -0.26979887047E+03 -0.35583793816E+03  0.34849679265E+03  0.56644689357E+03  0.25500000920E-02 0.  1.
       -2    1    3    3    0  502  0.26979887047E+03  0.35583793816E+03  0.22297145650E+04  0.22739918887E+04  0.25500000920E-02 0. -1.
</event>
<event>
 5   0  0.9358428E-04  0.1197281E+04  0.7818609E-02  0.9115240E-01
       -1   -1    0    0    0  501  0.00000000000E+00  0.00000000000E+00  0.33657685256E+03  0.33657685260E+03  0.50400001928E-02 0.  1.
        1   -1    0    0  501    0  0.00000000000E+00  0.00000000000E+00 -0.10647503109E+04  0.10647503110E+04  0.50400001928E-02 0. -1.
    10030    2    1    2    0    0  0.00000000000E+00  0.00000000000E+00 -0.72817345839E+03  0.14013271636E+04  0.11972807665E+04 0.  0.
        2    1    3    3  502    0  0.26120853473E+03  0.15611015225E+03 -0.96747454674E+03  0.10142027790E+04  0.25500000920E-02 0. -1.
       -2    1    3    3    0  502 -0.26120853473E+03 -0.15611015225E+03  0.23930108835E+03  0.38712438459E+03  0.25500000920E-02 0.  1.
</event>
<event>
 5   0  0.1567019E-03  0.1197937E+04  0.7818609E-02  0.9114665E-01
       -2   -1    0    0    0  501  0.00000000000E+00  0.00000000000E+00  0.41193394247E+03  0.41193394248E+03  0.25500000920E-02 0.  1.
        2   -1    0    0  501    0  0.00000000000E+00  0.00000000000E+00 -0.87092358369E+03  0.87092358369E+03  0.25500000920E-02 0. -1.
    10030    2    1    2    0    0  0.00000000000E+00  0.00000000000E+00 -0.45898964122E+03  0.12828575262E+04  0.11979365349E+04 0.  0.
        5    1    3    3  502    0  0.56474256389E+03 -0.19759214310E+03 -0.25909628265E+03  0.65201977897E+03  0.46999998093E+01 0. -1.
       -5    1    3    3    0  502 -0.56474256389E+03  0.19759214310E+03 -0.19989335857E+03  0.63083774719E+03  0.46999998093E+01 0.  1.
</event>
<event>
 5   0  0.9208078E-04  0.1195006E+04  0.7818609E-02  0.9117239E-01
       -1   -1    0    0    0  501  0.00000000000E+00  0.00000000000E+00  0.35140205532E+03  0.35140205536E+03  0.50400001928E-02 0.  1.
        1   -1    0    0  501    0  0.00000000000E+00  0.00000000000E+00 -0.10159584371E+04  0.10159584371E+04  0.50400001928E-02 0. -1.
    10030    2    1    2    0    0  0.00000000000E+00  0.00000000000E+00 -0.66455638182E+03  0.13673604925E+04  0.11950060803E+04 0.  0.
        3    1    3    3  502    0  0.22703515681E+03 -0.52202622719E+03 -0.12456509728E+03  0.58272876878E+03  0.10100000352E+00 0.  1.
       -3    1    3    3    0  502 -0.22703515681E+03  0.52202622719E+03 -0.53999128454E+03  0.78463172373E+03  0.10100000352E+00 0. -1.
</event>
<event>
 5   0  0.9208078E-04  0.1193815E+04  0.7818609E-02  0.9118287E-01
        1   -1    0    0  501    0  0.00000000000E+00  0.00000000000E+00  0.14338877836E+04  0.14338877836E+04  0.50400001928E-02 0. -1.
       -1   -1    0    0    0  501  0.00000000000E+00  0.00000000000E+00 -0.24848440757E+03  0.24848440762E+03  0.50400001928E-02 0.  1.
    10030    2    1    2    0    0  0.00000000000E+00  0.00000000000E+00  0.11854033760E+04  0.16823721912E+04  0.11938153232E+04 0.  0.
        3    1    3    3  502    0 -0.58942400060E+03 -0.58225034126E+02  0.69709906266E+03  0.91474472966E+03  0.10100000352E+00 0. -1.
       -3    1    3    3    0  502  0.58942400060E+03  0.58225034126E+02  0.48830431334E+03  0.76762746154E+03  0.10100000352E+00 0.  1.
</event>
<event>
 5   0  0.8908478E-04  0.1204392E+04  0.7818609E-02  0.9109021E-01
        1   -1    0    0  501    0  0.00000000000E+00  0.00000000000E+00  0.66691671749E+03  0.66691671751E+03  0.50400001928E-02 0.  1.
       -1   -1    0    0    0  501  0.00000000000E+00  0.00000000000E+00 -0.54375590129E+03  0.54375590132E+03  0.50400001928E-02 0. -1.
    10030    2    1    2    0    0  0.00000000000E+00  0.00000000000E+00  0.12316081620E+03  0.12106726188E+04  0.12043917981E+04 0.  0.
        4    1    3    3  502    0  0.43090364951E+03 -0.41078019032E+03 -0.29556437891E+02  0.59606502652E+03  0.12699999809E+01 0. -1.
       -4    1    3    3    0  502 -0.43090364951E+03  0.41078019032E+03  0.15271725409E+03  0.61460759231E+03  0.12699999809E+01 0.  1.
</event>
<event>
 5   0  0.1551501E-03  0.1197300E+04  0.7818609E-02  0.9115223E-01
        2   -1    0    0  501    0  0.00000000000E+00  0.00000000000E+00  0.18898418309E+04  0.18898418309E+04  0.25500000920E-02 0. -1.
       -2   -1    0    0    0  501  0.00000000000E+00  0.00000000000E+00 -0.18963592844E+03  0.18963592846E+03  0.25500000920E-02 0.  1.
    10030    2    1    2    0    0  0.00000000000E+00  0.00000000000E+00  0.17002059025E+04  0.20794777594E+04  0.11973001466E+04 0.  0.
        4    1    3    3  502    0 -0.15083326294E+03  0.13196559410E+03  0.18298441423E+04  0.18407870027E+04  0.12699999809E+01 0. -1.
       -4    1    3    3    0  502  0.15083326294E+03 -0.13196559410E+03 -0.12963823979E+03  0.23869075673E+03  0.12699999809E+01 0.  1.
</event>
<event>
 5   0  0.1537557E-03  0.1193231E+04  0.7818609E-02  0.9118802E-01
        2   -1    0    0  501    0  0.00000000000E+00  0.00000000000E+00  0.61447420015E+03  0.61447420015E+03  0.25500000920E-02 0. -1.
       -2   -1    0    0    0  501  0.00000000000E+00  0.00000000000E+00 -0.57927576319E+03  0.57927576319E+03  0.25500000920E-02 0.  1.
    10030    2    1    2    0    0  0.00000000000E+00  0.00000000000E+00  0.35198436961E+02  0.11937499633E+04  0.11932309269E+04 0.  0.
        2    1    3    3  502    0 -0.63480393012E+02 -0.55580216655E+03 -0.18986553283E+03  0.59075775847E+03  0.25500000920E-02 0.  1.
       -2    1    3    3    0  502  0.63480393012E+02  0.55580216655E+03  0.22506396979E+03  0.60299220487E+03  0.25500000920E-02 0. -1.
</event>
<event>
 5   0  0.1551501E-03  0.1202492E+04  0.7818609E-02  0.9110678E-01
       -2   -1    0    0    0  501  0.00000000000E+00  0.00000000000E+00  0.12513560989E+04  0.12513560989E+04  0.25500000920E-02 0.  1.
        2   -1    0    0  501    0  0.00000000000E+00  0.00000000000E+00 -0.28888415059E+03  0.28888415060E+03  0.25500000920E-02 0. -1.
    10030    2    1    2    0    0  0.00000000000E+00  0.00000000000E+00  0.96247194826E+03  0.15402402495E+04  0.12024923180E+04 0.  0.
        4    1    3    3  502    0 -0.51019006973E+02  0.13576509715E+03  0.12286123256E+04  0.12371438720E+04  0.12699999809E+01 0.  1.
       -4    1    3    3    0  502  0.51019006973E+02 -0.13576509715E+03 -0.26614037730E+03  0.30309637742E+03  0.12699999809E+01 0. -1.
</event>
<event>
 5   0  0.1597352E-03  0.1204285E+04  0.7818609E-02  0.9109114E-01
       -2   -1    0    0    0  501  0.00000000000E+00  0.00000000000E+00  0.86965768014E+03  0.86965768014E+03  0.25500000920E-02 0. -1.
        2   -1    0    0  501    0  0.00000000000E+00  0.00000000000E+00 -0.41691733617E+03  0.41691733617E+03  0.25500000920E-02 0.  1.
    10030    2    1    2    0    0  0.00000000000E+00  0.00000000000E+00  0.45274034397E+03  0.12865750163E+04  0.12042846232E+04 0.  0.
        1    1    3    3  502    0  0.66630936959E+01 -0.28468999506E+03  0.79317263511E+03  0.84274291408E+03  0.50400001928E-02 0. -1.
       -1    1    3    3    0  502 -0.66630936959E+01  0.28468999506E+03 -0.34043229114E+03  0.44383210224E+03  0.50400001928E-02 0.  1.
</event>
<event>
 5   0  0.1647550E-03  0.1202113E+04  0.7818609E-02  0.9111009E-01
       -2   -1    0    0    0  501  0.00000000000E+00  0.00000000000E+00  0.24167171433E+03  0.24167171434E+03  0.25500000920E-02 0.  1.
        2   -1    0    0  501    0  0.00000000000E+00  0.00000000000E+00 -0.14948749902E+04  0.14948749902E+04  0.25500000920E-02 0. -1.
    10030    2    1    2    0    0  0.00000000000E+00  0.00000000000E+00 -0.12532032759E+04  0.17365467045E+04  0.12021131421E+04 0.  0.
        3    1    3    3  502    0  0.14818588291E+03  0.53006954850E+03 -0.27769420179E+03  0.61647940926E+03  0.10100000352E+00 0.  1.
       -3    1    3    3    0  502 -0.14818588291E+03 -0.53006954850E+03 -0.97550907408E+03  0.11200672953E+04  0.10100000352E+00 0. -1.
</event>
<event>
 5   0  0.9169078E-04  0.1202954E+04  0.7818609E-02  0.9110274E-01
       -1   -1    0    0    0  501  0.00000000000E+00  0.00000000000E+00  0.64049916699E+03  0.64049916701E+03  0.50400001928E-02 0.  1.
        1   -1    0    0  501    0  0.00000000000E+00  0.00000000000E+00 -0.56483264286E+03  0.56483264289E+03  0.50400001928E-02 0. -1.
    10030    2    1    2    0    0  0.00000000000E+00  0.00000000000E+00  0.75666524125E+02  0.12053318099E+04  0.12029544252E+04 0.  0.
        1    1    3    3  502    0 -0.30804021835E+03  0.43103364151E+03  0.32316975839E+03  0.62057833429E+03  0.50400001928E-02 0. -1.
       -1    1    3    3    0  502  0.30804021835E+03 -0.43103364151E+03 -0.24750323426E+03  0.58475347560E+03  0.50400001928E-02 0.  1.
</event>
<event>
 5   0  0.1537557E-03  0.1283546E+04  0.7818609E-02  0.9042716E-01
       -2   -1    0    0    0  501  0.00000000000E+00  0.00000000000E+00  0.15552646612E+03  0.15552646614E+03  0.25500000920E-02 0. -1.
        2   -1    0    0  501    0  0.00000000000E+00  0.00000000000E+00 -0.26482494634E+04  0.26482494634E+04  0.25500000920E-02 0.  1.
    10030    2    1    2    0    0  0.00000000000E+00  0.00000000000E+00 -0.24927229973E+04  0.28037759296E+04  0.12835464627E+04 0.  0.
        2    1    3    3  502    0 -0.17672949719E+02 -0.59597800390E+03 -0.17649927441E+04  0.18629818842E+04  0.25500000920E-02 0.  1.
       -2    1    3    3    0  502  0.17672949719E+02  0.59597800390E+03 -0.72773025322E+03  0.94079404533E+03  0.25500000920E-02 0. -1.
</event>
<event>
 5   0  0.9358428E-04  0.1195624E+04  0.7818609E-02  0.9116695E-01
        1   -1    0    0  501    0  0.00000000000E+00  0.00000000000E+00  0.63646162659E+03  0.63646162661E+03  0.50400001928E-02 0. -1.
       -1   -1    0    0    0  501  0.00000000000E+00  0.00000000000E+00 -0.56150959079E+03  0.56150959081E+03  0.50400001928E-02 0.  1.
    10030    2    1    2    0    0  0.00000000000E+00  0.00000000000E+00  0.74952035806E+02  0.11979712174E+04  0.11956242010E+04 0.  0.
        2    1    3    3  502    0  0.79790282244E+02 -0.31651419442E+03  0.53929004422E+03  0.63038200816E+03  0.25500000920E-02 0. -1.
       -2    1    3    3    0  502 -0.79790282244E+02  0.31651419442E+03 -0.46433800841E+03  0.56758920927E+03  0.25500000920E-02 0.  1.
</event>
<event>
 5   0  0.1537557E-03  0.1199838E+04  0.7818609E-02  0.9112999E-01
        2   -1    0    0  501    0  0.00000000000E+00  0.00000000000E+00  0.85152471234E+03  0.85152471235E+03  0.25500000920E-02 0.  1.
       -2   -1    0    0    0  501  0.00000000000E+00  0.00000000000E+00 -0.42265657116E+03  0.42265657116E+03  0.25500000920E-02 0. -1.
    10030    2    1    2    0    0  0.00000000000E+00  0.00000000000E+00  0.42886814118E+03  0.12741812835E+04  0.11998375143E+04 0.  0.
        2    1    3    3  502    0 -0.51474211476E+03  0.15359710140E+03 -0.69232932066E+02  0.54161306590E+03  0.25500000920E-02 0. -1.
       -2    1    3    3    0  502  0.51474211476E+03 -0.15359710140E+03  0.49810107325E+03  0.73256821761E+03  0.25500000920E-02 0.  1.
</event>
<event>
 5   0  0.1551501E-03  0.1220668E+04  0.7818609E-02  0.9094956E-01
        2   -1    0    0  501    0  0.00000000000E+00  0.00000000000E+00  0.74081113849E+03  0.74081113849E+03  0.25500000920E-02 0.  1.
       -2   -1    0    0    0  501  0.00000000000E+00  0.00000000000E+00 -0.50283725782E+03  0.50283725782E+03  0.25500000920E-02 0. -1.
    10030    2    1    2    0    0  0.00000000000E+00  0.00000000000E+00  0.23797388067E+03  0.12436483963E+04  0.12206677540E+04 0.  0.
        4    1    3    3  502    0 -0.57032087598E+03 -0.13918288460E+03  0.28906701782E+03  0.65436926168E+03  0.12699999809E+01 0.  1.
       -4    1    3    3    0  502  0.57032087598E+03  0.13918288460E+03 -0.51093137148E+02  0.58927913463E+03  0.12699999809E+01 0. -1.
</event>
<event>
 5   0  0.8908478E-04  0.1204422E+04  0.7818609E-02  0.9108995E-01
       -1   -1    0    0    0  501  0.00000000000E+00  0.00000000000E+00  0.10132785373E+04  0.10132785374E+04  0.50400001928E-02 0.  1.
        1   -1    0    0  501    0  0.00000000000E+00  0.00000000000E+00 -0.35790562176E+03  0.35790562180E+03  0.50400001928E-02 0. -1.
    10030    2    1    2    0    0  0.00000000000E+00  0.00000000000E+00  0.65537291559E+03  0.13711841592E+04  0.12044219941E+04 0.  0.
        4    1    3    3  502    0 -0.94180760660E+02 -0.59070733218E+03  0.24839135641E+03  0.64769209259E+03  0.12699999809E+01 0. -1.
       -4    1    3    3    0  502  0.94180760660E+02  0.59070733218E+03  0.40698155917E+03  0.72349206656E+03  0.12699999809E+01 0.  1.
</event>
<event>
 5   0  0.9208078E-04  0.1189751E+04  0.7818609E-02  0.9121875E-01
       -1   -1    0    0    0  501  0.00000000000E+00  0.00000000000E+00  0.25381976061E+03  0.25381976066E+03  0.50400001928E-02 0.  1.
        1   -1    0    0  501    0  0.00000000000E+00  0.00000000000E+00 -0.13942054017E+04  0.13942054017E+04  0.50400001928E-02 0. -1.
    10030    2    1    2    0    0  0.00000000000E+00  0.00000000000E+00 -0.11403856411E+04  0.16480251623E+04  0.11897510350E+04 0.  0.
        3    1    3    3  502    0  0.36041005056E+03  0.76642389843E+02  0.76715829048E+02  0.37637054759E+03  0.10100000352E+00 0.  1.
       -3    1    3    3    0  502 -0.36041005056E+03 -0.76642389843E+02 -0.12171014701E+04  0.12716546147E+04  0.10100000352E+00 0. -1.
</event>
<event>
 5   0  0.1647550E-03  0.1201418E+04  0.7818609E-02  0.9111617E-01
       -2   -1    0    0    0  501  0.00000000000E+00  0.00000000000E+00  0.21059222040E+03  0.21059222041E+03  0.25500000920E-02 0. -1.
        2   -1    0    0  501    0  0.00000000000E+00  0.00000000000E+00 -0.17135059662E+04  0.17135059662E+04  0.25500000920E-02 0.  1.
    10030    2    1    2    0    0  0.00000000000E+00  0.00000000000E+00 -0.15029137458E+04  0.19240981866E+04  0.12014175396E+04 0.  0.
        3    1    3    3  502    0 -0.12540308042E+03 -0.36744789803E+03 -0.17359528553E+02  0.38864540879E+03  0.10100000352E+00 0. -1.
       -3    1    3    3    0  502  0.12540308042E+03  0.36744789803E+03 -0.14855542172E+04  0.15354527778E+04  0.10100000352E+00 0.  1.
</event>
<event>
 5   0  0.9170776E-04  0.1204072E+04  0.7818609E-02  0.9109299E-01
        1   -1    0    0  501    0  0.00000000000E+00  0.00000000000E+00  0.67362215795E+03  0.67362215797E+03  0.50400001928E-02 0. -1.
       -1   -1    0    0    0  501  0.00000000000E+00  0.00000000000E+00 -0.53805765207E+03  0.53805765209E+03  0.50400001928E-02 0.  1.
    10030    2    1    2    0    0  0.00000000000E+00  0.00000000000E+00  0.13556450588E+03  0.12116798101E+04  0.12040723512E+04 0.  0.
        5    1    3    3  502    0 -0.18028077691E+03 -0.56732832199E+03 -0.22578631535E+02  0.59573019737E+03  0.46999998093E+01 0.  1.
       -5    1    3    3    0  502  0.18028077691E+03  0.56732832199E+03  0.15814313741E+03  0.61594961269E+03  0.46999998093E+01 0. -1.
</event>
<event>
 5   0  0.8908478E-04  0.1171894E+04  0.7818609E-02  0.9137820E-01
        1   -1    0    0  501    0  0.00000000000E+00  0.00000000000E+00  0.61467657061E+03  0.61467657063E+03  0.50400001928E-02 0.  1.
       -1   -1    0    0    0  501  0.00000000000E+00  0.00000000000E+00 -0.55856035299E+03  0.55856035301E+03  0.50400001928E-02 0. -1.
    10030    2    1    2    0    0  0.00000000000E+00  0.00000000000E+00  0.56116217615E+02  0.11732369236E+04  0.11718941288E+04 0.  0.
        4    1    3    3  502    0  0.52267358719E+03 -0.17332044221E+03 -0.17243292379E+03  0.57702892522E+03  0.12699999809E+01 0. -1.
       -4    1    3    3    0  502 -0.52267358719E+03  0.17332044221E+03  0.22854914141E+03  0.59620799842E+03  0.12699999809E+01 0.  1.
</event>
<event>
 5   0  0.1551501E-03  0.1208920E+04  0.7818609E-02  0.9105084E-01
        2   -1    0    0  501    0  0.00000000000E+00  0.00000000000E+00  0.87640979826E+03  0.87640979826E+03  0.25500000920E-02 0.  1.
       -2   -1    0    0    0  501  0.00000000000E+00  0.00000000000E+00 -0.41689650205E+03  0.41689650206E+03  0.25500000920E-02 0. -1.
    10030    2    1    2    0    0  0.00000000000E+00  0.00000000000E+00  0.45951329621E+03  0.12933063003E+04  0.12089204759E+04 0.  0.
        4    1    3    3  502    0 -0.62493953133E+02 -0.23742736686E+02  0.87244128127E+03  0.87499977937E+03  0.12699999809E+01 0.  1.
       -4    1    3    3    0  502  0.62493953133E+02  0.23742736686E+02 -0.41292798507E+03  0.41830652096E+03  0.12699999809E+01 0. -1.
</event>
<event>
 5   0  0.1597352E-03  0.1182901E+04  0.7818609E-02  0.9127956E-01
       -2   -1    0    0    0  501  0.00000000000E+00  0.00000000000E+00  0.40592890077E+03  0.40592890077E+03  0.25500000920E-02 0.  1.
        2   -1    0    0  501    0  0.00000000000E+00  0.00000000000E+00 -0.86176119755E+03  0.86176119755E+03  0.25500000920E-02 0. -1.
    10030    2    1    2    0    0  0.00000000000E+00  0.00000000000E+00 -0.45583229678E+03  0.12676900983E+04  0.11829011381E+04 0.  0.
        1    1    3    3  502    0  0.33864983729E+03 -0.38656850942E+03 -0.54163600810E+03  0.74665151849E+03  0.50400001928E-02 0. -1.
       -1    1    3    3    0  502 -0.33864983729E+03  0.38656850942E+03  0.85803711324E+02  0.52103857983E+03  0.50400001928E-02 0.  1.
</event>
<event>
 5   0  0.9358428E-04  0.1190645E+04  0.7818609E-02  0.9121085E-01
        1   -1    0    0  501    0  0.00000000000E+00  0.00000000000E+00  0.73840846450E+03  0.73840846452E+03  0.50400001928E-02 0. -1.
       -1   -1    0    0    0  501  0.00000000000E+00  0.00000000000E+00 -0.47996292290E+03  0.47996292293E+03  0.50400001928E-02 0.  1.
    10030    2    1    2    0    0  0.00000000000E+00  0.00000000000E+00  0.25844554160E+03  0.12183713874E+04  0.11906446740E+04 0.  0.
        2    1    3    3  502    0  0.55990734875E+03  0.18445272108E+03  0.44285996272E+02  0.59116858423E+03  0.25500000920E-02 0.  1.
       -2    1    3    3    0  502 -0.55990734875E+03 -0.18445272108E+03  0.21415954533E+03  0.62720280322E+03  0.25500000920E-02 0. -1.
</event>
<event>
 5   0  0.1537557E-03  0.1211003E+04  0.7818609E-02  0.9103280E-01
        2   -1    0    0  501    0  0.00000000000E+00  0.00000000000E+00  0.16651722791E+04  0.16651722791E+04  0.25500000920E-02 0.  1.
       -2   -1    0    0    0  501  0.00000000000E+00  0.00000000000E+00 -0.22017656124E+03  0.22017656125E+03  0.25500000920E-02 0. -1.
    10030    2    1    2    0    0  0.00000000000E+00  0.00000000000E+00  0.14449957179E+04  0.18853488404E+04  0.12110027354E+04 0.  0.
        2    1    3    3  502    0 -0.18433018769E+03  0.55680619286E+03  0.48834258119E+03  0.76320982116E+03  0.25500000920E-02 0. -1.
       -2    1    3    3    0  502  0.18433018769E+03 -0.55680619286E+03  0.95665313670E+03  0.11221390192E+04  0.25500000920E-02 0.  1.
</event>
<event>
 5   0  0.1597352E-03  0.1195066E+04  0.7818609E-02  0.9117187E-01
       -2   -1    0    0    0  501  0.00000000000E+00  0.00000000000E+00  0.31702835812E+03  0.31702835813E+03  0.25500000920E-02 0. -1.
        2   -1    0    0  501    0  0.00000000000E+00  0.00000000000E+00 -0.11262257401E+04  0.11262257401E+04  0.25500000920E-02 0.  1.
    10030    2    1    2    0    0  0.00000000000E+00  0.00000000000E+00 -0.80919738194E+03  0.14432540982E+04  0.11950656840E+04 0.  0.
        1    1    3    3  502    0 -0.37735825677E+03  0.41223695909E+02  0.15269821732E+03  0.40916426121E+03  0.50400001928E-02 0. -1.
       -1    1    3    3    0  502  0.37735825677E+03 -0.41223695909E+02 -0.96189559925E+03  0.10340898370E+04  0.50400001928E-02 0.  1.
</event>
<event>
 5   0  0.1647550E-03  0.1196569E+04  0.7818609E-02  0.9115865E-01
       -2   -1    0    0    0  501  0.00000000000E+00  0.00000000000E+00  0.20465990468E+03  0.20465990469E+03  0.25500000920E-02 0. -1.
        2   -1    0    0  501    0  0.00000000000E+00  0.00000000000E+00 -0.17489703889E+04  0.17489703889E+04  0.25500000920E-02 0.  1.
    10030    2    1    2    0    0  0.00000000000E+00  0.00000000000E+00 -0.15443104842E+04  0.19536302936E+04  0.11965686158E+04 0.  0.
        3    1    3    3  502    0  0.57225706505E+03  0.16087728204E+03 -0.66160782313E+03  0.88942935088E+03  0.10100000352E+00 0.  1.
       -3    1    3    3    0  502 -0.57225706505E+03 -0.16087728204E+03 -0.88270266109E+03  0.10642009427E+04  0.10100000352E+00 0. -1.
</event>
<event>
 5   0  0.1537557E-03  0.1188845E+04  0.7818609E-02  0.9122677E-01
       -2   -1    0    0    0  501  0.00000000000E+00  0.00000000000E+00  0.60755211466E+03  0.60755211467E+03  0.25500000920E-02 0. -1.
        2   -1    0    0  501    0  0.00000000000E+00  0.00000000000E+00 -0.58157626101E+03  0.58157626102E+03  0.25500000920E-02 0.  1.
    10030    2    1    2    0    0  0.00000000000E+00  0.00000000000E+00  0.25975853646E+02  0.11891283757E+04  0.11888446277E+04 0.  0.
        2    1    3    3  502    0 -0.49894153536E+03  0.27447201018E+03  0.18349957092E+03  0.59828892068E+03  0.25500000920E-02 0. -1.
       -2    1    3    3    0  502  0.49894153536E+03 -0.27447201018E+03 -0.15752371727E+03  0.59083945500E+03  0.25500000920E-02 0.  1.
</event>
<event>
 5   0  0.9170776E-04  0.1203157E+04  0.7818609E-02  0.9110097E-01
       -1   -1    0    0    0  501  0.00000000000E+00  0.00000000000E+00  0.49742138459E+03  0.49742138461E+03  0.50400001928E-02 0.  1.
        1   -1    0    0  501    0  0.00000000000E+00  0.00000000000E+00 -0.72754587984E+03  0.72754587985E+03  0.50400001928E-02 0. -1.
    10030    2    1    2    0    0  0.00000000000E+00  0.00000000000E+00 -0.23012449525E+03  0.12249672645E+04  0.12031573113E+04 0.  0.
        5    1    3    3  502    0 -0.36203460989E+03 -0.12836971223E+02 -0.60401879997E+03  0.70433986633E+03  0.46999998093E+01 0. -1.
       -5    1    3    3    0  502  0.36203460989E+03  0.12836971223E+02  0.37389430472E+03  0.52062739813E+03  0.46999998093E+01 0.  1.
</event>
<event>
 5   0  0.1551501E-03  0.1192196E+04  0.7818609E-02  0.9119715E-01
       -2   -1    0    0    0  501  0.00000000000E+00  0.00000000000E+00  0.27126933645E+03  0.27126933646E+03  0.25500000920E-02 0.  1.
        2   -1    0    0  501    0  0.00000000000E+00  0.00000000000E+00 -0.13098900446E+04  0.13098900446E+04  0.25500000920E-02 0. -1.
    10030    2    1    2    0    0  0.00000000000E+00  0.00000000000E+00 -0.10386207081E+04  0.15811593811E+04  0.11921962980E+04 0.  0.
        4    1    3    3  502    0  0.20578155867E+03 -0.51280807876E+03 -0.81590975253E+03  0.98540779006E+03  0.12699999809E+01 0. -1.
       -4    1    3    3    0  502 -0.20578155867E+03  0.51280807876E+03 -0.22271095562E+03  0.59575159100E+03  0.12699999809E+01 0.  1.
</event>
<event>
 5   0  0.9208078E-04  0.1209487E+04  0.7818609E-02  0.9104592E-01
        1   -1    0    0  501    0  0.00000000000E+00  0.00000000000E+00  0.13790583983E+04  0.13790583984E+04  0.50400001928E-02 0.  1.
       -1   -1    0    0    0  501  0.00000000000E+00  0.00000000000E+00 -0.26519180610E+03  0.26519180615E+03  0.50400001928E-02 0. -1.
    10030    2    1    2    0    0  0.00000000000E+00  0.00000000000E+00  0.11138665922E+04  0.16442502045E+04  0.12094874740E+04 0.  0.
        3    1    3    3  502    0  0.31185371922E+03 -0.25899985700E+03  0.11669982956E+04  0.12354022423E+04  0.10100000352E+00 0.  1.
       -3    1    3    3    0  502 -0.31185371922E+03  0.25899985700E+03 -0.53131703346E+02  0.40884796222E+03  0.10100000352E+00 0. -1.
</event>
<event>
 5   0  0.9169078E-04  0.1074412E+04  0.7818609E-02  0.9230497E-01
       -1   -1    0    0    0  501  0.00000000000E+00  0.00000000000E+00  0.75902840367E+03  0.75902840369E+03  0.50400001928E-02 0. -1.
        1   -1    0    0  501    0  0.00000000000E+00  0.00000000000E+00 -0.38021035923E+03  0.38021035926E+03  0.50400001928E-02 0.  1.
    10030    2    1    2    0    0  0.00000000000E+00  0.00000000000E+00  0.37881804444E+03  0.11392387630E+04  0.10744123269E+04 0.  0.
        1    1    3    3  502    0 -0.39621382266E+02  0.53858159683E+02  0.75459919615E+03  0.75755560994E+03  0.50400001928E-02 0. -1.
       -1    1    3    3    0  502  0.39621382266E+02 -0.53858159683E+02 -0.37578115170E+03  0.38168315302E+03  0.50400001928E-02 0.  1.
</event>
<event>
 5   0  0.1647550E-03  0.1182641E+04  0.7818609E-02  0.9128188E-01
       -2   -1    0    0    0  501  0.00000000000E+00  0.00000000000E+00  0.28513579493E+03  0.28513579494E+03  0.25500000920E-02 0. -1.
        2   -1    0    0  501    0  0.00000000000E+00  0.00000000000E+00 -0.12262936717E+04  0.12262936717E+04  0.25500000920E-02 0.  1.
    10030    2    1    2    0    0  0.00000000000E+00  0.00000000000E+00 -0.94115787675E+03  0.15114294666E+04  0.11826414857E+04 0.  0.
        3    1    3    3  502    0 -0.21354791504E+03 -0.12047518328E+02  0.23396641355E+03  0.31699865550E+03  0.10100000352E+00 0. -1.
       -3    1    3    3    0  502  0.21354791504E+03  0.12047518328E+02 -0.11751242903E+04  0.11944308111E+04  0.10100000352E+00 0.  1.
</event>
<event>
 5   0  0.9170776E-04  0.1197060E+04  0.7818609E-02  0.9115434E-01
       -1   -1    0    0    0  501  0.00000000000E+00  0.00000000000E+00  0.28262383139E+03  0.28262383143E+03  0.50400001928E-02 0. -1.
        1   -1    0    0  501    0  0.00000000000E+00  0.00000000000E+00 -0.12675444066E+04  0.12675444066E+04  0.50400001928E-02 0.  1.
    10030    2    1    2    0    0  0.00000000000E+00  0.00000000000E+00 -0.98492057519E+03  0.15501682380E+04  0.11970601600E+04 0.  0.
        5    1    3    3  502    0  0.33623595565E+03 -0.41974288707E+03 -0.83256797514E+03  0.99117618632E+03  0.46999998093E+01 0.  1.
       -5    1    3    3    0  502 -0.33623595565E+03  0.41974288707E+03 -0.15235260005E+03  0.55899205169E+03  0.46999998093E+01 0. -1.
</event>
<event>
 5   0  0.9208078E-04  0.1185981E+04  0.7818609E-02  0.9125216E-01
       -1   -1    0    0    0  501  0.00000000000E+00  0.00000000000E+00  0.23241329676E+03  0.23241329682E+03  0.50400001928E-02 0. -1.
        1   -1    0    0  501    0  0.00000000000E+00  0.00000000000E+00 -0.15129857035E+04  0.15129857035E+04  0.50400001928E-02 0.  1.
    10030    2    1    2    0    0  0.00000000000E+00  0.00000000000E+00 -0.12805724067E+04  0.17453990003E+04  0.11859814423E+04 0.  0.
        3    1    3    3  502    0 -0.71831509663E+01 -0.23663751496E+03 -0.14404170579E+04  0.14597432042E+04  0.10100000352E+00 0.  1.
       -3    1    3    3    0  502  0.71831509663E+01  0.23663751496E+03  0.15984465121E+03  0.28565579613E+03  0.10100000352E+00 0. -1.
</event>
<event>
 5   0  0.8908478E-04  0.1200347E+04  0.7818609E-02  0.9112552E-01
       -1   -1    0    0    0  501  0.00000000000E+00  0.00000000000E+00  0.38661156409E+03  0.38661156412E+03  0.50400001928E-02 0. -1.
        1   -1    0    0  501    0  0.00000000000E+00  0.00000000000E+00 -0.93170655863E+03  0.93170655864E+03  0.50400001928E-02 0.  1.
    10030    2    1    2    0    0  0.00000000000E+00  0.00000000000E+00 -0.54509499454E+03  0.13183181228E+04  0.12003474996E+04 0.  0.
        4    1    3    3  502    0  0.53670105707E+03 -0.21483409090E+03 -0.44965761730E+03  0.73239012621E+03  0.12699999809E+01 0.  1.
       -4    1    3    3    0  502 -0.53670105707E+03  0.21483409090E+03 -0.95437377242E+02  0.58592799656E+03  0.12699999809E+01 0. -1.
</event>
<event>
 5   0  0.9170776E-04  0.1211023E+04  0.7818609E-02  0.9103263E-01
       -1   -1    0    0    0  501  0.00000000000E+00  0.00000000000E+00  0.32919915336E+03  0.32919915340E+03  0.50400001928E-02 0. -1.
        1   -1    0    0  501    0  0.00000000000E+00  0.00000000000E+00 -0.11137448973E+04  0.11137448973E+04  0.50400001928E-02 0.  1.
    10030    2    1    2    0    0  0.00000000000E+00  0.00000000000E+00 -0.78454574396E+03  0.14429440507E+04  0.12110225057E+04 0.  0.
        5    1    3    3  502    0 -0.53668473475E+03  0.70724240076E+02 -0.71549776803E+03  0.89721322366E+03  0.46999998093E+01 0.  1.
       -5    1    3    3    0  502  0.53668473475E+03 -0.70724240076E+02 -0.69047975929E+02  0.54573082708E+03  0.46999998093E+01 0. -1.
</event>
<event>
 5   0  0.8908478E-04  0.1206687E+04  0.7818609E-02  0.9107024E-01
        1   -1    0    0  501    0  0.00000000000E+00  0.00000000000E+00  0.35738358376E+03  0.35738358380E+03  0.50400001928E-02 0. -1.
       -1   -1    0    0    0  501  0.00000000000E+00  0.00000000000E+00 -0.10185784758E+04  0.10185784758E+04  0.50400001928E-02 0.  1.
    10030    2    1    2    0    0  0.00000000000E+00  0.00000000000E+00 -0.66119489204E+03  0.13759620596E+04  0.12066867465E+04 0.  0.
        4    1    3    3  502    0  0.55916907989E+03  0.12830220101E+03 -0.54358930977E+03  0.79033060505E+03  0.12699999809E+01 0.  1.
       -4    1    3    3    0  502 -0.55916907989E+03 -0.12830220101E+03 -0.11760558227E+03  0.58563145456E+03  0.12699999809E+01 0. -1.
</event>
<event>
 5   0  0.1597352E-03  0.1211934E+04  0.7818609E-02  0.9102474E-01
       -2   -1    0    0    0  501  0.00000000000E+00  0.00000000000E+00  0.24471069352E+03  0.24471069353E+03  0.25500000920E-02 0. -1.
        2   -1    0    0  501    0  0.00000000000E+00  0.00000000000E+00 -0.15005312217E+04  0.15005312217E+04  0.25500000920E-02 0.  1.
    10030    2    1    2    0    0  0.00000000000E+00  0.00000000000E+00 -0.12558205282E+04  0.17452419152E+04  0.12119340509E+04 0.  0.
        1    1    3    3  502    0  0.18902850607E+02  0.38608384948E+02 -0.14983327065E+04  0.14989492401E+04  0.50400001928E-02 0.  1.
       -1    1    3    3    0  502 -0.18902850607E+02 -0.38608384948E+02  0.24251217831E+03  0.24629267509E+03  0.50400001928E-02 0. -1.
</event>
<event>
 5   0  0.8908478E-04  0.1203069E+04  0.7818609E-02  0.9110174E-01
       -1   -1    0    0    0  501  0.00000000000E+00  0.00000000000E+00  0.13748717401E+04  0.13748717401E+04  0.50400001928E-02 0. -1.
        1   -1    0    0  501    0  0.00000000000E+00  0.00000000000E+00 -0.26318376110E+03  0.26318376115E+03  0.50400001928E-02 0.  1.
    10030    2    1    2    0    0  0.00000000000E+00  0.00000000000E+00  0.11116879790E+04  0.16380555012E+04  0.12030692675E+04 0.  0.
        4    1    3    3  502    0 -0.61885352775E+02 -0.35781936248E+03 -0.97107544409E+02  0.37589357687E+03  0.12699999809E+01 0.  1.
       -4    1    3    3    0  502  0.61885352775E+02  0.35781936248E+03  0.12087955234E+04  0.12621619244E+04  0.12699999809E+01 0. -1.
</event>
<event>
 5   0  0.1647550E-03  0.1197767E+04  0.7818609E-02  0.9114814E-01
       -2   -1    0    0    0  501  0.00000000000E+00  0.00000000000E+00  0.31589279055E+03  0.31589279056E+03  0.25500000920E-02 0. -1.
        2   -1    0    0  501    0  0.00000000000E+00  0.00000000000E+00 -0.11353888782E+04  0.11353888782E+04  0.25500000920E-02 0.  1.
    10030    2    1    2    0    0  0.00000000000E+00  0.00000000000E+00 -0.81949608764E+03  0.14512816687E+04  0.11977665233E+04 0.  0.
        3    1    3    3  502    0 -0.52588612282E+03  0.27079890275E+03 -0.52323629544E+03  0.78972431327E+03  0.10100000352E+00 0.  1.
       -3    1    3    3    0  502  0.52588612282E+03 -0.27079890275E+03 -0.29625979219E+03  0.66155735547E+03  0.10100000352E+00 0. -1.
</event>
<event>
 5   0  0.1551501E-03  0.1243234E+04  0.7818609E-02  0.9075833E-01
        2   -1    0    0  501    0  0.00000000000E+00  0.00000000000E+00  0.15824736005E+04  0.15824736005E+04  0.25500000920E-02 0.  1.
       -2   -1    0    0    0  501  0.00000000000E+00  0.00000000000E+00 -0.24417953091E+03  0.24417953092E+03  0.25500000920E-02 0. -1.
    10030    2    1    2    0    0  0.00000000000E+00  0.00000000000E+00  0.13382940696E+04  0.18266531314E+04  0.12432339466E+04 0.  0.
        4    1    3    3  502    0  0.21933484363E+03 -0.58148833260E+03  0.68828115270E+03  0.92734514214E+03  0.12699999809E+01 0.  1.
       -4    1    3    3    0  502 -0.21933484363E+03  0.58148833260E+03  0.65001291689E+03  0.89930798929E+03  0.12699999809E+01 0. -1.
</event>
<event>
 5   0  0.8908478E-04  0.1206208E+04  0.7818609E-02  0.9107440E-01
        1   -1    0    0  501    0  0.00000000000E+00  0.00000000000E+00  0.69000335883E+03  0.69000335885E+03  0.50400001928E-02 0.  1.
       -1   -1    0    0    0  501  0.00000000000E+00  0.00000000000E+00 -0.52714859840E+03  0.52714859842E+03  0.50400001928E-02 0. -1.
    10030    2    1    2    0    0  0.00000000000E+00  0.00000000000E+00  0.16285476043E+03  0.12171519573E+04  0.12062077823E+04 0.  0.
        4    1    3    3  502    0 -0.60059187258E+03  0.26640736452E+02  0.12995073401E+03  0.61506839654E+03  0.12699999809E+01 0. -1.
       -4    1    3    3    0  502  0.60059187258E+03 -0.26640736452E+02  0.32904026418E+02  0.60208356073E+03  0.12699999809E+01 0.  1.
</event>
<event>
 5   0  0.9169078E-04  0.1212691E+04  0.7818609E-02  0.9101820E-01
       -1   -1    0    0    0  501  0.00000000000E+00  0.00000000000E+00  0.46316490556E+03  0.46316490559E+03  0.50400001928E-02 0. -1.
        1   -1    0    0  501    0  0.00000000000E+00  0.00000000000E+00 -0.79378843501E+03  0.79378843503E+03  0.50400001928E-02 0.  1.
    10030    2    1    2    0    0  0.00000000000E+00  0.00000000000E+00 -0.33062352945E+03  0.12569533406E+04  0.12126911323E+04 0.  0.
        1    1    3    3  502    0  0.22998414185E+03  0.22632971586E+02 -0.74635251245E+03  0.78131109666E+03  0.50400001928E-02 0.  1.
       -1    1    3    3    0  502 -0.22998414185E+03 -0.22632971586E+02  0.41572898300E+03  0.47564224396E+03  0.50400001928E-02 0. -1.
</event>
<event>
 5   0  0.1537557E-03  0.1187022E+04  0.7818609E-02  0.9124293E-01
       -2   -1    0    0    0  501  0.00000000000E+00  0.00000000000E+00  0.77715534598E+03  0.77715534599E+03  0.25500000920E-02 0. -1.
        2   -1    0    0  501    0  0.00000000000E+00  0.00000000000E+00 -0.45326237367E+03  0.45326237368E+03  0.25500000920E-02 0.  1.
    10030    2    1    2    0    0  0.00000000000E+00  0.00000000000E+00  0.32389297231E+03  0.12304177197E+04  0.11870219490E+04 0.  0.
        2    1    3    3  502    0 -0.45011496777E+03 -0.19644376128E+03 -0.18349609579E+03  0.52427516891E+03  0.25500000920E-02 0.  1.
       -2    1    3    3    0  502  0.45011496777E+03  0.19644376128E+03  0.50738906810E+03  0.70614255076E+03  0.25500000920E-02 0. -1.
</event>
<event>
 5   0  0.1647550E-03  0.1178826E+04  0.7818609E-02  0.9131595E-01
        2   -1    0    0  501    0  0.00000000000E+00  0.00000000000E+00  0.17136544237E+04  0.17136544237E+04  0.25500000920E-02 0. -1.
       -2   -1    0    0    0  501  0.00000000000E+00  0.00000000000E+00 -0.20272901410E+03  0.20272901412E+03  0.25500000920E-02 0.  1.
    10030    2    1    2    0    0  0.00000000000E+00  0.00000000000E+00  0.15109254096E+04  0.19163834378E+04  0.11788256391E+04 0.  0.
        3    1    3    3  502    0 -0.19448486304E+02  0.95301374745E+02  0.17005176249E+04  0.17032970376E+04  0.10100000352E+00 0. -1.
       -3    1    3    3    0  502  0.19448486304E+02 -0.95301374745E+02 -0.18959221529E+03  0.21308640019E+03  0.10100000352E+00 0.  1.
</event>
<event>
 5   0  0.8908478E-04  0.1293803E+04  0.7818609E-02  0.9034494E-01
        1   -1    0    0  501    0  0.00000000000E+00  0.00000000000E+00  0.47929835219E+03  0.47929835221E+03  0.50400001928E-02 0. -1.
       -1   -1    0    0    0  501  0.00000000000E+00  0.00000000000E+00 -0.87311239129E+03  0.87311239131E+03  0.50400001928E-02 0.  1.
    10030    2    1    2    0    0  0.00000000000E+00  0.00000000000E+00 -0.39381403910E+03  0.13524107435E+04  0.12938026595E+04 0.  0.
        4    1    3    3  502    0  0.11552951831E+03 -0.54913263268E+03  0.13952018226E+03  0.57823975307E+03  0.12699999809E+01 0. -1.
       -4    1    3    3    0  502 -0.11552951831E+03  0.54913263268E+03 -0.53333422136E+03  0.77417099045E+03  0.12699999809E+01 0.  1.
</event>
<event>
 5   0  0.9358428E-04  0.1213738E+04  0.7818609E-02  0.9100916E-01
       -1   -1    0    0    0  501  0.00000000000E+00  0.00000000000E+00  0.57827488484E+03  0.57827488486E+03  0.50400001928E-02 0. -1.
        1   -1    0    0  501    0  0.00000000000E+00  0.00000000000E+00 -0.63687685859E+03  0.63687685861E+03  0.50400001928E-02 0.  1.
    10030    2    1    2    0    0  0.00000000000E+00  0.00000000000E+00 -0.58601973748E+02  0.12151517435E+04  0.12137378499E+04 0.  0.
        2    1    3    3  502    0 -0.39021228795E+03 -0.46429145063E+03 -0.50720097085E+02  0.60860883091E+03  0.25500000920E-02 0.  1.
       -2    1    3    3    0  502  0.39021228795E+03  0.46429145063E+03 -0.78818766637E+01  0.60654291257E+03  0.25500000920E-02 0. -1.
</event>
<event>
 5   0  0.9169078E-04  0.1200900E+04  0.7818609E-02  0.9112069E-01
        1   -1    0    0  501    0  0.00000000000E+00  0.00000000000E+00  0.97785998154E+03  0.97785998156E+03  0.50400001928E-02 0.  1.
       -1   -1    0    0    0  501  0.00000000000E+00  0.00000000000E+00 -0.36870324750E+03  0.36870324754E+03  0.50400001928E-02 0. -1.
    10030    2    1    2    0    0  0.00000000000E+00  0.00000000000E+00  0.60915673404E+03  0.13465632291E+04  0.12008999139E+04 0.  0.
        1    1    3    3  502    0 -0.20219800820E+03 -0.68800324776E+02 -0.32466967543E+03  0.38862310453E+03  0.50400001928E-02 0. -1.
       -1    1    3    3    0  502  0.20219800820E+03  0.68800324776E+02  0.93382640946E+03  0.95794012456E+03  0.50400001928E-02 0.  1.
</event>
<event>
 5   0  0.1537557E-03  0.1201071E+04  0.7818609E-02  0.9111920E-01
        2   -1    0    0  501    0  0.00000000000E+00  0.00000000000E+00  0.14161164924E+04  0.14161164924E+04  0.25500000920E-02 0.  1.
       -2   -1    0    0    0  501  0.00000000000E+00  0.00000000000E+00 -0.25467026119E+03  0.25467026120E+03  0.25500000920E-02 0. -1.
    10030    2    1    2    0    0  0.00000000000E+00  0.00000000000E+00  0.11614462313E+04  0.16707867537E+04  0.12010707840E+04 0.  0.
        2    1    3    3  502    0 -0.20284117975E+03 -0.26776171813E+03 -0.11175286621E+03  0.35401918734E+03  0.25500000920E-02 0. -1.
       -2    1    3    3    0  502  0.20284117975E+03  0.26776171813E+03  0.12731990975E+04  0.13167675663E+04  0.25500000920E-02 0.  1.
</event>
<event>
 5   0  0.9170776E-04  0.1194715E+04  0.7818609E-02  0.9117495E-01
       -1   -1    0    0    0  501  0.00000000000E+00  0.00000000000E+00  0.30126104939E+03  0.30126104943E+03  0.50400001928E-02 0.  1.
        1   -1    0    0  501    0  0.00000000000E+00  0.00000000000E+00 -0.11844738272E+04  0.11844738272E+04  0.50400001928E-02 0. -1.
    10030    2    1    2    0    0  0.00000000000E+00  0.00000000000E+00 -0.88321277779E+03  0.14857348766E+04  0.11947147412E+04 0.  0.
        5    1    3    3  502    0  0.38742297377E+03 -0.72252838154E+02 -0.99983368691E+03  0.10747122986E+04  0.46999998093E+01 0. -1.
       -5    1    3    3    0  502 -0.38742297377E+03  0.72252838154E+02  0.11662090912E+03  0.41102257805E+03  0.46999998093E+01 0.  1.
</event>
<event>
 5   0  0.9208078E-04  0.1206778E+04  0.7818609E-02  0.9106944E-01
        1   -1    0    0  501    0  0.00000000000E+00  0.00000000000E+00  0.10697470571E+04  0.10697470571E+04  0.50400001928E-02 0.  1.
       -1   -1    0    0    0  501  0.00000000000E+00  0.00000000000E+00 -0.34034080504E+03  0.34034080508E+03  0.50400001928E-02 0. -1.
    10030    2    1    2    0    0  0.00000000000E+00  0.00000000000E+00  0.72940625206E+03  0.14100878622E+04  0.12067784795E+04 0.  0.
        3    1    3    3  502    0 -0.57360086320E+03 -0.10176010047E+03  0.54836347593E+03  0.80004723625E+03  0.10100000352E+00 0. -1.
       -3    1    3    3    0  502  0.57360086320E+03  0.10176010047E+03  0.18104277614E+03  0.61004062594E+03  0.10100000352E+00 0.  1.
</event>
<event>
 5   0  0.1647550E-03  0.1204470E+04  0.7818609E-02  0.9108953E-01
        2   -1    0    0  501    0  0.00000000000E+00  0.00000000000E+00  0.38523140043E+03  0.38523140043E+03  0.25500000920E-02 0. -1.
       -2   -1    0    0    0  501  0.00000000000E+00  0.00000000000E+00 -0.94147811866E+03  0.94147811866E+03  0.25500000920E-02 0.  1.
    10030    2    1    2    0    0  0.00000000000E+00  0.00000000000E+00 -0.55624671824E+03  0.13267095191E+04  0.12044698986E+04 0.  0.
        3    1    3    3  502    0  0.13244486182E+03  0.47054742387E+03 -0.66557554069E+03  0.82580102331E+03  0.10100000352E+00 0.  1.
       -3    1    3    3    0  502 -0.13244486182E+03 -0.47054742387E+03  0.10932882245E+03  0.50090849579E+03  0.10100000352E+00 0. -1.
</event>
<event>
 5   0  0.1647550E-03  0.1202721E+04  0.7818609E-02  0.9110478E-01
        2   -1    0    0  501    0  0.00000000000E+00  0.00000000000E+00  0.45578820130E+03  0.45578820131E+03  0.25500000920E-02 0.  1.
       -2   -1    0    0    0  501  0.00000000000E+00  0.00000000000E+00 -0.79342665611E+03  0.79342665611E+03  0.25500000920E-02 0. -1.
    10030    2    1    2    0    0  0.00000000000E+00  0.00000000000E+00 -0.33763845481E+03  0.12492148574E+04  0.12027210956E+04 0.  0.
        3    1    3    3  502    0  0.30732318691E+03  0.12400248137E+03  0.35238627681E+03  0.48373572835E+03  0.10100000352E+00 0.  1.
       -3    1    3    3    0  502 -0.30732318691E+03 -0.12400248137E+03 -0.69002473162E+03  0.76547912907E+03  0.10100000352E+00 0. -1.
</event>
<event>
 5   0  0.9169078E-04  0.1200724E+04  0.7818609E-02  0.9112223E-01
       -1   -1    0    0    0  501  0.00000000000E+00  0.00000000000E+00  0.42081983696E+03  0.42081983699E+03  0.50400001928E-02 0.  1.
        1   -1    0    0  501    0  0.00000000000E+00  0.00000000000E+00 -0.85650577869E+03  0.85650577871E+03  0.50400001928E-02 0. -1.
    10030    2    1    2    0    0  0.00000000000E+00  0.00000000000E+00 -0.43568594173E+03  0.12773256157E+04  0.12007241518E+04 0.  0.
        1    1    3    3  502    0  0.47508490543E+03  0.20794548764E+03  0.10392259193E+03  0.52891104955E+03  0.50400001928E-02 0.  1.
       -1    1    3    3    0  502 -0.47508490543E+03 -0.20794548764E+03 -0.53960853366E+03  0.74841456615E+03  0.50400001928E-02 0. -1.
</event>
<event>
 5   0  0.1597352E-03  0.1203318E+04  0.7818609E-02  0.9109958E-01
        2   -1    0    0  501    0  0.00000000000E+00  0.00000000000E+00  0.11005406228E+04  0.11005406228E+04  0.25500000920E-02 0.  1.
       -2   -1    0    0    0  501  0.00000000000E+00  0.00000000000E+00 -0.32892315723E+03  0.32892315724E+03  0.25500000920E-02 0. -1.
    10030    2    1    2    0    0  0.00000000000E+00  0.00000000000E+00  0.77161746560E+03  0.14294637801E+04  0.12033175746E+04 0.  0.
        1    1    3    3  502    0 -0.12501102288E+03 -0.49093245820E+03  0.23100247018E+00  0.50659894172E+03  0.50400001928E-02 0. -1.
       -1    1    3    3    0  502  0.12501102288E+03  0.49093245820E+03  0.77138646313E+03  0.92286483836E+03  0.50400001928E-02 0.  1.
</event>
<event>
 5   0  0.9358428E-04  0.1275561E+04  0.7818609E-02  0.9049174E-01
        1   -1    0    0  501    0  0.00000000000E+00  0.00000000000E+00  0.52820343735E+03  0.52820343737E+03  0.50400001928E-02 0. -1.
       -1   -1    0    0    0  501  0.00000000000E+00  0.00000000000E+00 -0.77008908817E+03  0.77008908819E+03  0.50400001928E-02 0.  1.
    10030    2    1    2    0    0  0.00000000000E+00  0.00000000000E+00 -0.24188565082E+03  0.12982925256E+04  0.12755605881E+04 0.  0.
        2    1    3    3  502    0  0.38354527305E+03 -0.17670218751E+03  0.36552144417E+03  0.55851281606E+03  0.25500000920E-02 0. -1.
       -2    1    3    3    0  502 -0.38354527305E+03  0.17670218751E+03 -0.60740709498E+03  0.73977970950E+03  0.25500000920E-02 0.  1.
</event>
<event>
 5   0  0.9169078E-04  0.1192151E+04  0.7818609E-02  0.9119754E-01
       -1   -1    0    0    0  501  0.00000000000E+00  0.00000000000E+00  0.41200046490E+03  0.41200046493E+03  0.50400001928E-02 0. -1.
        1   -1    0    0  501    0  0.00000000000E+00  0.00000000000E+00 -0.86239249988E+03  0.86239249989E+03  0.50400001928E-02 0.  1.
    10030    2    1    2    0    0  0.00000000000E+00  0.00000000000E+00 -0.45039203498E+03  0.12743929648E+04  0.11921511832E+04 0.  0.
        1    1    3    3  502    0 -0.54692354584E+03 -0.10956987940E+02 -0.47830132471E+03  0.72664818022E+03  0.50400001928E-02 0.  1.
       -1    1    3    3    0  502  0.54692354584E+03  0.10956987940E+02  0.27909289735E+02  0.54774478460E+03  0.50400001928E-02 0. -1.
</event>
<event>
 5   0  0.1567019E-03  0.1198685E+04  0.7818609E-02  0.9114008E-01
       -2   -1    0    0    0  501  0.00000000000E+00  0.00000000000E+00  0.20168402918E+03  0.20168402920E+03  0.25500000920E-02 0. -1.
        2   -1    0    0  501    0  0.00000000000E+00  0.00000000000E+00 -0.17810600392E+04  0.17810600392E+04  0.25500000920E-02 0.  1.
    10030    2    1    2    0    0  0.00000000000E+00  0.00000000000E+00 -0.15793760100E+04  0.19827440684E+04  0.11986848876E+04 0.  0.
        5    1    3    3  502    0 -0.34359273060E+03  0.45248859826E+03 -0.47416065091E+03  0.74003534304E+03  0.46999998093E+01 0. -1.
       -5    1    3    3    0  502  0.34359273060E+03 -0.45248859826E+03 -0.11052153591E+04  0.12427087253E+04  0.46999998093E+01 0.  1.
</event>
<event>
 5   0  0.1597352E-03  0.1201423E+04  0.7818609E-02  0.9111612E-01
       -2   -1    0    0    0  501  0.00000000000E+00  0.00000000000E+00  0.54639529867E+03  0.54639529868E+03  0.25500000920E-02 0.  1.
        2   -1    0    0  501    0  0.00000000000E+00  0.00000000000E+00 -0.66042681741E+03  0.66042681742E+03  0.25500000920E-02 0. -1.
    10030    2    1    2    0    0  0.00000000000E+00  0.00000000000E+00 -0.11403151874E+03  0.12068221161E+04  0.12014226703E+04 0.  0.
        1    1    3    3  502    0 -0.21417151530E+03  0.21250817966E+03 -0.57879702924E+03  0.65271369334E+03  0.50400001928E-02 0. -1.
       -1    1    3    3    0  502  0.21417151530E+03 -0.21250817966E+03  0.46476551050E+03  0.55410842275E+03  0.50400001928E-02 0.  1.
</event>
<event>
 5   0  0.9358428E-04  0.1205906E+04  0.7818609E-02  0.9107702E-01
        1   -1    0    0  501    0  0.00000000000E+00  0.00000000000E+00  0.49939689694E+03  0.49939689696E+03  0.50400001928E-02 0. -1.
       -1   -1    0    0    0  501  0.00000000000E+00  0.00000000000E+00 -0.72798328879E+03  0.72798328881E+03  0.50400001928E-02 0.  1.
    10030    2    1    2    0    0  0.00000000000E+00  0.00000000000E+00 -0.22858639186E+03  0.12273801858E+04  0.12059064565E+04 0.  0.
        2    1    3    3  502    0  0.42907064382E+03 -0.37020999629E+03  0.95275087659E+02  0.57466024839E+03  0.25500000920E-02 0. -1.
       -2    1    3    3    0  502 -0.42907064382E+03  0.37020999629E+03 -0.32386147952E+03  0.65271993738E+03  0.25500000920E-02 0.  1.
</event>
<event>
 5   0  0.9358428E-04  0.1144732E+04  0.7818609E-02  0.9162657E-01
        1   -1    0    0  501    0  0.00000000000E+00  0.00000000000E+00  0.13402924471E+04  0.13402924471E+04  0.50400001928E-02 0.  1.
       -1   -1    0    0    0  501  0.00000000000E+00  0.00000000000E+00 -0.24442648973E+03  0.24442648978E+03  0.50400001928E-02 0. -1.
    10030    2    1    2    0    0  0.00000000000E+00  0.00000000000E+00  0.10958659573E+04  0.15847189368E+04  0.11447322448E+04 0.  0.
        2    1    3    3  502    0  0.24209649158E+03  0.70151592142E+02 -0.16345857366E+03  0.30041748023E+03  0.25500000920E-02 0. -1.
       -2    1    3    3    0  502 -0.24209649158E+03 -0.70151592142E+02  0.12593245310E+04  0.12843014566E+04  0.25500000920E-02 0.  1.
</event>
<event>
 5   0  0.1537557E-03  0.1211024E+04  0.7818609E-02  0.9103261E-01
       -2   -1    0    0    0  501  0.00000000000E+00  0.00000000000E+00  0.51081384809E+03  0.51081384809E+03  0.25500000920E-02 0. -1.
        2   -1    0    0  501    0  0.00000000000E+00  0.00000000000E+00 -0.71776646338E+03  0.71776646339E+03  0.25500000920E-02 0.  1.
    10030    2    1    2    0    0  0.00000000000E+00  0.00000000000E+00 -0.20695261530E+03  0.12285803115E+04  0.12110244410E+04 0.  0.
        2    1    3    3  502    0 -0.16374098404E+03  0.45774830676E+03 -0.46968071136E+03  0.67597676944E+03  0.25500000920E-02 0.  1.
       -2    1    3    3    0  502  0.16374098404E+03 -0.45774830676E+03  0.26272809606E+03  0.55260354203E+03  0.25500000920E-02 0. -1.
</event>
<event>
 5   0  0.6137750E-04  0.1196014E+04  0.7818609E-02  0.9116352E-01
       -3   -1    0    0    0  501  0.00000000000E+00  0.00000000000E+00  0.17625002794E+03  0.17625005688E+03  0.10100000352E+00 0. -1.
        3   -1    0    0  501    0  0.00000000000E+00  0.00000000000E+00 -0.20290069014E+04  0.20290069039E+04  0.10100000352E+00 0.  1.
    10030    2    1    2    0    0  0.00000000000E+00  0.00000000000E+00 -0.18527568734E+04  0.22052569608E+04  0.11960143105E+04 0.  0.
        1    1    3    3  502    0 -0.45258762216E+03 -0.98941494069E+02 -0.22915498330E+03  0.51685295915E+03  0.50400001928E-02 0. -1.
       -1    1    3    3    0  502  0.45258762216E+03  0.98941494069E+02 -0.16236018901E+04  0.16884040016E+04  0.50400001928E-02 0.  1.
</event>
<event>
 5   0  0.9208078E-04  0.1185508E+04  0.7818609E-02  0.9125636E-01
       -1   -1    0    0    0  501  0.00000000000E+00  0.00000000000E+00  0.27312682017E+03  0.27312682022E+03  0.50400001928E-02 0.  1.
        1   -1    0    0  501    0  0.00000000000E+00  0.00000000000E+00 -0.12864265535E+04  0.12864265535E+04  0.50400001928E-02 0. -1.
    10030    2    1    2    0    0  0.00000000000E+00  0.00000000000E+00 -0.10132997334E+04  0.15595533738E+04  0.11855084884E+04 0.  0.
        3    1    3    3  502    0  0.17637589896E+03  0.10298783500E+03 -0.12386749281E+04  0.12554005495E+04  0.10100000352E+00 0. -1.
       -3    1    3    3    0  502 -0.17637589896E+03 -0.10298783500E+03  0.22537519477E+03  0.30415282427E+03  0.10100000352E+00 0.  1.
</event>
<event>
 5   0  0.1567019E-03  0.1203787E+04  0.7818609E-02  0.9109548E-01
       -2   -1    0    0    0  501  0.00000000000E+00  0.00000000000E+00  0.44292010114E+03  0.44292010115E+03  0.25500000920E-02 0. -1.
        2   -1    0    0  501    0  0.00000000000E+00  0.00000000000E+00 -0.81792560791E+03  0.81792560792E+03  0.25500000920E-02 0.  1.
    10030    2    1    2    0    0  0.00000000000E+00  0.00000000000E+00 -0.37500550677E+03  0.12608457091E+04  0.12037868466E+04 0.  0.
        5    1    3    3  502    0 -0.21450109374E+03 -0.29105648745E+03 -0.69148478601E+03  0.78031909972E+03  0.46999998093E+01 0.  1.
       -5    1    3    3    0  502  0.21450109374E+03  0.29105648745E+03  0.31647927924E+03  0.48052660935E+03  0.46999998093E+01 0. -1.
</event>
<event>
 5   0  0.9208078E-04  0.1186289E+04  0.7818609E-02  0.9124943E-01
        1   -1    0    0  501    0  0.00000000000E+00  0.00000000000E+00  0.70603000425E+03  0.70603000426E+03  0.50400001928E-02 0.  1.
       -1   -1    0    0    0  501  0.00000000000E+00  0.00000000000E+00 -0.49830821091E+03  0.49830821094E+03  0.50400001928E-02 0. -1.
    10030    2    1    2    0    0  0.00000000000E+00  0.00000000000E+00  0.20772179333E+03  0.12043382152E+04  0.11862892536E+04 0.  0.
        3    1    3    3  502    0 -0.23420706200E+02 -0.41527997508E+02 -0.49635974983E+03  0.49864427752E+03  0.10100000352E+00 0. -1.
       -3    1    3    3    0  502  0.23420706200E+02  0.41527997508E+02  0.70408154316E+03  0.70569393768E+03  0.10100000352E+00 0.  1.
</event>
<event>
 5   0  0.1537557E-03  0.1204795E+04  0.7818609E-02  0.9108670E-01
        2   -1    0    0  501    0  0.00000000000E+00  0.00000000000E+00  0.55193817699E+03  0.55193817700E+03  0.25500000920E-02 0. -1.
       -2   -1    0    0    0  501  0.00000000000E+00  0.00000000000E+00 -0.65747018194E+03  0.65747018195E+03  0.25500000920E-02 0.  1.
    10030    2    1    2    0    0  0.00000000000E+00  0.00000000000E+00 -0.10553200495E+03  0.12094083589E+04  0.12047952418E+04 0.  0.
        2    1    3    3  502    0  0.13167880380E+03 -0.51771276673E+03  0.22671894177E+03  0.58031654704E+03  0.25500000920E-02 0. -1.
       -2    1    3    3    0  502 -0.13167880380E+03  0.51771276673E+03 -0.33225094672E+03  0.62909181190E+03  0.25500000920E-02 0.  1.
</event>
<event>
 5   0  0.1537557E-03  0.1192174E+04  0.7818609E-02  0.9119735E-01
        2   -1    0    0  501    0  0.00000000000E+00  0.00000000000E+00  0.12406095822E+04  0.12406095822E+04  0.25500000920E-02 0. -1.
       -2   -1    0    0    0  501  0.00000000000E+00  0.00000000000E+00 -0.28640713076E+03  0.28640713077E+03  0.25500000920E-02 0.  1.
    10030    2    1    2    0    0  0.00000000000E+00  0.00000000000E+00  0.95420245143E+03  0.15270167130E+04  0.11921735291E+04 0.  0.
        2    1    3    3  502    0 -0.17188411721E+03  0.44800579482E+03  0.24126364973E+02  0.48045335199E+03  0.25500000920E-02 0.  1.
       -2    1    3    3    0  502  0.17188411721E+03 -0.44800579482E+03  0.93007608646E+03  0.10465633610E+04  0.25500000920E-02 0. -1.
</event>
<event>
 5   0  0.9169078E-04  0.1196087E+04  0.7818609E-02  0.9116289E-01
       -1   -1    0    0    0  501  0.00000000000E+00  0.00000000000E+00  0.11723613154E+04  0.11723613154E+04  0.50400001928E-02 0.  1.
        1   -1    0    0  501    0  0.00000000000E+00  0.00000000000E+00 -0.30507315201E+03  0.30507315205E+03  0.50400001928E-02 0. -1.
    10030    2    1    2    0    0  0.00000000000E+00  0.00000000000E+00  0.86728816340E+03  0.14774344675E+04  0.11960868895E+04 0.  0.
        1    1    3    3  502    0  0.48039794673E+03 -0.26888491548E+03  0.72220737296E+03  0.90811055196E+03  0.50400001928E-02 0.  1.
       -1    1    3    3    0  502 -0.48039794673E+03  0.26888491548E+03  0.14508079044E+03  0.56932391551E+03  0.50400001928E-02 0. -1.
</event>
<event>
 5   0  0.1647550E-03  0.1188005E+04  0.7818609E-02  0.9123421E-01
       -2   -1    0    0    0  501  0.00000000000E+00  0.00000000000E+00  0.29744093906E+03  0.29744093907E+03  0.25500000920E-02 0.  1.
        2   -1    0    0  501    0  0.00000000000E+00  0.00000000000E+00 -0.11862493804E+04  0.11862493804E+04  0.25500000920E-02 0. -1.
    10030    2    1    2    0    0  0.00000000000E+00  0.00000000000E+00 -0.88880844135E+03  0.14836903195E+04  0.11880052688E+04 0.  0.
        3    1    3    3  502    0  0.43635425987E+03  0.40206255632E+03 -0.40952947970E+03  0.72095335789E+03  0.10100000352E+00 0.  1.
       -3    1    3    3    0  502 -0.43635425987E+03 -0.40206255632E+03 -0.47927896164E+03  0.76273696159E+03  0.10100000352E+00 0. -1.
</event>
<event>
 5   0  0.1537557E-03  0.1201608E+04  0.7818609E-02  0.9111450E-01
       -2   -1    0    0    0  501  0.00000000000E+00  0.00000000000E+00  0.34854215684E+03  0.34854215685E+03  0.25500000920E-02 0.  1.
        2   -1    0    0  501    0  0.00000000000E+00  0.00000000000E+00 -0.10356436359E+04  0.10356436359E+04  0.25500000920E-02 0. -1.
    10030    2    1    2    0    0  0.00000000000E+00  0.00000000000E+00 -0.68710147904E+03  0.13841857927E+04  0.12016080336E+04 0.  0.
        2    1    3    3  502    0  0.18934467165E+03  0.40757571582E+03  0.11577924535E+03  0.46408426225E+03  0.25500000920E-02 0.  1.
       -2    1    3    3    0  502 -0.18934467165E+03 -0.40757571582E+03 -0.80288072440E+03  0.92010153050E+03  0.25500000920E-02 0. -1.
</event>
<event>
 5   0  0.9208078E-04  0.1216204E+04  0.7818609E-02  0.9098790E-01
        1   -1    0    0  501    0  0.00000000000E+00  0.00000000000E+00  0.78854197782E+03  0.78854197784E+03  0.50400001928E-02 0.  1.
       -1   -1    0    0    0  501  0.00000000000E+00  0.00000000000E+00 -0.46895197052E+03  0.46895197055E+03  0.50400001928E-02 0. -1.
    10030    2    1    2    0    0  0.00000000000E+00  0.00000000000E+00  0.31959000731E+03  0.12574939484E+04  0.12162044472E+04 0.  0.
        3    1    3    3  502    0  0.74821672188E+02  0.35406539947E+03 -0.34549613009E+03  0.50032806822E+03  0.10100000352E+00 0. -1.
       -3    1    3    3    0  502 -0.74821672188E+02 -0.35406539947E+03  0.66508613740E+03  0.75716588017E+03  0.10100000352E+00 0.  1.
</event>
<event>
 5   0  0.9208078E-04  0.1203696E+04  0.7818609E-02  0.9109628E-01
       -1   -1    0    0    0  501  0.00000000000E+00  0.00000000000E+00  0.12541348058E+04  0.12541348058E+04  0.50400001928E-02 0.  1.
        1   -1    0    0  501    0  0.00000000000E+00  0.00000000000E+00 -0.28882144413E+03  0.28882144417E+03  0.50400001928E-02 0. -1.
    10030    2    1    2    0    0  0.00000000000E+00  0.00000000000E+00  0.96531336166E+03  0.15429562500E+04  0.12036960177E+04 0.  0.
        3    1    3    3  502    0 -0.21581121949E+03  0.24884943626E+02  0.12021236578E+04  0.12215952856E+04  0.10100000352E+00 0.  1.
       -3    1    3    3    0  502  0.21581121949E+03 -0.24884943626E+02 -0.23681029614E+03  0.32136096440E+03  0.10100000352E+00 0. -1.
</event>
<event>
 5   0  0.8908478E-04  0.1083158E+04  0.7818609E-02  0.9221765E-01
        1   -1    0    0  501    0  0.00000000000E+00  0.00000000000E+00  0.23014897691E+04  0.23014897691E+04  0.50400001928E-02 0. -1.
       -1   -1    0    0    0  501  0.00000000000E+00  0.00000000000E+00 -0.12744255933E+03  0.12744255943E+03  0.50400001928E-02 0.  1.
    10030    2    1    2    0    0  0.00000000000E+00  0.00000000000E+00  0.21740472098E+04  0.24289323286E+04  0.10831578769E+04 0.  0.
        4    1    3    3  502    0  0.88103593570E+02 -0.19611283682E+03  0.22016919123E+04  0.22121644102E+04  0.12699999809E+01 0. -1.
       -4    1    3    3    0  502 -0.88103593570E+02  0.19611283682E+03 -0.27644702529E+02  0.21676791839E+03  0.12699999809E+01 0.  1.
</event>
<event>
 5   0  0.1647550E-03  0.1198035E+04  0.7818609E-02  0.9114578E-01
       -2   -1    0    0    0  501  0.00000000000E+00  0.00000000000E+00  0.32936155052E+03  0.32936155053E+03  0.25500000920E-02 0.  1.
        2   -1    0    0  501    0  0.00000000000E+00  0.00000000000E+00 -0.10894472292E+04  0.10894472292E+04  0.25500000920E-02 0. -1.
    10030    2    1    2    0    0  0.00000000000E+00  0.00000000000E+00 -0.76008567870E+03  0.14188087798E+04  0.11980351057E+04 0.  0.
        3    1    3    3  502    0  0.21283040846E+03 -0.32426758462E+03 -0.92064519158E+03  0.99901643039E+03  0.10100000352E+00 0. -1.
       -3    1    3    3    0  502 -0.21283040846E+03  0.32426758462E+03  0.16055951288E+03  0.41979234936E+03  0.10100000352E+00 0.  1.
</event>
<event>
 5   0  0.1537557E-03  0.1203833E+04  0.7818609E-02  0.9109509E-01
       -2   -1    0    0    0  501  0.00000000000E+00  0.00000000000E+00  0.27961613851E+03  0.27961613852E+03  0.25500000920E-02 0.  1.
        2   -1    0    0  501    0  0.00000000000E+00  0.00000000000E+00 -0.12957163080E+04  0.12957163080E+04  0.25500000920E-02 0. -1.
    10030    2    1    2    0    0  0.00000000000E+00  0.00000000000E+00 -0.10161001695E+04  0.15753324466E+04  0.12038325310E+04 0.  0.
        2    1    3    3  502    0 -0.24298053305E+02 -0.19276369586E+03 -0.12535545750E+04  0.12685217027E+04  0.25500000920E-02 0. -1.
       -2    1    3    3    0  502  0.24298053305E+02  0.19276369586E+03  0.23745440547E+03  0.30681074382E+03  0.25500000920E-02 0.  1.
</event>
<event>
 5   0  0.1551501E-03  0.1200390E+04  0.7818609E-02  0.9112515E-01
       -2   -1    0    0    0  501  0.00000000000E+00  0.00000000000E+00  0.59167698894E+03  0.59167698894E+03  0.25500000920E-02 0.  1.
        2   -1    0    0  501    0  0.00000000000E+00  0.00000000000E+00 -0.60883559643E+03  0.60883559644E+03  0.25500000920E-02 0. -1.
    10030    2    1    2    0    0  0.00000000000E+00  0.00000000000E+00 -0.17158607492E+02  0.12005125854E+04  0.12003899574E+04 0.  0.
        4    1    3    3  502    0  0.39971733488E+03 -0.12810362319E+03 -0.43763118743E+03  0.60638861729E+03  0.12699999809E+01 0. -1.
       -4    1    3    3    0  502 -0.39971733488E+03  0.12810362319E+03  0.42047257993E+03  0.59412396808E+03  0.12699999809E+01 0.  1.
</event>
<event>
 5   0  0.9358428E-04  0.1201134E+04  0.7818609E-02  0.9111864E-01
       -1   -1    0    0    0  501  0.00000000000E+00  0.00000000000E+00  0.48162344567E+03  0.48162344570E+03  0.50400001928E-02 0. -1.
        1   -1    0    0  501    0  0.00000000000E+00  0.00000000000E+00 -0.74888548313E+03  0.74888548315E+03  0.50400001928E-02 0.  1.
    10030    2    1    2    0    0  0.00000000000E+00  0.00000000000E+00 -0.26726203746E+03  0.12305089288E+04  0.12011341421E+04 0.  0.
        2    1    3    3  502    0  0.28173082557E+03  0.27008813294E+03  0.33399796510E+03  0.51368715998E+03  0.25500000920E-02 0. -1.
       -2    1    3    3    0  502 -0.28173082557E+03 -0.27008813294E+03 -0.60126000256E+03  0.71682176887E+03  0.25500000920E-02 0.  1.
</event>
<event>
 5   0  0.6137750E-04  0.1196832E+04  0.7818609E-02  0.9115634E-01
       -3   -1    0    0    0  501  0.00000000000E+00  0.00000000000E+00  0.12231123502E+04  0.12231123543E+04  0.10100000352E+00 0.  1.
        3   -1    0    0  501    0  0.00000000000E+00  0.00000000000E+00 -0.29277888222E+03  0.29277889964E+03  0.10100000352E+00 0. -1.
    10030    2    1    2    0    0  0.00000000000E+00  0.00000000000E+00  0.93033346795E+03  0.15158912540E+04  0.11968316224E+04 0.  0.
        2    1    3    3  502    0 -0.19518912831E+02  0.38246285584E+03  0.10475800523E+04  0.11153845929E+04  0.25500000920E-02 0.  1.
       -2    1    3    3    0  502  0.19518912831E+02 -0.38246285584E+03 -0.11724658432E+03  0.40050666112E+03  0.25500000920E-02 0. -1.
</event>
<event>
 5   0  0.1597352E-03  0.1198074E+04  0.7818609E-02  0.9114544E-01
        2   -1    0    0  501    0  0.00000000000E+00  0.00000000000E+00  0.71842160687E+03  0.71842160687E+03  0.25500000920E-02 0.  1.
       -2   -1    0    0    0  501  0.00000000000E+00  0.00000000000E+00 -0.49949118623E+03  0.49949118624E+03  0.25500000920E-02 0. -1.
    10030    2    1    2    0    0  0.00000000000E+00  0.00000000000E+00  0.21893042064E+03  0.12179127931E+04  0.11980738886E+04 0.  0.
        1    1    3    3  502    0  0.25086777744E+03 -0.21988138854E+02  0.66199765498E+03  0.70827891062E+03  0.50400001928E-02 0.  1.
       -1    1    3    3    0  502 -0.25086777744E+03  0.21988138854E+02 -0.44306723434E+03  0.50963388249E+03  0.50400001928E-02 0. -1.
</event>
<event>
 5   0  0.1537557E-03  0.1195827E+04  0.7818609E-02  0.9116517E-01
       -2   -1    0    0    0  501  0.00000000000E+00  0.00000000000E+00  0.45077833200E+03  0.45077833201E+03  0.25500000920E-02 0.  1.
        2   -1    0    0  501    0  0.00000000000E+00  0.00000000000E+00 -0.79307398205E+03  0.79307398205E+03  0.25500000920E-02 0. -1.
    10030    2    1    2    0    0  0.00000000000E+00  0.00000000000E+00 -0.34229565005E+03  0.12438523141E+04  0.11958270222E+04 0.  0.
        2    1    3    3  502    0  0.16234893641E+03 -0.53700357276E+03  0.43968260043E+02  0.56272837338E+03  0.25500000920E-02 0.  1.
       -2    1    3    3    0  502 -0.16234893641E+03  0.53700357276E+03 -0.38626391009E+03  0.68112394067E+03  0.25500000920E-02 0. -1.
</event>
<event>
 5   0  0.9169078E-04  0.1199469E+04  0.7818609E-02  0.9113322E-01
       -1   -1    0    0    0  501  0.00000000000E+00  0.00000000000E+00  0.55802011831E+03  0.55802011833E+03  0.50400001928E-02 0. -1.
        1   -1    0    0  501    0  0.00000000000E+00  0.00000000000E+00 -0.64456675954E+03  0.64456675956E+03  0.50400001928E-02 0.  1.
    10030    2    1    2    0    0  0.00000000000E+00  0.00000000000E+00 -0.86546641232E+02  0.12025868779E+04  0.11994685814E+04 0.  0.
        1    1    3    3  502    0  0.42714888043E+03  0.17797290881E+03  0.33922957655E+03  0.57376583024E+03  0.50400001928E-02 0. -1.
       -1    1    3    3    0  502 -0.42714888043E+03 -0.17797290881E+03 -0.42577621778E+03  0.62882104766E+03  0.50400001928E-02 0.  1.
</event>
<event>
 5   0  0.9208078E-04  0.1190488E+04  0.7818609E-02  0.9121223E-01
        1   -1    0    0  501    0  0.00000000000E+00  0.00000000000E+00  0.40011187323E+03  0.40011187326E+03  0.50400001928E-02 0.  1.
       -1   -1    0    0    0  501  0.00000000000E+00  0.00000000000E+00 -0.88554068411E+03  0.88554068412E+03  0.50400001928E-02 0. -1.
    10030    2    1    2    0    0  0.00000000000E+00  0.00000000000E+00 -0.48542881088E+03  0.12856525574E+04  0.11904878697E+04 0.  0.
        3    1    3    3  502    0 -0.29128669850E+03  0.25868037076E+03 -0.72874852510E+03  0.82634006194E+03  0.10100000352E+00 0. -1.
       -3    1    3    3    0  502  0.29128669850E+03 -0.25868037076E+03  0.24331971422E+03  0.45931249544E+03  0.10100000352E+00 0.  1.
</event>
<event>
 5   0  0.8908478E-04  0.1233533E+04  0.7818609E-02  0.9084001E-01
       -1   -1    0    0    0  501  0.00000000000E+00  0.00000000000E+00  0.87207902888E+03  0.87207902890E+03  0.50400001928E-02 0. -1.
        1   -1    0    0  501    0  0.00000000000E+00  0.00000000000E+00 -0.43619974310E+03  0.43619974313E+03  0.50400001928E-02 0.  1.
    10030    2    1    2    0    0  0.00000000000E+00  0.00000000000E+00  0.43587928578E+03  0.13082787720E+04  0.12335325669E+04 0.  0.
        4    1    3    3  502    0  0.19893538334E+03 -0.31921008646E+03 -0.30048281530E+03  0.48141655687E+03  0.12699999809E+01 0.  1.
       -4    1    3    3    0  502 -0.19893538334E+03  0.31921008646E+03  0.73636210108E+03  0.82686221515E+03  0.12699999809E+01 0. -1.
</event>
<event>
 5   0  0.6137750E-04  0.1199335E+04  0.7818609E-02  0.9113439E-01
       -3   -1    0    0    0  501  0.00000000000E+00  0.00000000000E+00  0.94716802003E+03  0.94716802542E+03  0.10100000352E+00 0.  1.
        3   -1    0    0  501    0  0.00000000000E+00  0.00000000000E+00 -0.37965938889E+03  0.37965940233E+03  0.10100000352E+00 0. -1.
    10030    2    1    2    0    0  0.00000000000E+00  0.00000000000E+00  0.56750863114E+03  0.13268274277E+04  0.11993352228E+04 0.  0.
        1    1    3    3  502    0 -0.45353089638E+03 -0.69285122363E+01  0.71770552380E+03  0.84902267176E+03  0.50400001928E-02 0.  1.
       -1    1    3    3    0  502  0.45353089638E+03  0.69285122363E+01 -0.15019689266E+03  0.47780475598E+03  0.50400001928E-02 0. -1.
</event>
<event>
 5   0  0.9169078E-04  0.1190062E+04  0.7818609E-02  0.9121600E-01
        1   -1    0    0  501    0  0.00000000000E+00  0.00000000000E+00  0.59028902843E+03  0.59028902845E+03  0.50400001928E-02 0.  1.
       -1   -1    0    0    0  501  0.00000000000E+00  0.00000000000E+00 -0.59981134771E+03  0.59981134774E+03  0.50400001928E-02 0. -1.
    10030    2    1    2    0    0  0.00000000000E+00  0.00000000000E+00 -0.95223192860E+01  0.11901003762E+04  0.11900622802E+04 0.  0.
        1    1    3    3  502    0 -0.12218077912E+03 -0.95127069309E+02  0.56978726224E+03  0.59045306870E+03  0.50400001928E-02 0.  1.
       -1    1    3    3    0  502  0.12218077912E+03  0.95127069309E+02 -0.57930958152E+03  0.59964730749E+03  0.50400001928E-02 0. -1.
</event>
<event>
 5   0  0.1647550E-03  0.1211001E+04  0.7818609E-02  0.9103282E-01
        2   -1    0    0  501    0  0.00000000000E+00  0.00000000000E+00  0.47917977564E+03  0.47917977565E+03  0.25500000920E-02 0. -1.
       -2   -1    0    0    0  501  0.00000000000E+00  0.00000000000E+00 -0.76512132515E+03  0.76512132515E+03  0.25500000920E-02 0.  1.
    10030    2    1    2    0    0  0.00000000000E+00  0.00000000000E+00 -0.28594154950E+03  0.12443011008E+04  0.12110006853E+04 0.  0.
        3    1    3    3  502    0  0.13824809096E+03  0.28065706457E+03 -0.67563694621E+03  0.74455773170E+03  0.10100000352E+00 0.  1.
       -3    1    3    3    0  502 -0.13824809096E+03 -0.28065706457E+03  0.38969539671E+03  0.49974336910E+03  0.10100000352E+00 0. -1.
</event>
<event>
 5   0  0.9358428E-04  0.1200350E+04  0.7818609E-02  0.9112550E-01
       -1   -1    0    0    0  501  0.00000000000E+00  0.00000000000E+00  0.34144028578E+03  0.34144028581E+03  0.50400001928E-02 0. -1.
        1   -1    0    0  501    0  0.00000000000E+00  0.00000000000E+00 -0.10549729999E+04  0.10549729999E+04  0.50400001928E-02 0.  1.
    10030    2    1    2    0    0  0.00000000000E+00  0.00000000000E+00 -0.71353271415E+03  0.13964132857E+04  0.12003504199E+04 0.  0.
        2    1    3    3  502    0 -0.21262269620E+03 -0.30312482935E+03 -0.90627238165E+03  0.97899065514E+03  0.25500000920E-02 0.  1.
       -2    1    3    3    0  502  0.21262269620E+03  0.30312482935E+03  0.19273966750E+03  0.41742263060E+03  0.25500000920E-02 0. -1.
</event>
<event>
 5   0  0.1597352E-03  0.1192773E+04  0.7818609E-02  0.9119206E-01
       -2   -1    0    0    0  501  0.00000000000E+00  0.00000000000E+00  0.47754399386E+03  0.47754399386E+03  0.25500000920E-02 0. -1.
        2   -1    0    0  501    0  0.00000000000E+00  0.00000000000E+00 -0.74480491207E+03  0.74480491207E+03  0.25500000920E-02 0.  1.
    10030    2    1    2    0    0  0.00000000000E+00  0.00000000000E+00 -0.26726091821E+03  0.12223489059E+04  0.11927734275E+04 0.  0.
        1    1    3    3  502    0  0.33612473289E+03  0.31634045322E+03  0.25339236238E+03  0.52655370832E+03  0.50400001928E-02 0. -1.
       -1    1    3    3    0  502 -0.33612473289E+03 -0.31634045322E+03 -0.52065328059E+03  0.69579519761E+03  0.50400001928E-02 0.  1.
</event>
<event>
 5   0  0.9358428E-04  0.1207032E+04  0.7818609E-02  0.9106724E-01
        1   -1    0    0  501    0  0.00000000000E+00  0.00000000000E+00  0.58490507984E+03  0.58490507986E+03  0.50400001928E-02 0.  1.
       -1   -1    0    0    0  501  0.00000000000E+00  0.00000000000E+00 -0.62271883050E+03  0.62271883052E+03  0.50400001928E-02 0. -1.
    10030    2    1    2    0    0  0.00000000000E+00  0.00000000000E+00 -0.37813750661E+02  0.12076239104E+04  0.12070317432E+04 0.  0.
        2    1    3    3  502    0  0.23831090418E+03  0.25083644303E+03  0.47582575983E+03  0.58832062851E+03  0.25500000920E-02 0.  1.
       -2    1    3    3    0  502 -0.23831090418E+03 -0.25083644303E+03 -0.51363951049E+03  0.61930328188E+03  0.25500000920E-02 0. -1.
</event>
<event>
 5   0  0.9208078E-04  0.1198626E+04  0.7818609E-02  0.9114060E-01
        1   -1    0    0  501    0  0.00000000000E+00  0.00000000000E+00  0.76058148191E+03  0.76058148193E+03  0.50400001928E-02 0.  1.
       -1   -1    0    0    0  501  0.00000000000E+00  0.00000000000E+00 -0.47223907468E+03  0.47223907471E+03  0.50400001928E-02 0. -1.
    10030    2    1    2    0    0  0.00000000000E+00  0.00000000000E+00  0.28834240723E+03  0.12328205566E+04  0.11986263726E+04 0.  0.
        3    1    3    3  502    0  0.27629004808E+03 -0.46250587411E+03 -0.12586075797E+03  0.55325293931E+03  0.10100000352E+00 0. -1.
       -3    1    3    3    0  502 -0.27629004808E+03  0.46250587411E+03  0.41420316520E+03  0.67956761733E+03  0.10100000352E+00 0.  1.
</event>
<event>
 5   0  0.1551501E-03  0.1206169E+04  0.7818609E-02  0.9107474E-01
       -2   -1    0    0    0  501  0.00000000000E+00  0.00000000000E+00  0.22449762760E+03  0.22449762761E+03  0.25500000920E-02 0. -1.
        2   -1    0    0  501    0  0.00000000000E+00  0.00000000000E+00 -0.16201107612E+04  0.16201107612E+04  0.25500000920E-02 0.  1.
    10030    2    1    2    0    0  0.00000000000E+00  0.00000000000E+00 -0.13956131336E+04  0.18446083888E+04  0.12061691794E+04 0.  0.
        4    1    3    3  502    0  0.56688694588E+03  0.13306946218E+03 -0.45774305272E+03  0.74067442671E+03  0.12699999809E+01 0. -1.
       -4    1    3    3    0  502 -0.56688694588E+03 -0.13306946218E+03 -0.93787008089E+03  0.11039339621E+04  0.12699999809E+01 0.  1.
</event>
<event>
 5   0  0.8908478E-04  0.1197379E+04  0.7818609E-02  0.9115154E-01
        1   -1    0    0  501    0  0.00000000000E+00  0.00000000000E+00  0.67880220724E+03  0.67880220726E+03  0.50400001928E-02 0.  1.
       -1   -1    0    0    0  501  0.00000000000E+00  0.00000000000E+00 -0.52803171339E+03  0.52803171341E+03  0.50400001928E-02 0. -1.
    10030    2    1    2    0    0  0.00000000000E+00  0.00000000000E+00  0.15077049385E+03  0.12068339207E+04  0.11973789585E+04 0.  0.
        4    1    3    3  502    0 -0.14820956034E+02 -0.14576996803E+02 -0.52766648236E+03  0.52807734195E+03  0.12699999809E+01 0. -1.
       -4    1    3    3    0  502  0.14820956034E+02  0.14576996803E+02  0.67843697621E+03  0.67875657873E+03  0.12699999809E+01 0.  1.
</event>
<event>
 5   0  0.1537557E-03  0.1203479E+04  0.7818609E-02  0.9109817E-01
       -2   -1    0    0    0  501  0.00000000000E+00  0.00000000000E+00  0.18615509804E+03  0.18615509805E+03  0.25500000920E-02 0.  1.
        2   -1    0    0  501    0  0.00000000000E+00  0.00000000000E+00 -0.19450997407E+04  0.19450997407E+04  0.25500000920E-02 0. -1.
    10030    2    1    2    0    0  0.00000000000E+00  0.00000000000E+00 -0.17589446427E+04  0.21312548388E+04  0.12034786794E+04 0.  0.
        2    1    3    3  502    0  0.10547897384E+03  0.43559966576E+03 -0.16841785135E+03  0.47878748458E+03  0.25500000920E-02 0.  1.
       -2    1    3    3    0  502 -0.10547897384E+03 -0.43559966576E+03 -0.15905267914E+04  0.16524673542E+04  0.25500000920E-02 0. -1.
</event>
<event>
 5   0  0.9208078E-04  0.1200726E+04  0.7818609E-02  0.9112221E-01
        1   -1    0    0  501    0  0.00000000000E+00  0.00000000000E+00  0.30737423782E+03  0.30737423786E+03  0.50400001928E-02 0. -1.
       -1   -1    0    0    0  501  0.00000000000E+00  0.00000000000E+00 -0.11726288367E+04  0.11726288367E+04  0.50400001928E-02 0.  1.
    10030    2    1    2    0    0  0.00000000000E+00  0.00000000000E+00 -0.86525459888E+03  0.14800030746E+04  0.12007262718E+04 0.  0.
        3    1    3    3  502    0 -0.32670763878E+03  0.27708484524E+03  0.85825847426E+02  0.43689813342E+03  0.10100000352E+00 0. -1.
       -3    1    3    3    0  502  0.32670763878E+03 -0.27708484524E+03 -0.95108044631E+03  0.10431049411E+04  0.10100000352E+00 0.  1.
</event>
<event>
 5   0  0.1647550E-03  0.1120887E+04  0.7818609E-02  0.9185069E-01
       -2   -1    0    0    0  501  0.00000000000E+00  0.00000000000E+00  0.26193373614E+03  0.26193373616E+03  0.25500000920E-02 0. -1.
        2   -1    0    0  501    0  0.00000000000E+00  0.00000000000E+00 -0.11991471304E+04  0.11991471305E+04  0.25500000920E-02 0.  1.
    10030    2    1    2    0    0  0.00000000000E+00  0.00000000000E+00 -0.93721339430E+03  0.14610808666E+04  0.11208873058E+04 0.  0.
        3    1    3    3  502    0 -0.18416199528E+03 -0.33164205078E+03 -0.10063632182E+04  0.10754854845E+04  0.10100000352E+00 0.  1.
       -3    1    3    3    0  502  0.18416199528E+03  0.33164205078E+03  0.69149823851E+02  0.38559538209E+03  0.10100000352E+00 0. -1.
</event>
<event>
 5   0  0.9358428E-04  0.1201559E+04  0.7818609E-02  0.9111493E-01
        1   -1    0    0  501    0  0.00000000000E+00  0.00000000000E+00  0.58004229826E+03  0.58004229828E+03  0.50400001928E-02 0.  1.
       -1   -1    0    0    0  501  0.00000000000E+00  0.00000000000E+00 -0.62225828474E+03  0.62225828476E+03  0.50400001928E-02 0. -1.
    10030    2    1    2    0    0  0.00000000000E+00  0.00000000000E+00 -0.42215986476E+02  0.12023005830E+04  0.12015591964E+04 0.  0.
        2    1    3    3  502    0  0.38796147827E+02  0.20172469670E+02 -0.62066386476E+03  0.62220230041E+03  0.25500000920E-02 0. -1.
       -2    1    3    3    0  502 -0.38796147827E+02 -0.20172469670E+02  0.57844787828E+03  0.58009828263E+03  0.25500000920E-02 0.  1.
</event>
<event>
 5   0  0.1537557E-03  0.1201876E+04  0.7818609E-02  0.9111216E-01
        2   -1    0    0  501    0  0.00000000000E+00  0.00000000000E+00  0.11948655384E+04  0.11948655384E+04  0.25500000920E-02 0.  1.
       -2   -1    0    0    0  501  0.00000000000E+00  0.00000000000E+00 -0.30223171205E+03  0.30223171206E+03  0.25500000920E-02 0. -1.
    10030    2    1    2    0    0  0.00000000000E+00  0.00000000000E+00  0.89263382637E+03  0.14970972505E+04  0.12018756298E+04 0.  0.
        2    1    3    3  502    0  0.95966474357E+02  0.12292757050E+03 -0.27658616602E+03  0.31752269057E+03  0.25500000920E-02 0. -1.
       -2    1    3    3    0  502 -0.95966474357E+02 -0.12292757050E+03  0.11692199924E+04  0.11795745599E+04  0.25500000920E-02 0.  1.
</event>
<event>
 5   0  0.1597352E-03  0.1204235E+04  0.7818609E-02  0.9109158E-01
       -2   -1    0    0    0  501  0.00000000000E+00  0.00000000000E+00  0.17514413392E+03  0.17514413394E+03  0.25500000920E-02 0. -1.
        2   -1    0    0  501    0  0.00000000000E+00  0.00000000000E+00 -0.20699825049E+04  0.20699825049E+04  0.25500000920E-02 0.  1.
    10030    2    1    2    0    0  0.00000000000E+00  0.00000000000E+00 -0.18948383710E+04  0.22451266389E+04  0.12042346832E+04 0.  0.
        1    1    3    3  502    0 -0.60613941627E+02  0.42973662320E+02  0.16656423194E+03  0.18238538582E+03  0.50400001928E-02 0. -1.
       -1    1    3    3    0  502  0.60613941627E+02 -0.42973662320E+02 -0.20614026029E+04  0.20627412530E+04  0.50400001928E-02 0.  1.
</event>
<event>
 5   0  0.9169078E-04  0.1170149E+04  0.7818609E-02  0.9139393E-01
       -1   -1    0    0    0  501  0.00000000000E+00  0.00000000000E+00  0.71189475803E+03  0.71189475805E+03  0.50400001928E-02 0.  1.
        1   -1    0    0  501    0  0.00000000000E+00  0.00000000000E+00 -0.48084695365E+03  0.48084695368E+03  0.50400001928E-02 0. -1.
    10030    2    1    2    0    0  0.00000000000E+00  0.00000000000E+00  0.23104780438E+03  0.11927417117E+04  0.11701494362E+04 0.  0.
        1    1    3    3  502    0 -0.18037021257E+03 -0.21879114303E+02  0.68240928898E+03  0.70618308316E+03  0.50400001928E-02 0.  1.
       -1    1    3    3    0  502  0.18037021257E+03  0.21879114303E+02 -0.45136148461E+03  0.48655862857E+03  0.50400001928E-02 0. -1.
</event>
<event>
 5   0  0.9358428E-04  0.1196050E+04  0.7818609E-02  0.9116321E-01
       -1   -1    0    0    0  501  0.00000000000E+00  0.00000000000E+00  0.35869932761E+03  0.35869932765E+03  0.50400001928E-02 0. -1.
        1   -1    0    0  501    0  0.00000000000E+00  0.00000000000E+00 -0.99703009719E+03  0.99703009721E+03  0.50400001928E-02 0.  1.
    10030    2    1    2    0    0  0.00000000000E+00  0.00000000000E+00 -0.63833076958E+03  0.13557294249E+04  0.11960502088E+04 0.  0.
        2    1    3    3  502    0  0.38274487828E+03 -0.48852010555E+02 -0.83705937707E+03  0.92170958633E+03  0.25500000920E-02 0.  1.
       -2    1    3    3    0  502 -0.38274487828E+03  0.48852010555E+02  0.19872860749E+03  0.43401983852E+03  0.25500000920E-02 0. -1.
</event>
<event>
 5   0  0.1537557E-03  0.1198927E+04  0.7818609E-02  0.9113797E-01
        2   -1    0    0  501    0  0.00000000000E+00  0.00000000000E+00  0.10409190667E+04  0.10409190667E+04  0.25500000920E-02 0. -1.
       -2   -1    0    0    0  501  0.00000000000E+00  0.00000000000E+00 -0.34522977343E+03  0.34522977344E+03  0.25500000920E-02 0.  1.
    10030    2    1    2    0    0  0.00000000000E+00  0.00000000000E+00  0.69568929326E+03  0.13861488401E+04  0.11989266092E+04 0.  0.
        2    1    3    3  502    0 -0.40158481296E+03 -0.42386027365E+03  0.19089490309E+03  0.61430347355E+03  0.25500000920E-02 0.  1.
       -2    1    3    3    0  502  0.40158481296E+03  0.42386027365E+03  0.50479439018E+03  0.77184536660E+03  0.25500000920E-02 0. -1.
</event>
<event>
 5   0  0.1551501E-03  0.1218257E+04  0.7818609E-02  0.9097025E-01
        2   -1    0    0  501    0  0.00000000000E+00  0.00000000000E+00  0.10071747552E+04  0.10071747552E+04  0.25500000920E-02 0.  1.
       -2   -1    0    0    0  501  0.00000000000E+00  0.00000000000E+00 -0.36839416080E+03  0.36839416081E+03  0.25500000920E-02 0. -1.
    10030    2    1    2    0    0  0.00000000000E+00  0.00000000000E+00  0.63878059441E+03  0.13755689160E+04  0.12182566211E+04 0.  0.
        4    1    3    3  502    0 -0.40464741512E+03  0.26645233621E+03 -0.97469869761E+02  0.49420478189E+03  0.12699999809E+01 0. -1.
       -4    1    3    3    0  502  0.40464741512E+03 -0.26645233621E+03  0.73625046417E+03  0.88136413413E+03  0.12699999809E+01 0.  1.
</event>
<event>
 5   0  0.1647550E-03  0.1183810E+04  0.7818609E-02  0.9127147E-01
        2   -1    0    0  501    0  0.00000000000E+00  0.00000000000E+00  0.73065069936E+03  0.73065069936E+03  0.25500000920E-02 0. -1.
       -2   -1    0    0    0  501  0.00000000000E+00  0.00000000000E+00 -0.47950624719E+03  0.47950624720E+03  0.25500000920E-02 0.  1.
    10030    2    1    2    0    0  0.00000000000E+00  0.00000000000E+00  0.25114445217E+03  0.12101569466E+04  0.11838100774E+04 0.  0.
        3    1    3    3  502    0  0.35330740407E+03 -0.42694767679E+03 -0.87000799269E+02  0.56096309126E+03  0.10100000352E+00 0. -1.
       -3    1    3    3    0  502 -0.35330740407E+03  0.42694767679E+03  0.33814525143E+03  0.64919385529E+03  0.10100000352E+00 0.  1.
</event>
<event>
 5   0  0.1567019E-03  0.1199130E+04  0.7818609E-02  0.9113618E-01
        2   -1    0    0  501    0  0.00000000000E+00  0.00000000000E+00  0.73682500256E+03  0.73682500256E+03  0.25500000920E-02 0. -1.
       -2   -1    0    0    0  501  0.00000000000E+00  0.00000000000E+00 -0.48787447956E+03  0.48787447956E+03  0.25500000920E-02 0.  1.
    10030    2    1    2    0    0  0.00000000000E+00  0.00000000000E+00  0.24895052300E+03  0.12246994821E+04  0.11991298756E+04 0.  0.
        5    1    3    3  502    0  0.50864068250E+03 -0.26272860425E+03 -0.57407397839E+02  0.57537758273E+03  0.46999998093E+01 0. -1.
       -5    1    3    3    0  502 -0.50864068250E+03  0.26272860425E+03  0.30635792084E+03  0.64932189940E+03  0.46999998093E+01 0.  1.
</event>
<event>
 5   0  0.8908478E-04  0.1211344E+04  0.7818609E-02  0.9102984E-01
        1   -1    0    0  501    0  0.00000000000E+00  0.00000000000E+00  0.25717198080E+03  0.25717198085E+03  0.50400001928E-02 0. -1.
       -1   -1    0    0    0  501  0.00000000000E+00  0.00000000000E+00 -0.14264335947E+04  0.14264335947E+04  0.50400001928E-02 0.  1.
    10030    2    1    2    0    0  0.00000000000E+00  0.00000000000E+00 -0.11692616139E+04  0.16836055755E+04  0.12113442996E+04 0.  0.
        4    1    3    3  502    0  0.28191733216E+03 -0.35759659784E+03 -0.11396805453E+04  0.12272840206E+04  0.12699999809E+01 0.  1.
       -4    1    3    3    0  502 -0.28191733216E+03  0.35759659784E+03 -0.29581068542E+02  0.45632155491E+03  0.12699999809E+01 0. -1.
</event>
<event>
 5   0  0.9208078E-04  0.1202836E+04  0.7818609E-02  0.9110378E-01
       -1   -1    0    0    0  501  0.00000000000E+00  0.00000000000E+00  0.11572605313E+04  0.11572605313E+04  0.50400001928E-02 0.  1.
        1   -1    0    0  501    0  0.00000000000E+00  0.00000000000E+00 -0.31255166521E+03  0.31255166525E+03  0.50400001928E-02 0. -1.
    10030    2    1    2    0    0  0.00000000000E+00  0.00000000000E+00  0.84470886612E+03  0.14698121966E+04  0.12028361587E+04 0.  0.
        3    1    3    3  502    0 -0.48627036112E+03  0.22737928814E+03  0.75373534828E+03  0.92535246811E+03  0.10100000352E+00 0.  1.
       -3    1    3    3    0  502  0.48627036112E+03 -0.22737928814E+03  0.90973517834E+02  0.54445972847E+03  0.10100000352E+00 0. -1.
</event>
<event>
 5   0  0.9169078E-04  0.1213280E+04  0.7818609E-02  0.9101312E-01
        1   -1    0    0  501    0  0.00000000000E+00  0.00000000000E+00  0.12707954031E+04  0.12707954031E+04  0.50400001928E-02 0.  1.
       -1   -1    0    0    0  501  0.00000000000E+00  0.00000000000E+00 -0.28959172916E+03  0.28959172920E+03  0.50400001928E-02 0. -1.
    10030    2    1    2    0    0  0.00000000000E+00  0.00000000000E+00  0.98120367391E+03  0.15603871323E+04  0.12132795856E+04 0.  0.
        1    1    3    3  502    0  0.13047714524E+03  0.17452951202E+03 -0.23751953846E+03  0.32233579877E+03  0.50400001928E-02 0. -1.
       -1    1    3    3    0  502 -0.13047714524E+03 -0.17452951202E+03  0.12187232124E+04  0.12380513335E+04  0.50400001928E-02 0.  1.
</event>
<event>
 5   0  0.1551501E-03  0.1270447E+04  0.7818609E-02  0.9053335E-01
        2   -1    0    0  501    0  0.00000000000E+00  0.00000000000E+00  0.10179935817E+04  0.10179935817E+04  0.25500000920E-02 0. -1.
       -2   -1    0    0    0  501  0.00000000000E+00  0.00000000000E+00 -0.39637674367E+03  0.39637674368E+03  0.25500000920E-02 0.  1.
    10030    2    1    2    0    0  0.00000000000E+00  0.00000000000E+00  0.62161683799E+03  0.14143703253E+04  0.12704471354E+04 0.  0.
        4    1    3    3  502    0 -0.73589442935E+01 -0.11938916322E+03  0.10053410292E+04  0.10124327752E+04  0.12699999809E+01 0. -1.
       -4    1    3    3    0  502  0.73589442935E+01  0.11938916322E+03 -0.38372419125E+03  0.40193755013E+03  0.12699999809E+01 0.  1.
</event>
<event>
 5   0  0.1551501E-03  0.1115532E+04  0.7818609E-02  0.9190184E-01
        2   -1    0    0  501    0  0.00000000000E+00  0.00000000000E+00  0.45150408949E+03  0.45150408950E+03  0.25500000920E-02 0. -1.
       -2   -1    0    0    0  501  0.00000000000E+00  0.00000000000E+00 -0.68903637757E+03  0.68903637758E+03  0.25500000920E-02 0.  1.
    10030    2    1    2    0    0  0.00000000000E+00  0.00000000000E+00 -0.23753228808E+03  0.11405404671E+04  0.11155316980E+04 0.  0.
        4    1    3    3  502    0 -0.54518534289E+02 -0.42071469646E+03 -0.48900032139E+03  0.64737628441E+03  0.12699999809E+01 0.  1.
       -4    1    3    3    0  502  0.54518534289E+02  0.42071469646E+03  0.25146803330E+03  0.49316418267E+03  0.12699999809E+01 0. -1.
</event>
<event>
 5   0  0.9170776E-04  0.1197310E+04  0.7818609E-02  0.9115214E-01
        1   -1    0    0  501    0  0.00000000000E+00  0.00000000000E+00  0.67172537312E+03  0.67172537314E+03  0.50400001928E-02 0. -1.
       -1   -1    0    0    0  501  0.00000000000E+00  0.00000000000E+00 -0.53353353060E+03  0.53353353063E+03  0.50400001928E-02 0.  1.
    10030    2    1    2    0    0  0.00000000000E+00  0.00000000000E+00  0.13819184252E+03  0.12052589038E+04  0.11973103356E+04 0.  0.
        5    1    3    3  502    0  0.11180417709E+03 -0.26140415615E+02  0.66051857339E+03  0.67044043071E+03  0.46999998093E+01 0. -1.
       -5    1    3    3    0  502 -0.11180417709E+03  0.26140415615E+02 -0.52232673087E+03  0.53481847306E+03  0.46999998093E+01 0.  1.
</event>
<event>
 5   0  0.1537557E-03  0.1211458E+04  0.7818609E-02  0.9102886E-01
        2   -1    0    0  501    0  0.00000000000E+00  0.00000000000E+00  0.11359788023E+04  0.11359788023E+04  0.25500000920E-02 0.  1.
       -2   -1    0    0    0  501  0.00000000000E+00  0.00000000000E+00 -0.32298784456E+03  0.32298784457E+03  0.25500000920E-02 0. -1.
    10030    2    1    2    0    0  0.00000000000E+00  0.00000000000E+00  0.81299095770E+03  0.14589666468E+04  0.12114575433E+04 0.  0.
        2    1    3    3  502    0 -0.13771700687E+03  0.46746804810E+03 -0.26745436621E+02  0.48806522962E+03  0.25500000920E-02 0. -1.
       -2    1    3    3    0  502  0.13771700687E+03 -0.46746804810E+03  0.83973639433E+03  0.97090141721E+03  0.25500000920E-02 0.  1.
</event>
<event>
 5   0  0.9358428E-04  0.1199971E+04  0.7818609E-02  0.9112882E-01
       -1   -1    0    0    0  501  0.00000000000E+00  0.00000000000E+00  0.74837483116E+03  0.74837483118E+03  0.50400001928E-02 0. -1.
        1   -1    0    0  501    0  0.00000000000E+00  0.00000000000E+00 -0.48101901863E+03  0.48101901866E+03  0.50400001928E-02 0.  1.
    10030    2    1    2    0    0  0.00000000000E+00  0.00000000000E+00  0.26735581252E+03  0.12293938498E+04  0.11999708778E+04 0.  0.
        2    1    3    3  502    0 -0.39579017647E+03  0.31947632885E+03  0.45970632423E+03  0.68559820086E+03  0.25500000920E-02 0. -1.
       -2    1    3    3    0  502  0.39579017647E+03 -0.31947632885E+03 -0.19235051171E+03  0.54379564897E+03  0.25500000920E-02 0.  1.
</event>
<event>
 5   0  0.9208078E-04  0.1208145E+04  0.7818609E-02  0.9105757E-01
        1   -1    0    0  501    0  0.00000000000E+00  0.00000000000E+00  0.57279852346E+03  0.57279852348E+03  0.50400001928E-02 0. -1.
       -1   -1    0    0    0  501  0.00000000000E+00  0.00000000000E+00 -0.63705450056E+03  0.63705450058E+03  0.50400001928E-02 0.  1.
    10030    2    1    2    0    0  0.00000000000E+00  0.00000000000E+00 -0.64255977096E+02  0.12098530241E+04  0.12081454835E+04 0.  0.
        3    1    3    3  502    0  0.46521331158E+03 -0.31918255743E+03  0.18405425659E+03  0.59344495095E+03  0.10100000352E+00 0. -1.
       -3    1    3    3    0  502 -0.46521331158E+03  0.31918255743E+03 -0.24831023369E+03  0.61640807311E+03  0.10100000352E+00 0.  1.
</event>
<event>
 5   0  0.1567019E-03  0.1203661E+04  0.7818609E-02  0.9109658E-01
       -2   -1    0    0    0  501  0.00000000000E+00  0.00000000000E+00  0.64443434133E+03  0.64443434133E+03  0.25500000920E-02 0. -1.
        2   -1    0    0  501    0  0.00000000000E+00  0.00000000000E+00 -0.56204360442E+03  0.56204360443E+03  0.25500000920E-02 0.  1.
    10030    2    1    2    0    0  0.00000000000E+00  0.00000000000E+00  0.82390736908E+02  0.12064779458E+04  0.12036614142E+04 0.  0.
        5    1    3    3  502    0  0.51637838147E+03  0.16094548802E+03  0.30568405117E+03  0.62130098350E+03  0.46999998093E+01 0.  1.
       -5    1    3    3    0  502 -0.51637838147E+03 -0.16094548802E+03 -0.22329331426E+03  0.58517696226E+03  0.46999998093E+01 0. -1.
</event>
<event>
 5   0  0.1597352E-03  0.1202097E+04  0.7818609E-02  0.9111023E-01
       -2   -1    0    0    0  501  0.00000000000E+00  0.00000000000E+00  0.31303207964E+03  0.31303207965E+03  0.25500000920E-02 0.  1.
        2   -1    0    0  501    0  0.00000000000E+00  0.00000000000E+00 -0.11540652977E+04  0.11540652977E+04  0.25500000920E-02 0. -1.
    10030    2    1    2    0    0  0.00000000000E+00  0.00000000000E+00 -0.84103321809E+03  0.14670973774E+04  0.12020972676E+04 0.  0.
        1    1    3    3  502    0 -0.40859451782E+03 -0.44020491158E+03 -0.44860325506E+03  0.74964973464E+03  0.50400001928E-02 0.  1.
       -1    1    3    3    0  502  0.40859451782E+03  0.44020491158E+03 -0.39242996303E+03  0.71744764274E+03  0.50400001928E-02 0. -1.
</event>
<event>
 5   0  0.8908478E-04  0.1192551E+04  0.7818609E-02  0.9119402E-01
       -1   -1    0    0    0  501  0.00000000000E+00  0.00000000000E+00  0.21456021928E+03  0.21456021934E+03  0.50400001928E-02 0. -1.
        1   -1    0    0  501    0  0.00000000000E+00  0.00000000000E+00 -0.16570843332E+04  0.16570843332E+04  0.50400001928E-02 0.  1.
    10030    2    1    2    0    0  0.00000000000E+00  0.00000000000E+00 -0.14425241139E+04  0.18716445526E+04  0.11925508425E+04 0.  0.
        4    1    3    3  502    0  0.44264408112E+03 -0.32303464835E+02 -0.13462199807E+04  0.14174932613E+04  0.12699999809E+01 0.  1.
       -4    1    3    3    0  502 -0.44264408112E+03  0.32303464835E+02 -0.96304133201E+02  0.45415129127E+03  0.12699999809E+01 0. -1.
</event>
<event>
 5   0  0.8908478E-04  0.1208751E+04  0.7818609E-02  0.9105231E-01
        1   -1    0    0  501    0  0.00000000000E+00  0.00000000000E+00  0.11303530741E+04  0.11303530741E+04  0.50400001928E-02 0. -1.
       -1   -1    0    0    0  501  0.00000000000E+00  0.00000000000E+00 -0.32314658276E+03  0.32314658280E+03  0.50400001928E-02 0.  1.
    10030    2    1    2    0    0  0.00000000000E+00  0.00000000000E+00  0.80720649130E+03  0.14534996569E+04  0.12087509805E+04 0.  0.
        4    1    3    3  502    0 -0.41483824770E+03  0.43761041646E+03  0.45280912944E+03  0.75407650073E+03  0.12699999809E+01 0. -1.
       -4    1    3    3    0  502  0.41483824770E+03 -0.43761041646E+03  0.35439736185E+03  0.69942315614E+03  0.12699999809E+01 0.  1.
</event>
<event>
 5   0  0.9208078E-04  0.1195218E+04  0.7818609E-02  0.9117053E-01
       -1   -1    0    0    0  501  0.00000000000E+00  0.00000000000E+00  0.42859605713E+03  0.42859605716E+03  0.50400001928E-02 0. -1.
        1   -1    0    0  501    0  0.00000000000E+00  0.00000000000E+00 -0.83327063792E+03  0.83327063793E+03  0.50400001928E-02 0.  1.
    10030    2    1    2    0    0  0.00000000000E+00  0.00000000000E+00 -0.40467458079E+03  0.12618666951E+04  0.11952179884E+04 0.  0.
        3    1    3    3  502    0 -0.20134647602E+03  0.39213402142E+03 -0.62835688556E+03  0.76755578299E+03  0.10100000352E+00 0.  1.
       -3    1    3    3    0  502  0.20134647602E+03 -0.39213402142E+03  0.22368230478E+03  0.49431091211E+03  0.10100000352E+00 0. -1.
</event>
<event>
 5   0  0.1551501E-03  0.1203102E+04  0.7818609E-02  0.9110146E-01
        2   -1    0    0  501    0  0.00000000000E+00  0.00000000000E+00  0.16926438763E+04  0.16926438763E+04  0.25500000920E-02 0.  1.
       -2   -1    0    0    0  501  0.00000000000E+00  0.00000000000E+00 -0.21378589154E+03  0.21378589155E+03  0.25500000920E-02 0. -1.
    10030    2    1    2    0    0  0.00000000000E+00  0.00000000000E+00  0.14788579848E+04  0.19064297679E+04  0.12031016253E+04 0.  0.
        4    1    3    3  502    0 -0.53286333992E+03  0.26923551400E+03  0.62265528902E+03  0.86263104678E+03  0.12699999809E+01 0.  1.
       -4    1    3    3    0  502  0.53286333992E+03 -0.26923551400E+03  0.85620269577E+03  0.10437987211E+04  0.12699999809E+01 0. -1.
</event>
<event>
 5   0  0.9170776E-04  0.1200318E+04  0.7818609E-02  0.9112579E-01
       -1   -1    0    0    0  501  0.00000000000E+00  0.00000000000E+00  0.30074735203E+03  0.30074735208E+03  0.50400001928E-02 0.  1.
        1   -1    0    0  501    0  0.00000000000E+00  0.00000000000E+00 -0.11976517387E+04  0.11976517387E+04  0.50400001928E-02 0. -1.
    10030    2    1    2    0    0  0.00000000000E+00  0.00000000000E+00 -0.89690438665E+03  0.14983990908E+04  0.12003176065E+04 0.  0.
        5    1    3    3  502    0 -0.21215565794E+03  0.49283405231E+03 -0.78405036355E+03  0.95008025392E+03  0.46999998093E+01 0. -1.
       -5    1    3    3    0  502  0.21215565794E+03 -0.49283405231E+03 -0.11285402309E+03  0.54831883684E+03  0.46999998093E+01 0.  1.
</event>
<event>
 5   0  0.1647550E-03  0.1202128E+04  0.7818609E-02  0.9110996E-01
       -2   -1    0    0    0  501  0.00000000000E+00  0.00000000000E+00  0.43121623370E+03  0.43121623371E+03  0.25500000920E-02 0.  1.
        2   -1    0    0  501    0  0.00000000000E+00  0.00000000000E+00 -0.83781177427E+03  0.83781177428E+03  0.25500000920E-02 0. -1.
    10030    2    1    2    0    0  0.00000000000E+00  0.00000000000E+00 -0.40659554057E+03  0.12690280080E+04  0.12021281760E+04 0.  0.
        3    1    3    3  502    0 -0.44095348069E+03  0.18005256262E+03  0.18373788096E+03  0.51050809644E+03  0.10100000352E+00 0.  1.
       -3    1    3    3    0  502  0.44095348069E+03 -0.18005256262E+03 -0.59033342153E+03  0.75851991155E+03  0.10100000352E+00 0. -1.
</event>
<event>
 5   0  0.1647550E-03  0.1204689E+04  0.7818609E-02  0.9108762E-01
        2   -1    0    0  501    0  0.00000000000E+00  0.00000000000E+00  0.17870862477E+04  0.17870862477E+04  0.25500000920E-02 0.  1.
       -2   -1    0    0    0  501  0.00000000000E+00  0.00000000000E+00 -0.20302267416E+03  0.20302267417E+03  0.25500000920E-02 0. -1.
    10030    2    1    2    0    0  0.00000000000E+00  0.00000000000E+00  0.15840635736E+04  0.19901089219E+04  0.12046892196E+04 0.  0.
        3    1    3    3  502    0 -0.22518123253E+01 -0.43512649029E+03  0.14800899227E+04  0.15427269112E+04  0.10100000352E+00 0.  1.
       -3    1    3    3    0  502  0.22518123253E+01  0.43512649029E+03  0.10397365091E+03  0.44738201070E+03  0.10100000352E+00 0. -1.
</event>
<event>
 5   0  0.9170776E-04  0.1199512E+04  0.7818609E-02  0.9113284E-01
       -1   -1    0    0    0  501  0.00000000000E+00  0.00000000000E+00  0.32156383065E+03  0.32156383069E+03  0.50400001928E-02 0. -1.
        1   -1    0    0  501    0  0.00000000000E+00  0.00000000000E+00 -0.11186187629E+04  0.11186187629E+04  0.50400001928E-02 0.  1.
    10030    2    1    2    0    0  0.00000000000E+00  0.00000000000E+00 -0.79705493223E+03  0.14401825936E+04  0.11995121249E+04 0.  0.
        5    1    3    3  502    0  0.17206100667E+03 -0.28523482475E+03  0.20025551454E+03  0.38870072854E+03  0.46999998093E+01 0. -1.
       -5    1    3    3    0  502 -0.17206100667E+03  0.28523482475E+03 -0.99731044677E+03  0.10514818650E+04  0.46999998093E+01 0.  1.
</event>
<event>
 5   0  0.9170776E-04  0.1193217E+04  0.7818609E-02  0.9118814E-01
       -1   -1    0    0    0  501  0.00000000000E+00  0.00000000000E+00  0.12134236207E+04  0.12134236207E+04  0.50400001928E-02 0. -1.
        1   -1    0    0  501    0  0.00000000000E+00  0.00000000000E+00 -0.29333673795E+03  0.29333673799E+03  0.50400001928E-02 0.  1.
    10030    2    1    2    0    0  0.00000000000E+00  0.00000000000E+00  0.92008688273E+03  0.15067603587E+04  0.11932170409E+04 0.  0.
        5    1    3    3  502    0  0.28338943691E+03  0.50841973703E+03  0.62526604020E+03  0.85427156864E+03  0.46999998093E+01 0.  1.
       -5    1    3    3    0  502 -0.28338943691E+03 -0.50841973703E+03  0.29482084253E+03  0.65248879005E+03  0.46999998093E+01 0.  1.
</event>
<event>
 5   0  0.1647550E-03  0.1210498E+04  0.7818609E-02  0.9103717E-01
       -2   -1    0    0    0  501  0.00000000000E+00  0.00000000000E+00  0.30197462243E+03  0.30197462244E+03  0.25500000920E-02 0.  1.
        2   -1    0    0  501    0  0.00000000000E+00  0.00000000000E+00 -0.12131030442E+04  0.12131030442E+04  0.25500000920E-02 0. -1.
    10030    2    1    2    0    0  0.00000000000E+00  0.00000000000E+00 -0.91112842180E+03  0.15150776667E+04  0.12104979699E+04 0.  0.
        3    1    3    3  502    0  0.31519250412E+03  0.46202264849E+03 -0.74510444775E+03  0.93166082381E+03  0.10100000352E+00 0. -1.
       -3    1    3    3    0  502 -0.31519250412E+03 -0.46202264849E+03 -0.16602397405E+03  0.58341684285E+03  0.10100000352E+00 0.  1.
</event>
<event>
 5   0  0.6137750E-04  0.1206386E+04  0.7818609E-02  0.9107285E-01
       -3   -1    0    0    0  501  0.00000000000E+00  0.00000000000E+00  0.69350618442E+03  0.69350619178E+03  0.10100000352E+00 0. -1.
        3   -1    0    0  501    0  0.00000000000E+00  0.00000000000E+00 -0.52464120770E+03  0.52464121742E+03  0.10100000352E+00 0.  1.
    10030    2    1    2    0    0  0.00000000000E+00  0.00000000000E+00  0.16886497672E+03  0.12181474092E+04  0.12063862276E+04 0.  0.
        4    1    3    3  502    0 -0.38878666698E+03  0.18083594834E+03 -0.34394826564E+03  0.54968967151E+03  0.12699999809E+01 0.  1.
       -4    1    3    3    0  502  0.38878666698E+03 -0.18083594834E+03  0.51281324236E+03  0.66845773769E+03  0.12699999809E+01 0. -1.
</event>
<event>
 5   0  0.1537557E-03  0.1182962E+04  0.7818609E-02  0.9127902E-01
       -2   -1    0    0    0  501  0.00000000000E+00  0.00000000000E+00  0.90011873746E+03  0.90011873746E+03  0.25500000920E-02 0. -1.
        2   -1    0    0  501    0  0.00000000000E+00  0.00000000000E+00 -0.38867057643E+03  0.38867057644E+03  0.25500000920E-02 0.  1.
    10030    2    1    2    0    0  0.00000000000E+00  0.00000000000E+00  0.51144816102E+03  0.12887893139E+04  0.11829618228E+04 0.  0.
        2    1    3    3  502    0 -0.29479509950E+03 -0.16724590274E+03  0.78383044755E+03  0.85397044047E+03  0.25500000920E-02 0. -1.
       -2    1    3    3    0  502  0.29479509950E+03  0.16724590274E+03 -0.27238228653E+03  0.43481887343E+03  0.25500000920E-02 0.  1.
</event>
<event>
 5   0  0.1597352E-03  0.1201173E+04  0.7818609E-02  0.9111830E-01
       -2   -1    0    0    0  501  0.00000000000E+00  0.00000000000E+00  0.13124217878E+03  0.13124217881E+03  0.25500000920E-02 0. -1.
        2   -1    0    0  501    0  0.00000000000E+00  0.00000000000E+00 -0.27483872813E+04  0.27483872813E+04  0.25500000920E-02 0.  1.
    10030    2    1    2    0    0  0.00000000000E+00  0.00000000000E+00 -0.26171451025E+04  0.28796294601E+04  0.12011733180E+04 0.  0.
        1    1    3    3  502    0  0.36724826800E+03 -0.30758121250E+03 -0.21770174546E+04  0.22290990311E+04  0.50400001928E-02 0.  1.
       -1    1    3    3    0  502 -0.36724826800E+03  0.30758121250E+03 -0.44012764794E+03  0.65053042906E+03  0.50400001928E-02 0. -1.
</event>
<event>
 5   0  0.9169078E-04  0.1151838E+04  0.7818609E-02  0.9156090E-01
       -1   -1    0    0    0  501  0.00000000000E+00  0.00000000000E+00  0.25086470429E+03  0.25086470434E+03  0.50400001928E-02 0.  1.
        1   -1    0    0  501    0  0.00000000000E+00  0.00000000000E+00 -0.13221568498E+04  0.13221568499E+04  0.50400001928E-02 0. -1.
    10030    2    1    2    0    0  0.00000000000E+00  0.00000000000E+00 -0.10712921456E+04  0.15730215542E+04  0.11518376400E+04 0.  0.
        1    1    3    3  502    0 -0.61294566780E+01  0.57546395563E+03 -0.56575739088E+03  0.80701781878E+03  0.50400001928E-02 0. -1.
       -1    1    3    3    0  502  0.61294566780E+01 -0.57546395563E+03 -0.50553475468E+03  0.76600373542E+03  0.50400001928E-02 0.  1.
</event>
<event>
 5   0  0.1551501E-03  0.1203081E+04  0.7818609E-02  0.9110164E-01
       -2   -1    0    0    0  501  0.00000000000E+00  0.00000000000E+00  0.50450403044E+03  0.50450403044E+03  0.25500000920E-02 0. -1.
        2   -1    0    0  501    0  0.00000000000E+00  0.00000000000E+00 -0.71724145179E+03  0.71724145179E+03  0.25500000920E-02 0.  1.
    10030    2    1    2    0    0  0.00000000000E+00  0.00000000000E+00 -0.21273742135E+03  0.12217454822E+04  0.12030813825E+04 0.  0.
        4    1    3    3  502    0  0.41767880618E+03 -0.34491732081E+03  0.15927311799E+03  0.56461764261E+03  0.12699999809E+01 0. -1.
       -4    1    3    3    0  502 -0.41767880618E+03  0.34491732081E+03 -0.37201053934E+03  0.65712783963E+03  0.12699999809E+01 0.  1.
</event>
<event>
 5   0  0.1551501E-03  0.1197210E+04  0.7818609E-02  0.9115302E-01
        2   -1    0    0  501    0  0.00000000000E+00  0.00000000000E+00  0.99343977327E+03  0.99343977327E+03  0.25500000920E-02 0. -1.
       -2   -1    0    0    0  501  0.00000000000E+00  0.00000000000E+00 -0.36069427772E+03  0.36069427773E+03  0.25500000920E-02 0.  1.
    10030    2    1    2    0    0  0.00000000000E+00  0.00000000000E+00  0.63274549555E+03  0.13541340510E+04  0.11972101595E+04 0.  0.
        4    1    3    3  502    0 -0.10535541952E+03 -0.45929966243E+03  0.73390705441E+03  0.87216805820E+03  0.12699999809E+01 0. -1.
       -4    1    3    3    0  502  0.10535541952E+03  0.45929966243E+03 -0.10116155886E+03  0.48196599280E+03  0.12699999809E+01 0.  1.
</event>
<event>
 5   0  0.1647550E-03  0.1207913E+04  0.7818609E-02  0.9105959E-01
       -2   -1    0    0    0  501  0.00000000000E+00  0.00000000000E+00  0.35871697721E+03  0.35871697722E+03  0.25500000920E-02 0.  1.
        2   -1    0    0  501    0  0.00000000000E+00  0.00000000000E+00 -0.10168552236E+04  0.10168552236E+04  0.25500000920E-02 0. -1.
    10030    2    1    2    0    0  0.00000000000E+00  0.00000000000E+00 -0.65813824638E+03  0.13755722008E+04  0.12079126327E+04 0.  0.
        3    1    3    3  502    0  0.22054291093E+02 -0.26923360167E+03 -0.94422211713E+03  0.98210413944E+03  0.10100000352E+00 0. -1.
       -3    1    3    3    0  502 -0.22054291093E+02  0.26923360167E+03  0.28608387074E+03  0.39346806138E+03  0.10100000352E+00 0.  1.
</event>
<event>
 5   0  0.8908478E-04  0.1208510E+04  0.7818609E-02  0.9105440E-01
       -1   -1    0    0    0  501  0.00000000000E+00  0.00000000000E+00  0.73749293819E+03  0.73749293821E+03  0.50400001928E-02 0. -1.
        1   -1    0    0  501    0  0.00000000000E+00  0.00000000000E+00 -0.49508818711E+03  0.49508818714E+03  0.50400001928E-02 0.  1.
    10030    2    1    2    0    0  0.00000000000E+00  0.00000000000E+00  0.24240475108E+03  0.12325811253E+04  0.12085098954E+04 0.  0.
        4    1    3    3  502    0 -0.24783143345E+03  0.54030019335E+03  0.23188915233E+03  0.63805870436E+03  0.12699999809E+01 0. -1.
       -4    1    3    3    0  502  0.24783143345E+03 -0.54030019335E+03  0.10515598746E+02  0.59452242098E+03  0.12699999809E+01 0.  1.
</event>
<event>
 5   0  0.9358428E-04  0.1203366E+04  0.7818609E-02  0.9109916E-01
        1   -1    0    0  501    0  0.00000000000E+00  0.00000000000E+00  0.92063869823E+03  0.92063869824E+03  0.50400001928E-02 0. -1.
       -1   -1    0    0    0  501  0.00000000000E+00  0.00000000000E+00 -0.39322946964E+03  0.39322946967E+03  0.50400001928E-02 0.  1.
    10030    2    1    2    0    0  0.00000000000E+00  0.00000000000E+00  0.52740922859E+03  0.13138681679E+04  0.12033657251E+04 0.  0.
        2    1    3    3  502    0  0.27779707897E+03  0.17295415108E+03 -0.28757427916E+03  0.43564127617E+03  0.25500000920E-02 0.  1.
       -2    1    3    3    0  502 -0.27779707897E+03 -0.17295415108E+03  0.81498350776E+03  0.87822689174E+03  0.25500000920E-02 0. -1.
</event>
<event>
 5   0  0.1647550E-03  0.1206952E+04  0.7818609E-02  0.9106793E-01
       -2   -1    0    0    0  501  0.00000000000E+00  0.00000000000E+00  0.10931462346E+04  0.10931462346E+04  0.25500000920E-02 0. -1.
        2   -1    0    0  501    0  0.00000000000E+00  0.00000000000E+00 -0.33315128781E+03  0.33315128782E+03  0.25500000920E-02 0.  1.
    10030    2    1    2    0    0  0.00000000000E+00  0.00000000000E+00  0.75999494675E+03  0.14262975224E+04  0.12069516574E+04 0.  0.
        3    1    3    3  502    0  0.28762147905E+03  0.32144157044E+03  0.87875739738E+03  0.97891029828E+03  0.10100000352E+00 0. -1.
       -3    1    3    3    0  502 -0.28762147905E+03 -0.32144157044E+03 -0.11876245063E+03  0.44738722411E+03  0.10100000352E+00 0.  1.
</event>
<event>
 5   0  0.1551501E-03  0.1193282E+04  0.7818609E-02  0.9118758E-01
        2   -1    0    0  501    0  0.00000000000E+00  0.00000000000E+00  0.17864912831E+04  0.17864912831E+04  0.25500000920E-02 0.  1.
       -2   -1    0    0    0  501  0.00000000000E+00  0.00000000000E+00 -0.19926222725E+03  0.19926222726E+03  0.25500000920E-02 0. -1.
    10030    2    1    2    0    0  0.00000000000E+00  0.00000000000E+00  0.15872290558E+04  0.19857535103E+04  0.11932815796E+04 0.  0.
        4    1    3    3  502    0  0.41631744860E+03  0.40202537413E+03  0.55226673370E+03  0.79996548519E+03  0.12699999809E+01 0. -1.
       -4    1    3    3    0  502 -0.41631744860E+03 -0.40202537413E+03  0.10349623221E+04  0.11857880251E+04  0.12699999809E+01 0.  1.
</event>
<event>
 5   0  0.1551501E-03  0.1214270E+04  0.7818609E-02  0.9100457E-01
        2   -1    0    0  501    0  0.00000000000E+00  0.00000000000E+00  0.28653366950E+03  0.28653366951E+03  0.25500000920E-02 0. -1.
       -2   -1    0    0    0  501  0.00000000000E+00  0.00000000000E+00 -0.12864558379E+04  0.12864558379E+04  0.25500000920E-02 0.  1.
    10030    2    1    2    0    0  0.00000000000E+00  0.00000000000E+00 -0.99992216839E+03  0.15729895074E+04  0.12142700060E+04 0.  0.
        4    1    3    3  502    0 -0.50016808653E+02  0.50085013441E+03 -0.93975329263E+03  0.10660630386E+04  0.12699999809E+01 0.  1.
       -4    1    3    3    0  502  0.50016808653E+02 -0.50085013441E+03 -0.60168875760E+02  0.50692646883E+03  0.12699999809E+01 0. -1.
</event>
<event>
 5   0  0.9208078E-04  0.1189591E+04  0.7818609E-02  0.9122017E-01
        1   -1    0    0  501    0  0.00000000000E+00  0.00000000000E+00  0.57160494032E+03  0.57160494034E+03  0.50400001928E-02 0. -1.
       -1   -1    0    0    0  501  0.00000000000E+00  0.00000000000E+00 -0.61892703036E+03  0.61892703038E+03  0.50400001928E-02 0.  1.
    10030    2    1    2    0    0  0.00000000000E+00  0.00000000000E+00 -0.47322090045E+02  0.11905319707E+04  0.11895911033E+04 0.  0.
        3    1    3    3  502    0  0.45760973424E+03 -0.36181938692E+03 -0.13977781038E+03  0.59988147504E+03  0.10100000352E+00 0.  1.
       -3    1    3    3    0  502 -0.45760973424E+03  0.36181938692E+03  0.92455720333E+02  0.59065049568E+03  0.10100000352E+00 0. -1.
</event>
<event>
 5   0  0.9169078E-04  0.1202937E+04  0.7818609E-02  0.9110289E-01
        1   -1    0    0  501    0  0.00000000000E+00  0.00000000000E+00  0.99985391863E+03  0.99985391864E+03  0.50400001928E-02 0. -1.
       -1   -1    0    0    0  501  0.00000000000E+00  0.00000000000E+00 -0.36181742372E+03  0.36181742375E+03  0.50400001928E-02 0.  1.
    10030    2    1    2    0    0  0.00000000000E+00  0.00000000000E+00  0.63803649491E+03  0.13616713424E+04  0.12029373533E+04 0.  0.
        1    1    3    3  502    0  0.65594657217E+02 -0.96668676760E+02 -0.34885177548E+03  0.36789271997E+03  0.50400001928E-02 0.  1.
       -1    1    3    3    0  502 -0.65594657217E+02  0.96668676760E+02  0.98688827040E+03  0.99377862243E+03  0.50400001928E-02 0. -1.
</event>
<event>
 5   0  0.9358428E-04  0.1216477E+04  0.7818609E-02  0.9098555E-01
        1   -1    0    0  501    0  0.00000000000E+00  0.00000000000E+00  0.11819941596E+04  0.11819941596E+04  0.50400001928E-02 0. -1.
       -1   -1    0    0    0  501  0.00000000000E+00  0.00000000000E+00 -0.31299161794E+03  0.31299161798E+03  0.50400001928E-02 0.  1.
    10030    2    1    2    0    0  0.00000000000E+00  0.00000000000E+00  0.86900254166E+03  0.14949857776E+04  0.12164773150E+04 0.  0.
        2    1    3    3  502    0 -0.12449980592E+03 -0.31949945191E+03 -0.18288290276E+03  0.38862096904E+03  0.25500000920E-02 0.  1.
       -2    1    3    3    0  502  0.12449980592E+03  0.31949945191E+03  0.10518854444E+04  0.11063648086E+04  0.25500000920E-02 0. -1.
</event>
<event>
 5   0  0.1597352E-03  0.1185769E+04  0.7818609E-02  0.9125405E-01
        2   -1    0    0  501    0  0.00000000000E+00  0.00000000000E+00  0.32771237648E+03  0.32771237649E+03  0.25500000920E-02 0.  1.
       -2   -1    0    0    0  501  0.00000000000E+00  0.00000000000E+00 -0.10726236651E+04  0.10726236651E+04  0.25500000920E-02 0. -1.
    10030    2    1    2    0    0  0.00000000000E+00  0.00000000000E+00 -0.74491128858E+03  0.14003360416E+04  0.11857690338E+04 0.  0.
        1    1    3    3  502    0  0.59261218604E+03  0.17857475348E+02 -0.37010621469E+03  0.69891823746E+03  0.50400001928E-02 0.  1.
       -1    1    3    3    0  502 -0.59261218604E+03 -0.17857475348E+02 -0.37480507388E+03  0.70141780410E+03  0.50400001928E-02 0. -1.
</event>
<event>
 5   0  0.1551501E-03  0.1206227E+04  0.7818609E-02  0.9107423E-01
       -2   -1    0    0    0  501  0.00000000000E+00  0.00000000000E+00  0.50344456298E+03  0.50344456298E+03  0.25500000920E-02 0.  1.
        2   -1    0    0  501    0  0.00000000000E+00  0.00000000000E+00 -0.72251473325E+03  0.72251473325E+03  0.25500000920E-02 0. -1.
    10030    2    1    2    0    0  0.00000000000E+00  0.00000000000E+00 -0.21907017027E+03  0.12259592962E+04  0.12062273652E+04 0.  0.
        4    1    3    3  502    0  0.61474838355E+02  0.59777751840E+03 -0.57438573039E+02  0.60367037349E+03  0.12699999809E+01 0.  1.
       -4    1    3    3    0  502 -0.61474838355E+02 -0.59777751840E+03 -0.16163159723E+03  0.62228892275E+03  0.12699999809E+01 0. -1.
</event>
<event>
 5   0  0.9170776E-04  0.1200574E+04  0.7818609E-02  0.9112354E-01
       -1   -1    0    0    0  501  0.00000000000E+00  0.00000000000E+00  0.71094347055E+03  0.71094347057E+03  0.50400001928E-02 0. -1.
        1   -1    0    0  501    0  0.00000000000E+00  0.00000000000E+00 -0.50685378804E+03  0.50685378807E+03  0.50400001928E-02 0.  1.
    10030    2    1    2    0    0  0.00000000000E+00  0.00000000000E+00  0.20408968251E+03  0.12177972586E+04  0.12005738481E+04 0.  0.
        5    1    3    3  502    0  0.45896118084E+03  0.28910984921E+03 -0.15872776975E+03  0.56519595302E+03  0.46999998093E+01 0.  1.
       -5    1    3    3    0  502 -0.45896118084E+03 -0.28910984921E+03  0.36281745226E+03  0.65260130561E+03  0.46999998093E+01 0. -1.
</event>
<event>
 5   0  0.1551501E-03  0.1196983E+04  0.7818609E-02  0.9115501E-01
        2   -1    0    0  501    0  0.00000000000E+00  0.00000000000E+00  0.81947205766E+03  0.81947205767E+03  0.25500000920E-02 0. -1.
       -2   -1    0    0    0  501  0.00000000000E+00  0.00000000000E+00 -0.43710108549E+03  0.43710108549E+03  0.25500000920E-02 0.  1.
    10030    2    1    2    0    0  0.00000000000E+00  0.00000000000E+00  0.38237097217E+03  0.12565731432E+04  0.11969830842E+04 0.  0.
        4    1    3    3  502    0  0.38378893088E+03 -0.19199784220E+03 -0.24675597246E+03  0.49502246183E+03  0.12699999809E+01 0.  1.
       -4    1    3    3    0  502 -0.38378893088E+03  0.19199784220E+03  0.62912694463E+03  0.76155068133E+03  0.12699999809E+01 0. -1.
</event>
<event>
 5   0  0.9208078E-04  0.1204107E+04  0.7818609E-02  0.9109269E-01
        1   -1    0    0  501    0  0.00000000000E+00  0.00000000000E+00  0.16014766030E+04  0.16014766030E+04  0.50400001928E-02 0.  1.
       -1   -1    0    0    0  501  0.00000000000E+00  0.00000000000E+00 -0.22633382153E+03  0.22633382159E+03  0.50400001928E-02 0. -1.
    10030    2    1    2    0    0  0.00000000000E+00  0.00000000000E+00  0.13751427815E+04  0.18278104246E+04  0.12041068386E+04 0.  0.
        3    1    3    3  502    0  0.63765929374E+02 -0.21832670354E+03 -0.15860651071E+03  0.27728807885E+03  0.10100000352E+00 0. -1.
       -3    1    3    3    0  502 -0.63765929374E+02  0.21832670354E+03  0.15337492922E+04  0.15505223458E+04  0.10100000352E+00 0.  1.
</event>
<event>
 5   0  0.9170776E-04  0.1328778E+04  0.7818609E-02  0.9007050E-01
       -1   -1    0    0    0  501  0.00000000000E+00  0.00000000000E+00  0.81444370153E+03  0.81444370155E+03  0.50400001928E-02 0.  1.
        1   -1    0    0  501    0  0.00000000000E+00  0.00000000000E+00 -0.54198046358E+03  0.54198046360E+03  0.50400001928E-02 0. -1.
    10030    2    1    2    0    0  0.00000000000E+00  0.00000000000E+00  0.27246323795E+03  0.13564241652E+04  0.13287777466E+04 0.  0.
        5    1    3    3  502    0 -0.38594188543E+03  0.32729907701E+03  0.57567007574E+03  0.76648153979E+03  0.46999998093E+01 0. -1.
       -5    1    3    3    0  502  0.38594188543E+03 -0.32729907701E+03 -0.30320683778E+03  0.58994262536E+03  0.46999998093E+01 0.  1.
</event>
<event>
 5   0  0.9170776E-04  0.1200766E+04  0.7818609E-02  0.9112186E-01
       -1   -1    0    0    0  501  0.00000000000E+00  0.00000000000E+00  0.18243331387E+03  0.18243331394E+03  0.50400001928E-02 0. -1.
        1   -1    0    0  501    0  0.00000000000E+00  0.00000000000E+00 -0.19758438789E+04  0.19758438789E+04  0.50400001928E-02 0.  1.
    10030    2    1    2    0    0  0.00000000000E+00  0.00000000000E+00 -0.17934105651E+04  0.21582771929E+04  0.12007659999E+04 0.  0.
        5    1    3    3  502    0  0.21109506971E+03  0.55803152989E+03 -0.77643485152E+03  0.97920043171E+03  0.46999998093E+01 0. -1.
       -5    1    3    3    0  502 -0.21109506971E+03 -0.55803152989E+03 -0.10169757135E+04  0.11790767612E+04  0.46999998093E+01 0.  1.
</event>
<event>
 5   0  0.1567019E-03  0.1206087E+04  0.7818609E-02  0.9107546E-01
       -2   -1    0    0    0  501  0.00000000000E+00  0.00000000000E+00  0.20645514684E+03  0.20645514685E+03  0.25500000920E-02 0.  1.
        2   -1    0    0  501    0  0.00000000000E+00  0.00000000000E+00 -0.17614540861E+04  0.17614540861E+04  0.25500000920E-02 0. -1.
    10030    2    1    2    0    0  0.00000000000E+00  0.00000000000E+00 -0.15549989392E+04  0.19679092329E+04  0.12060866669E+04 0.  0.
        5    1    3    3  502    0  0.56220004776E+03 -0.21750072757E+03 -0.80399614206E+03  0.10048917089E+04  0.46999998093E+01 0. -1.
       -5    1    3    3    0  502 -0.56220004776E+03  0.21750072757E+03 -0.75100279716E+03  0.96301752400E+03  0.46999998093E+01 0.  1.
</event>
<event>
 5   0  0.1567019E-03  0.1208523E+04  0.7818609E-02  0.9105429E-01
        2   -1    0    0  501    0  0.00000000000E+00  0.00000000000E+00  0.51346369245E+03  0.51346369245E+03  0.25500000920E-02 0. -1.
       -2   -1    0    0    0  501  0.00000000000E+00  0.00000000000E+00 -0.71111579424E+03  0.71111579424E+03  0.25500000920E-02 0.  1.
    10030    2    1    2    0    0  0.00000000000E+00  0.00000000000E+00 -0.19765210179E+03  0.12245794867E+04  0.12085232997E+04 0.  0.
        5    1    3    3  502    0 -0.58000432954E+03  0.53953764277E+02  0.63912885314E+02  0.58602301821E+03  0.46999998093E+01 0. -1.
       -5    1    3    3    0  502  0.58000432954E+03 -0.53953764277E+02 -0.26156498711E+03  0.63855646848E+03  0.46999998093E+01 0.  1.
</event>
<event>
 5   0  0.1537557E-03  0.1169157E+04  0.7818609E-02  0.9140291E-01
       -2   -1    0    0    0  501  0.00000000000E+00  0.00000000000E+00  0.91412480339E+03  0.91412480340E+03  0.25500000920E-02 0. -1.
        2   -1    0    0  501    0  0.00000000000E+00  0.00000000000E+00 -0.37383488730E+03  0.37383488731E+03  0.25500000920E-02 0.  1.
    10030    2    1    2    0    0  0.00000000000E+00  0.00000000000E+00  0.54028991609E+03  0.12879596907E+04  0.11691565214E+04 0.  0.
        2    1    3    3  502    0 -0.13144875690E+03 -0.19695780228E+03 -0.31863738852E+03  0.39698984488E+03  0.25500000920E-02 0.  1.
       -2    1    3    3    0  502  0.13144875690E+03  0.19695780228E+03  0.85892730461E+03  0.89096984583E+03  0.25500000920E-02 0. -1.
</event>
<event>
 5   0  0.9169078E-04  0.1195557E+04  0.7818609E-02  0.9116754E-01
        1   -1    0    0  501    0  0.00000000000E+00  0.00000000000E+00  0.10709312036E+04  0.10709312036E+04  0.50400001928E-02 0. -1.
       -1   -1    0    0    0  501  0.00000000000E+00  0.00000000000E+00 -0.33367157006E+03  0.33367157010E+03  0.50400001928E-02 0.  1.
    10030    2    1    2    0    0  0.00000000000E+00  0.00000000000E+00  0.73725963355E+03  0.14046027737E+04  0.11955572695E+04 0.  0.
        1    1    3    3  502    0  0.48426414538E+03 -0.23242017888E+03  0.60450244401E+02  0.54054151934E+03  0.50400001928E-02 0.  1.
       -1    1    3    3    0  502 -0.48426414538E+03  0.23242017888E+03  0.67680938914E+03  0.86406125438E+03  0.50400001928E-02 0. -1.
</event>
<event>
 5   0  0.1567019E-03  0.1177078E+04  0.7818609E-02  0.9133160E-01
       -2   -1    0    0    0  501  0.00000000000E+00  0.00000000000E+00  0.35752600739E+03  0.35752600740E+03  0.25500000920E-02 0.  1.
        2   -1    0    0  501    0  0.00000000000E+00  0.00000000000E+00 -0.96881979928E+03  0.96881979928E+03  0.25500000920E-02 0. -1.
    10030    2    1    2    0    0  0.00000000000E+00  0.00000000000E+00 -0.61129379189E+03  0.13263458067E+04  0.11770782042E+04 0.  0.
        5    1    3    3  502    0 -0.45718034406E+03 -0.64170616488E+01 -0.72317769896E+03  0.85560687231E+03  0.46999998093E+01 0. -1.
       -5    1    3    3    0  502  0.45718034406E+03  0.64170616488E+01  0.11188390707E+03  0.47073893437E+03  0.46999998093E+01 0.  1.
</event>
<event>
 5   0  0.9170776E-04  0.1200050E+04  0.7818609E-02  0.9112813E-01
       -1   -1    0    0    0  501  0.00000000000E+00  0.00000000000E+00  0.49605296578E+03  0.49605296581E+03  0.50400001928E-02 0. -1.
        1   -1    0    0  501    0  0.00000000000E+00  0.00000000000E+00 -0.72578946846E+03  0.72578946848E+03  0.50400001928E-02 0.  1.
    10030    2    1    2    0    0  0.00000000000E+00  0.00000000000E+00 -0.22973650268E+03  0.12218424343E+04  0.12000500296E+04 0.  0.
        5    1    3    3  502    0 -0.41807740782E+03  0.24660817830E+03  0.24424576308E+03  0.54339892833E+03  0.46999998093E+01 0. -1.
       -5    1    3    3    0  502  0.41807740782E+03 -0.24660817830E+03 -0.47398226575E+03  0.67844350596E+03  0.46999998093E+01 0.  1.
</event>
<event>
 5   0  0.1647550E-03  0.1189523E+04  0.7818609E-02  0.9122077E-01
        2   -1    0    0  501    0  0.00000000000E+00  0.00000000000E+00  0.20998986885E+04  0.20998986885E+04  0.25500000920E-02 0.  1.
       -2   -1    0    0    0  501  0.00000000000E+00  0.00000000000E+00 -0.16845641967E+03  0.16845641969E+03  0.25500000920E-02 0. -1.
    10030    2    1    2    0    0  0.00000000000E+00  0.00000000000E+00  0.19314422688E+04  0.22683551082E+04  0.11895232907E+04 0.  0.
        3    1    3    3  502    0 -0.36534603578E+03 -0.44557606225E+02  0.18566507051E+04  0.18927796905E+04  0.10100000352E+00 0.  1.
       -3    1    3    3    0  502  0.36534603578E+03  0.44557606225E+02  0.74791563761E+02  0.37557541765E+03  0.10100000352E+00 0. -1.
</event>
<event>
 5   0  0.1567019E-03  0.1203257E+04  0.7818609E-02  0.9110011E-01
        2   -1    0    0  501    0  0.00000000000E+00  0.00000000000E+00  0.52424267982E+03  0.52424267983E+03  0.25500000920E-02 0.  1.
       -2   -1    0    0    0  501  0.00000000000E+00  0.00000000000E+00 -0.69043727757E+03  0.69043727757E+03  0.25500000920E-02 0. -1.
    10030    2    1    2    0    0  0.00000000000E+00  0.00000000000E+00 -0.16619459774E+03  0.12146799574E+04  0.12032567285E+04 0.  0.
        5    1    3    3  502    0 -0.45791168102E+03  0.12796133373E+03  0.28901768818E+03  0.55642656714E+03  0.46999998093E+01 0.  1.
       -5    1    3    3    0  502  0.45791168102E+03 -0.12796133373E+03 -0.45521228592E+03  0.65825339026E+03  0.46999998093E+01 0. -1.
</event>
<event>
 5   0  0.8908478E-04  0.1194667E+04  0.7818609E-02  0.9117537E-01
        1   -1    0    0  501    0  0.00000000000E+00  0.00000000000E+00  0.18045947742E+04  0.18045947742E+04  0.50400001928E-02 0.  1.
       -1   -1    0    0    0  501  0.00000000000E+00  0.00000000000E+00 -0.19772160325E+03  0.19772160332E+03  0.50400001928E-02 0. -1.
    10030    2    1    2    0    0  0.00000000000E+00  0.00000000000E+00  0.16068731710E+04  0.20023163775E+04  0.11946671035E+04 0.  0.
        4    1    3    3  502    0 -0.10266056057E+03 -0.48914418422E+03  0.25517617414E+03  0.56117529917E+03  0.12699999809E+01 0. -1.
       -4    1    3    3    0  502  0.10266056057E+03  0.48914418422E+03  0.13516969968E+04  0.14411410784E+04  0.12699999809E+01 0.  1.
</event>
<event>
 5   0  0.1647550E-03  0.1206701E+04  0.7818609E-02  0.9107011E-01
       -2   -1    0    0    0  501  0.00000000000E+00  0.00000000000E+00  0.54578657620E+03  0.54578657620E+03  0.25500000920E-02 0.  1.
        2   -1    0    0  501    0  0.00000000000E+00  0.00000000000E+00 -0.66698595770E+03  0.66698595771E+03  0.25500000920E-02 0. -1.
    10030    2    1    2    0    0  0.00000000000E+00  0.00000000000E+00 -0.12119938150E+03  0.12127725339E+04  0.12067012592E+04 0.  0.
        3    1    3    3  502    0  0.38849692351E+03 -0.21064578509E+03 -0.47343452907E+03  0.64764324274E+03  0.10100000352E+00 0. -1.
       -3    1    3    3    0  502 -0.38849692351E+03  0.21064578509E+03  0.35223514757E+03  0.56512929117E+03  0.10100000352E+00 0.  1.
</event>
<event>
 5   0  0.1537557E-03  0.1203637E+04  0.7818609E-02  0.9109679E-01
        2   -1    0    0  501    0  0.00000000000E+00  0.00000000000E+00  0.69490180940E+03  0.69490180940E+03  0.25500000920E-02 0.  1.
       -2   -1    0    0    0  501  0.00000000000E+00  0.00000000000E+00 -0.52120356452E+03  0.52120356452E+03  0.25500000920E-02 0. -1.
    10030    2    1    2    0    0  0.00000000000E+00  0.00000000000E+00  0.17369824488E+03  0.12161053739E+04  0.12036366562E+04 0.  0.
        2    1    3    3  502    0 -0.61118877728E+02  0.34916943879E+03 -0.40453301378E+03  0.53786780294E+03  0.25500000920E-02 0. -1.
       -2    1    3    3    0  502  0.61118877728E+02 -0.34916943879E+03  0.57823125866E+03  0.67823757098E+03  0.25500000920E-02 0.  1.
</event>
<event>
 5   0  0.1551501E-03  0.1204872E+04  0.7818609E-02  0.9108603E-01
       -2   -1    0    0    0  501  0.00000000000E+00  0.00000000000E+00  0.20698981894E+03  0.20698981896E+03  0.25500000920E-02 0. -1.
        2   -1    0    0  501    0  0.00000000000E+00  0.00000000000E+00 -0.17533670100E+04  0.17533670100E+04  0.25500000920E-02 0.  1.
    10030    2    1    2    0    0  0.00000000000E+00  0.00000000000E+00 -0.15463771910E+04  0.19603568289E+04  0.12048719765E+04 0.  0.
        4    1    3    3  502    0  0.29111411419E+03 -0.31662472288E+03 -0.14594940175E+04  0.15215528393E+04  0.12699999809E+01 0.  1.
       -4    1    3    3    0  502 -0.29111411419E+03  0.31662472288E+03 -0.86883173540E+02  0.43880398969E+03  0.12699999809E+01 0. -1.
</event>
<event>
 5   0  0.1647550E-03  0.1195136E+04  0.7818609E-02  0.9117124E-01
        2   -1    0    0  501    0  0.00000000000E+00  0.00000000000E+00  0.10649776106E+04  0.10649776106E+04  0.25500000920E-02 0. -1.
       -2   -1    0    0    0  501  0.00000000000E+00  0.00000000000E+00 -0.33530067717E+03  0.33530067718E+03  0.25500000920E-02 0.  1.
    10030    2    1    2    0    0  0.00000000000E+00  0.00000000000E+00  0.72967693347E+03  0.14002782878E+04  0.11951363337E+04 0.  0.
        3    1    3    3  502    0  0.54300271715E+03 -0.23847780382E+03  0.27902707688E+03  0.65542332395E+03  0.10100000352E+00 0.  1.
       -3    1    3    3    0  502 -0.54300271715E+03  0.23847780382E+03  0.45064985659E+03  0.74485496386E+03  0.10100000352E+00 0. -1.
</event>
<event>
 5   0  0.1597352E-03  0.1194425E+04  0.7818609E-02  0.9117750E-01
       -2   -1    0    0    0  501  0.00000000000E+00  0.00000000000E+00  0.44922891329E+03  0.44922891329E+03  0.25500000920E-02 0. -1.
        2   -1    0    0  501    0  0.00000000000E+00  0.00000000000E+00 -0.79394481876E+03  0.79394481877E+03  0.25500000920E-02 0.  1.
    10030    2    1    2    0    0  0.00000000000E+00  0.00000000000E+00 -0.34471590548E+03  0.12431737321E+04  0.11944253315E+04 0.  0.
        1    1    3    3  502    0  0.32423550490E+03 -0.25079814503E+03 -0.62440485000E+03  0.74693359070E+03  0.50400001928E-02 0.  1.
       -1    1    3    3    0  502 -0.32423550490E+03  0.25079814503E+03  0.27968894452E+03  0.49624014136E+03  0.50400001928E-02 0. -1.
</event>
<event>
 5   0  0.1597352E-03  0.1203626E+04  0.7818609E-02  0.9109689E-01
       -2   -1    0    0    0  501  0.00000000000E+00  0.00000000000E+00  0.12437900564E+03  0.12437900567E+03  0.25500000920E-02 0. -1.
        2   -1    0    0  501    0  0.00000000000E+00  0.00000000000E+00 -0.29118978999E+04  0.29118978999E+04  0.25500000920E-02 0.  1.
    10030    2    1    2    0    0  0.00000000000E+00  0.00000000000E+00 -0.27875188942E+04  0.30362769056E+04  0.12036261303E+04 0.  0.
        1    1    3    3  502    0 -0.48546774255E+03 -0.17258003027E+03 -0.60924795032E+03  0.79790090920E+03  0.50400001928E-02 0.  1.
       -1    1    3    3    0  502  0.48546774255E+03  0.17258003027E+03 -0.21782709439E+04  0.22383759964E+04  0.50400001928E-02 0. -1.
</event>
<event>
 5   0  0.9169078E-04  0.1198403E+04  0.7818609E-02  0.9114256E-01
        1   -1    0    0  501    0  0.00000000000E+00  0.00000000000E+00  0.10099785546E+04  0.10099785546E+04  0.50400001928E-02 0. -1.
       -1   -1    0    0    0  501  0.00000000000E+00  0.00000000000E+00 -0.35549489940E+03  0.35549489943E+03  0.50400001928E-02 0.  1.
    10030    2    1    2    0    0  0.00000000000E+00  0.00000000000E+00  0.65448365517E+03  0.13654734540E+04  0.11984026447E+04 0.  0.
        1    1    3    3  502    0  0.34738892185E+03  0.39466021188E+03  0.65472392092E+03  0.83970182715E+03  0.50400001928E-02 0.  1.
       -1    1    3    3    0  502 -0.34738892185E+03 -0.39466021188E+03 -0.24026575381E+00  0.52577162687E+03  0.50400001928E-02 0. -1.
</event>
<event>
 5   0  0.9358428E-04  0.1182138E+04  0.7818609E-02  0.9128636E-01
       -1   -1    0    0    0  501  0.00000000000E+00  0.00000000000E+00  0.26557236015E+03  0.26557236020E+03  0.50400001928E-02 0.  1.
        1   -1    0    0  501    0  0.00000000000E+00  0.00000000000E+00 -0.13155078980E+04  0.13155078980E+04  0.50400001928E-02 0. -1.
    10030    2    1    2    0    0  0.00000000000E+00  0.00000000000E+00 -0.10499355378E+04  0.15810802582E+04  0.11821379569E+04 0.  0.
        2    1    3    3  502    0  0.40090563530E+03 -0.96504073276E+02  0.41408661181E+02  0.41443098557E+03  0.25500000920E-02 0.  1.
       -2    1    3    3    0  502 -0.40090563530E+03  0.96504073276E+02 -0.10913441990E+04  0.11666492726E+04  0.25500000920E-02 0. -1.
</event>
<event>
 5   0  0.1597352E-03  0.1194229E+04  0.7818609E-02  0.9117923E-01
        2   -1    0    0  501    0  0.00000000000E+00  0.00000000000E+00  0.45068420627E+03  0.45068420627E+03  0.25500000920E-02 0. -1.
       -2   -1    0    0    0  501  0.00000000000E+00  0.00000000000E+00 -0.79112105603E+03  0.79112105604E+03  0.25500000920E-02 0.  1.
    10030    2    1    2    0    0  0.00000000000E+00  0.00000000000E+00 -0.34043684977E+03  0.12418052623E+04  0.11942290655E+04 0.  0.
        1    1    3    3  502    0  0.37532725447E+03 -0.44691465574E+03 -0.30151221238E+03  0.65689639344E+03  0.50400001928E-02 0. -1.
       -1    1    3    3    0  502 -0.37532725447E+03  0.44691465574E+03 -0.38924637388E+02  0.58490886888E+03  0.50400001928E-02 0.  1.
</event>
<event>
 5   0  0.9208078E-04  0.1202844E+04  0.7818609E-02  0.9110371E-01
        1   -1    0    0  501    0  0.00000000000E+00  0.00000000000E+00  0.45094081035E+03  0.45094081038E+03  0.50400001928E-02 0.  1.
       -1   -1    0    0    0  501  0.00000000000E+00  0.00000000000E+00 -0.80211903885E+03  0.80211903887E+03  0.50400001928E-02 0. -1.
    10030    2    1    2    0    0  0.00000000000E+00  0.00000000000E+00 -0.35117822850E+03  0.12530598492E+04  0.12028436464E+04 0.  0.
        3    1    3    3  502    0 -0.41697585885E+03  0.43318051353E+03 -0.16108017839E+03  0.62246370034E+03  0.10100000352E+00 0.  1.
       -3    1    3    3    0  502  0.41697585885E+03 -0.43318051353E+03 -0.19009805011E+03  0.63059614891E+03  0.10100000352E+00 0. -1.
</event>
<event>
 5   0  0.1567019E-03  0.1226063E+04  0.7818609E-02  0.9090345E-01
        2   -1    0    0  501    0  0.00000000000E+00  0.00000000000E+00  0.13892379836E+04  0.13892379836E+04  0.25500000920E-02 0. -1.
       -2   -1    0    0    0  501  0.00000000000E+00  0.00000000000E+00 -0.27051332284E+03  0.27051332285E+03  0.25500000920E-02 0.  1.
    10030    2    1    2    0    0  0.00000000000E+00  0.00000000000E+00  0.11187246608E+04  0.16597513064E+04  0.12260626137E+04 0.  0.
        5    1    3    3  502    0  0.47166623298E+03  0.10058441473E+03  0.47090573404E+02  0.48458835306E+03  0.46999998093E+01 0.  1.
       -5    1    3    3    0  502 -0.47166623298E+03 -0.10058441473E+03  0.10716340874E+04  0.11751629534E+04  0.46999998093E+01 0. -1.
</event>
<event>
 5   0  0.9208078E-04  0.1214404E+04  0.7818609E-02  0.9100341E-01
       -1   -1    0    0    0  501  0.00000000000E+00  0.00000000000E+00  0.24588989578E+03  0.24588989583E+03  0.50400001928E-02 0.  1.
        1   -1    0    0  501    0  0.00000000000E+00  0.00000000000E+00 -0.14994288449E+04  0.14994288449E+04  0.50400001928E-02 0. -1.
    10030    2    1    2    0    0  0.00000000000E+00  0.00000000000E+00 -0.12535389491E+04  0.17453187407E+04  0.12144042201E+04 0.  0.
        3    1    3    3  502    0 -0.29211966903E+03  0.13173297722E+02  0.13803092559E+03  0.32335736179E+03  0.10100000352E+00 0.  1.
       -3    1    3    3    0  502  0.29211966903E+03 -0.13173297722E+02 -0.13915698747E+04  0.14219613789E+04  0.10100000352E+00 0. -1.
</event>
<event>
 5   0  0.1537557E-03  0.1196632E+04  0.7818609E-02  0.9115809E-01
        2   -1    0    0  501    0  0.00000000000E+00  0.00000000000E+00  0.88642301832E+03  0.88642301832E+03  0.25500000920E-02 0. -1.
       -2   -1    0    0    0  501  0.00000000000E+00  0.00000000000E+00 -0.40385024422E+03  0.40385024423E+03  0.25500000920E-02 0.  1.
    10030    2    1    2    0    0  0.00000000000E+00  0.00000000000E+00  0.48257277409E+03  0.12902732626E+04  0.11966321949E+04 0.  0.
        2    1    3    3  502    0  0.49913186051E+03 -0.32690881813E+03  0.28926762763E+03  0.66308200847E+03  0.25500000920E-02 0. -1.
       -2    1    3    3    0  502 -0.49913186051E+03  0.32690881813E+03  0.19330514646E+03  0.62719125409E+03  0.25500000920E-02 0.  1.
</event>
<event>
 5   0  0.8908478E-04  0.1206436E+04  0.7818609E-02  0.9107242E-01
       -1   -1    0    0    0  501  0.00000000000E+00  0.00000000000E+00  0.34007735370E+03  0.34007735374E+03  0.50400001928E-02 0. -1.
        1   -1    0    0  501    0  0.00000000000E+00  0.00000000000E+00 -0.10699677601E+04  0.10699677601E+04  0.50400001928E-02 0.  1.
    10030    2    1    2    0    0  0.00000000000E+00  0.00000000000E+00 -0.72989040638E+03  0.14100451138E+04  0.12064357495E+04 0.  0.
        4    1    3    3  502    0 -0.48028430729E+03 -0.36452405494E+03 -0.38583281735E+03  0.71583474231E+03  0.12699999809E+01 0. -1.
       -4    1    3    3    0  502  0.48028430729E+03  0.36452405494E+03 -0.34405758903E+03  0.69421037152E+03  0.12699999809E+01 0.  1.
</event>
<event>
 5   0  0.9170776E-04  0.1206515E+04  0.7818609E-02  0.9107173E-01
        1   -1    0    0  501    0  0.00000000000E+00  0.00000000000E+00  0.12939778293E+04  0.12939778293E+04  0.50400001928E-02 0. -1.
       -1   -1    0    0    0  501  0.00000000000E+00  0.00000000000E+00 -0.28124115687E+03  0.28124115692E+03  0.50400001928E-02 0.  1.
    10030    2    1    2    0    0  0.00000000000E+00  0.00000000000E+00  0.10127366724E+04  0.15752189862E+04  0.12065153488E+04 0.  0.
        5    1    3    3  502    0  0.58103281122E+03 -0.11437205871E+03  0.35626685301E+03  0.69110654466E+03  0.46999998093E+01 0.  1.
       -5    1    3    3    0  502 -0.58103281122E+03  0.11437205871E+03  0.65646981943E+03  0.88411244158E+03  0.46999998093E+01 0. -1.
</event>
<event>
 5   0  0.9169078E-04  0.1204352E+04  0.7818609E-02  0.9109056E-01
        1   -1    0    0  501    0  0.00000000000E+00  0.00000000000E+00  0.20413478048E+04  0.20413478048E+04  0.50400001928E-02 0. -1.
       -1   -1    0    0    0  501  0.00000000000E+00  0.00000000000E+00 -0.17763561645E+03  0.17763561652E+03  0.50400001928E-02 0.  1.
    10030    2    1    2    0    0  0.00000000000E+00  0.00000000000E+00  0.18637121883E+04  0.22189834213E+04  0.12043522338E+04 0.  0.
        1    1    3    3  502    0  0.45796989462E+03 -0.18747551778E+03  0.15640479090E+04  0.16404662008E+04  0.50400001928E-02 0. -1.
       -1    1    3    3    0  502 -0.45796989462E+03  0.18747551778E+03  0.29966427933E+03  0.57851722055E+03  0.50400001928E-02 0.  1.
</event>
<event>
 5   0  0.9358428E-04  0.1195302E+04  0.7818609E-02  0.9116979E-01
       -1   -1    0    0    0  501  0.00000000000E+00  0.00000000000E+00  0.37859304152E+03  0.37859304155E+03  0.50400001928E-02 0. -1.
        1   -1    0    0  501    0  0.00000000000E+00  0.00000000000E+00 -0.94345819906E+03  0.94345819907E+03  0.50400001928E-02 0.  1.
    10030    2    1    2    0    0  0.00000000000E+00  0.00000000000E+00 -0.56486515754E+03  0.13220512406E+04  0.11953019855E+04 0.  0.
        2    1    3    3  502    0 -0.92720646321E+02  0.44345068295E+03  0.14869743253E+03  0.47681920359E+03  0.25500000920E-02 0. -1.
       -2    1    3    3    0  502  0.92720646321E+02 -0.44345068295E+03 -0.71356259007E+03  0.84523203703E+03  0.25500000920E-02 0.  1.
</event>
<event>
 5   0  0.1647550E-03  0.1199232E+04  0.7818609E-02  0.9113529E-01
       -2   -1    0    0    0  501  0.00000000000E+00  0.00000000000E+00  0.25641538624E+03  0.25641538625E+03  0.25500000920E-02 0. -1.
        2   -1    0    0  501    0  0.00000000000E+00  0.00000000000E+00 -0.14021751988E+04  0.14021751988E+04  0.25500000920E-02 0.  1.
    10030    2    1    2    0    0  0.00000000000E+00  0.00000000000E+00 -0.11457598126E+04  0.16585905851E+04  0.11992319128E+04 0.  0.
        3    1    3    3  502    0 -0.30616150799E+03  0.26921125503E+02 -0.12849524305E+04  0.13211973263E+04  0.10100000352E+00 0.  1.
       -3    1    3    3    0  502  0.30616150799E+03 -0.26921125503E+02  0.13919261798E+03  0.33739325879E+03  0.10100000352E+00 0. -1.
</event>
<event>
 5   0  0.1597352E-03  0.1214672E+04  0.7818609E-02  0.9100110E-01
       -2   -1    0    0    0  501  0.00000000000E+00  0.00000000000E+00  0.41159450272E+03  0.41159450273E+03  0.25500000920E-02 0. -1.
        2   -1    0    0  501    0  0.00000000000E+00  0.00000000000E+00 -0.89616617416E+03  0.89616617416E+03  0.25500000920E-02 0.  1.
    10030    2    1    2    0    0  0.00000000000E+00  0.00000000000E+00 -0.48457167144E+03  0.13077606769E+04  0.12146720888E+04 0.  0.
        1    1    3    3  502    0 -0.18385021454E+02  0.32008107840E+03  0.31306171816E+03  0.44810439093E+03  0.50400001928E-02 0. -1.
       -1    1    3    3    0  502  0.18385021454E+02 -0.32008107840E+03 -0.79763338960E+03  0.85965628596E+03  0.50400001928E-02 0.  1.
</event>
<event>
 5   0  0.9358428E-04  0.1208282E+04  0.7818609E-02  0.9105638E-01
       -1   -1    0    0    0  501  0.00000000000E+00  0.00000000000E+00  0.23722043306E+03  0.23722043311E+03  0.50400001928E-02 0.  1.
        1   -1    0    0  501    0  0.00000000000E+00  0.00000000000E+00 -0.15385969003E+04  0.15385969003E+04  0.50400001928E-02 0. -1.
    10030    2    1    2    0    0  0.00000000000E+00  0.00000000000E+00 -0.13013764672E+04  0.17758173334E+04  0.12082824554E+04 0.  0.
        2    1    3    3  502    0 -0.40555473799E+03 -0.44778411573E+03 -0.65240421604E+03  0.88916619421E+03  0.25500000920E-02 0.  1.
       -2    1    3    3    0  502  0.40555473799E+03  0.44778411573E+03 -0.64897225116E+03  0.88665113917E+03  0.25500000920E-02 0. -1.
</event>
<event>
 5   0  0.8908478E-04  0.1199690E+04  0.7818609E-02  0.9113128E-01
        1   -1    0    0  501    0  0.00000000000E+00  0.00000000000E+00  0.11713157006E+04  0.11713157006E+04  0.50400001928E-02 0.  1.
       -1   -1    0    0    0  501  0.00000000000E+00  0.00000000000E+00 -0.30718805340E+03  0.30718805344E+03  0.50400001928E-02 0. -1.
    10030    2    1    2    0    0  0.00000000000E+00  0.00000000000E+00  0.86412764723E+03  0.14785037541E+04  0.11996902767E+04 0.  0.
        4    1    3    3  502    0 -0.20370943182E+03  0.34408387956E+03 -0.11897583573E+03  0.41719073716E+03  0.12699999809E+01 0. -1.
       -4    1    3    3    0  502  0.20370943182E+03 -0.34408387956E+03  0.98310348296E+03  0.10613130169E+04  0.12699999809E+01 0.  1.
</event>
<event>
 5   0  0.9208078E-04  0.1206254E+04  0.7818609E-02  0.9107400E-01
        1   -1    0    0  501    0  0.00000000000E+00  0.00000000000E+00  0.35488653813E+03  0.35488653816E+03  0.50400001928E-02 0.  1.
       -1   -1    0    0    0  501  0.00000000000E+00  0.00000000000E+00 -0.10250096923E+04  0.10250096923E+04  0.50400001928E-02 0. -1.
    10030    2    1    2    0    0  0.00000000000E+00  0.00000000000E+00 -0.67012315421E+03  0.13798962305E+04  0.12062539389E+04 0.  0.
        3    1    3    3  502    0 -0.50137390061E+03 -0.14482743843E+03 -0.68092748799E+03  0.85791201719E+03  0.10100000352E+00 0. -1.
       -3    1    3    3    0  502  0.50137390061E+03  0.14482743843E+03  0.10804333784E+02  0.52198421333E+03  0.10100000352E+00 0.  1.
</event>
<event>
 5   0  0.8908478E-04  0.1186292E+04  0.7818609E-02  0.9124940E-01
       -1   -1    0    0    0  501  0.00000000000E+00  0.00000000000E+00  0.63080468325E+03  0.63080468327E+03  0.50400001928E-02 0.  1.
        1   -1    0    0  501    0  0.00000000000E+00  0.00000000000E+00 -0.55773580095E+03  0.55773580098E+03  0.50400001928E-02 0. -1.
    10030    2    1    2    0    0  0.00000000000E+00  0.00000000000E+00  0.73068882292E+02  0.11885404842E+04  0.11862923000E+04 0.  0.
        4    1    3    3  502    0  0.82767574939E+02 -0.13063767969E+03  0.61024873439E+03  0.62954094827E+03  0.12699999809E+01 0.  1.
       -4    1    3    3    0  502 -0.82767574939E+02  0.13063767969E+03 -0.53717985210E+03  0.55899953598E+03  0.12699999809E+01 0. -1.
</event>
<event>
 5   0  0.1537557E-03  0.1194623E+04  0.7818609E-02  0.9117576E-01
        2   -1    0    0  501    0  0.00000000000E+00  0.00000000000E+00  0.91496898711E+03  0.91496898711E+03  0.25500000920E-02 0. -1.
       -2   -1    0    0    0  501  0.00000000000E+00  0.00000000000E+00 -0.38993752135E+03  0.38993752135E+03  0.25500000920E-02 0.  1.
    10030    2    1    2    0    0  0.00000000000E+00  0.00000000000E+00  0.52503146576E+03  0.13049065085E+04  0.11946225160E+04 0.  0.
        2    1    3    3  502    0 -0.20193012159E+03 -0.53612444918E+02 -0.34872389882E+03  0.40651989603E+03  0.25500000920E-02 0.  1.
       -2    1    3    3    0  502  0.20193012159E+03  0.53612444918E+02  0.87375536458E+03  0.89838661243E+03  0.25500000920E-02 0. -1.
</event>
<event>
 5   0  0.1597352E-03  0.1226876E+04  0.7818609E-02  0.9089652E-01
       -2   -1    0    0    0  501  0.00000000000E+00  0.00000000000E+00  0.26870604065E+03  0.26870604067E+03  0.25500000920E-02 0. -1.
        2   -1    0    0  501    0  0.00000000000E+00  0.00000000000E+00 -0.14004378341E+04  0.14004378341E+04  0.25500000920E-02 0.  1.
    10030    2    1    2    0    0  0.00000000000E+00  0.00000000000E+00 -0.11317317934E+04  0.16691438747E+04  0.12268758789E+04 0.  0.
        1    1    3    3  502    0 -0.27922153468E+03  0.65692944794E+02 -0.13035763240E+04  0.13347626983E+04  0.50400001928E-02 0.  1.
       -1    1    3    3    0  502  0.27922153468E+03 -0.65692944794E+02  0.17184453056E+03  0.33438117640E+03  0.50400001928E-02 0. -1.
</event>
<event>
 5   0  0.6137750E-04  0.1244060E+04  0.7818609E-02  0.9075141E-01
        3   -1    0    0  501    0  0.00000000000E+00  0.00000000000E+00  0.56082885799E+03  0.56082886709E+03  0.10100000352E+00 0.  1.
       -3   -1    0    0    0  501  0.00000000000E+00  0.00000000000E+00 -0.68991028594E+03  0.68991029334E+03  0.10100000352E+00 0. -1.
    10030    2    1    2    0    0  0.00000000000E+00  0.00000000000E+00 -0.12908142795E+03  0.12507391604E+04  0.12440604617E+04 0.  0.
        3    1    3    3  502    0  0.15821514201E+03  0.56603333995E+03 -0.26933953902E+03  0.64650566167E+03  0.10100000352E+00 0.  1.
       -3    1    3    3    0  502 -0.15821514201E+03 -0.56603333995E+03  0.14025811107E+03  0.60423349875E+03  0.10100000352E+00 0. -1.
</event>
<event>
 5   0  0.9169078E-04  0.1208016E+04  0.7818609E-02  0.9105869E-01
        1   -1    0    0  501    0  0.00000000000E+00  0.00000000000E+00  0.10530210646E+04  0.10530210646E+04  0.50400001928E-02 0.  1.
       -1   -1    0    0    0  501  0.00000000000E+00  0.00000000000E+00 -0.34645639672E+03  0.34645639676E+03  0.50400001928E-02 0. -1.
    10030    2    1    2    0    0  0.00000000000E+00  0.00000000000E+00  0.70656466786E+03  0.13994774614E+04  0.12080163637E+04 0.  0.
        1    1    3    3  502    0  0.22101544931E+03 -0.36053202827E+03 -0.14634177783E+03  0.44748976324E+03  0.50400001928E-02 0. -1.
       -1    1    3    3    0  502 -0.22101544931E+03  0.36053202827E+03  0.85290644570E+03  0.95198769812E+03  0.50400001928E-02 0.  1.
</event>
<event>
 5   0  0.1537557E-03  0.1198043E+04  0.7818609E-02  0.9114571E-01
       -2   -1    0    0    0  501  0.00000000000E+00  0.00000000000E+00  0.25287134260E+03  0.25287134262E+03  0.25500000920E-02 0. -1.
        2   -1    0    0  501    0  0.00000000000E+00  0.00000000000E+00 -0.14190085863E+04  0.14190085863E+04  0.25500000920E-02 0.  1.
    10030    2    1    2    0    0  0.00000000000E+00  0.00000000000E+00 -0.11661372437E+04  0.16718799289E+04  0.11980427478E+04 0.  0.
        2    1    3    3  502    0 -0.31567802784E+03 -0.39815065383E+03 -0.10257994445E+04  0.11447449763E+04  0.25500000920E-02 0.  1.
       -2    1    3    3    0  502  0.31567802784E+03  0.39815065383E+03 -0.14033779922E+03  0.52713495265E+03  0.25500000920E-02 0. -1.
</event>
<event>
 5   0  0.9169078E-04  0.1129799E+04  0.7818609E-02  0.9176625E-01
        1   -1    0    0  501    0  0.00000000000E+00  0.00000000000E+00  0.24813028684E+03  0.24813028689E+03  0.50400001928E-02 0. -1.
       -1   -1    0    0    0  501  0.00000000000E+00  0.00000000000E+00 -0.12860634750E+04  0.12860634751E+04  0.50400001928E-02 0.  1.
    10030    2    1    2    0    0  0.00000000000E+00  0.00000000000E+00 -0.10379331882E+04  0.15341937619E+04  0.11297987414E+04 0.  0.
        1    1    3    3  502    0  0.22533344960E+03 -0.41512781624E+03 -0.98214657531E+02  0.48244417947E+03  0.50400001928E-02 0. -1.
       -1    1    3    3    0  502 -0.22533344960E+03  0.41512781624E+03 -0.93971853067E+03  0.10517495825E+04  0.50400001928E-02 0.  1.
</event>
<event>
 5   0  0.1597352E-03  0.1196720E+04  0.7818609E-02  0.9115733E-01
       -2   -1    0    0    0  501  0.00000000000E+00  0.00000000000E+00  0.66407831987E+03  0.66407831988E+03  0.25500000920E-02 0. -1.
        2   -1    0    0  501    0  0.00000000000E+00  0.00000000000E+00 -0.53914496435E+03  0.53914496435E+03  0.25500000920E-02 0.  1.
    10030    2    1    2    0    0  0.00000000000E+00  0.00000000000E+00  0.12493335553E+03  0.12032232842E+04  0.11967196532E+04 0.  0.
        1    1    3    3  502    0 -0.14332583074E+03  0.51572236329E+03  0.33135723378E+03  0.62953114789E+03  0.50400001928E-02 0. -1.
       -1    1    3    3    0  502  0.14332583074E+03 -0.51572236329E+03 -0.20642387825E+03  0.57369213634E+03  0.50400001928E-02 0.  1.
</event>
<event>
 5   0  0.9208078E-04  0.1201521E+04  0.7818609E-02  0.9111526E-01
       -1   -1    0    0    0  501  0.00000000000E+00  0.00000000000E+00  0.21278342841E+03  0.21278342847E+03  0.50400001928E-02 0. -1.
        1   -1    0    0  501    0  0.00000000000E+00  0.00000000000E+00 -0.16961533871E+04  0.16961533871E+04  0.50400001928E-02 0.  1.
    10030    2    1    2    0    0  0.00000000000E+00  0.00000000000E+00 -0.14833699587E+04  0.19089368156E+04  0.12015212572E+04 0.  0.
        3    1    3    3  502    0 -0.45180457741E+03 -0.36494155252E+03 -0.49759536123E+03  0.76479465652E+03  0.10100000352E+00 0. -1.
       -3    1    3    3    0  502  0.45180457741E+03  0.36494155252E+03 -0.98577459748E+03  0.11441421591E+04  0.10100000352E+00 0.  1.
</event>
<event>
 5   0  0.1567019E-03  0.1197033E+04  0.7818609E-02  0.9115458E-01
        2   -1    0    0  501    0  0.00000000000E+00  0.00000000000E+00  0.17443543206E+04  0.17443543206E+04  0.25500000920E-02 0.  1.
       -2   -1    0    0    0  501  0.00000000000E+00  0.00000000000E+00 -0.20536065287E+03  0.20536065288E+03  0.25500000920E-02 0. -1.
    10030    2    1    2    0    0  0.00000000000E+00  0.00000000000E+00  0.15389936677E+04  0.19497149735E+04  0.11970325679E+04 0.  0.
        5    1    3    3  502    0  0.59140375015E+02  0.16772567895E+03 -0.16129681915E+03  0.24014212709E+03  0.46999998093E+01 0. -1.
       -5    1    3    3    0  502 -0.59140375015E+02 -0.16772567895E+03  0.17002904869E+04  0.17095728464E+04  0.46999998093E+01 0.  1.
</event>
<event>
 5   0  0.1597352E-03  0.1196542E+04  0.7818609E-02  0.9115889E-01
        2   -1    0    0  501    0  0.00000000000E+00  0.00000000000E+00  0.81334884663E+03  0.81334884663E+03  0.25500000920E-02 0. -1.
       -2   -1    0    0    0  501  0.00000000000E+00  0.00000000000E+00 -0.44006690591E+03  0.44006690592E+03  0.25500000920E-02 0.  1.
    10030    2    1    2    0    0  0.00000000000E+00  0.00000000000E+00  0.37328194071E+03  0.12534157525E+04  0.11965415335E+04 0.  0.
        1    1    3    3  502    0  0.20749032309E+03 -0.55727395630E+03  0.11777886486E+03  0.60619993202E+03  0.50400001928E-02 0. -1.
       -1    1    3    3    0  502 -0.20749032309E+03  0.55727395630E+03  0.25550307586E+03  0.64721582053E+03  0.50400001928E-02 0.  1.
</event>
<event>
 5   0  0.9358428E-04  0.1209738E+04  0.7818609E-02  0.9104375E-01
        1   -1    0    0  501    0  0.00000000000E+00  0.00000000000E+00  0.36424784015E+03  0.36424784018E+03  0.50400001928E-02 0.  1.
       -1   -1    0    0    0  501  0.00000000000E+00  0.00000000000E+00 -0.10044445284E+04  0.10044445284E+04  0.50400001928E-02 0. -1.
    10030    2    1    2    0    0  0.00000000000E+00  0.00000000000E+00 -0.64019668824E+03  0.13686923686E+04  0.12097384015E+04 0.  0.
        2    1    3    3  502    0  0.19604940058E+03  0.45315693997E+03  0.75210874359E+02  0.49944294503E+03  0.25500000920E-02 0.  1.
       -2    1    3    3    0  502 -0.19604940058E+03 -0.45315693997E+03 -0.71540756260E+03  0.86924942355E+03  0.25500000920E-02 0. -1.
</event>
<event>
 5   0  0.1537557E-03  0.1208725E+04  0.7818609E-02  0.9105254E-01
       -2   -1    0    0    0  501  0.00000000000E+00  0.00000000000E+00  0.27526406603E+03  0.27526406604E+03  0.25500000920E-02 0.  1.
        2   -1    0    0  501    0  0.00000000000E+00  0.00000000000E+00 -0.13269226114E+04  0.13269226114E+04  0.25500000920E-02 0. -1.
    10030    2    1    2    0    0  0.00000000000E+00  0.00000000000E+00 -0.10516585453E+04  0.16021866774E+04  0.12087251355E+04 0.  0.
        2    1    3    3  502    0 -0.45622567313E+03  0.13861142410E+03 -0.33601274852E+02  0.47800003912E+03  0.25500000920E-02 0.  1.
       -2    1    3    3    0  502  0.45622567313E+03 -0.13861142410E+03 -0.10180572705E+04  0.11241866383E+04  0.25500000920E-02 0. -1.
</event>
<event>
 5   0  0.1597352E-03  0.1193207E+04  0.7818609E-02  0.9118823E-01
       -2   -1    0    0    0  501  0.00000000000E+00  0.00000000000E+00  0.16306060861E+03  0.16306060863E+03  0.25500000920E-02 0.  1.
        2   -1    0    0  501    0  0.00000000000E+00  0.00000000000E+00 -0.21828436959E+04  0.21828436959E+04  0.25500000920E-02 0. -1.
    10030    2    1    2    0    0  0.00000000000E+00  0.00000000000E+00 -0.20197830872E+04  0.23459043045E+04  0.11932071431E+04 0.  0.
        1    1    3    3  502    0  0.59049310609E+03 -0.81583154954E+02 -0.10579654551E+04  0.12143429597E+04  0.50400001928E-02 0. -1.
       -1    1    3    3    0  502 -0.59049310609E+03  0.81583154954E+02 -0.96181763214E+03  0.11315613448E+04  0.50400001928E-02 0.  1.
</event>
<event>
 5   0  0.9358428E-04  0.1200072E+04  0.7818609E-02  0.9112794E-01
        1   -1    0    0  501    0  0.00000000000E+00  0.00000000000E+00  0.34834488628E+03  0.34834488631E+03  0.50400001928E-02 0.  1.
       -1   -1    0    0    0  501  0.00000000000E+00  0.00000000000E+00 -0.10335817985E+04  0.10335817985E+04  0.50400001928E-02 0. -1.
    10030    2    1    2    0    0  0.00000000000E+00  0.00000000000E+00 -0.68523691218E+03  0.13819266848E+04  0.12000715547E+04 0.  0.
        2    1    3    3  502    0  0.19819791960E+03  0.31780555176E+03  0.19720572266E+03  0.42328817739E+03  0.25500000920E-02 0.  1.
       -2    1    3    3    0  502 -0.19819791960E+03 -0.31780555176E+03 -0.88244263484E+03  0.95863850739E+03  0.25500000920E-02 0. -1.
</event>
<event>
 5   0  0.8908478E-04  0.1206861E+04  0.7818609E-02  0.9106872E-01
        1   -1    0    0  501    0  0.00000000000E+00  0.00000000000E+00  0.22403876585E+04  0.22403876585E+04  0.50400001928E-02 0. -1.
       -1   -1    0    0    0  501  0.00000000000E+00  0.00000000000E+00 -0.16252927160E+03  0.16252927168E+03  0.50400001928E-02 0.  1.
    10030    2    1    2    0    0  0.00000000000E+00  0.00000000000E+00  0.20778583869E+04  0.24029169302E+04  0.12068613414E+04 0.  0.
        4    1    3    3  502    0  0.43272912327E+03  0.11698608941E+03  0.23461859611E+03  0.50595230782E+03  0.12699999809E+01 0.  1.
       -4    1    3    3    0  502 -0.43272912327E+03 -0.11698608941E+03  0.18432397908E+04  0.18969646223E+04  0.12699999809E+01 0. -1.
</event>
<event>
 5   0  0.1567019E-03  0.1335456E+04  0.7818609E-02  0.9001912E-01
       -2   -1    0    0    0  501  0.00000000000E+00  0.00000000000E+00  0.44728099727E+03  0.44728099727E+03  0.25500000920E-02 0. -1.
        2   -1    0    0  501    0  0.00000000000E+00  0.00000000000E+00 -0.99682397658E+03  0.99682397658E+03  0.25500000920E-02 0.  1.
    10030    2    1    2    0    0  0.00000000000E+00  0.00000000000E+00 -0.54954297931E+03  0.14441049739E+04  0.13354556112E+04 0.  0.
        5    1    3    3  502    0 -0.66726764640E+03  0.21136039502E+02 -0.28781466354E+03  0.72701596587E+03  0.46999998093E+01 0.  1.
       -5    1    3    3    0  502  0.66726764640E+03 -0.21136039502E+02 -0.26172831578E+03  0.71708900798E+03  0.46999998093E+01 0. -1.
</event>
<event>
 5   0  0.9208078E-04  0.1155197E+04  0.7818609E-02  0.9153002E-01
       -1   -1    0    0    0  501  0.00000000000E+00  0.00000000000E+00  0.78016075277E+03  0.78016075279E+03  0.50400001928E-02 0.  1.
        1   -1    0    0  501    0  0.00000000000E+00  0.00000000000E+00 -0.42762992508E+03  0.42762992511E+03  0.50400001928E-02 0. -1.
    10030    2    1    2    0    0  0.00000000000E+00  0.00000000000E+00  0.35253082769E+03  0.12077906779E+04  0.11551970988E+04 0.  0.
        3    1    3    3  502    0 -0.14375560562E+03 -0.51679068575E+03 -0.47686999173E+02  0.53852794460E+03  0.10100000352E+00 0.  1.
       -3    1    3    3    0  502  0.14375560562E+03  0.51679068575E+03  0.40021782686E+03  0.66926273329E+03  0.10100000352E+00 0. -1.
</event>
<event>
 5   0  0.9169078E-04  0.1184195E+04  0.7818609E-02  0.9126804E-01
        1   -1    0    0  501    0  0.00000000000E+00  0.00000000000E+00  0.31236244821E+03  0.31236244825E+03  0.50400001928E-02 0. -1.
       -1   -1    0    0    0  501  0.00000000000E+00  0.00000000000E+00 -0.11223488228E+04  0.11223488228E+04  0.50400001928E-02 0.  1.
    10030    2    1    2    0    0  0.00000000000E+00  0.00000000000E+00 -0.80998637462E+03  0.14347112711E+04  0.11841952982E+04 0.  0.
        1    1    3    3  502    0 -0.27903467365E+03  0.49329455716E+03 -0.61265912921E+03  0.83459635624E+03  0.50400001928E-02 0.  1.
       -1    1    3    3    0  502  0.27903467365E+03 -0.49329455716E+03 -0.19732724540E+03  0.60011491485E+03  0.50400001928E-02 0. -1.
</event>
<event>
 5   0  0.1647550E-03  0.1200375E+04  0.7818609E-02  0.9112528E-01
        2   -1    0    0  501    0  0.00000000000E+00  0.00000000000E+00  0.23487121354E+04  0.23487121354E+04  0.25500000920E-02 0.  1.
       -2   -1    0    0    0  501  0.00000000000E+00  0.00000000000E+00 -0.15337141925E+03  0.15337141927E+03  0.25500000920E-02 0. -1.
    10030    2    1    2    0    0  0.00000000000E+00  0.00000000000E+00  0.21953407161E+04  0.25020835547E+04  0.12003754640E+04 0.  0.
        3    1    3    3  502    0  0.50058521127E+03 -0.18690113474E+03  0.52794253778E+03  0.75115971757E+03  0.10100000352E+00 0. -1.
       -3    1    3    3    0  502 -0.50058521127E+03  0.18690113474E+03  0.16673981784E+04  0.17509238371E+04  0.10100000352E+00 0.  1.
</event>
<event>
 5   0  0.1567019E-03  0.1199453E+04  0.7818609E-02  0.9113336E-01
        2   -1    0    0  501    0  0.00000000000E+00  0.00000000000E+00  0.86699579478E+03  0.86699579478E+03  0.25500000920E-02 0.  1.
       -2   -1    0    0    0  501  0.00000000000E+00  0.00000000000E+00 -0.41484824259E+03  0.41484824260E+03  0.25500000920E-02 0. -1.
    10030    2    1    2    0    0  0.00000000000E+00  0.00000000000E+00  0.45214755219E+03  0.12818440374E+04  0.11994526782E+04 0.  0.
        5    1    3    3  502    0  0.31006782384E+02  0.63770066535E+02 -0.41033275929E+03  0.41644099856E+03  0.46999998093E+01 0. -1.
       -5    1    3    3    0  502 -0.31006782384E+02 -0.63770066535E+02  0.86248031147E+03  0.86540303883E+03  0.46999998093E+01 0.  1.
</event>
<event>
 5   0  0.9170776E-04  0.1214365E+04  0.7818609E-02  0.9100375E-01
       -1   -1    0    0    0  501  0.00000000000E+00  0.00000000000E+00  0.74956955876E+03  0.74956955878E+03  0.50400001928E-02 0. -1.
        1   -1    0    0  501    0  0.00000000000E+00  0.00000000000E+00 -0.49184345917E+03  0.49184345920E+03  0.50400001928E-02 0.  1.
    10030    2    1    2    0    0  0.00000000000E+00  0.00000000000E+00  0.25772609959E+03  0.12414130180E+04  0.12143654881E+04 0.  0.
        5    1    3    3  502    0 -0.56093747922E+03 -0.22468242781E+03  0.68248677956E+02  0.60812253781E+03  0.46999998093E+01 0.  1.
       -5    1    3    3    0  502  0.56093747922E+03  0.22468242781E+03  0.18947742163E+03  0.63329048016E+03  0.46999998093E+01 0. -1.
</event>
<event>
 5   0  0.9358428E-04  0.1171005E+04  0.7818609E-02  0.9138622E-01
       -1   -1    0    0    0  501  0.00000000000E+00  0.00000000000E+00  0.21907943040E+03  0.21907943046E+03  0.50400001928E-02 0. -1.
        1   -1    0    0  501    0  0.00000000000E+00  0.00000000000E+00 -0.15647888425E+04  0.15647888425E+04  0.50400001928E-02 0.  1.
    10030    2    1    2    0    0  0.00000000000E+00  0.00000000000E+00 -0.13457094120E+04  0.17838682729E+04  0.11710047794E+04 0.  0.
        2    1    3    3  502    0  0.47942970112E+03  0.30295116836E+03 -0.89455960499E+03  0.10591832399E+04  0.25500000920E-02 0.  1.
       -2    1    3    3    0  502 -0.47942970112E+03 -0.30295116836E+03 -0.45114980706E+03  0.72468503306E+03  0.25500000920E-02 0. -1.
</event>
<event>
 5   0  0.1551501E-03  0.1199199E+04  0.7818609E-02  0.9113558E-01
       -2   -1    0    0    0  501  0.00000000000E+00  0.00000000000E+00  0.28383948023E+03  0.28383948024E+03  0.25500000920E-02 0.  1.
        2   -1    0    0  501    0  0.00000000000E+00  0.00000000000E+00 -0.12666304309E+04  0.12666304309E+04  0.25500000920E-02 0. -1.
    10030    2    1    2    0    0  0.00000000000E+00  0.00000000000E+00 -0.98279095071E+03  0.15504699112E+04  0.11991992715E+04 0.  0.
        4    1    3    3  502    0 -0.68088241400E+02 -0.25760108489E+03 -0.11858803560E+04  0.12154456628E+04  0.12699999809E+01 0. -1.
       -4    1    3    3    0  502  0.68088241400E+02  0.25760108489E+03  0.20308940530E+03  0.33502424838E+03  0.12699999809E+01 0.  1.
</event>
<event>
 5   0  0.1567019E-03  0.1199403E+04  0.7818609E-02  0.9113379E-01
        2   -1    0    0  501    0  0.00000000000E+00  0.00000000000E+00  0.14678610574E+04  0.14678610574E+04  0.25500000920E-02 0.  1.
       -2   -1    0    0    0  501  0.00000000000E+00  0.00000000000E+00 -0.24501096402E+03  0.24501096403E+03  0.25500000920E-02 0. -1.
    10030    2    1    2    0    0  0.00000000000E+00  0.00000000000E+00  0.12228500934E+04  0.17128720215E+04  0.11994032729E+04 0.  0.
        5    1    3    3  502    0 -0.41361079112E+03 -0.30196397107E+03  0.16581135642E+03  0.53830439555E+03  0.46999998093E+01 0. -1.
       -5    1    3    3    0  502  0.41361079112E+03  0.30196397107E+03  0.10570387370E+04  0.11745676259E+04  0.46999998093E+01 0.  1.
</event>
<event>
 5   0  0.9169078E-04  0.1199957E+04  0.7818609E-02  0.9112894E-01
       -1   -1    0    0    0  501  0.00000000000E+00  0.00000000000E+00  0.36529334541E+03  0.36529334544E+03  0.50400001928E-02 0. -1.
        1   -1    0    0  501    0  0.00000000000E+00  0.00000000000E+00 -0.98543820533E+03  0.98543820534E+03  0.50400001928E-02 0.  1.
    10030    2    1    2    0    0  0.00000000000E+00  0.00000000000E+00 -0.62014485992E+03  0.13507315508E+04  0.11999566971E+04 0.  0.
        1    1    3    3  502    0  0.20578801373E+03  0.54753244562E+03 -0.46039429896E+03  0.74438121694E+03  0.50400001928E-02 0.  1.
       -1    1    3    3    0  502 -0.20578801373E+03 -0.54753244562E+03 -0.15975056096E+03  0.60635033384E+03  0.50400001928E-02 0. -1.
</event>
<event>
 5   0  0.1537557E-03  0.1200375E+04  0.7818609E-02  0.9112529E-01
        2   -1    0    0  501    0  0.00000000000E+00  0.00000000000E+00  0.79208186618E+03  0.79208186618E+03  0.25500000920E-02 0.  1.
       -2   -1    0    0    0  501  0.00000000000E+00  0.00000000000E+00 -0.45478231132E+03  0.45478231133E+03  0.25500000920E-02 0. -1.
    10030    2    1    2    0    0  0.00000000000E+00  0.00000000000E+00  0.33729955486E+03  0.12468641775E+04  0.12003746446E+04 0.  0.
        2    1    3    3  502    0 -0.21929788009E+03 -0.34687161153E+03 -0.28627725708E+03  0.50036600906E+03  0.25500000920E-02 0. -1.
       -2    1    3    3    0  502  0.21929788009E+03  0.34687161153E+03  0.62357681194E+03  0.74649816845E+03  0.25500000920E-02 0.  1.
</event>
<event>
 5   0  0.9358428E-04  0.1198200E+04  0.7818609E-02  0.9114433E-01
       -1   -1    0    0    0  501  0.00000000000E+00  0.00000000000E+00  0.66175908939E+03  0.66175908941E+03  0.50400001928E-02 0.  1.
        1   -1    0    0  501    0  0.00000000000E+00  0.00000000000E+00 -0.54237405814E+03  0.54237405817E+03  0.50400001928E-02 0. -1.
    10030    2    1    2    0    0  0.00000000000E+00  0.00000000000E+00  0.11938503124E+03  0.12041331476E+04  0.11982002551E+04 0.  0.
        2    1    3    3  502    0  0.23496910510E+02 -0.49769931959E+03  0.39400205370E+03  0.63521204007E+03  0.25500000920E-02 0.  1.
       -2    1    3    3    0  502 -0.23496910510E+02  0.49769931959E+03 -0.27461702246E+03  0.56892110750E+03  0.25500000920E-02 0. -1.
</event>
<event>
 5   0  0.1597352E-03  0.1204014E+04  0.7818609E-02  0.9109350E-01
       -2   -1    0    0    0  501  0.00000000000E+00  0.00000000000E+00  0.28093629869E+03  0.28093629870E+03  0.25500000920E-02 0. -1.
        2   -1    0    0  501    0  0.00000000000E+00  0.00000000000E+00 -0.12900162519E+04  0.12900162519E+04  0.25500000920E-02 0.  1.
    10030    2    1    2    0    0  0.00000000000E+00  0.00000000000E+00 -0.10090799532E+04  0.15709525506E+04  0.12040139386E+04 0.  0.
        1    1    3    3  502    0  0.11952725445E+03 -0.10550861563E+03  0.25288976239E+03  0.29895160892E+03  0.50400001928E-02 0. -1.
       -1    1    3    3    0  502 -0.11952725445E+03  0.10550861563E+03 -0.12619697156E+04  0.12720009416E+04  0.50400001928E-02 0.  1.
</event>
<event>
 5   0  0.9169078E-04  0.1199218E+04  0.7818609E-02  0.9113541E-01
        1   -1    0    0  501    0  0.00000000000E+00  0.00000000000E+00  0.11919894864E+04  0.11919894864E+04  0.50400001928E-02 0. -1.
       -1   -1    0    0    0  501  0.00000000000E+00  0.00000000000E+00 -0.30162248491E+03  0.30162248495E+03  0.50400001928E-02 0.  1.
    10030    2    1    2    0    0  0.00000000000E+00  0.00000000000E+00  0.89036700145E+03  0.14936119713E+04  0.11992177966E+04 0.  0.
        1    1    3    3  502    0 -0.28596036424E+03 -0.21234693011E+03  0.10459510225E+04  0.11049335229E+04  0.50400001928E-02 0. -1.
       -1    1    3    3    0  502  0.28596036424E+03  0.21234693011E+03 -0.15558402101E+03  0.38867844841E+03  0.50400001928E-02 0.  1.
</event>
<event>
 5   0  0.9208078E-04  0.1200733E+04  0.7818609E-02  0.9112215E-01
       -1   -1    0    0    0  501  0.00000000000E+00  0.00000000000E+00  0.20581561128E+03  0.20581561134E+03  0.50400001928E-02 0. -1.
        1   -1    0    0  501    0  0.00000000000E+00  0.00000000000E+00 -0.17512767656E+04  0.17512767656E+04  0.50400001928E-02 0.  1.
    10030    2    1    2    0    0  0.00000000000E+00  0.00000000000E+00 -0.15454611543E+04  0.19570923769E+04  0.12007332728E+04 0.  0.
        3    1    3    3  502    0 -0.37251433489E+03  0.56833672066E+02 -0.15345182445E+04  0.15801086194E+04  0.10100000352E+00 0.  1.
       -3    1    3    3    0  502  0.37251433489E+03 -0.56833672066E+02 -0.10942909752E+02  0.37698375755E+03  0.10100000352E+00 0. -1.
</event>
<event>
 5   0  0.1551501E-03  0.1201529E+04  0.7818609E-02  0.9111519E-01
       -2   -1    0    0    0  501  0.00000000000E+00  0.00000000000E+00  0.58063234644E+03  0.58063234645E+03  0.25500000920E-02 0.  1.
        2   -1    0    0  501    0  0.00000000000E+00  0.00000000000E+00 -0.62159502147E+03  0.62159502148E+03  0.25500000920E-02 0. -1.
    10030    2    1    2    0    0  0.00000000000E+00  0.00000000000E+00 -0.40962675030E+02  0.12022273679E+04  0.12015293186E+04 0.  0.
        4    1    3    3  502    0  0.55094830511E+03 -0.18400884550E+03 -0.17391080553E+03  0.60634138182E+03  0.12699999809E+01 0. -1.
       -4    1    3    3    0  502 -0.55094830511E+03  0.18400884550E+03  0.13294813050E+03  0.59588598610E+03  0.12699999809E+01 0.  1.
</event>
<event>
 5   0  0.1597352E-03  0.1194142E+04  0.7818609E-02  0.9118000E-01
        2   -1    0    0  501    0  0.00000000000E+00  0.00000000000E+00  0.62621461093E+03  0.62621461094E+03  0.25500000920E-02 0.  1.
       -2   -1    0    0    0  501  0.00000000000E+00  0.00000000000E+00 -0.56928363880E+03  0.56928363881E+03  0.25500000920E-02 0. -1.
    10030    2    1    2    0    0  0.00000000000E+00  0.00000000000E+00  0.56930972132E+02  0.11954982497E+04  0.11941419219E+04 0.  0.
        1    1    3    3  502    0  0.21507309036E+03  0.53641714459E+03  0.17861565167E+03  0.60489944475E+03  0.50400001928E-02 0.  1.
       -1    1    3    3    0  502 -0.21507309036E+03 -0.53641714459E+03 -0.12168467954E+03  0.59059880500E+03  0.50400001928E-02 0. -1.
</event>
<event>
 5   0  0.1567019E-03  0.1200659E+04  0.7818609E-02  0.9112280E-01
        2   -1    0    0  501    0  0.00000000000E+00  0.00000000000E+00  0.13608992200E+04  0.13608992200E+04  0.25500000920E-02 0.  1.
       -2   -1    0    0    0  501  0.00000000000E+00  0.00000000000E+00 -0.26482173742E+03  0.26482173743E+03  0.25500000920E-02 0. -1.
    10030    2    1    2    0    0  0.00000000000E+00  0.00000000000E+00  0.10960774826E+04  0.16257209575E+04  0.12006593121E+04 0.  0.
        5    1    3    3  502    0  0.23662845647E+03 -0.53312097048E+03  0.74030345664E+03  0.94248729089E+03  0.46999998093E+01 0. -1.
       -5    1    3    3    0  502 -0.23662845647E+03  0.53312097048E+03  0.35577402598E+03  0.68323366658E+03  0.46999998093E+01 0.  1.
</event>
<event>
 5   0  0.8908478E-04  0.1202182E+04  0.7818609E-02  0.9110949E-01
       -1   -1    0    0    0  501  0.00000000000E+00  0.00000000000E+00  0.24958658070E+03  0.24958658075E+03  0.50400001928E-02 0.  1.
        1   -1    0    0  501    0  0.00000000000E+00  0.00000000000E+00 -0.14476345792E+04  0.14476345792E+04  0.50400001928E-02 0. -1.
    10030    2    1    2    0    0  0.00000000000E+00  0.00000000000E+00 -0.11980479985E+04  0.16972211600E+04  0.12021816249E+04 0.  0.
        4    1    3    3  502    0 -0.40647252189E+03 -0.34680791730E+03 -0.21030127148E+03  0.57421588295E+03  0.12699999809E+01 0.  1.
       -4    1    3    3    0  502  0.40647252189E+03  0.34680791730E+03 -0.98774672706E+03  0.11230052770E+04  0.12699999809E+01 0. -1.
</event>
<event>
 5   0  0.9170776E-04  0.1200041E+04  0.7818609E-02  0.9112821E-01
       -1   -1    0    0    0  501  0.00000000000E+00  0.00000000000E+00  0.95284243428E+03  0.95284243429E+03  0.50400001928E-02 0.  1.
        1   -1    0    0  501    0  0.00000000000E+00  0.00000000000E+00 -0.37784282104E+03  0.37784282107E+03  0.50400001928E-02 0. -1.
    10030    2    1    2    0    0  0.00000000000E+00  0.00000000000E+00  0.57499961324E+03  0.13306852554E+04  0.12000411216E+04 0.  0.
        5    1    3    3  502    0  0.51792317666E+03  0.24367105821E+03  0.48704209692E+03  0.75156642800E+03  0.46999998093E+01 0.  1.
       -5    1    3    3    0  502 -0.51792317666E+03 -0.24367105821E+03  0.87957516328E+02  0.57911882736E+03  0.46999998093E+01 0. -1.
</event>
<event>
 5   0  0.1537557E-03  0.1203803E+04  0.7818609E-02  0.9109534E-01
       -2   -1    0    0    0  501  0.00000000000E+00  0.00000000000E+00  0.27036773672E+03  0.27036773673E+03  0.25500000920E-02 0. -1.
        2   -1    0    0  501    0  0.00000000000E+00  0.00000000000E+00 -0.13399733117E+04  0.13399733117E+04  0.25500000920E-02 0.  1.
    10030    2    1    2    0    0  0.00000000000E+00  0.00000000000E+00 -0.10696055750E+04  0.16103410484E+04  0.12038032257E+04 0.  0.
        2    1    3    3  502    0  0.42196740259E+03 -0.39186161007E+02  0.36970573479E+02  0.42539260381E+03  0.25500000920E-02 0. -1.
       -2    1    3    3    0  502 -0.42196740259E+03  0.39186161007E+02 -0.11065761485E+04  0.11849484446E+04  0.25500000920E-02 0.  1.
</event>
<event>
 5   0  0.8908478E-04  0.1202739E+04  0.7818609E-02  0.9110462E-01
       -1   -1    0    0    0  501  0.00000000000E+00  0.00000000000E+00  0.10145473276E+04  0.10145473276E+04  0.50400001928E-02 0.  1.
        1   -1    0    0  501    0  0.00000000000E+00  0.00000000000E+00 -0.35645993188E+03  0.35645993191E+03  0.50400001928E-02 0. -1.
    10030    2    1    2    0    0  0.00000000000E+00  0.00000000000E+00  0.65808739572E+03  0.13710072595E+04  0.12027393256E+04 0.  0.
        4    1    3    3  502    0 -0.33643567506E+03  0.36093227926E+02 -0.23765271104E+03  0.41348773684E+03  0.12699999809E+01 0. -1.
       -4    1    3    3    0  502  0.33643567506E+03 -0.36093227926E+02  0.89574010676E+03  0.95751952268E+03  0.12699999809E+01 0.  1.
</event>
<event>
 5   0  0.1567019E-03  0.1198096E+04  0.7818609E-02  0.9114524E-01
       -2   -1    0    0    0  501  0.00000000000E+00  0.00000000000E+00  0.47318086224E+03  0.47318086225E+03  0.25500000920E-02 0.  1.
        2   -1    0    0  501    0  0.00000000000E+00  0.00000000000E+00 -0.75839656937E+03  0.75839656937E+03  0.25500000920E-02 0. -1.
    10030    2    1    2    0    0  0.00000000000E+00  0.00000000000E+00 -0.28521570713E+03  0.12315774316E+04  0.11980963945E+04 0.  0.
        5    1    3    3  502    0  0.49329038024E+03 -0.33141524284E+03 -0.65237032049E+02  0.59787074086E+03  0.46999998093E+01 0.  1.
       -5    1    3    3    0  502 -0.49329038024E+03  0.33141524284E+03 -0.21997867508E+03  0.63370669076E+03  0.46999998093E+01 0. -1.
</event>
<event>
 5   0  0.9170776E-04  0.1197331E+04  0.7818609E-02  0.9115196E-01
        1   -1    0    0  501    0  0.00000000000E+00  0.00000000000E+00  0.49093128710E+03  0.49093128712E+03  0.50400001928E-02 0.  1.
       -1   -1    0    0    0  501  0.00000000000E+00  0.00000000000E+00 -0.73004172450E+03  0.73004172451E+03  0.50400001928E-02 0. -1.
    10030    2    1    2    0    0  0.00000000000E+00  0.00000000000E+00 -0.23911043740E+03  0.12209730116E+04  0.11973309041E+04 0.  0.
        5    1    3    3  502    0  0.13731564110E+03 -0.43666594326E+03  0.27386776714E+03  0.53344013269E+03  0.46999998093E+01 0.  1.
       -5    1    3    3    0  502 -0.13731564110E+03  0.43666594326E+03 -0.51297820454E+03  0.68753287894E+03  0.46999998093E+01 0. -1.
</event>
<event>
 5   0  0.9169078E-04  0.1196314E+04  0.7818609E-02  0.9116089E-01
        1   -1    0    0  501    0  0.00000000000E+00  0.00000000000E+00  0.38247229828E+03  0.38247229831E+03  0.50400001928E-02 0. -1.
       -1   -1    0    0    0  501  0.00000000000E+00  0.00000000000E+00 -0.93547120673E+03  0.93547120674E+03  0.50400001928E-02 0.  1.
    10030    2    1    2    0    0  0.00000000000E+00  0.00000000000E+00 -0.55299890845E+03  0.13179435050E+04  0.11963140431E+04 0.  0.
        1    1    3    3  502    0  0.44836222565E+03 -0.37116295592E+03 -0.12463991572E+03  0.59525266388E+03  0.50400001928E-02 0. -1.
       -1    1    3    3    0  502 -0.44836222565E+03  0.37116295592E+03 -0.42835899273E+03  0.72269084117E+03  0.50400001928E-02 0.  1.
</event>
<event>
 5   0  0.1537557E-03  0.1202635E+04  0.7818609E-02  0.9110553E-01
       -2   -1    0    0    0  501  0.00000000000E+00  0.00000000000E+00  0.36028505309E+03  0.36028505310E+03  0.25500000920E-02 0.  1.
        2   -1    0    0  501    0  0.00000000000E+00  0.00000000000E+00 -0.10036016226E+04  0.10036016226E+04  0.25500000920E-02 0. -1.
    10030    2    1    2    0    0  0.00000000000E+00  0.00000000000E+00 -0.64331656949E+03  0.13638866757E+04  0.12026348804E+04 0.  0.
        2    1    3    3  502    0 -0.26601615767E+02  0.58015808796E+03 -0.14490290176E+03  0.59857155289E+03  0.25500000920E-02 0.  1.
       -2    1    3    3    0  502  0.26601615767E+02 -0.58015808796E+03 -0.49841366772E+03  0.76531512279E+03  0.25500000920E-02 0. -1.
</event>
<event>
 5   0  0.9170776E-04  0.1198865E+04  0.7818609E-02  0.9113850E-01
       -1   -1    0    0    0  501  0.00000000000E+00  0.00000000000E+00  0.10163831129E+04  0.10163831129E+04  0.50400001928E-02 0.  1.
        1   -1    0    0  501    0  0.00000000000E+00  0.00000000000E+00 -0.35352754190E+03  0.35352754194E+03  0.50400001928E-02 0. -1.
    10030    2    1    2    0    0  0.00000000000E+00  0.00000000000E+00  0.66285557095E+03  0.13699106548E+04  0.11988651693E+04 0.  0.
        5    1    3    3  502    0 -0.20347726941E+03  0.56378992648E+03  0.32464323463E+03  0.68167250212E+03  0.46999998093E+01 0. -1.
       -5    1    3    3    0  502  0.20347726941E+03 -0.56378992648E+03  0.33821233632E+03  0.68823815268E+03  0.46999998093E+01 0.  1.
</event>
<event>
 5   0  0.1597352E-03  0.1181367E+04  0.7818609E-02  0.9129324E-01
        2   -1    0    0  501    0  0.00000000000E+00  0.00000000000E+00  0.96599893560E+03  0.96599893560E+03  0.25500000920E-02 0. -1.
       -2   -1    0    0    0  501  0.00000000000E+00  0.00000000000E+00 -0.36118782311E+03  0.36118782312E+03  0.25500000920E-02 0.  1.
    10030    2    1    2    0    0  0.00000000000E+00  0.00000000000E+00  0.60481111249E+03  0.13271867587E+04  0.11813670940E+04 0.  0.
        1    1    3    3  502    0  0.18782696242E+03 -0.21882362905E+03 -0.27672856430E+03  0.39967667779E+03  0.50400001928E-02 0.  1.
       -1    1    3    3    0  502 -0.18782696242E+03  0.21882362905E+03  0.88153967679E+03  0.92751008093E+03  0.50400001928E-02 0. -1.
</event>
<event>
 5   0  0.9169078E-04  0.1198653E+04  0.7818609E-02  0.9114036E-01
       -1   -1    0    0    0  501  0.00000000000E+00  0.00000000000E+00  0.33026381560E+03  0.33026381564E+03  0.50400001928E-02 0. -1.
        1   -1    0    0  501    0  0.00000000000E+00  0.00000000000E+00 -0.10875923698E+04  0.10875923699E+04  0.50400001928E-02 0.  1.
    10030    2    1    2    0    0  0.00000000000E+00  0.00000000000E+00 -0.75732855425E+03  0.14178561855E+04  0.11986532541E+04 0.  0.
        1    1    3    3  502    0  0.34897606411E+03  0.36156127611E+03 -0.76501638366E+03  0.91529280397E+03  0.50400001928E-02 0. -1.
       -1    1    3    3    0  502 -0.34897606411E+03 -0.36156127611E+03  0.76878294093E+01  0.50256338153E+03  0.50400001928E-02 0.  1.
</event>
<event>
 5   0  0.9358428E-04  0.1198011E+04  0.7818609E-02  0.9114599E-01
       -1   -1    0    0    0  501  0.00000000000E+00  0.00000000000E+00  0.17023404548E+03  0.17023404556E+03  0.50400001928E-02 0.  1.
        1   -1    0    0  501    0  0.00000000000E+00  0.00000000000E+00 -0.21077323898E+04  0.21077323898E+04  0.50400001928E-02 0. -1.
    10030    2    1    2    0    0  0.00000000000E+00  0.00000000000E+00 -0.19374983443E+04  0.22779664354E+04  0.11980113716E+04 0.  0.
        2    1    3    3  502    0  0.25866052121E+02 -0.26215010449E+03 -0.19916833987E+04  0.20090282453E+04  0.25500000920E-02 0. -1.
       -2    1    3    3    0  502 -0.25866052121E+02  0.26215010449E+03  0.54185054369E+02  0.26893819003E+03  0.25500000920E-02 0.  1.
</event>
<event>
 5   0  0.1551501E-03  0.1190983E+04  0.7818609E-02  0.9120785E-01
        2   -1    0    0  501    0  0.00000000000E+00  0.00000000000E+00  0.38900317464E+03  0.38900317465E+03  0.25500000920E-02 0.  1.
       -2   -1    0    0    0  501  0.00000000000E+00  0.00000000000E+00 -0.91158745533E+03  0.91158745534E+03  0.25500000920E-02 0. -1.
    10030    2    1    2    0    0  0.00000000000E+00  0.00000000000E+00 -0.52258428069E+03  0.13005906300E+04  0.11909834828E+04 0.  0.
        4    1    3    3  502    0 -0.27014707671E+03 -0.11185793859E+03 -0.82779952783E+03  0.87792101732E+03  0.12699999809E+01 0. -1.
       -4    1    3    3    0  502  0.27014707671E+03  0.11185793859E+03  0.30521524714E+03  0.42266961266E+03  0.12699999809E+01 0.  1.
</event>
<event>
 5   0  0.1537557E-03  0.1199240E+04  0.7818609E-02  0.9113522E-01
        2   -1    0    0  501    0  0.00000000000E+00  0.00000000000E+00  0.69863984101E+03  0.69863984102E+03  0.25500000920E-02 0.  1.
       -2   -1    0    0    0  501  0.00000000000E+00  0.00000000000E+00 -0.51463435811E+03  0.51463435811E+03  0.25500000920E-02 0. -1.
    10030    2    1    2    0    0  0.00000000000E+00  0.00000000000E+00  0.18400548290E+03  0.12132741991E+04  0.11992398695E+04 0.  0.
        2    1    3    3  502    0 -0.22749176348E+02  0.59520727424E+03  0.22240417477E+02  0.59605692723E+03  0.25500000920E-02 0. -1.
       -2    1    3    3    0  502  0.22749176348E+02 -0.59520727424E+03  0.16176506543E+03  0.61721727190E+03  0.25500000920E-02 0.  1.
</event>
<event>
 5   0  0.1551501E-03  0.1217697E+04  0.7818609E-02  0.9097506E-01
       -2   -1    0    0    0  501  0.00000000000E+00  0.00000000000E+00  0.39330360978E+03  0.39330360978E+03  0.25500000920E-02 0.  1.
        2   -1    0    0  501    0  0.00000000000E+00  0.00000000000E+00 -0.94251953011E+03  0.94251953012E+03  0.25500000920E-02 0. -1.
    10030    2    1    2    0    0  0.00000000000E+00  0.00000000000E+00 -0.54921592034E+03  0.13358231399E+04  0.12176967332E+04 0.  0.
        4    1    3    3  502    0  0.97005635304E+02 -0.18723765572E+03  0.35196199288E+03  0.41030097530E+03  0.12699999809E+01 0.  1.
       -4    1    3    3    0  502 -0.97005635304E+02  0.18723765572E+03 -0.90117791322E+03  0.92552216460E+03  0.12699999809E+01 0. -1.
</event>
<event>
 5   0  0.9358428E-04  0.1202524E+04  0.7818609E-02  0.9110650E-01
       -1   -1    0    0    0  501  0.00000000000E+00  0.00000000000E+00  0.70746444895E+03  0.70746444897E+03  0.50400001928E-02 0. -1.
        1   -1    0    0  501    0  0.00000000000E+00  0.00000000000E+00 -0.51100202553E+03  0.51100202555E+03  0.50400001928E-02 0.  1.
    10030    2    1    2    0    0  0.00000000000E+00  0.00000000000E+00  0.19646242343E+03  0.12184664745E+04  0.12025236238E+04 0.  0.
        2    1    3    3  502    0 -0.37129682098E+03  0.36205681886E+03 -0.21005453806E+03  0.55952603007E+03  0.25500000920E-02 0.  1.
       -2    1    3    3    0  502  0.37129682098E+03 -0.36205681886E+03  0.40651696149E+03  0.65894044446E+03  0.25500000920E-02 0. -1.
</event>
<event>
 5   0  0.1597352E-03  0.1239260E+04  0.7818609E-02  0.9079170E-01
        2   -1    0    0  501    0  0.00000000000E+00  0.00000000000E+00  0.82148265585E+03  0.82148265585E+03  0.25500000920E-02 0.  1.
       -2   -1    0    0    0  501  0.00000000000E+00  0.00000000000E+00 -0.46737591842E+03  0.46737591842E+03  0.25500000920E-02 0. -1.
    10030    2    1    2    0    0  0.00000000000E+00  0.00000000000E+00  0.35410673743E+03  0.12888585743E+04  0.12392597964E+04 0.  0.
        1    1    3    3  502    0  0.59331024491E+03 -0.13840908795E+03  0.59539577748E+02  0.61214302552E+03  0.50400001928E-02 0. -1.
       -1    1    3    3    0  502 -0.59331024491E+03  0.13840908795E+03  0.29456715968E+03  0.67671554876E+03  0.50400001928E-02 0.  1.
</event>
<event>
 5   0  0.8908478E-04  0.1201629E+04  0.7818609E-02  0.9111432E-01
        1   -1    0    0  501    0  0.00000000000E+00  0.00000000000E+00  0.46055282047E+03  0.46055282050E+03  0.50400001928E-02 0. -1.
       -1   -1    0    0    0  501  0.00000000000E+00  0.00000000000E+00 -0.78379343293E+03  0.78379343295E+03  0.50400001928E-02 0.  1.
    10030    2    1    2    0    0  0.00000000000E+00  0.00000000000E+00 -0.32324061246E+03  0.12443462534E+04  0.12016293542E+04 0.  0.
        4    1    3    3  502    0  0.55566513832E+03 -0.10087723784E+03 -0.37393743114E+03  0.67732619791E+03  0.12699999809E+01 0. -1.
       -4    1    3    3    0  502 -0.55566513832E+03  0.10087723784E+03  0.50696818677E+02  0.56702005554E+03  0.12699999809E+01 0.  1.
</event>
<event>
 5   0  0.9358428E-04  0.1198755E+04  0.7818609E-02  0.9113947E-01
        1   -1    0    0  501    0  0.00000000000E+00  0.00000000000E+00  0.81988213108E+03  0.81988213110E+03  0.50400001928E-02 0.  1.
       -1   -1    0    0    0  501  0.00000000000E+00  0.00000000000E+00 -0.43817668409E+03  0.43817668412E+03  0.50400001928E-02 0. -1.
    10030    2    1    2    0    0  0.00000000000E+00  0.00000000000E+00  0.38170544700E+03  0.12580588152E+04  0.11987547432E+04 0.  0.
        2    1    3    3  502    0  0.26619595115E+03  0.42159142733E+03 -0.15825014311E+03  0.52310871127E+03  0.25500000920E-02 0. -1.
       -2    1    3    3    0  502 -0.26619595115E+03 -0.42159142733E+03  0.53995559010E+03  0.73495010395E+03  0.25500000920E-02 0.  1.
</event>
<event>
 5   0  0.9169078E-04  0.1202895E+04  0.7818609E-02  0.9110326E-01
        1   -1    0    0  501    0  0.00000000000E+00  0.00000000000E+00  0.78478454195E+03  0.78478454197E+03  0.50400001928E-02 0. -1.
       -1   -1    0    0    0  501  0.00000000000E+00  0.00000000000E+00 -0.46094072596E+03  0.46094072599E+03  0.50400001928E-02 0.  1.
    10030    2    1    2    0    0  0.00000000000E+00  0.00000000000E+00  0.32384381599E+03  0.12457252680E+04  0.12028951019E+04 0.  0.
        1    1    3    3  502    0  0.48502312010E+03 -0.24370947079E+03  0.43017666894E+03  0.69259923456E+03  0.50400001928E-02 0. -1.
       -1    1    3    3    0  502 -0.48502312010E+03  0.24370947079E+03 -0.10633285295E+03  0.55312603340E+03  0.50400001928E-02 0.  1.
</event>
<event>
 5   0  0.1551501E-03  0.1201601E+04  0.7818609E-02  0.9111456E-01
       -2   -1    0    0    0  501  0.00000000000E+00  0.00000000000E+00  0.30687408603E+03  0.30687408604E+03  0.25500000920E-02 0.  1.
        2   -1    0    0  501    0  0.00000000000E+00  0.00000000000E+00 -0.11762517597E+04  0.11762517597E+04  0.25500000920E-02 0. -1.
    10030    2    1    2    0    0  0.00000000000E+00  0.00000000000E+00 -0.86937767371E+03  0.14831258458E+04  0.12016009050E+04 0.  0.
        4    1    3    3  502    0  0.48829078719E+03 -0.97347480762E+02 -0.84970300562E+03  0.98483563884E+03  0.12699999809E+01 0. -1.
       -4    1    3    3    0  502 -0.48829078719E+03  0.97347480762E+02 -0.19674668086E+02  0.49829020693E+03  0.12699999809E+01 0.  1.
</event>
<event>
 5   0  0.9169078E-04  0.1208478E+04  0.7818609E-02  0.9105468E-01
        1   -1    0    0  501    0  0.00000000000E+00  0.00000000000E+00  0.53291904481E+03  0.53291904483E+03  0.50400001928E-02 0.  1.
       -1   -1    0    0    0  501  0.00000000000E+00  0.00000000000E+00 -0.68510361438E+03  0.68510361440E+03  0.50400001928E-02 0. -1.
    10030    2    1    2    0    0  0.00000000000E+00  0.00000000000E+00 -0.15218456957E+03  0.12180226592E+04  0.12084779912E+04 0.  0.
        1    1    3    3  502    0  0.18457665745E+03 -0.13816860959E+03 -0.63902448810E+03  0.67934630607E+03  0.50400001928E-02 0. -1.
       -1    1    3    3    0  502 -0.18457665745E+03  0.13816860959E+03  0.48683991853E+03  0.53867635316E+03  0.50400001928E-02 0.  1.
</event>
<event>
 5   0  0.9170776E-04  0.1205377E+04  0.7818609E-02  0.9108163E-01
       -1   -1    0    0    0  501  0.00000000000E+00  0.00000000000E+00  0.57459690440E+03  0.57459690443E+03  0.50400001928E-02 0. -1.
        1   -1    0    0  501    0  0.00000000000E+00  0.00000000000E+00 -0.63215342938E+03  0.63215342940E+03  0.50400001928E-02 0.  1.
    10030    2    1    2    0    0  0.00000000000E+00  0.00000000000E+00 -0.57556524979E+02  0.12067503338E+04  0.12053769596E+04 0.  0.
        5    1    3    3  502    0  0.16592960165E+03  0.10339475271E+03  0.54194863691E+03  0.57615407891E+03  0.46999998093E+01 0. -1.
       -5    1    3    3    0  502 -0.16592960165E+03 -0.10339475271E+03 -0.59950516189E+03  0.63059625492E+03  0.46999998093E+01 0.  1.
</event>
<event>
 5   0  0.9208078E-04  0.1153951E+04  0.7818609E-02  0.9154147E-01
       -1   -1    0    0    0  501  0.00000000000E+00  0.00000000000E+00  0.80402648471E+03  0.80402648472E+03  0.50400001928E-02 0. -1.
        1   -1    0    0  501    0  0.00000000000E+00  0.00000000000E+00 -0.41404171387E+03  0.41404171390E+03  0.50400001928E-02 0.  1.
    10030    2    1    2    0    0  0.00000000000E+00  0.00000000000E+00  0.38998477084E+03  0.12180681986E+04  0.11539506120E+04 0.  0.
        3    1    3    3  502    0 -0.11808511029E+03  0.96169887457E+02 -0.39244343010E+03  0.42095676329E+03  0.10100000352E+00 0.  1.
       -3    1    3    3    0  502  0.11808511029E+03 -0.96169887457E+02  0.78242820094E+03  0.79711143534E+03  0.10100000352E+00 0. -1.
</event>
<event>
 5   0  0.1537557E-03  0.1197302E+04  0.7818609E-02  0.9115222E-01
        2   -1    0    0  501    0  0.00000000000E+00  0.00000000000E+00  0.14718216898E+04  0.14718216898E+04  0.25500000920E-02 0. -1.
       -2   -1    0    0    0  501  0.00000000000E+00  0.00000000000E+00 -0.24349608213E+03  0.24349608214E+03  0.25500000920E-02 0.  1.
    10030    2    1    2    0    0  0.00000000000E+00  0.00000000000E+00  0.12283256077E+04  0.17153177720E+04  0.11973016580E+04 0.  0.
        2    1    3    3  502    0  0.56850152426E+03 -0.17665724238E+03  0.52376875117E+03  0.79292841359E+03  0.25500000920E-02 0. -1.
       -2    1    3    3    0  502 -0.56850152426E+03  0.17665724238E+03  0.70455685653E+03  0.92238935839E+03  0.25500000920E-02 0.  1.
</event>
<event>
 5   0  0.1537557E-03  0.1198614E+04  0.7818609E-02  0.9114071E-01
        2   -1    0    0  501    0  0.00000000000E+00  0.00000000000E+00  0.27818037001E+03  0.27818037003E+03  0.25500000920E-02 0. -1.
       -2   -1    0    0    0  501  0.00000000000E+00  0.00000000000E+00 -0.12911367314E+04  0.12911367314E+04  0.25500000920E-02 0.  1.
    10030    2    1    2    0    0  0.00000000000E+00  0.00000000000E+00 -0.10129563614E+04  0.15693171014E+04  0.11986140224E+04 0.  0.
        2    1    3    3  502    0 -0.23364412548E+03  0.27059414222E+03  0.12327987661E+03  0.37816490472E+03  0.25500000920E-02 0. -1.
       -2    1    3    3    0  502  0.23364412548E+03 -0.27059414222E+03 -0.11362362380E+04  0.11911521967E+04  0.25500000920E-02 0.  1.
</event>
<event>
 5   0  0.1551501E-03  0.1228117E+04  0.7818609E-02  0.9088595E-01
       -2   -1    0    0    0  501  0.00000000000E+00  0.00000000000E+00  0.51604272634E+03  0.51604272635E+03  0.25500000920E-02 0.  1.
        2   -1    0    0  501    0  0.00000000000E+00  0.00000000000E+00 -0.73069156195E+03  0.73069156195E+03  0.25500000920E-02 0. -1.
    10030    2    1    2    0    0  0.00000000000E+00  0.00000000000E+00 -0.21464883561E+03  0.12467342883E+04  0.12281173653E+04 0.  0.
        4    1    3    3  502    0 -0.17251919356E+03  0.57627237276E+03 -0.23253814061E+03  0.64492504952E+03  0.12699999809E+01 0. -1.
       -4    1    3    3    0  502  0.17251919356E+03 -0.57627237276E+03  0.17889305001E+02  0.60180923879E+03  0.12699999809E+01 0.  1.
</event>
<event>
 5   0  0.9170776E-04  0.1154111E+04  0.7818609E-02  0.9153999E-01
       -1   -1    0    0    0  501  0.00000000000E+00  0.00000000000E+00  0.39988477594E+03  0.39988477597E+03  0.50400001928E-02 0.  1.
        1   -1    0    0  501    0  0.00000000000E+00  0.00000000000E+00 -0.83272223292E+03  0.83272223294E+03  0.50400001928E-02 0. -1.
    10030    2    1    2    0    0  0.00000000000E+00  0.00000000000E+00 -0.43283745698E+03  0.12326070089E+04  0.11541108154E+04 0.  0.
        5    1    3    3  502    0  0.23686064748E+03  0.22197595590E+03  0.29309754879E+03  0.43738376105E+03  0.46999998093E+01 0.  1.
       -5    1    3    3    0  502 -0.23686064748E+03 -0.22197595590E+03 -0.72593500578E+03  0.79522324786E+03  0.46999998093E+01 0. -1.
</event>
<event>
 5   0  0.9208078E-04  0.1199933E+04  0.7818609E-02  0.9112915E-01
       -1   -1    0    0    0  501  0.00000000000E+00  0.00000000000E+00  0.41861314504E+03  0.41861314507E+03  0.50400001928E-02 0.  1.
        1   -1    0    0  501    0  0.00000000000E+00  0.00000000000E+00 -0.85988700761E+03  0.85988700763E+03  0.50400001928E-02 0. -1.
    10030    2    1    2    0    0  0.00000000000E+00  0.00000000000E+00 -0.44127386257E+03  0.12785001527E+04  0.11999333393E+04 0.  0.
        3    1    3    3  502    0  0.46824034548E+03  0.13218122388E+03  0.15340295698E+03  0.51015034499E+03  0.10100000352E+00 0.  1.
       -3    1    3    3    0  502 -0.46824034548E+03 -0.13218122388E+03 -0.59467681955E+03  0.76834980770E+03  0.10100000352E+00 0. -1.
</event>
<event>
 5   0  0.8908478E-04  0.1198732E+04  0.7818609E-02  0.9113967E-01
        1   -1    0    0  501    0  0.00000000000E+00  0.00000000000E+00  0.14094262609E+04  0.14094262610E+04  0.50400001928E-02 0.  1.
       -1   -1    0    0    0  501  0.00000000000E+00  0.00000000000E+00 -0.25488373820E+03  0.25488373825E+03  0.50400001928E-02 0. -1.
    10030    2    1    2    0    0  0.00000000000E+00  0.00000000000E+00  0.11545425228E+04  0.16643099992E+04  0.11987323874E+04 0.  0.
        4    1    3    3  502    0 -0.74602042200E+02  0.15307858528E+03 -0.22058861593E+03  0.27867448457E+03  0.12699999809E+01 0. -1.
       -4    1    3    3    0  502  0.74602042200E+02 -0.15307858528E+03  0.13751311387E+04  0.13856355146E+04  0.12699999809E+01 0.  1.
</event>
<event>
 5   0  0.1567019E-03  0.1151989E+04  0.7818609E-02  0.9155950E-01
       -2   -1    0    0    0  501  0.00000000000E+00  0.00000000000E+00  0.71794648463E+03  0.71794648464E+03  0.25500000920E-02 0.  1.
        2   -1    0    0  501    0  0.00000000000E+00  0.00000000000E+00 -0.46210949392E+03  0.46210949393E+03  0.25500000920E-02 0. -1.
    10030    2    1    2    0    0  0.00000000000E+00  0.00000000000E+00  0.25583699071E+03  0.11800559786E+04  0.11519893866E+04 0.  0.
        5    1    3    3  502    0  0.29568631288E+03 -0.11699997514E+03 -0.36401968586E+03  0.48337543535E+03  0.46999998093E+01 0. -1.
       -5    1    3    3    0  502 -0.29568631288E+03  0.11699997514E+03  0.61985667657E+03  0.69668054322E+03  0.46999998093E+01 0.  1.
</event>
<event>
 5   0  0.9208078E-04  0.1203036E+04  0.7818609E-02  0.9110203E-01
       -1   -1    0    0    0  501  0.00000000000E+00  0.00000000000E+00  0.35030464104E+03  0.35030464107E+03  0.50400001928E-02 0. -1.
        1   -1    0    0  501    0  0.00000000000E+00  0.00000000000E+00 -0.10328841020E+04  0.10328841021E+04  0.50400001928E-02 0.  1.
    10030    2    1    2    0    0  0.00000000000E+00  0.00000000000E+00 -0.68257946100E+03  0.13831887431E+04  0.12030363164E+04 0.  0.
        3    1    3    3  502    0  0.58647224059E+03  0.25911980492E+02 -0.19048868330E+03  0.61717669138E+03  0.10100000352E+00 0. -1.
       -3    1    3    3    0  502 -0.58647224059E+03 -0.25911980492E+02 -0.49209077770E+03  0.76601205174E+03  0.10100000352E+00 0.  1.
</event>
<event>
 5   0  0.9358428E-04  0.1201999E+04  0.7818609E-02  0.9111109E-01
        1   -1    0    0  501    0  0.00000000000E+00  0.00000000000E+00  0.10036065336E+04  0.10036065337E+04  0.50400001928E-02 0.  1.
       -1   -1    0    0    0  501  0.00000000000E+00  0.00000000000E+00 -0.35990243538E+03  0.35990243541E+03  0.50400001928E-02 0. -1.
    10030    2    1    2    0    0  0.00000000000E+00  0.00000000000E+00  0.64370409826E+03  0.13635089691E+04  0.12019990610E+04 0.  0.
        2    1    3    3  502    0  0.33511273508E+03 -0.13716503370E+03 -0.22227289009E+03  0.42487648718E+03  0.25500000920E-02 0. -1.
       -2    1    3    3    0  502 -0.33511273508E+03  0.13716503370E+03  0.86597698836E+03  0.93863248189E+03  0.25500000920E-02 0.  1.
</event>
<event>
 5   0  0.1647550E-03  0.1201357E+04  0.7818609E-02  0.9111670E-01
       -2   -1    0    0    0  501  0.00000000000E+00  0.00000000000E+00  0.70844313806E+03  0.70844313807E+03  0.25500000920E-02 0.  1.
        2   -1    0    0  501    0  0.00000000000E+00  0.00000000000E+00 -0.50930620075E+03  0.50930620076E+03  0.25500000920E-02 0. -1.
    10030    2    1    2    0    0  0.00000000000E+00  0.00000000000E+00  0.19913693731E+03  0.12177493388E+04  0.12013567049E+04 0.  0.
        3    1    3    3  502    0 -0.36421465218E+03  0.19688401025E+03 -0.34156965413E+03  0.53673593617E+03  0.10100000352E+00 0. -1.
       -3    1    3    3    0  502  0.36421465218E+03 -0.19688401025E+03  0.54070659145E+03  0.68101340265E+03  0.10100000352E+00 0.  1.
</event>
<event>
 5   0  0.9208078E-04  0.1227045E+04  0.7818609E-02  0.9089508E-01
       -1   -1    0    0    0  501  0.00000000000E+00  0.00000000000E+00  0.74963903829E+03  0.74963903831E+03  0.50400001928E-02 0. -1.
        1   -1    0    0  501    0  0.00000000000E+00  0.00000000000E+00 -0.50212152399E+03  0.50212152402E+03  0.50400001928E-02 0.  1.
    10030    2    1    2    0    0  0.00000000000E+00  0.00000000000E+00  0.24751751430E+03  0.12517605623E+04  0.12270450625E+04 0.  0.
        3    1    3    3  502    0  0.22017902251E+03  0.56099779730E+03  0.64976022640E+01  0.60269358679E+03  0.10100000352E+00 0.  1.
       -3    1    3    3    0  502 -0.22017902251E+03 -0.56099779730E+03  0.24101991203E+03  0.64906697553E+03  0.10100000352E+00 0. -1.
</event>
<event>
 5   0  0.9208078E-04  0.1205692E+04  0.7818609E-02  0.9107889E-01
        1   -1    0    0  501    0  0.00000000000E+00  0.00000000000E+00  0.49228460747E+03  0.49228460750E+03  0.50400001928E-02 0. -1.
       -1   -1    0    0    0  501  0.00000000000E+00  0.00000000000E+00 -0.73823862475E+03  0.73823862476E+03  0.50400001928E-02 0.  1.
    10030    2    1    2    0    0  0.00000000000E+00  0.00000000000E+00 -0.24595401728E+03  0.12305232323E+04  0.12056923515E+04 0.  0.
        3    1    3    3  502    0 -0.52973420954E+03 -0.94801860546E+02  0.15431272442E+03  0.55983761274E+03  0.10100000352E+00 0. -1.
       -3    1    3    3    0  502  0.52973420954E+03  0.94801860546E+02 -0.40026674170E+03  0.67068561952E+03  0.10100000352E+00 0.  1.
</event>
<event>
 5   0  0.9208078E-04  0.1186135E+04  0.7818609E-02  0.9125079E-01
       -1   -1    0    0    0  501  0.00000000000E+00  0.00000000000E+00  0.89470046780E+03  0.89470046781E+03  0.50400001928E-02 0.  1.
        1   -1    0    0  501    0  0.00000000000E+00  0.00000000000E+00 -0.39312521955E+03  0.39312521958E+03  0.50400001928E-02 0. -1.
    10030    2    1    2    0    0  0.00000000000E+00  0.00000000000E+00  0.50157524825E+03  0.12878256874E+04  0.11861354355E+04 0.  0.
        3    1    3    3  502    0 -0.45558138767E+03  0.52296411877E+02 -0.15754014379E+03  0.48487959598E+03  0.10100000352E+00 0. -1.
       -3    1    3    3    0  502  0.45558138767E+03 -0.52296411877E+02  0.65911539204E+03  0.80294609141E+03  0.10100000352E+00 0.  1.
</event>
<event>
 5   0  0.6137750E-04  0.1207195E+04  0.7818609E-02  0.9106582E-01
        4   -1    0    0  501    0  0.00000000000E+00  0.00000000000E+00  0.11094653840E+04  0.11094661109E+04  0.12699999809E+01 0. -1.
       -4   -1    0    0    0  501  0.00000000000E+00  0.00000000000E+00 -0.32838110152E+03  0.32838355734E+03  0.12699999809E+01 0.  1.
    10030    2    1    2    0    0  0.00000000000E+00  0.00000000000E+00  0.78108428251E+03  0.14378496682E+04  0.12071946869E+04 0.  0.
        2    1    3    3  502    0 -0.31894810937E+03 -0.25476322466E+03 -0.13904424974E+03  0.43123717430E+03  0.25500000920E-02 0.  1.
       -2    1    3    3    0  502  0.31894810937E+03  0.25476322466E+03  0.92012853225E+03  0.10066124939E+04  0.25500000920E-02 0. -1.
</event>
<event>
 5   0  0.8908478E-04  0.1206884E+04  0.7818609E-02  0.9106853E-01
        1   -1    0    0  501    0  0.00000000000E+00  0.00000000000E+00  0.85507202388E+03  0.85507202390E+03  0.50400001928E-02 0. -1.
       -1   -1    0    0    0  501  0.00000000000E+00  0.00000000000E+00 -0.42586123730E+03  0.42586123733E+03  0.50400001928E-02 0.  1.
    10030    2    1    2    0    0  0.00000000000E+00  0.00000000000E+00  0.42921078658E+03  0.12809332612E+04  0.12068836400E+04 0.  0.
        4    1    3    3  502    0  0.13352168618E+03  0.39240581358E+03 -0.25085708703E+03  0.48450103635E+03  0.12699999809E+01 0.  1.
       -4    1    3    3    0  502 -0.13352168618E+03 -0.39240581358E+03  0.68006787361E+03  0.79643222488E+03  0.12699999809E+01 0. -1.
</event>
<event>
 5   0  0.9358428E-04  0.1186503E+04  0.7818609E-02  0.9124753E-01
       -1   -1    0    0    0  501  0.00000000000E+00  0.00000000000E+00  0.47031095237E+03  0.47031095239E+03  0.50400001928E-02 0. -1.
        1   -1    0    0  501    0  0.00000000000E+00  0.00000000000E+00 -0.74832909324E+03  0.74832909325E+03  0.50400001928E-02 0.  1.
    10030    2    1    2    0    0  0.00000000000E+00  0.00000000000E+00 -0.27801814087E+03  0.12186400456E+04  0.11865030443E+04 0.  0.
        2    1    3    3  502    0 -0.47990083133E+03  0.34071730949E+03 -0.62463457860E+02  0.59185705747E+03  0.25500000920E-02 0. -1.
       -2    1    3    3    0  502  0.47990083133E+03 -0.34071730949E+03 -0.21555468301E+03  0.62678298818E+03  0.25500000920E-02 0.  1.
</event>
<event>
 5   0  0.1647550E-03  0.1198723E+04  0.7818609E-02  0.9113975E-01
        2   -1    0    0  501    0  0.00000000000E+00  0.00000000000E+00  0.14121945933E+04  0.14121945933E+04  0.25500000920E-02 0.  1.
       -2   -1    0    0    0  501  0.00000000000E+00  0.00000000000E+00 -0.25437994061E+03  0.25437994062E+03  0.25500000920E-02 0. -1.
    10030    2    1    2    0    0  0.00000000000E+00  0.00000000000E+00  0.11578146527E+04  0.16665745339E+04  0.11987226147E+04 0.  0.
        3    1    3    3  502    0  0.60930790929E+01 -0.48137987239E+03  0.82531666426E+02  0.48844159663E+03  0.10100000352E+00 0. -1.
       -3    1    3    3    0  502 -0.60930790929E+01  0.48137987239E+03  0.10752829863E+04  0.11781329373E+04  0.10100000352E+00 0.  1.
</event>
<event>
 5   0  0.1551501E-03  0.1191829E+04  0.7818609E-02  0.9120039E-01
        2   -1    0    0  501    0  0.00000000000E+00  0.00000000000E+00  0.20211494065E+04  0.20211494065E+04  0.25500000920E-02 0.  1.
       -2   -1    0    0    0  501  0.00000000000E+00  0.00000000000E+00 -0.17569896847E+03  0.17569896849E+03  0.25500000920E-02 0. -1.
    10030    2    1    2    0    0  0.00000000000E+00  0.00000000000E+00  0.18454504380E+04  0.21968483750E+04  0.11918286217E+04 0.  0.
        4    1    3    3  502    0  0.14315168395E+03  0.52126360790E+03  0.46042324589E+03  0.71006994853E+03  0.12699999809E+01 0. -1.
       -4    1    3    3    0  502 -0.14315168395E+03 -0.52126360790E+03  0.13850271921E+04  0.14867784265E+04  0.12699999809E+01 0.  1.
</event>
<event>
 5   0  0.1551501E-03  0.1191368E+04  0.7818609E-02  0.9120446E-01
       -2   -1    0    0    0  501  0.00000000000E+00  0.00000000000E+00  0.47842678284E+03  0.47842678285E+03  0.25500000920E-02 0. -1.
        2   -1    0    0  501    0  0.00000000000E+00  0.00000000000E+00 -0.74167907196E+03  0.74167907196E+03  0.25500000920E-02 0.  1.
    10030    2    1    2    0    0  0.00000000000E+00  0.00000000000E+00 -0.26325228911E+03  0.12201058548E+04  0.11913675038E+04 0.  0.
        4    1    3    3  502    0  0.41083165861E+03 -0.15192789202E+02  0.30984540216E+03  0.51480021241E+03  0.12699999809E+01 0. -1.
       -4    1    3    3    0  502 -0.41083165861E+03  0.15192789202E+02 -0.57309769127E+03  0.70530564240E+03  0.12699999809E+01 0.  1.
</event>
<event>
 5   0  0.9170776E-04  0.1201118E+04  0.7818609E-02  0.9111879E-01
       -1   -1    0    0    0  501  0.00000000000E+00  0.00000000000E+00  0.20275449473E+03  0.20275449480E+03  0.50400001928E-02 0.  1.
        1   -1    0    0  501    0  0.00000000000E+00  0.00000000000E+00 -0.17788553361E+04  0.17788553361E+04  0.50400001928E-02 0. -1.
    10030    2    1    2    0    0  0.00000000000E+00  0.00000000000E+00 -0.15761008413E+04  0.19816098309E+04  0.12011176711E+04 0.  0.
        5    1    3    3  502    0  0.37430610601E+03  0.46433764246E+03 -0.90394046991E+03  0.10829796722E+04  0.46999998093E+01 0. -1.
       -5    1    3    3    0  502 -0.37430610601E+03 -0.46433764246E+03 -0.67216037141E+03  0.89863015869E+03  0.46999998093E+01 0.  1.
</event>
<event>
 5   0  0.9208078E-04  0.1199260E+04  0.7818609E-02  0.9113504E-01
       -1   -1    0    0    0  501  0.00000000000E+00  0.00000000000E+00  0.38885736138E+03  0.38885736141E+03  0.50400001928E-02 0. -1.
        1   -1    0    0  501    0  0.00000000000E+00  0.00000000000E+00 -0.92464808009E+03  0.92464808010E+03  0.50400001928E-02 0.  1.
    10030    2    1    2    0    0  0.00000000000E+00  0.00000000000E+00 -0.53579071871E+03  0.13135054415E+04  0.11992601263E+04 0.  0.
        3    1    3    3  502    0  0.42354191857E+03 -0.72488713845E+02 -0.72596399816E+03  0.84360305075E+03  0.10100000352E+00 0.  1.
       -3    1    3    3    0  502 -0.42354191857E+03  0.72488713845E+02  0.19017327945E+03  0.46990239075E+03  0.10100000352E+00 0. -1.
</event>
<event>
 5   0  0.1551501E-03  0.1205219E+04  0.7818609E-02  0.9108301E-01
        2   -1    0    0  501    0  0.00000000000E+00  0.00000000000E+00  0.57905837445E+03  0.57905837446E+03  0.25500000920E-02 0. -1.
       -2   -1    0    0    0  501  0.00000000000E+00  0.00000000000E+00 -0.62711852171E+03  0.62711852172E+03  0.25500000920E-02 0.  1.
    10030    2    1    2    0    0  0.00000000000E+00  0.00000000000E+00 -0.48060147261E+02  0.12061768962E+04  0.12052190370E+04 0.  0.
        4    1    3    3  502    0  0.52849118266E+03 -0.28038182112E+03  0.48274997136E+02  0.60020745081E+03  0.12699999809E+01 0. -1.
       -4    1    3    3    0  502 -0.52849118266E+03  0.28038182112E+03 -0.96335144397E+02  0.60596944536E+03  0.12699999809E+01 0.  1.
</event>
<event>
 5   0  0.1567019E-03  0.1198643E+04  0.7818609E-02  0.9114045E-01
       -2   -1    0    0    0  501  0.00000000000E+00  0.00000000000E+00  0.48329685344E+03  0.48329685345E+03  0.25500000920E-02 0. -1.
        2   -1    0    0  501    0  0.00000000000E+00  0.00000000000E+00 -0.74320012586E+03  0.74320012586E+03  0.25500000920E-02 0.  1.
    10030    2    1    2    0    0  0.00000000000E+00  0.00000000000E+00 -0.25990327241E+03  0.12264969793E+04  0.11986430366E+04 0.  0.
        5    1    3    3  502    0  0.30702965422E+03 -0.11562545769E+03  0.38322816972E+03  0.50450210614E+03  0.46999998093E+01 0. -1.
       -5    1    3    3    0  502 -0.30702965422E+03  0.11562545769E+03 -0.64313144213E+03  0.72199487317E+03  0.46999998093E+01 0.  1.
</event>
<event>
 5   0  0.9170776E-04  0.1206464E+04  0.7818609E-02  0.9107218E-01
        1   -1    0    0  501    0  0.00000000000E+00  0.00000000000E+00  0.14237120282E+04  0.14237120282E+04  0.50400001928E-02 0.  1.
       -1   -1    0    0    0  501  0.00000000000E+00  0.00000000000E+00 -0.25559140079E+03  0.25559140084E+03  0.50400001928E-02 0. -1.
    10030    2    1    2    0    0  0.00000000000E+00  0.00000000000E+00  0.11681206274E+04  0.16793034290E+04  0.12064635123E+04 0.  0.
        5    1    3    3  502    0  0.20121371999E+03 -0.43061018293E+03  0.67069631909E+02  0.48003386993E+03  0.46999998093E+01 0. -1.
       -5    1    3    3    0  502 -0.20121371999E+03  0.43061018293E+03  0.11010509955E+04  0.11992695591E+04  0.46999998093E+01 0.  1.
</event>
<event>
 5   0  0.9208078E-04  0.1202971E+04  0.7818609E-02  0.9110260E-01
        1   -1    0    0  501    0  0.00000000000E+00  0.00000000000E+00  0.79417145034E+03  0.79417145035E+03  0.50400001928E-02 0.  1.
       -1   -1    0    0    0  501  0.00000000000E+00  0.00000000000E+00 -0.45555016116E+03  0.45555016119E+03  0.50400001928E-02 0. -1.
    10030    2    1    2    0    0  0.00000000000E+00  0.00000000000E+00  0.33862128918E+03  0.12497216115E+04  0.12029712087E+04 0.  0.
        3    1    3    3  502    0 -0.12967080391E+03  0.49598875500E+03  0.49612422067E+03  0.71341335494E+03  0.10100000352E+00 0.  1.
       -3    1    3    3    0  502  0.12967080391E+03 -0.49598875500E+03 -0.15750293149E+03  0.53630825660E+03  0.10100000352E+00 0. -1.
</event>
<event>
 5   0  0.1537557E-03  0.1199784E+04  0.7818609E-02  0.9113045E-01
       -2   -1    0    0    0  501  0.00000000000E+00  0.00000000000E+00  0.54214337383E+03  0.54214337383E+03  0.25500000920E-02 0.  1.
        2   -1    0    0  501    0  0.00000000000E+00  0.00000000000E+00 -0.66379215320E+03  0.66379215320E+03  0.25500000920E-02 0. -1.
    10030    2    1    2    0    0  0.00000000000E+00  0.00000000000E+00 -0.12164877937E+03  0.12059355270E+04  0.11997841764E+04 0.  0.
        2    1    3    3  502    0 -0.32333346001E+03  0.41432616235E+03  0.22989863523E+03  0.57364107040E+03  0.25500000920E-02 0.  1.
       -2    1    3    3    0  502  0.32333346001E+03 -0.41432616235E+03 -0.35154741460E+03  0.63229445663E+03  0.25500000920E-02 0. -1.
</event>
<event>
 5   0  0.1567019E-03  0.1191790E+04  0.7818609E-02  0.9120073E-01
        2   -1    0    0  501    0  0.00000000000E+00  0.00000000000E+00  0.11405249653E+04  0.11405249653E+04  0.25500000920E-02 0.  1.
       -2   -1    0    0    0  501  0.00000000000E+00  0.00000000000E+00 -0.31133989934E+03  0.31133989935E+03  0.25500000920E-02 0. -1.
    10030    2    1    2    0    0  0.00000000000E+00  0.00000000000E+00  0.82918506592E+03  0.14518648646E+04  0.11917901290E+04 0.  0.
        5    1    3    3  502    0  0.18687426161E+03 -0.36143647817E+03  0.94491872096E+03  0.10288108653E+04  0.46999998093E+01 0. -1.
       -5    1    3    3    0  502 -0.18687426161E+03  0.36143647817E+03 -0.11573365504E+03  0.42305399928E+03  0.46999998093E+01 0.  1.
</event>
<event>
 5   0  0.1597352E-03  0.1205307E+04  0.7818609E-02  0.9108224E-01
       -2   -1    0    0    0  501  0.00000000000E+00  0.00000000000E+00  0.11289015409E+04  0.11289015409E+04  0.25500000920E-02 0.  1.
        2   -1    0    0  501    0  0.00000000000E+00  0.00000000000E+00 -0.32172111398E+03  0.32172111399E+03  0.25500000920E-02 0. -1.
    10030    2    1    2    0    0  0.00000000000E+00  0.00000000000E+00  0.80718042696E+03  0.14506226549E+04  0.12053073655E+04 0.  0.
        1    1    3    3  502    0  0.30939701977E+02  0.47196240119E+03 -0.45901272211E+02  0.47519753799E+03  0.50400001928E-02 0.  1.
       -1    1    3    3    0  502 -0.30939701977E+02 -0.47196240119E+03  0.85308169917E+03  0.97542511695E+03  0.50400001928E-02 0. -1.
</event>
<event>
 5   0  0.1551501E-03  0.1194673E+04  0.7818609E-02  0.9117532E-01
        2   -1    0    0  501    0  0.00000000000E+00  0.00000000000E+00  0.13816379658E+04  0.13816379658E+04  0.25500000920E-02 0.  1.
       -2   -1    0    0    0  501  0.00000000000E+00  0.00000000000E+00 -0.25825210629E+03  0.25825210630E+03  0.25500000920E-02 0. -1.
    10030    2    1    2    0    0  0.00000000000E+00  0.00000000000E+00  0.11233858595E+04  0.16398900721E+04  0.11946730344E+04 0.  0.
        4    1    3    3  502    0  0.36727197474E+03 -0.23017914533E+03  0.11258883477E+04  0.12064399392E+04  0.12699999809E+01 0.  1.
       -4    1    3    3    0  502 -0.36727197474E+03  0.23017914533E+03 -0.25024882414E+01  0.43345013291E+03  0.12699999809E+01 0. -1.
</event>
<event>
 5   0  0.1567019E-03  0.1197916E+04  0.7818609E-02  0.9114683E-01
        2   -1    0    0  501    0  0.00000000000E+00  0.00000000000E+00  0.94069218309E+03  0.94069218309E+03  0.25500000920E-02 0. -1.
       -2   -1    0    0    0  501  0.00000000000E+00  0.00000000000E+00 -0.38136865773E+03  0.38136865774E+03  0.25500000920E-02 0.  1.
    10030    2    1    2    0    0  0.00000000000E+00  0.00000000000E+00  0.55932352535E+03  0.13220608408E+04  0.11979157153E+04 0.  0.
        5    1    3    3  502    0 -0.45100372311E+03 -0.22668350909E+03 -0.76144610463E+02  0.51049962121E+03  0.46999998093E+01 0.  1.
       -5    1    3    3    0  502  0.45100372311E+03  0.22668350909E+03  0.63546813582E+03  0.81156121962E+03  0.46999998093E+01 0. -1.
</event>
<event>
 5   0  0.1647550E-03  0.1218832E+04  0.7818609E-02  0.9096531E-01
        2   -1    0    0  501    0  0.00000000000E+00  0.00000000000E+00  0.73184881637E+03  0.73184881637E+03  0.25500000920E-02 0. -1.
       -2   -1    0    0    0  501  0.00000000000E+00  0.00000000000E+00 -0.50746533166E+03  0.50746533167E+03  0.25500000920E-02 0.  1.
    10030    2    1    2    0    0  0.00000000000E+00  0.00000000000E+00  0.22438348471E+03  0.12393141480E+04  0.12188320677E+04 0.  0.
        3    1    3    3  502    0 -0.35121278954E+03 -0.13809959146E+03 -0.37435324999E+03  0.53156588179E+03  0.10100000352E+00 0.  1.
       -3    1    3    3    0  502  0.35121278954E+03  0.13809959146E+03  0.59873673470E+03  0.70774826625E+03  0.10100000352E+00 0. -1.
</event>
<event>
 5   0  0.9358428E-04  0.1196456E+04  0.7818609E-02  0.9115964E-01
       -1   -1    0    0    0  501  0.00000000000E+00  0.00000000000E+00  0.57170178082E+03  0.57170178084E+03  0.50400001928E-02 0.  1.
        1   -1    0    0  501    0  0.00000000000E+00  0.00000000000E+00 -0.62598493154E+03  0.62598493156E+03  0.50400001928E-02 0. -1.
    10030    2    1    2    0    0  0.00000000000E+00  0.00000000000E+00 -0.54283150719E+02  0.11976867124E+04  0.11964559334E+04 0.  0.
        2    1    3    3  502    0  0.21215293347E+03  0.42146494542E+03  0.34098001484E+03  0.58215885970E+03  0.25500000920E-02 0.  1.
       -2    1    3    3    0  502 -0.21215293347E+03 -0.42146494542E+03 -0.39526316556E+03  0.61552785270E+03  0.25500000920E-02 0. -1.
</event>
<event>
 5   0  0.1567019E-03  0.1206118E+04  0.7818609E-02  0.9107518E-01
        2   -1    0    0  501    0  0.00000000000E+00  0.00000000000E+00  0.17769705708E+04  0.17769705708E+04  0.25500000920E-02 0.  1.
       -2   -1    0    0    0  501  0.00000000000E+00  0.00000000000E+00 -0.20466317549E+03  0.20466317551E+03  0.25500000920E-02 0. -1.
    10030    2    1    2    0    0  0.00000000000E+00  0.00000000000E+00  0.15723073953E+04  0.19816337463E+04  0.12061184681E+04 0.  0.
        5    1    3    3  502    0 -0.13597309805E+02  0.18937092451E+03  0.17265553843E+04  0.17369691473E+04  0.46999998093E+01 0.  1.
       -5    1    3    3    0  502  0.13597309805E+02 -0.18937092451E+03 -0.15424798897E+03  0.24466459896E+03  0.46999998093E+01 0. -1.
</event>
<event>
 5   0  0.9170776E-04  0.1211942E+04  0.7818609E-02  0.9102467E-01
       -1   -1    0    0    0  501  0.00000000000E+00  0.00000000000E+00  0.61545048692E+03  0.61545048694E+03  0.50400001928E-02 0.  1.
        1   -1    0    0  501    0  0.00000000000E+00  0.00000000000E+00 -0.59663774582E+03  0.59663774584E+03  0.50400001928E-02 0. -1.
    10030    2    1    2    0    0  0.00000000000E+00  0.00000000000E+00  0.18812741100E+02  0.12120882328E+04  0.12119422283E+04 0.  0.
        5    1    3    3  502    0  0.51580940068E+03  0.26580739032E+03 -0.16515976487E+03  0.60333468697E+03  0.46999998093E+01 0. -1.
       -5    1    3    3    0  502 -0.51580940068E+03 -0.26580739032E+03  0.18397250597E+03  0.60875354580E+03  0.46999998093E+01 0.  1.
</event>
<event>
 5   0  0.9170776E-04  0.1184219E+04  0.7818609E-02  0.9126783E-01
        1   -1    0    0  501    0  0.00000000000E+00  0.00000000000E+00  0.18199225807E+04  0.18199225807E+04  0.50400001928E-02 0.  1.
       -1   -1    0    0    0  501  0.00000000000E+00  0.00000000000E+00 -0.19264203170E+03  0.19264203177E+03  0.50400001928E-02 0. -1.
    10030    2    1    2    0    0  0.00000000000E+00  0.00000000000E+00  0.16272805490E+04  0.20125646124E+04  0.11842188709E+04 0.  0.
        5    1    3    3  502    0 -0.27185299885E+03 -0.52585656102E+03  0.79336590019E+03  0.98988924498E+03  0.46999998093E+01 0. -1.
       -5    1    3    3    0  502  0.27185299885E+03  0.52585656102E+03  0.83391464878E+03  0.10226753675E+04  0.46999998093E+01 0.  1.
</event>
<event>
 5   0  0.9170776E-04  0.1200115E+04  0.7818609E-02  0.9112755E-01
        1   -1    0    0  501    0  0.00000000000E+00  0.00000000000E+00  0.23620069769E+03  0.23620069775E+03  0.50400001928E-02 0.  1.
       -1   -1    0    0    0  501  0.00000000000E+00  0.00000000000E+00 -0.15244209034E+04  0.15244209034E+04  0.50400001928E-02 0. -1.
    10030    2    1    2    0    0  0.00000000000E+00  0.00000000000E+00 -0.12882202057E+04  0.17606216012E+04  0.12001154628E+04 0.  0.
        5    1    3    3  502    0  0.14378040028E+03  0.54020430310E+03 -0.96402550110E+03  0.11143880605E+04  0.46999998093E+01 0. -1.
       -5    1    3    3    0  502 -0.14378040028E+03 -0.54020430310E+03 -0.32419470462E+03  0.64623354067E+03  0.46999998093E+01 0.  1.
</event>
<event>
 5   0  0.8908478E-04  0.1197861E+04  0.7818609E-02  0.9114731E-01
        1   -1    0    0  501    0  0.00000000000E+00  0.00000000000E+00  0.68598016903E+03  0.68598016905E+03  0.50400001928E-02 0.  1.
       -1   -1    0    0    0  501  0.00000000000E+00  0.00000000000E+00 -0.52292733805E+03  0.52292733808E+03  0.50400001928E-02 0. -1.
    10030    2    1    2    0    0  0.00000000000E+00  0.00000000000E+00  0.16305283098E+03  0.12089075071E+04  0.11978610667E+04 0.  0.
        4    1    3    3  502    0 -0.56930942997E+03  0.16586145105E+03  0.16652256345E+03  0.61591770963E+03  0.12699999809E+01 0.  1.
       -4    1    3    3    0  502  0.56930942997E+03 -0.16586145105E+03 -0.34697324785E+01  0.59298979750E+03  0.12699999809E+01 0. -1.
</event>
<event>
 5   0  0.1647550E-03  0.1198348E+04  0.7818609E-02  0.9114304E-01
        2   -1    0    0  501    0  0.00000000000E+00  0.00000000000E+00  0.12354534397E+04  0.12354534397E+04  0.25500000920E-02 0. -1.
       -2   -1    0    0    0  501  0.00000000000E+00  0.00000000000E+00 -0.29058918412E+03  0.29058918413E+03  0.25500000920E-02 0.  1.
    10030    2    1    2    0    0  0.00000000000E+00  0.00000000000E+00  0.94486425560E+03  0.15260426239E+04  0.11983478745E+04 0.  0.
        3    1    3    3  502    0 -0.86706303340E+02  0.10975050583E+03  0.12143729305E+04  0.12224012357E+04  0.10100000352E+00 0. -1.
       -3    1    3    3    0  502  0.86706303340E+02 -0.10975050583E+03 -0.26950867487E+03  0.30364138816E+03  0.10100000352E+00 0.  1.
</event>
<event>
 5   0  0.1567019E-03  0.1204239E+04  0.7818609E-02  0.9109154E-01
        2   -1    0    0  501    0  0.00000000000E+00  0.00000000000E+00  0.40419067789E+03  0.40419067790E+03  0.25500000920E-02 0. -1.
       -2   -1    0    0    0  501  0.00000000000E+00  0.00000000000E+00 -0.89697267967E+03  0.89697267967E+03  0.25500000920E-02 0.  1.
    10030    2    1    2    0    0  0.00000000000E+00  0.00000000000E+00 -0.49278200177E+03  0.13011633576E+04  0.12042391713E+04 0.  0.
        5    1    3    3  502    0  0.15537563512E+03 -0.19555965086E+03 -0.83833626388E+03  0.87476565226E+03  0.46999998093E+01 0.  1.
       -5    1    3    3    0  502 -0.15537563512E+03  0.19555965086E+03  0.34555426211E+03  0.42639770531E+03  0.46999998093E+01 0. -1.
</event>
<event>
 5   0  0.8908478E-04  0.1184387E+04  0.7818609E-02  0.9126634E-01
        1   -1    0    0  501    0  0.00000000000E+00  0.00000000000E+00  0.78851787233E+03  0.78851787235E+03  0.50400001928E-02 0.  1.
       -1   -1    0    0    0  501  0.00000000000E+00  0.00000000000E+00 -0.44474949898E+03  0.44474949901E+03  0.50400001928E-02 0. -1.
    10030    2    1    2    0    0  0.00000000000E+00  0.00000000000E+00  0.34376837335E+03  0.12332673714E+04  0.11843866407E+04 0.  0.
        4    1    3    3  502    0  0.24792673407E+03 -0.53404227074E+03  0.10584344369E+03  0.59822509131E+03  0.12699999809E+01 0.  1.
       -4    1    3    3    0  502 -0.24792673407E+03  0.53404227074E+03  0.23792492966E+03  0.63504228005E+03  0.12699999809E+01 0. -1.
</event>
<event>
 5   0  0.1537557E-03  0.1205719E+04  0.7818609E-02  0.9107865E-01
        2   -1    0    0  501    0  0.00000000000E+00  0.00000000000E+00  0.10739591417E+04  0.10739591417E+04  0.25500000920E-02 0. -1.
       -2   -1    0    0    0  501  0.00000000000E+00  0.00000000000E+00 -0.33841123541E+03  0.33841123542E+03  0.25500000920E-02 0.  1.
    10030    2    1    2    0    0  0.00000000000E+00  0.00000000000E+00  0.73554790628E+03  0.14123703771E+04  0.12057194366E+04 0.  0.
        2    1    3    3  502    0 -0.76404730161E+02  0.56333751827E+03  0.13275577672E+03  0.58379014940E+03  0.25500000920E-02 0.  1.
       -2    1    3    3    0  502  0.76404730161E+02 -0.56333751827E+03  0.60279212956E+03  0.82858022771E+03  0.25500000920E-02 0. -1.
</event>
<event>
 5   0  0.1537557E-03  0.1197022E+04  0.7818609E-02  0.9115468E-01
       -2   -1    0    0    0  501  0.00000000000E+00  0.00000000000E+00  0.52881564424E+03  0.52881564425E+03  0.25500000920E-02 0. -1.
        2   -1    0    0  501    0  0.00000000000E+00  0.00000000000E+00 -0.67739130552E+03  0.67739130552E+03  0.25500000920E-02 0.  1.
    10030    2    1    2    0    0  0.00000000000E+00  0.00000000000E+00 -0.14857566128E+03  0.12062069498E+04  0.11970215030E+04 0.  0.
        2    1    3    3  502    0  0.40838039410E+03 -0.43752993271E+03 -0.77161260783E+02  0.60345741231E+03  0.25500000920E-02 0. -1.
       -2    1    3    3    0  502 -0.40838039410E+03  0.43752993271E+03 -0.71414400498E+02  0.60274953746E+03  0.25500000920E-02 0.  1.
</event>
<event>
 5   0  0.8908478E-04  0.1212300E+04  0.7818609E-02  0.9102158E-01
       -1   -1    0    0    0  501  0.00000000000E+00  0.00000000000E+00  0.21399407082E+03  0.21399407087E+03  0.50400001928E-02 0.  1.
        1   -1    0    0  501    0  0.00000000000E+00  0.00000000000E+00 -0.17169538179E+04  0.17169538179E+04  0.50400001928E-02 0. -1.
    10030    2    1    2    0    0  0.00000000000E+00  0.00000000000E+00 -0.15029597471E+04  0.19309478888E+04  0.12123001888E+04 0.  0.
        4    1    3    3  502    0 -0.96112600560E+02 -0.59806554374E+03 -0.71599596808E+03  0.93785492790E+03  0.12699999809E+01 0. -1.
       -4    1    3    3    0  502  0.96112600560E+02  0.59806554374E+03 -0.78696377905E+03  0.99309296092E+03  0.12699999809E+01 0.  1.
</event>
<event>
 5   0  0.1567019E-03  0.1242529E+04  0.7818609E-02  0.9076425E-01
       -2   -1    0    0    0  501  0.00000000000E+00  0.00000000000E+00  0.88440475653E+03  0.88440475653E+03  0.25500000920E-02 0.  1.
        2   -1    0    0  501    0  0.00000000000E+00  0.00000000000E+00 -0.43641700431E+03  0.43641700431E+03  0.25500000920E-02 0. -1.
    10030    2    1    2    0    0  0.00000000000E+00  0.00000000000E+00  0.44798775222E+03  0.13208217608E+04  0.12425285098E+04 0.  0.
        5    1    3    3  502    0  0.29087652947E+03  0.13887561323E+02  0.80733930649E+03  0.85826619737E+03  0.46999998093E+01 0.  1.
       -5    1    3    3    0  502 -0.29087652947E+03 -0.13887561323E+02 -0.35935155426E+03  0.46255556348E+03  0.46999998093E+01 0. -1.
</event>
<event>
 5   0  0.9208078E-04  0.1200459E+04  0.7818609E-02  0.9112455E-01
        1   -1    0    0  501    0  0.00000000000E+00  0.00000000000E+00  0.74308000731E+03  0.74308000732E+03  0.50400001928E-02 0. -1.
       -1   -1    0    0    0  501  0.00000000000E+00  0.00000000000E+00 -0.48484054724E+03  0.48484054726E+03  0.50400001928E-02 0.  1.
    10030    2    1    2    0    0  0.00000000000E+00  0.00000000000E+00  0.25823946007E+03  0.12279205546E+04  0.12004587747E+04 0.  0.
        3    1    3    3  502    0 -0.39333766132E+03 -0.44892771461E+03  0.64227949271E+02  0.60031312531E+03  0.10100000352E+00 0.  1.
       -3    1    3    3    0  502  0.39333766132E+03  0.44892771461E+03  0.19401151080E+03  0.62760742927E+03  0.10100000352E+00 0. -1.
</event>
<event>
 5   0  0.1551501E-03  0.1183374E+04  0.7818609E-02  0.9127535E-01
        2   -1    0    0  501    0  0.00000000000E+00  0.00000000000E+00  0.51055371889E+03  0.51055371890E+03  0.25500000920E-02 0. -1.
       -2   -1    0    0    0  501  0.00000000000E+00  0.00000000000E+00 -0.68571336202E+03  0.68571336202E+03  0.25500000920E-02 0.  1.
    10030    2    1    2    0    0  0.00000000000E+00  0.00000000000E+00 -0.17515964313E+03  0.11962670809E+04  0.11833740019E+04 0.  0.
        4    1    3    3  502    0 -0.39132122131E+03 -0.31526732417E+03 -0.40333873836E+03  0.64436754628E+03  0.12699999809E+01 0.  1.
       -4    1    3    3    0  502  0.39132122131E+03  0.31526732417E+03  0.22817909524E+03  0.55189953464E+03  0.12699999809E+01 0. -1.
</event>
<event>
 5   0  0.6137750E-04  0.1202455E+04  0.7818609E-02  0.9110710E-01
       -3   -1    0    0    0  501  0.00000000000E+00  0.00000000000E+00  0.55706950593E+03  0.55706951509E+03  0.10100000352E+00 0. -1.
        3   -1    0    0  501    0  0.00000000000E+00  0.00000000000E+00 -0.64888577075E+03  0.64888577861E+03  0.10100000352E+00 0.  1.
    10030    2    1    2    0    0  0.00000000000E+00  0.00000000000E+00 -0.91816264819E+02  0.12059552937E+04  0.12024549654E+04 0.  0.
        4    1    3    3  502    0 -0.49962002990E+03 -0.27375177251E+03 -0.23859410251E+03  0.61764793036E+03  0.12699999809E+01 0.  1.
       -4    1    3    3    0  502  0.49962002990E+03  0.27375177251E+03  0.14677783769E+03  0.58830736334E+03  0.12699999809E+01 0. -1.
</event>
<event>
 5   0  0.1567019E-03  0.1203022E+04  0.7818609E-02  0.9110215E-01
       -2   -1    0    0    0  501  0.00000000000E+00  0.00000000000E+00  0.77307374815E+03  0.77307374815E+03  0.25500000920E-02 0.  1.
        2   -1    0    0  501    0  0.00000000000E+00  0.00000000000E+00 -0.46802207550E+03  0.46802207551E+03  0.25500000920E-02 0. -1.
    10030    2    1    2    0    0  0.00000000000E+00  0.00000000000E+00  0.30505167264E+03  0.12410958237E+04  0.12030221613E+04 0.  0.
        5    1    3    3  502    0  0.10472339691E+03 -0.49752017180E+03  0.48410117613E+03  0.70204654400E+03  0.46999998093E+01 0.  1.
       -5    1    3    3    0  502 -0.10472339691E+03  0.49752017180E+03 -0.17904950349E+03  0.53904927966E+03  0.46999998093E+01 0. -1.
</event>
<event>
 5   0  0.9169078E-04  0.1199780E+04  0.7818609E-02  0.9113050E-01
       -1   -1    0    0    0  501  0.00000000000E+00  0.00000000000E+00  0.33723375415E+03  0.33723375419E+03  0.50400001928E-02 0. -1.
        1   -1    0    0  501    0  0.00000000000E+00  0.00000000000E+00 -0.10671166121E+04  0.10671166121E+04  0.50400001928E-02 0.  1.
    10030    2    1    2    0    0  0.00000000000E+00  0.00000000000E+00 -0.72988285790E+03  0.14043503663E+04  0.11997795485E+04 0.  0.
        1    1    3    3  502    0  0.40785225760E+03 -0.31594916579E+03 -0.66431320262E+01  0.51595684957E+03  0.50400001928E-02 0. -1.
       -1    1    3    3    0  502 -0.40785225760E+03  0.31594916579E+03 -0.72323972588E+03  0.88839351669E+03  0.50400001928E-02 0.  1.
</event>
<event>
 5   0  0.9169078E-04  0.1199604E+04  0.7818609E-02  0.9113203E-01
        1   -1    0    0  501    0  0.00000000000E+00  0.00000000000E+00  0.55812001887E+03  0.55812001889E+03  0.50400001928E-02 0.  1.
       -1   -1    0    0    0  501  0.00000000000E+00  0.00000000000E+00 -0.64459715524E+03  0.64459715526E+03  0.50400001928E-02 0. -1.
    10030    2    1    2    0    0  0.00000000000E+00  0.00000000000E+00 -0.86477136373E+02  0.12027171742E+04  0.11996042289E+04 0.  0.
        1    1    3    3  502    0 -0.80843050925E+02 -0.40555088691E+03  0.39234880406E+03  0.57003921341E+03  0.50400001928E-02 0.  1.
       -1    1    3    3    0  502  0.80843050925E+02  0.40555088691E+03 -0.47882594043E+03  0.63267796074E+03  0.50400001928E-02 0. -1.
</event>
<event>
 5   0  0.9208078E-04  0.1231989E+04  0.7818609E-02  0.9085308E-01
       -1   -1    0    0    0  501  0.00000000000E+00  0.00000000000E+00  0.33082720647E+03  0.33082720650E+03  0.50400001928E-02 0.  1.
        1   -1    0    0  501    0  0.00000000000E+00  0.00000000000E+00 -0.11469709841E+04  0.11469709841E+04  0.50400001928E-02 0. -1.
    10030    2    1    2    0    0  0.00000000000E+00  0.00000000000E+00 -0.81614377766E+03  0.14777981906E+04  0.12319889717E+04 0.  0.
        3    1    3    3  502    0 -0.40755652016E+02  0.32868286433E+03 -0.10310799470E+04  0.10829678276E+04  0.10100000352E+00 0. -1.
       -3    1    3    3    0  502  0.40755652016E+02 -0.32868286433E+03  0.21493616930E+03  0.39483036300E+03  0.10100000352E+00 0.  1.
</event>
<event>
 5   0  0.1551501E-03  0.1191713E+04  0.7818609E-02  0.9120141E-01
       -2   -1    0    0    0  501  0.00000000000E+00  0.00000000000E+00  0.62242868493E+03  0.62242868494E+03  0.25500000920E-02 0. -1.
        2   -1    0    0  501    0  0.00000000000E+00  0.00000000000E+00 -0.57041898327E+03  0.57041898327E+03  0.25500000920E-02 0.  1.
    10030    2    1    2    0    0  0.00000000000E+00  0.00000000000E+00  0.52009701669E+02  0.11928476682E+04  0.11917132837E+04 0.  0.
        4    1    3    3  502    0 -0.56489620047E+02  0.57507017398E+03  0.17156247041E+03  0.60277033464E+03  0.12699999809E+01 0. -1.
       -4    1    3    3    0  502  0.56489620047E+02 -0.57507017398E+03 -0.11955276874E+03  0.59007733357E+03  0.12699999809E+01 0.  1.
</event>
<event>
 5   0  0.1597352E-03  0.1202084E+04  0.7818609E-02  0.9111034E-01
        2   -1    0    0  501    0  0.00000000000E+00  0.00000000000E+00  0.41834676524E+03  0.41834676524E+03  0.25500000920E-02 0. -1.
       -2   -1    0    0    0  501  0.00000000000E+00  0.00000000000E+00 -0.86352228003E+03  0.86352228003E+03  0.25500000920E-02 0.  1.
    10030    2    1    2    0    0  0.00000000000E+00  0.00000000000E+00 -0.44517551479E+03  0.12818690453E+04  0.12020844439E+04 0.  0.
        1    1    3    3  502    0  0.17644630548E+03 -0.35884244205E+03  0.25591572131E+03  0.47475683604E+03  0.50400001928E-02 0. -1.
       -1    1    3    3    0  502 -0.17644630548E+03  0.35884244205E+03 -0.70109123610E+03  0.80711220923E+03  0.50400001928E-02 0.  1.
</event>
<event>
 5   0  0.1567019E-03  0.1229540E+04  0.7818609E-02  0.9087386E-01
       -2   -1    0    0    0  501  0.00000000000E+00  0.00000000000E+00  0.58063185494E+03  0.58063185494E+03  0.25500000920E-02 0. -1.
        2   -1    0    0  501    0  0.00000000000E+00  0.00000000000E+00 -0.65091550724E+03  0.65091550725E+03  0.25500000920E-02 0.  1.
    10030    2    1    2    0    0  0.00000000000E+00  0.00000000000E+00 -0.70283652308E+02  0.12315473622E+04  0.12295402041E+04 0.  0.
        5    1    3    3  502    0 -0.39976362463E+03 -0.34230495610E+02  0.43138401627E+03  0.58914933752E+03  0.46999998093E+01 0. -1.
       -5    1    3    3    0  502  0.39976362463E+03  0.34230495610E+02 -0.50166766857E+03  0.64239802467E+03  0.46999998093E+01 0.  1.
</event>
<event>
 5   0  0.9358428E-04  0.1206018E+04  0.7818609E-02  0.9107605E-01
        1   -1    0    0  501    0  0.00000000000E+00  0.00000000000E+00  0.56944579546E+03  0.56944579548E+03  0.50400001928E-02 0.  1.
       -1   -1    0    0    0  501  0.00000000000E+00  0.00000000000E+00 -0.63855041975E+03  0.63855041977E+03  0.50400001928E-02 0. -1.
    10030    2    1    2    0    0  0.00000000000E+00  0.00000000000E+00 -0.69104624292E+02  0.12079962153E+04  0.12060179961E+04 0.  0.
        2    1    3    3  502    0  0.24944701948E+03  0.14347301322E+03  0.49623343640E+03  0.57363398126E+03  0.25500000920E-02 0.  1.
       -2    1    3    3    0  502 -0.24944701948E+03 -0.14347301322E+03 -0.56533806069E+03  0.63436223400E+03  0.25500000920E-02 0. -1.
</event>
<event>
 5   0  0.9170776E-04  0.1187695E+04  0.7818609E-02  0.9123695E-01
       -1   -1    0    0    0  501  0.00000000000E+00  0.00000000000E+00  0.34578077306E+03  0.34578077309E+03  0.50400001928E-02 0.  1.
        1   -1    0    0  501    0  0.00000000000E+00  0.00000000000E+00 -0.10198806093E+04  0.10198806093E+04  0.50400001928E-02 0. -1.
    10030    2    1    2    0    0  0.00000000000E+00  0.00000000000E+00 -0.67409983626E+03  0.13656613824E+04  0.11876954248E+04 0.  0.
        5    1    3    3  502    0  0.20950469455E+02  0.32098543492E+02  0.34433544614E+03  0.34649419639E+03  0.46999998093E+01 0.  1.
       -5    1    3    3    0  502 -0.20950469455E+02 -0.32098543492E+02 -0.10184352824E+04  0.10191671860E+04  0.46999998093E+01 0. -1.
</event>
<event>
 5   0  0.1551501E-03  0.1200337E+04  0.7818609E-02  0.9112561E-01
       -2   -1    0    0    0  501  0.00000000000E+00  0.00000000000E+00  0.55234351819E+03  0.55234351820E+03  0.25500000920E-02 0.  1.
        2   -1    0    0  501    0  0.00000000000E+00  0.00000000000E+00 -0.65213484669E+03  0.65213484669E+03  0.25500000920E-02 0. -1.
    10030    2    1    2    0    0  0.00000000000E+00  0.00000000000E+00 -0.99791328492E+02  0.12044783649E+04  0.12003373785E+04 0.  0.
        4    1    3    3  502    0 -0.20958344875E+03  0.14453921552E+03 -0.59526307600E+03  0.64742300651E+03  0.12699999809E+01 0. -1.
       -4    1    3    3    0  502  0.20958344875E+03 -0.14453921552E+03  0.49547174751E+03  0.55705535837E+03  0.12699999809E+01 0.  1.
</event>
<event>
 5   0  0.9208078E-04  0.1199544E+04  0.7818609E-02  0.9113256E-01
       -1   -1    0    0    0  501  0.00000000000E+00  0.00000000000E+00  0.28951566581E+03  0.28951566585E+03  0.50400001928E-02 0. -1.
        1   -1    0    0  501    0  0.00000000000E+00  0.00000000000E+00 -0.12425116072E+04  0.12425116072E+04  0.50400001928E-02 0.  1.
    10030    2    1    2    0    0  0.00000000000E+00  0.00000000000E+00 -0.95299594142E+03  0.15320272731E+04  0.11995442056E+04 0.  0.
        3    1    3    3  502    0 -0.11156394216E+03  0.36594803279E+03  0.11344341919E+03  0.39904122024E+03  0.10100000352E+00 0. -1.
       -3    1    3    3    0  502  0.11156394216E+03 -0.36594803279E+03 -0.10664393606E+04  0.11329860529E+04  0.10100000352E+00 0.  1.
</event>
<event>
 5   0  0.1551501E-03  0.1208467E+04  0.7818609E-02  0.9105477E-01
        2   -1    0    0  501    0  0.00000000000E+00  0.00000000000E+00  0.11576062787E+04  0.11576062787E+04  0.25500000920E-02 0.  1.
       -2   -1    0    0    0  501  0.00000000000E+00  0.00000000000E+00 -0.31539075663E+03  0.31539075664E+03  0.25500000920E-02 0. -1.
    10030    2    1    2    0    0  0.00000000000E+00  0.00000000000E+00  0.84221552211E+03  0.14729970354E+04  0.12084673271E+04 0.  0.
        4    1    3    3  502    0  0.20600831923E+02 -0.17955298480E+02 -0.31463551050E+03  0.31582258372E+03  0.12699999809E+01 0. -1.
       -4    1    3    3    0  502 -0.20600831923E+02  0.17955298480E+02  0.11568510326E+04  0.11571744517E+04  0.12699999809E+01 0.  1.
</event>
<event>
 5   0  0.9169078E-04  0.1183617E+04  0.7818609E-02  0.9127319E-01
        1   -1    0    0  501    0  0.00000000000E+00  0.00000000000E+00  0.87705498826E+03  0.87705498827E+03  0.50400001928E-02 0. -1.
       -1   -1    0    0    0  501  0.00000000000E+00  0.00000000000E+00 -0.39933312300E+03  0.39933312303E+03  0.50400001928E-02 0.  1.
    10030    2    1    2    0    0  0.00000000000E+00  0.00000000000E+00  0.47772186526E+03  0.12763881113E+04  0.11836166736E+04 0.  0.
        1    1    3    3  502    0  0.33747420201E+03 -0.43034722317E+03  0.48275011268E+03  0.72947600428E+03  0.50400001928E-02 0. -1.
       -1    1    3    3    0  502 -0.33747420201E+03  0.43034722317E+03 -0.50282474191E+01  0.54691210702E+03  0.50400001928E-02 0.  1.
</event>
<event>
 5   0  0.9169078E-04  0.1199362E+04  0.7818609E-02  0.9113415E-01
       -1   -1    0    0    0  501  0.00000000000E+00  0.00000000000E+00  0.70687108390E+03  0.70687108392E+03  0.50400001928E-02 0.  1.
        1   -1    0    0  501    0  0.00000000000E+00  0.00000000000E+00 -0.50874555574E+03  0.50874555576E+03  0.50400001928E-02 0. -1.
    10030    2    1    2    0    0  0.00000000000E+00  0.00000000000E+00  0.19812552816E+03  0.12156166397E+04  0.11993623680E+04 0.  0.
        1    1    3    3  502    0  0.42831690460E+03  0.19730829636E+03  0.47453105202E+03  0.66900347827E+03  0.50400001928E-02 0.  1.
       -1    1    3    3    0  502 -0.42831690460E+03 -0.19730829636E+03 -0.27640552386E+03  0.54661316141E+03  0.50400001928E-02 0. -1.
</event>
<event>
 5   0  0.1551501E-03  0.1179420E+04  0.7818609E-02  0.9131064E-01
       -2   -1    0    0    0  501  0.00000000000E+00  0.00000000000E+00  0.26250198731E+03  0.26250198733E+03  0.25500000920E-02 0.  1.
        2   -1    0    0  501    0  0.00000000000E+00  0.00000000000E+00 -0.13247812542E+04  0.13247812542E+04  0.25500000920E-02 0. -1.
    10030    2    1    2    0    0  0.00000000000E+00  0.00000000000E+00 -0.10622792669E+04  0.15872832415E+04  0.11794197081E+04 0.  0.
        4    1    3    3  502    0 -0.18256477175E+02 -0.17122882983E+02 -0.13240642096E+04  0.13243013766E+04  0.12699999809E+01 0. -1.
       -4    1    3    3    0  502  0.18256477175E+02  0.17122882983E+02  0.26178494277E+03  0.26298186485E+03  0.12699999809E+01 0.  1.
</event>
<event>
 5   0  0.1597352E-03  0.1200717E+04  0.7818609E-02  0.9112229E-01
       -2   -1    0    0    0  501  0.00000000000E+00  0.00000000000E+00  0.28256439142E+03  0.28256439143E+03  0.25500000920E-02 0.  1.
        2   -1    0    0  501    0  0.00000000000E+00  0.00000000000E+00 -0.12755696597E+04  0.12755696597E+04  0.25500000920E-02 0. -1.
    10030    2    1    2    0    0  0.00000000000E+00  0.00000000000E+00 -0.99300526832E+03  0.15581340512E+04  0.12007173933E+04 0.  0.
        1    1    3    3  502    0 -0.62939858840E+02  0.14150026676E+01  0.27826909572E+03  0.28530180112E+03  0.50400001928E-02 0.  1.
       -1    1    3    3    0  502  0.62939858840E+02 -0.14150026676E+01 -0.12712743640E+04  0.12728322500E+04  0.50400001928E-02 0. -1.
</event>
<event>
 5   0  0.1537557E-03  0.1198871E+04  0.7818609E-02  0.9113845E-01
        2   -1    0    0  501    0  0.00000000000E+00  0.00000000000E+00  0.17137767190E+04  0.17137767190E+04  0.25500000920E-02 0.  1.
       -2   -1    0    0    0  501  0.00000000000E+00  0.00000000000E+00 -0.20966723724E+03  0.20966723726E+03  0.25500000920E-02 0. -1.
    10030    2    1    2    0    0  0.00000000000E+00  0.00000000000E+00  0.15041094818E+04  0.19234439563E+04  0.11988708520E+04 0.  0.
        2    1    3    3  502    0  0.61707612476E+02  0.69348037324E+02  0.17021751358E+04  0.17047044238E+04  0.25500000920E-02 0.  1.
       -2    1    3    3    0  502 -0.61707612476E+02 -0.69348037324E+02 -0.19806565405E+03  0.21873953241E+03  0.25500000920E-02 0. -1.
</event>
<event>
 5   0  0.1551501E-03  0.1197767E+04  0.7818609E-02  0.9114813E-01
        2   -1    0    0  501    0  0.00000000000E+00  0.00000000000E+00  0.13984350035E+04  0.13984350035E+04  0.25500000920E-02 0.  1.
       -2   -1    0    0    0  501  0.00000000000E+00  0.00000000000E+00 -0.25647340509E+03  0.25647340510E+03  0.25500000920E-02 0. -1.
    10030    2    1    2    0    0  0.00000000000E+00  0.00000000000E+00  0.11419615984E+04  0.16549084086E+04  0.11977669008E+04 0.  0.
        4    1    3    3  502    0  0.51493696401E+03  0.24383991684E+03  0.82590312007E+03  0.10033621273E+04  0.12699999809E+01 0. -1.
       -4    1    3    3    0  502 -0.51493696401E+03 -0.24383991684E+03  0.31605847830E+03  0.65154628121E+03  0.12699999809E+01 0.  1.
</event>
<event>
 5   0  0.9169078E-04  0.1200325E+04  0.7818609E-02  0.9112572E-01
        1   -1    0    0  501    0  0.00000000000E+00  0.00000000000E+00  0.14070266268E+04  0.14070266268E+04  0.50400001928E-02 0. -1.
       -1   -1    0    0    0  501  0.00000000000E+00  0.00000000000E+00 -0.25599721901E+03  0.25599721906E+03  0.50400001928E-02 0.  1.
    10030    2    1    2    0    0  0.00000000000E+00  0.00000000000E+00  0.11510294078E+04  0.16630238459E+04  0.12003247954E+04 0.  0.
        1    1    3    3  502    0 -0.57788008584E+03 -0.15268888642E+02  0.79898667393E+03  0.98618367342E+03  0.50400001928E-02 0. -1.
       -1    1    3    3    0  502  0.57788008584E+03  0.15268888642E+02  0.35204273386E+03  0.67684017246E+03  0.50400001928E-02 0.  1.
</event>
<event>
 5   0  0.9208078E-04  0.1221540E+04  0.7818609E-02  0.9094209E-01
       -1   -1    0    0    0  501  0.00000000000E+00  0.00000000000E+00  0.26096303658E+03  0.26096303662E+03  0.50400001928E-02 0. -1.
        1   -1    0    0  501    0  0.00000000000E+00  0.00000000000E+00 -0.14294737888E+04  0.14294737888E+04  0.50400001928E-02 0.  1.
    10030    2    1    2    0    0  0.00000000000E+00  0.00000000000E+00 -0.11685107522E+04  0.16904368254E+04  0.12215397180E+04 0.  0.
        3    1    3    3  502    0  0.58012067747E+03 -0.24929785819E+02 -0.84637973230E+03  0.10264112997E+04  0.10100000352E+00 0. -1.
       -3    1    3    3    0  502 -0.58012067747E+03  0.24929785819E+02 -0.32213101991E+03  0.66402552574E+03  0.10100000352E+00 0.  1.
</event>
<event>
 5   0  0.1537557E-03  0.1201017E+04  0.7818609E-02  0.9111967E-01
       -2   -1    0    0    0  501  0.00000000000E+00  0.00000000000E+00  0.14448594741E+04  0.14448594741E+04  0.25500000920E-02 0. -1.
        2   -1    0    0  501    0  0.00000000000E+00  0.00000000000E+00 -0.24958159502E+03  0.24958159504E+03  0.25500000920E-02 0.  1.
    10030    2    1    2    0    0  0.00000000000E+00  0.00000000000E+00  0.11952778790E+04  0.16944410691E+04  0.12010167894E+04 0.  0.
        2    1    3    3  502    0  0.37945520528E+03 -0.29435244376E+03  0.11062863720E+04  0.12060261816E+04  0.25500000920E-02 0. -1.
       -2    1    3    3    0  502 -0.37945520528E+03  0.29435244376E+03  0.88991507062E+02  0.48841488746E+03  0.25500000920E-02 0.  1.
</event>
<event>
 5   0  0.9358428E-04  0.1202846E+04  0.7818609E-02  0.9110369E-01
        1   -1    0    0  501    0  0.00000000000E+00  0.00000000000E+00  0.74822821506E+03  0.74822821507E+03  0.50400001928E-02 0.  1.
       -1   -1    0    0    0  501  0.00000000000E+00  0.00000000000E+00 -0.48342151773E+03  0.48342151775E+03  0.50400001928E-02 0. -1.
    10030    2    1    2    0    0  0.00000000000E+00  0.00000000000E+00  0.26480669733E+03  0.12316497328E+04  0.12028459907E+04 0.  0.
        2    1    3    3  502    0  0.15423099866E+03 -0.41951778852E+03 -0.27963454035E+03  0.52723604960E+03  0.25500000920E-02 0. -1.
       -2    1    3    3    0  502 -0.15423099866E+03  0.41951778852E+03  0.54444123768E+03  0.70441368323E+03  0.25500000920E-02 0.  1.
</event>
<event>
 5   0  0.9358428E-04  0.1205761E+04  0.7818609E-02  0.9107829E-01
        1   -1    0    0  501    0  0.00000000000E+00  0.00000000000E+00  0.85585225030E+03  0.85585225031E+03  0.50400001928E-02 0. -1.
       -1   -1    0    0    0  501  0.00000000000E+00  0.00000000000E+00 -0.42468183784E+03  0.42468183787E+03  0.50400001928E-02 0.  1.
    10030    2    1    2    0    0  0.00000000000E+00  0.00000000000E+00  0.43117041245E+03  0.12805340882E+04  0.12057610155E+04 0.  0.
        2    1    3    3  502    0  0.27918776370E+03 -0.29793354669E+03  0.68666281792E+03  0.79888424140E+03  0.25500000920E-02 0. -1.
       -2    1    3    3    0  502 -0.27918776370E+03  0.29793354669E+03 -0.25549240547E+03  0.48164984678E+03  0.25500000920E-02 0.  1.
</event>
<event>
 5   0  0.8908478E-04  0.1189629E+04  0.7818609E-02  0.9121983E-01
       -1   -1    0    0    0  501  0.00000000000E+00  0.00000000000E+00  0.35119902286E+03  0.35119902289E+03  0.50400001928E-02 0.  1.
        1   -1    0    0  501    0  0.00000000000E+00  0.00000000000E+00 -0.10074182743E+04  0.10074182743E+04  0.50400001928E-02 0. -1.
    10030    2    1    2    0    0  0.00000000000E+00  0.00000000000E+00 -0.65621925142E+03  0.13586172972E+04  0.11896290406E+04 0.  0.
        4    1    3    3  502    0 -0.58588233732E+03 -0.10422388540E+02 -0.44477764161E+03  0.73565990970E+03  0.12699999809E+01 0.  1.
       -4    1    3    3    0  502  0.58588233732E+03  0.10422388540E+02 -0.21144160981E+03  0.62295738748E+03  0.12699999809E+01 0. -1.
</event>
<event>
 5   0  0.1537557E-03  0.1186579E+04  0.7818609E-02  0.9124686E-01
        2   -1    0    0  501    0  0.00000000000E+00  0.00000000000E+00  0.73174739795E+03  0.73174739795E+03  0.25500000920E-02 0. -1.
       -2   -1    0    0    0  501  0.00000000000E+00  0.00000000000E+00 -0.48102986769E+03  0.48102986770E+03  0.25500000920E-02 0.  1.
    10030    2    1    2    0    0  0.00000000000E+00  0.00000000000E+00  0.25071753026E+03  0.12127772657E+04  0.11865788706E+04 0.  0.
        2    1    3    3  502    0 -0.24102527170E+03 -0.31107551325E+03 -0.32843875332E+03  0.51257503961E+03  0.25500000920E-02 0.  1.
       -2    1    3    3    0  502  0.24102527170E+03  0.31107551325E+03  0.57915628358E+03  0.70020222604E+03  0.25500000920E-02 0. -1.
</event>
<event>
 5   0  0.9169078E-04  0.1210023E+04  0.7818609E-02  0.9104129E-01
       -1   -1    0    0    0  501  0.00000000000E+00  0.00000000000E+00  0.65644434079E+03  0.65644434081E+03  0.50400001928E-02 0.  1.
        1   -1    0    0  501    0  0.00000000000E+00  0.00000000000E+00 -0.55760806402E+03  0.55760806404E+03  0.50400001928E-02 0. -1.
    10030    2    1    2    0    0  0.00000000000E+00  0.00000000000E+00  0.98836276778E+02  0.12140524049E+04  0.12100225750E+04 0.  0.
        1    1    3    3  502    0 -0.15875048695E+03  0.21427405401E+03  0.59429542218E+03  0.65138478350E+03  0.50400001928E-02 0.  1.
       -1    1    3    3    0  502  0.15875048695E+03 -0.21427405401E+03 -0.49545914540E+03  0.56266762135E+03  0.50400001928E-02 0. -1.
</event>
<event>
 5   0  0.1537557E-03  0.1190492E+04  0.7818609E-02  0.9121220E-01
        2   -1    0    0  501    0  0.00000000000E+00  0.00000000000E+00  0.15716247434E+04  0.15716247434E+04  0.25500000920E-02 0.  1.
       -2   -1    0    0    0  501  0.00000000000E+00  0.00000000000E+00 -0.22544664866E+03  0.22544664867E+03  0.25500000920E-02 0. -1.
    10030    2    1    2    0    0  0.00000000000E+00  0.00000000000E+00  0.13461780948E+04  0.17970713921E+04  0.11904915478E+04 0.  0.
        2    1    3    3  502    0  0.27703348520E+03  0.45255394192E+03  0.26589632276E+03  0.59350945800E+03  0.25500000920E-02 0. -1.
       -2    1    3    3    0  502 -0.27703348520E+03 -0.45255394192E+03  0.10802817720E+04  0.12035619341E+04  0.25500000920E-02 0.  1.
</event>
<event>
 5   0  0.1537557E-03  0.1204337E+04  0.7818609E-02  0.9109069E-01
       -2   -1    0    0    0  501  0.00000000000E+00  0.00000000000E+00  0.16913386676E+03  0.16913386678E+03  0.25500000920E-02 0. -1.
        2   -1    0    0  501    0  0.00000000000E+00  0.00000000000E+00 -0.21439036782E+04  0.21439036782E+04  0.25500000920E-02 0.  1.
    10030    2    1    2    0    0  0.00000000000E+00  0.00000000000E+00 -0.19747698115E+04  0.23130375450E+04  0.12043366956E+04 0.  0.
        2    1    3    3  502    0  0.57652619340E+03  0.43840024651E+02 -0.66427834338E+03  0.88066458821E+03  0.25500000920E-02 0. -1.
       -2    1    3    3    0  502 -0.57652619340E+03 -0.43840024651E+02 -0.13104914681E+04  0.14323729568E+04  0.25500000920E-02 0.  1.
</event>
<event>
 5   0  0.1537557E-03  0.1192529E+04  0.7818609E-02  0.9119421E-01
        2   -1    0    0  501    0  0.00000000000E+00  0.00000000000E+00  0.11348543920E+04  0.11348543920E+04  0.25500000920E-02 0.  1.
       -2   -1    0    0    0  501  0.00000000000E+00  0.00000000000E+00 -0.31328377285E+03  0.31328377286E+03  0.25500000920E-02 0. -1.
    10030    2    1    2    0    0  0.00000000000E+00  0.00000000000E+00  0.82157061915E+03  0.14481381649E+04  0.11925291872E+04 0.  0.
        2    1    3    3  502    0 -0.22024614894E+03 -0.15076451879E+03 -0.23669145361E+03  0.35673680840E+03  0.25500000920E-02 0. -1.
       -2    1    3    3    0  502  0.22024614894E+03  0.15076451879E+03  0.10582620728E+04  0.10914013565E+04  0.25500000920E-02 0.  1.
</event>
<event>
 5   0  0.1597352E-03  0.1170168E+04  0.7818609E-02  0.9139377E-01
       -2   -1    0    0    0  501  0.00000000000E+00  0.00000000000E+00  0.78817194685E+03  0.78817194685E+03  0.25500000920E-02 0.  1.
        2   -1    0    0  501    0  0.00000000000E+00  0.00000000000E+00 -0.43432528043E+03  0.43432528044E+03  0.25500000920E-02 0. -1.
    10030    2    1    2    0    0  0.00000000000E+00  0.00000000000E+00  0.35384666641E+03  0.12224972273E+04  0.11701675125E+04 0.  0.
        1    1    3    3  502    0  0.15304718482E+03 -0.28893324879E+03  0.68381935724E+03  0.75796752991E+03  0.50400001928E-02 0.  1.
       -1    1    3    3    0  502 -0.15304718482E+03  0.28893324879E+03 -0.32997269082E+03  0.46452969739E+03  0.50400001928E-02 0. -1.
</event>
<event>
 5   0  0.9358428E-04  0.1199630E+04  0.7818609E-02  0.9113181E-01
        1   -1    0    0  501    0  0.00000000000E+00  0.00000000000E+00  0.95760455705E+03  0.95760455707E+03  0.50400001928E-02 0.  1.
       -1   -1    0    0    0  501  0.00000000000E+00  0.00000000000E+00 -0.37570601513E+03  0.37570601516E+03  0.50400001928E-02 0. -1.
    10030    2    1    2    0    0  0.00000000000E+00  0.00000000000E+00  0.58189854192E+03  0.13333105722E+04  0.11996295966E+04 0.  0.
        2    1    3    3  502    0 -0.26356174450E+03  0.52613074001E+03  0.42008371088E+03  0.72301360492E+03  0.25500000920E-02 0.  1.
       -2    1    3    3    0  502  0.26356174450E+03 -0.52613074001E+03  0.16181483105E+03  0.61029696731E+03  0.25500000920E-02 0. -1.
</event>
<event>
 5   0  0.1551501E-03  0.1191936E+04  0.7818609E-02  0.9119945E-01
       -2   -1    0    0    0  501  0.00000000000E+00  0.00000000000E+00  0.24436089590E+03  0.24436089591E+03  0.25500000920E-02 0.  1.
        2   -1    0    0  501    0  0.00000000000E+00  0.00000000000E+00 -0.14534963402E+04  0.14534963402E+04  0.25500000920E-02 0. -1.
    10030    2    1    2    0    0  0.00000000000E+00  0.00000000000E+00 -0.12091354443E+04  0.16978572361E+04  0.11919356826E+04 0.  0.
        4    1    3    3  502    0 -0.32248584796E+03  0.49129363058E+03 -0.74564978961E+03  0.94940074533E+03  0.12699999809E+01 0.  1.
       -4    1    3    3    0  502  0.32248584796E+03 -0.49129363058E+03 -0.46348565468E+03  0.74845649077E+03  0.12699999809E+01 0. -1.
</event>
<event>
 5   0  0.1567019E-03  0.1187567E+04  0.7818609E-02  0.9123809E-01
       -2   -1    0    0    0  501  0.00000000000E+00  0.00000000000E+00  0.56262033375E+03  0.56262033376E+03  0.25500000920E-02 0.  1.
        2   -1    0    0  501    0  0.00000000000E+00  0.00000000000E+00 -0.62667280554E+03  0.62667280554E+03  0.25500000920E-02 0. -1.
    10030    2    1    2    0    0  0.00000000000E+00  0.00000000000E+00 -0.64052471788E+02  0.11892931393E+04  0.11875670305E+04 0.  0.
        5    1    3    3  502    0 -0.23824945745E+01  0.52962133630E+03  0.23678957988E+03  0.58016879551E+03  0.46999998093E+01 0.  1.
       -5    1    3    3    0  502  0.23824945745E+01 -0.52962133630E+03 -0.30084205167E+03  0.60912434379E+03  0.46999998093E+01 0. -1.
</event>
<event>
 5   0  0.9208078E-04  0.1192959E+04  0.7818609E-02  0.9119042E-01
       -1   -1    0    0    0  501  0.00000000000E+00  0.00000000000E+00  0.35170080430E+03  0.35170080434E+03  0.50400001928E-02 0.  1.
        1   -1    0    0  501    0  0.00000000000E+00  0.00000000000E+00 -0.10116201261E+04  0.10116201261E+04  0.50400001928E-02 0. -1.
    10030    2    1    2    0    0  0.00000000000E+00  0.00000000000E+00 -0.65991932180E+03  0.13633209305E+04  0.11929586951E+04 0.  0.
        3    1    3    3  502    0  0.49069671590E+03 -0.24104874374E+03 -0.57358180346E+02  0.54970695366E+03  0.10100000352E+00 0.  1.
       -3    1    3    3    0  502 -0.49069671590E+03  0.24104874374E+03 -0.60256114145E+03  0.81361397680E+03  0.10100000352E+00 0. -1.
</event>
<event>
 5   0  0.1567019E-03  0.1201139E+04  0.7818609E-02  0.9111860E-01
        2   -1    0    0  501    0  0.00000000000E+00  0.00000000000E+00  0.11948410307E+04  0.11948410307E+04  0.25500000920E-02 0.  1.
       -2   -1    0    0    0  501  0.00000000000E+00  0.00000000000E+00 -0.30186751441E+03  0.30186751442E+03  0.25500000920E-02 0. -1.
    10030    2    1    2    0    0  0.00000000000E+00  0.00000000000E+00  0.89297351627E+03  0.14967085451E+04  0.12011389463E+04 0.  0.
        5    1    3    3  502    0  0.33677926612E+02 -0.30299242664E+03  0.10912300340E+04  0.11330241350E+04  0.46999998093E+01 0.  1.
       -5    1    3    3    0  502 -0.33677926612E+02  0.30299242664E+03 -0.19825651774E+03  0.36368441012E+03  0.46999998093E+01 0. -1.
</event>
<event>
 5   0  0.9170776E-04  0.1229215E+04  0.7818609E-02  0.9087662E-01
        1   -1    0    0  501    0  0.00000000000E+00  0.00000000000E+00  0.76587989870E+03  0.76587989872E+03  0.50400001928E-02 0. -1.
       -1   -1    0    0    0  501  0.00000000000E+00  0.00000000000E+00 -0.49321397233E+03  0.49321397236E+03  0.50400001928E-02 0.  1.
    10030    2    1    2    0    0  0.00000000000E+00  0.00000000000E+00  0.27266592637E+03  0.12590938711E+04  0.12292154688E+04 0.  0.
        5    1    3    3  502    0  0.47220384051E+03  0.34077013736E+03  0.33762900554E+03  0.67313905613E+03  0.46999998093E+01 0. -1.
       -5    1    3    3    0  502 -0.47220384051E+03 -0.34077013736E+03 -0.64963079170E+02  0.58595481495E+03  0.46999998093E+01 0.  1.
</event>
<event>
 5   0  0.1567019E-03  0.1191780E+04  0.7818609E-02  0.9120082E-01
        2   -1    0    0  501    0  0.00000000000E+00  0.00000000000E+00  0.12418031588E+04  0.12418031588E+04  0.25500000920E-02 0. -1.
       -2   -1    0    0    0  501  0.00000000000E+00  0.00000000000E+00 -0.28594300657E+03  0.28594300658E+03  0.25500000920E-02 0.  1.
    10030    2    1    2    0    0  0.00000000000E+00  0.00000000000E+00  0.95586015225E+03  0.15277461654E+04  0.11917800616E+04 0.  0.
        5    1    3    3  502    0 -0.40910996054E+03  0.18921951641E+03 -0.21663228367E+02  0.45129410661E+03  0.46999998093E+01 0.  1.
       -5    1    3    3    0  502  0.40910996054E+03 -0.18921951641E+03  0.97752338061E+03  0.10764520588E+04  0.46999998093E+01 0. -1.
</event>
<event>
 5   0  0.1537557E-03  0.1197157E+04  0.7818609E-02  0.9115349E-01
       -2   -1    0    0    0  501  0.00000000000E+00  0.00000000000E+00  0.37944780462E+03  0.37944780463E+03  0.25500000920E-02 0. -1.
        2   -1    0    0  501    0  0.00000000000E+00  0.00000000000E+00 -0.94425670601E+03  0.94425670602E+03  0.25500000920E-02 0.  1.
    10030    2    1    2    0    0  0.00000000000E+00  0.00000000000E+00 -0.56480890139E+03  0.13237045107E+04  0.11971568554E+04 0.  0.
        2    1    3    3  502    0 -0.90222687268E+02  0.15509292191E+03  0.34901338786E+03  0.39243380669E+03  0.25500000920E-02 0. -1.
       -2    1    3    3    0  502  0.90222687268E+02 -0.15509292191E+03 -0.91382228925E+03  0.93127070396E+03  0.25500000920E-02 0.  1.
</event>
<event>
 5   0  0.9169078E-04  0.1200965E+04  0.7818609E-02  0.9112012E-01
        1   -1    0    0  501    0  0.00000000000E+00  0.00000000000E+00  0.76761254335E+03  0.76761254336E+03  0.50400001928E-02 0. -1.
       -1   -1    0    0    0  501  0.00000000000E+00  0.00000000000E+00 -0.46974112654E+03  0.46974112657E+03  0.50400001928E-02 0.  1.
    10030    2    1    2    0    0  0.00000000000E+00  0.00000000000E+00  0.29787141681E+03  0.12373536699E+04  0.12009649135E+04 0.  0.
        1    1    3    3  502    0  0.49845081690E+03  0.32776262075E+03  0.78319749241E+02  0.60167726862E+03  0.50400001928E-02 0. -1.
       -1    1    3    3    0  502 -0.49845081690E+03 -0.32776262075E+03  0.21955166756E+03  0.63567640131E+03  0.50400001928E-02 0.  1.
</event>
<event>
 5   0  0.9169078E-04  0.1220128E+04  0.7818609E-02  0.9095419E-01
        1   -1    0    0  501    0  0.00000000000E+00  0.00000000000E+00  0.55178894275E+03  0.55178894278E+03  0.50400001928E-02 0. -1.
       -1   -1    0    0    0  501  0.00000000000E+00  0.00000000000E+00 -0.67449347517E+03  0.67449347519E+03  0.50400001928E-02 0.  1.
    10030    2    1    2    0    0  0.00000000000E+00  0.00000000000E+00 -0.12270453242E+03  0.12262824180E+04  0.12201279303E+04 0.  0.
        1    1    3    3  502    0 -0.42258953714E+03 -0.51222064603E+02 -0.50056049060E+03  0.65708935585E+03  0.50400001928E-02 0.  1.
       -1    1    3    3    0  502  0.42258953714E+03  0.51222064603E+02  0.37785595818E+03  0.56919306211E+03  0.50400001928E-02 0. -1.
</event>
<event>
 5   0  0.1551501E-03  0.1343494E+04  0.7818609E-02  0.8995768E-01
        2   -1    0    0  501    0  0.00000000000E+00  0.00000000000E+00  0.70845759534E+03  0.70845759534E+03  0.25500000920E-02 0.  1.
       -2   -1    0    0    0  501  0.00000000000E+00  0.00000000000E+00 -0.63693856769E+03  0.63693856769E+03  0.25500000920E-02 0. -1.
    10030    2    1    2    0    0  0.00000000000E+00  0.00000000000E+00  0.71519027653E+02  0.13453961630E+04  0.13434939018E+04 0.  0.
        4    1    3    3  502    0  0.52900375805E+03 -0.12035094274E+03 -0.36092384920E+03  0.65161105214E+03  0.12699999809E+01 0. -1.
       -4    1    3    3    0  502 -0.52900375805E+03  0.12035094274E+03  0.43244287686E+03  0.69378511089E+03  0.12699999809E+01 0.  1.
</event>
<event>
 5   0  0.1551501E-03  0.1195245E+04  0.7818609E-02  0.9117029E-01
       -2   -1    0    0    0  501  0.00000000000E+00  0.00000000000E+00  0.36774905372E+03  0.36774905372E+03  0.25500000920E-02 0.  1.
        2   -1    0    0  501    0  0.00000000000E+00  0.00000000000E+00 -0.97118569593E+03  0.97118569593E+03  0.25500000920E-02 0. -1.
    10030    2    1    2    0    0  0.00000000000E+00  0.00000000000E+00 -0.60343664221E+03  0.13389347497E+04  0.11952449467E+04 0.  0.
        4    1    3    3  502    0  0.10912475598E+03  0.55551025987E+03 -0.51617831017E+03  0.76612108833E+03  0.12699999809E+01 0. -1.
       -4    1    3    3    0  502 -0.10912475598E+03 -0.55551025987E+03 -0.87258332041E+02  0.57281366133E+03  0.12699999809E+01 0.  1.
</event>
<event>
 5   0  0.1597352E-03  0.1193833E+04  0.7818609E-02  0.9118272E-01
       -2   -1    0    0    0  501  0.00000000000E+00  0.00000000000E+00  0.35494223025E+03  0.35494223026E+03  0.25500000920E-02 0. -1.
        2   -1    0    0  501    0  0.00000000000E+00  0.00000000000E+00 -0.10038512156E+04  0.10038512156E+04  0.25500000920E-02 0.  1.
    10030    2    1    2    0    0  0.00000000000E+00  0.00000000000E+00 -0.64890898536E+03  0.13587934459E+04  0.11938328012E+04 0.  0.
        1    1    3    3  502    0 -0.79297348735E+01  0.54287075619E+03 -0.60679968184E+03  0.81423423689E+03  0.50400001928E-02 0.  1.
       -1    1    3    3    0  502  0.79297348735E+01 -0.54287075619E+03 -0.42109303525E+02  0.54455920899E+03  0.50400001928E-02 0. -1.
</event>
<event>
 5   0  0.1567019E-03  0.1189749E+04  0.7818609E-02  0.9121876E-01
       -2   -1    0    0    0  501  0.00000000000E+00  0.00000000000E+00  0.53531120711E+03  0.53531120712E+03  0.25500000920E-02 0.  1.
        2   -1    0    0  501    0  0.00000000000E+00  0.00000000000E+00 -0.66106580587E+03  0.66106580588E+03  0.25500000920E-02 0. -1.
    10030    2    1    2    0    0  0.00000000000E+00  0.00000000000E+00 -0.12575459876E+03  0.11963770130E+04  0.11897494434E+04 0.  0.
        5    1    3    3  502    0  0.48807971138E+02  0.35760685104E+03 -0.53836329906E+03  0.64816819556E+03  0.46999998093E+01 0. -1.
       -5    1    3    3    0  502 -0.48807971138E+02 -0.35760685104E+03  0.41260870030E+03  0.54820881744E+03  0.46999998093E+01 0.  1.
</event>
<event>
 5   0  0.9208078E-04  0.1200161E+04  0.7818609E-02  0.9112716E-01
        1   -1    0    0  501    0  0.00000000000E+00  0.00000000000E+00  0.49947590102E+03  0.49947590105E+03  0.50400001928E-02 0. -1.
       -1   -1    0    0    0  501  0.00000000000E+00  0.00000000000E+00 -0.72094889213E+03  0.72094889215E+03  0.50400001928E-02 0.  1.
    10030    2    1    2    0    0  0.00000000000E+00  0.00000000000E+00 -0.22147299111E+03  0.12204247932E+04  0.12001609851E+04 0.  0.
        3    1    3    3  502    0  0.38236165654E+03  0.90050533356E+02 -0.57203340027E+03  0.69392489232E+03  0.10100000352E+00 0.  1.
       -3    1    3    3    0  502 -0.38236165654E+03 -0.90050533356E+02  0.35056040917E+03  0.52649990088E+03  0.10100000352E+00 0. -1.
</event>
<event>
 5   0  0.9169078E-04  0.1200480E+04  0.7818609E-02  0.9112437E-01
        1   -1    0    0  501    0  0.00000000000E+00  0.00000000000E+00  0.39430137226E+03  0.39430137229E+03  0.50400001928E-02 0.  1.
       -1   -1    0    0    0  501  0.00000000000E+00  0.00000000000E+00 -0.91373764245E+03  0.91373764247E+03  0.50400001928E-02 0. -1.
    10030    2    1    2    0    0  0.00000000000E+00  0.00000000000E+00 -0.51943627020E+03  0.13080390148E+04  0.12004799146E+04 0.  0.
        1    1    3    3  502    0  0.88247403309E+02  0.27833389222E+03 -0.83113932938E+03  0.88093696972E+03  0.50400001928E-02 0. -1.
       -1    1    3    3    0  502 -0.88247403309E+02 -0.27833389222E+03  0.31170305918E+03  0.42710204504E+03  0.50400001928E-02 0.  1.
</event>
<event>
 5   0  0.1537557E-03  0.1180455E+04  0.7818609E-02  0.9130138E-01
        2   -1    0    0  501    0  0.00000000000E+00  0.00000000000E+00  0.13343489621E+04  0.13343489621E+04  0.25500000920E-02 0. -1.
       -2   -1    0    0    0  501  0.00000000000E+00  0.00000000000E+00 -0.26107759494E+03  0.26107759495E+03  0.25500000920E-02 0.  1.
    10030    2    1    2    0    0  0.00000000000E+00  0.00000000000E+00  0.10732713672E+04  0.15954265570E+04  0.11804551967E+04 0.  0.
        2    1    3    3  502    0  0.31777595500E+03  0.69169073202E+02  0.12023304201E+04  0.12455377784E+04  0.25500000920E-02 0. -1.
       -2    1    3    3    0  502 -0.31777595500E+03 -0.69169073202E+02 -0.12905905297E+03  0.34988877865E+03  0.25500000920E-02 0.  1.
</event>
<event>
 5   0  0.9170776E-04  0.1196851E+04  0.7818609E-02  0.9115617E-01
        1   -1    0    0  501    0  0.00000000000E+00  0.00000000000E+00  0.48216401326E+03  0.48216401328E+03  0.50400001928E-02 0. -1.
       -1   -1    0    0    0  501  0.00000000000E+00  0.00000000000E+00 -0.74272081991E+03  0.74272081993E+03  0.50400001928E-02 0.  1.
    10030    2    1    2    0    0  0.00000000000E+00  0.00000000000E+00 -0.26055680665E+03  0.12248848332E+04  0.11968512878E+04 0.  0.
        5    1    3    3  502    0 -0.20923462563E+03  0.49360506346E+03 -0.40233580617E+03  0.67031431296E+03  0.46999998093E+01 0.  1.
       -5    1    3    3    0  502  0.20923462563E+03 -0.49360506346E+03  0.14177899952E+03  0.55457052025E+03  0.46999998093E+01 0. -1.
</event>
<event>
 5   0  0.9169078E-04  0.1205022E+04  0.7818609E-02  0.9108472E-01
       -1   -1    0    0    0  501  0.00000000000E+00  0.00000000000E+00  0.27198999659E+03  0.27198999664E+03  0.50400001928E-02 0.  1.
        1   -1    0    0  501    0  0.00000000000E+00  0.00000000000E+00 -0.13346800454E+04  0.13346800455E+04  0.50400001928E-02 0. -1.
    10030    2    1    2    0    0  0.00000000000E+00  0.00000000000E+00 -0.10626900489E+04  0.16066700421E+04  0.12050221924E+04 0.  0.
        1    1    3    3  502    0  0.29917036258E+03  0.23415369404E+03  0.92167073525E+02  0.39092918508E+03  0.50400001928E-02 0.  1.
       -1    1    3    3    0  502 -0.29917036258E+03 -0.23415369404E+03 -0.11548571224E+04  0.12157408570E+04  0.50400001928E-02 0. -1.
</event>
<event>
 5   0  0.9358428E-04  0.1208969E+04  0.7818609E-02  0.9105042E-01
        1   -1    0    0  501    0  0.00000000000E+00  0.00000000000E+00  0.28030848489E+03  0.28030848494E+03  0.50400001928E-02 0.  1.
       -1   -1    0    0    0  501  0.00000000000E+00  0.00000000000E+00 -0.13035682490E+04  0.13035682490E+04  0.50400001928E-02 0. -1.
    10030    2    1    2    0    0  0.00000000000E+00  0.00000000000E+00 -0.10232597641E+04  0.15838767340E+04  0.12089685536E+04 0.  0.
        2    1    3    3  502    0 -0.27265460145E+03 -0.50755491880E+03 -0.27202476724E+03  0.63714205738E+03  0.25500000920E-02 0.  1.
       -2    1    3    3    0  502  0.27265460145E+03  0.50755491880E+03 -0.75123499689E+03  0.94673467659E+03  0.25500000920E-02 0. -1.
</event>
<event>
 5   0  0.1537557E-03  0.1196852E+04  0.7818609E-02  0.9115617E-01
       -2   -1    0    0    0  501  0.00000000000E+00  0.00000000000E+00  0.88333602776E+03  0.88333602776E+03  0.25500000920E-02 0.  1.
        2   -1    0    0  501    0  0.00000000000E+00  0.00000000000E+00 -0.40541025931E+03  0.40541025931E+03  0.25500000920E-02 0. -1.
    10030    2    1    2    0    0  0.00000000000E+00  0.00000000000E+00  0.47792576845E+03  0.12887462871E+04  0.11968516835E+04 0.  0.
        2    1    3    3  502    0  0.15647218163E+03 -0.61688275927E+02 -0.37943578900E+03  0.41504277489E+03  0.25500000920E-02 0. -1.
       -2    1    3    3    0  502 -0.15647218163E+03  0.61688275927E+02  0.85736155745E+03  0.87370351219E+03  0.25500000920E-02 0.  1.
</event>
<event>
 5   0  0.1647550E-03  0.1203450E+04  0.7818609E-02  0.9109842E-01
       -2   -1    0    0    0  501  0.00000000000E+00  0.00000000000E+00  0.21052755465E+03  0.21052755466E+03  0.25500000920E-02 0.  1.
        2   -1    0    0  501    0  0.00000000000E+00  0.00000000000E+00 -0.17198354278E+04  0.17198354278E+04  0.25500000920E-02 0. -1.
    10030    2    1    2    0    0  0.00000000000E+00  0.00000000000E+00 -0.15093078732E+04  0.19303629825E+04  0.12034496201E+04 0.  0.
        3    1    3    3  502    0 -0.43697761825E+03  0.23194589998E+02 -0.92160042688E+02  0.44719225343E+03  0.10100000352E+00 0. -1.
       -3    1    3    3    0  502  0.43697761825E+03 -0.23194589998E+02 -0.14171478305E+04  0.14831707290E+04  0.10100000352E+00 0.  1.
</event>
<event>
 5   0  0.9170776E-04  0.1201909E+04  0.7818609E-02  0.9111187E-01
       -1   -1    0    0    0  501  0.00000000000E+00  0.00000000000E+00  0.58636643620E+03  0.58636643622E+03  0.50400001928E-02 0. -1.
        1   -1    0    0  501    0  0.00000000000E+00  0.00000000000E+00 -0.61590547960E+03  0.61590547962E+03  0.50400001928E-02 0.  1.
    10030    2    1    2    0    0  0.00000000000E+00  0.00000000000E+00 -0.29539043402E+02  0.12022719158E+04  0.12019089835E+04 0.  0.
        5    1    3    3  502    0  0.40602285624E+03  0.38407030448E+03 -0.23565207931E+03  0.60656289951E+03  0.46999998093E+01 0.  1.
       -5    1    3    3    0  502 -0.40602285624E+03 -0.38407030448E+03  0.20611303591E+03  0.59570901634E+03  0.46999998093E+01 0. -1.
</event>
<event>
 5   0  0.9169078E-04  0.1202108E+04  0.7818609E-02  0.9111013E-01
       -1   -1    0    0    0  501  0.00000000000E+00  0.00000000000E+00  0.60050186807E+03  0.60050186809E+03  0.50400001928E-02 0. -1.
        1   -1    0    0  501    0  0.00000000000E+00  0.00000000000E+00 -0.60160657245E+03  0.60160657247E+03  0.50400001928E-02 0.  1.
    10030    2    1    2    0    0  0.00000000000E+00  0.00000000000E+00 -0.11047043825E+01  0.12021084406E+04  0.12021079330E+04 0.  0.
        1    1    3    3  502    0  0.33804070622E+03 -0.39083307786E+03  0.30643940076E+03  0.60077210336E+03  0.50400001928E-02 0. -1.
       -1    1    3    3    0  502 -0.33804070622E+03  0.39083307786E+03 -0.30754410514E+03  0.60133633721E+03  0.50400001928E-02 0.  1.
</event>
<event>
 5   0  0.9208078E-04  0.1198419E+04  0.7818609E-02  0.9114242E-01
       -1   -1    0    0    0  501  0.00000000000E+00  0.00000000000E+00  0.46969918489E+03  0.46969918492E+03  0.50400001928E-02 0. -1.
        1   -1    0    0  501    0  0.00000000000E+00  0.00000000000E+00 -0.76442946650E+03  0.76442946652E+03  0.50400001928E-02 0.  1.
    10030    2    1    2    0    0  0.00000000000E+00  0.00000000000E+00 -0.29473028160E+03  0.12341286514E+04  0.11984187872E+04 0.  0.
        3    1    3    3  502    0  0.23868740976E+03  0.54928594680E+03 -0.16704360389E+03  0.62176386734E+03  0.10100000352E+00 0. -1.
       -3    1    3    3    0  502 -0.23868740976E+03 -0.54928594680E+03 -0.12768667772E+03  0.61236478409E+03  0.10100000352E+00 0.  1.
</event>
<event>
 5   0  0.1567019E-03  0.1183497E+04  0.7818609E-02  0.9127425E-01
       -2   -1    0    0    0  501  0.00000000000E+00  0.00000000000E+00  0.19899541084E+03  0.19899541086E+03  0.25500000920E-02 0. -1.
        2   -1    0    0  501    0  0.00000000000E+00  0.00000000000E+00 -0.17596702722E+04  0.17596702722E+04  0.25500000920E-02 0.  1.
    10030    2    1    2    0    0  0.00000000000E+00  0.00000000000E+00 -0.15606748614E+04  0.19586656831E+04  0.11834970364E+04 0.  0.
        5    1    3    3  502    0  0.24172393861E+03  0.27694222986E+03 -0.15477506815E+04  0.15908116555E+04  0.46999998093E+01 0.  1.
       -5    1    3    3    0  502 -0.24172393861E+03 -0.27694222986E+03 -0.12924179861E+02  0.36785402757E+03  0.46999998093E+01 0. -1.
</event>
<event>
 5   0  0.9170776E-04  0.1204796E+04  0.7818609E-02  0.9108669E-01
        1   -1    0    0  501    0  0.00000000000E+00  0.00000000000E+00  0.11182985829E+04  0.11182985829E+04  0.50400001928E-02 0.  1.
       -1   -1    0    0    0  501  0.00000000000E+00  0.00000000000E+00 -0.32449593360E+03  0.32449593364E+03  0.50400001928E-02 0. -1.
    10030    2    1    2    0    0  0.00000000000E+00  0.00000000000E+00  0.79380264929E+03  0.14427945165E+04  0.12047959873E+04 0.  0.
        5    1    3    3  502    0 -0.21425354103E+03 -0.37133607023E+03  0.90365601185E+03  0.10002056462E+04  0.46999998093E+01 0.  1.
       -5    1    3    3    0  502  0.21425354103E+03  0.37133607023E+03 -0.10985336256E+03  0.44258887036E+03  0.46999998093E+01 0. -1.
</event>
<event>
 5   0  0.1537557E-03  0.1085696E+04  0.7818609E-02  0.9219246E-01
       -2   -1    0    0    0  501  0.00000000000E+00  0.00000000000E+00  0.82334505322E+03  0.82334505323E+03  0.25500000920E-02 0. -1.
        2   -1    0    0  501    0  0.00000000000E+00  0.00000000000E+00 -0.35791081516E+03  0.35791081517E+03  0.25500000920E-02 0.  1.
    10030    2    1    2    0    0  0.00000000000E+00  0.00000000000E+00  0.46543423806E+03  0.11812558684E+04  0.10856962728E+04 0.  0.
        2    1    3    3  502    0  0.36541919965E+03  0.21435098123E+03 -0.13657857621E+03  0.44511935716E+03  0.25500000920E-02 0. -1.
       -2    1    3    3    0  502 -0.36541919965E+03 -0.21435098123E+03  0.60201281427E+03  0.73613651124E+03  0.25500000920E-02 0.  1.
</event>
<event>
 5   0  0.1537557E-03  0.1197227E+04  0.7818609E-02  0.9115288E-01
        2   -1    0    0  501    0  0.00000000000E+00  0.00000000000E+00  0.49736624171E+03  0.49736624172E+03  0.25500000920E-02 0. -1.
       -2   -1    0    0    0  501  0.00000000000E+00  0.00000000000E+00 -0.72047078922E+03  0.72047078923E+03  0.25500000920E-02 0.  1.
    10030    2    1    2    0    0  0.00000000000E+00  0.00000000000E+00 -0.22310454751E+03  0.12178370309E+04  0.11972265428E+04 0.  0.
        2    1    3    3  502    0 -0.12528653918E+03  0.15364910241E+03  0.46300152539E+03  0.50366176755E+03  0.25500000920E-02 0. -1.
       -2    1    3    3    0  502  0.12528653918E+03 -0.15364910241E+03 -0.68610607290E+03  0.71417526340E+03  0.25500000920E-02 0.  1.
</event>
<event>
 5   0  0.1567019E-03  0.1193004E+04  0.7818609E-02  0.9119002E-01
        2   -1    0    0  501    0  0.00000000000E+00  0.00000000000E+00  0.86237008823E+03  0.86237008824E+03  0.25500000920E-02 0. -1.
       -2   -1    0    0    0  501  0.00000000000E+00  0.00000000000E+00 -0.41260078411E+03  0.41260078412E+03  0.25500000920E-02 0.  1.
    10030    2    1    2    0    0  0.00000000000E+00  0.00000000000E+00  0.44976930412E+03  0.12749708724E+04  0.11930038971E+04 0.  0.
        5    1    3    3  502    0 -0.95725170723E+02 -0.21625563860E+02 -0.40389400223E+03  0.41567226075E+03  0.46999998093E+01 0.  1.
       -5    1    3    3    0  502  0.95725170723E+02  0.21625563860E+02  0.85366330634E+03  0.85929861161E+03  0.46999998093E+01 0. -1.
</event>
<event>
 5   0  0.1597352E-03  0.1180918E+04  0.7818609E-02  0.9129725E-01
       -2   -1    0    0    0  501  0.00000000000E+00  0.00000000000E+00  0.48375619706E+03  0.48375619706E+03  0.25500000920E-02 0. -1.
        2   -1    0    0  501    0  0.00000000000E+00  0.00000000000E+00 -0.72069754831E+03  0.72069754832E+03  0.25500000920E-02 0.  1.
    10030    2    1    2    0    0  0.00000000000E+00  0.00000000000E+00 -0.23694135126E+03  0.12044537454E+04  0.11809181262E+04 0.  0.
        1    1    3    3  502    0 -0.13199828780E+03 -0.51299166912E+03 -0.38454907822E+03  0.65457008345E+03  0.50400001928E-02 0.  1.
       -1    1    3    3    0  502  0.13199828780E+03  0.51299166912E+03  0.14760772696E+03  0.54988366193E+03  0.50400001928E-02 0. -1.
</event>
<event>
 5   0  0.1537557E-03  0.1198889E+04  0.7818609E-02  0.9113830E-01
        2   -1    0    0  501    0  0.00000000000E+00  0.00000000000E+00  0.11197926299E+04  0.11197926299E+04  0.25500000920E-02 0. -1.
       -2   -1    0    0    0  501  0.00000000000E+00  0.00000000000E+00 -0.32089286269E+03  0.32089286271E+03  0.25500000920E-02 0.  1.
    10030    2    1    2    0    0  0.00000000000E+00  0.00000000000E+00  0.79889976720E+03  0.14406854926E+04  0.11988885897E+04 0.  0.
        2    1    3    3  502    0  0.29676667009E+03  0.29927220003E+03 -0.11278224085E+03  0.43629593173E+03  0.25500000920E-02 0.  1.
       -2    1    3    3    0  502 -0.29676667009E+03 -0.29927220003E+03  0.91168200805E+03  0.10043895609E+04  0.25500000920E-02 0. -1.
</event>
<event>
 5   0  0.1597352E-03  0.1203233E+04  0.7818609E-02  0.9110031E-01
       -2   -1    0    0    0  501  0.00000000000E+00  0.00000000000E+00  0.38824597848E+03  0.38824597849E+03  0.25500000920E-02 0. -1.
        2   -1    0    0  501    0  0.00000000000E+00  0.00000000000E+00 -0.93225049247E+03  0.93225049248E+03  0.25500000920E-02 0.  1.
    10030    2    1    2    0    0  0.00000000000E+00  0.00000000000E+00 -0.54400451399E+03  0.13204964710E+04  0.12032331522E+04 0.  0.
        1    1    3    3  502    0  0.31592955965E+03 -0.32579115036E+03  0.16144616630E+03  0.48168062546E+03  0.50400001928E-02 0. -1.
       -1    1    3    3    0  502 -0.31592955965E+03  0.32579115036E+03 -0.70545068029E+03  0.83881584550E+03  0.50400001928E-02 0.  1.
</event>
<event>
 5   0  0.9358428E-04  0.1198637E+04  0.7818609E-02  0.9114051E-01
        1   -1    0    0  501    0  0.00000000000E+00  0.00000000000E+00  0.36332413577E+03  0.36332413580E+03  0.50400001928E-02 0.  1.
       -1   -1    0    0    0  501  0.00000000000E+00  0.00000000000E+00 -0.98860049895E+03  0.98860049896E+03  0.50400001928E-02 0. -1.
    10030    2    1    2    0    0  0.00000000000E+00  0.00000000000E+00 -0.62527636318E+03  0.13519246348E+04  0.11986365954E+04 0.  0.
        2    1    3    3  502    0 -0.43071040942E+02 -0.51915922545E+03  0.21568166499E+02  0.52138910782E+03  0.25500000920E-02 0.  1.
       -2    1    3    3    0  502  0.43071040942E+02  0.51915922545E+03 -0.64684452968E+03  0.83053552695E+03  0.25500000920E-02 0. -1.
</event>
<event>
 5   0  0.8908478E-04  0.1200125E+04  0.7818609E-02  0.9112747E-01
       -1   -1    0    0    0  501  0.00000000000E+00  0.00000000000E+00  0.38085679315E+03  0.38085679319E+03  0.50400001928E-02 0.  1.
        1   -1    0    0  501    0  0.00000000000E+00  0.00000000000E+00 -0.94543446239E+03  0.94543446240E+03  0.50400001928E-02 0. -1.
    10030    2    1    2    0    0  0.00000000000E+00  0.00000000000E+00 -0.56457766923E+03  0.13262912556E+04  0.12001252227E+04 0.  0.
        4    1    3    3  502    0 -0.15347287290E+03 -0.41593639621E+03 -0.72917113697E+03  0.85337516269E+03  0.12699999809E+01 0. -1.
       -4    1    3    3    0  502  0.15347287290E+03  0.41593639621E+03  0.16459346773E+03  0.47291609290E+03  0.12699999809E+01 0.  1.
</event>
<event>
 5   0  0.8908478E-04  0.1199023E+04  0.7818609E-02  0.9113712E-01
       -1   -1    0    0    0  501  0.00000000000E+00  0.00000000000E+00  0.22095082319E+03  0.22095082324E+03  0.50400001928E-02 0. -1.
        1   -1    0    0  501    0  0.00000000000E+00  0.00000000000E+00 -0.16266700585E+04  0.16266700585E+04  0.50400001928E-02 0.  1.
    10030    2    1    2    0    0  0.00000000000E+00  0.00000000000E+00 -0.14057192353E+04  0.18476208818E+04  0.11990230833E+04 0.  0.
        4    1    3    3  502    0  0.55867767811E+03 -0.92657891345E+02 -0.39969687587E+03  0.69315614282E+03  0.12699999809E+01 0.  1.
       -4    1    3    3    0  502 -0.55867767811E+03  0.92657891345E+02 -0.10060223595E+04  0.11544647390E+04  0.12699999809E+01 0. -1.
</event>
<event>
 5   0  0.1551501E-03  0.1203976E+04  0.7818609E-02  0.9109383E-01
       -2   -1    0    0    0  501  0.00000000000E+00  0.00000000000E+00  0.22513972785E+03  0.22513972786E+03  0.25500000920E-02 0. -1.
        2   -1    0    0  501    0  0.00000000000E+00  0.00000000000E+00 -0.16096210502E+04  0.16096210502E+04  0.25500000920E-02 0.  1.
    10030    2    1    2    0    0  0.00000000000E+00  0.00000000000E+00 -0.13844813224E+04  0.18347607781E+04  0.12039761546E+04 0.  0.
        4    1    3    3  502    0 -0.52135701835E+03  0.29495007244E+03 -0.60106825172E+03  0.84858313791E+03  0.12699999809E+01 0.  1.
       -4    1    3    3    0  502  0.52135701835E+03 -0.29495007244E+03 -0.78341307066E+03  0.98617764018E+03  0.12699999809E+01 0. -1.
</event>
<event>
 5   0  0.9170776E-04  0.1208592E+04  0.7818609E-02  0.9105369E-01
       -1   -1    0    0    0  501  0.00000000000E+00  0.00000000000E+00  0.23985496821E+03  0.23985496826E+03  0.50400001928E-02 0. -1.
        1   -1    0    0  501    0  0.00000000000E+00  0.00000000000E+00 -0.15224760205E+04  0.15224760205E+04  0.50400001928E-02 0.  1.
    10030    2    1    2    0    0  0.00000000000E+00  0.00000000000E+00 -0.12826210523E+04  0.17623309888E+04  0.12085916391E+04 0.  0.
        5    1    3    3  502    0 -0.20680227432E+03 -0.39061376314E+03 -0.40436820390E+02  0.44385078468E+03  0.46999998093E+01 0. -1.
       -5    1    3    3    0  502  0.20680227432E+03  0.39061376314E+03 -0.12421842319E+04  0.13184802041E+04  0.46999998093E+01 0.  1.
</event>
<event>
 5   0  0.9358428E-04  0.1206833E+04  0.7818609E-02  0.9106897E-01
        1   -1    0    0  501    0  0.00000000000E+00  0.00000000000E+00  0.90854233410E+03  0.90854233411E+03  0.50400001928E-02 0.  1.
       -1   -1    0    0    0  501  0.00000000000E+00  0.00000000000E+00 -0.40076424991E+03  0.40076424995E+03  0.50400001928E-02 0. -1.
    10030    2    1    2    0    0  0.00000000000E+00  0.00000000000E+00  0.50777808418E+03  0.13093065841E+04  0.12068326927E+04 0.  0.
        2    1    3    3  502    0 -0.19300999581E+03 -0.55260316715E+02  0.87124533123E+03  0.89407773056E+03  0.25500000920E-02 0.  1.
       -2    1    3    3    0  502  0.19300999581E+03  0.55260316715E+02 -0.36346724705E+03  0.41522885349E+03  0.25500000920E-02 0. -1.
</event>
<event>
 5   0  0.8908478E-04  0.1196693E+04  0.7818609E-02  0.9115756E-01
       -1   -1    0    0    0  501  0.00000000000E+00  0.00000000000E+00  0.22255821668E+03  0.22255821674E+03  0.50400001928E-02 0.  1.
        1   -1    0    0  501    0  0.00000000000E+00  0.00000000000E+00 -0.16086500995E+04  0.16086500995E+04  0.50400001928E-02 0. -1.
    10030    2    1    2    0    0  0.00000000000E+00  0.00000000000E+00 -0.13860918828E+04  0.18312083162E+04  0.11966926046E+04 0.  0.
        4    1    3    3  502    0  0.46528874140E+02 -0.49342247746E+03 -0.12060387368E+04  0.13039024982E+04  0.12699999809E+01 0. -1.
       -4    1    3    3    0  502 -0.46528874140E+02  0.49342247746E+03 -0.18005314603E+03  0.52730581799E+03  0.12699999809E+01 0.  1.
</event>
<event>
 5   0  0.8908478E-04  0.1203541E+04  0.7818609E-02  0.9109763E-01
        1   -1    0    0  501    0  0.00000000000E+00  0.00000000000E+00  0.71454548596E+03  0.71454548597E+03  0.50400001928E-02 0.  1.
       -1   -1    0    0    0  501  0.00000000000E+00  0.00000000000E+00 -0.50679472697E+03  0.50679472699E+03  0.50400001928E-02 0. -1.
    10030    2    1    2    0    0  0.00000000000E+00  0.00000000000E+00  0.20775075899E+03  0.12213402130E+04  0.12035412490E+04 0.  0.
        4    1    3    3  502    0 -0.14419307093E+03 -0.33981415966E+03 -0.37840130716E+03  0.52863453062E+03  0.12699999809E+01 0. -1.
       -4    1    3    3    0  502  0.14419307093E+03  0.33981415966E+03  0.58615206614E+03  0.69270568235E+03  0.12699999809E+01 0.  1.
</event>
<event>
 5   0  0.1647550E-03  0.1195481E+04  0.7818609E-02  0.9116822E-01
        2   -1    0    0  501    0  0.00000000000E+00  0.00000000000E+00  0.15060810124E+04  0.15060810124E+04  0.25500000920E-02 0.  1.
       -2   -1    0    0    0  501  0.00000000000E+00  0.00000000000E+00 -0.23723392345E+03  0.23723392346E+03  0.25500000920E-02 0. -1.
    10030    2    1    2    0    0  0.00000000000E+00  0.00000000000E+00  0.12688470889E+04  0.17433149358E+04  0.11954806692E+04 0.  0.
        3    1    3    3  502    0  0.10904476601E+03 -0.39769074397E+03  0.34107200066E+01  0.41238371943E+03  0.10100000352E+00 0. -1.
       -3    1    3    3    0  502 -0.10904476601E+03  0.39769074397E+03  0.12654363689E+04  0.13309312164E+04  0.10100000352E+00 0.  1.
</event>
<event>
 5   0  0.9358428E-04  0.1067745E+04  0.7818609E-02  0.9237213E-01
        1   -1    0    0  501    0  0.00000000000E+00  0.00000000000E+00  0.12717317993E+04  0.12717317993E+04  0.50400001928E-02 0.  1.
       -1   -1    0    0    0  501  0.00000000000E+00  0.00000000000E+00 -0.22411938814E+03  0.22411938820E+03  0.50400001928E-02 0. -1.
    10030    2    1    2    0    0  0.00000000000E+00  0.00000000000E+00  0.10476124112E+04  0.14958511875E+04  0.10677448249E+04 0.  0.
        2    1    3    3  502    0 -0.14948755184E+03  0.50669744262E+03  0.63169645025E+03  0.82348602404E+03  0.25500000920E-02 0.  1.
       -2    1    3    3    0  502  0.14948755184E+03 -0.50669744262E+03  0.41591596093E+03  0.67236516350E+03  0.25500000920E-02 0. -1.
</event>
<event>
 5   0  0.1647550E-03  0.1214757E+04  0.7818609E-02  0.9100037E-01
       -2   -1    0    0    0  501  0.00000000000E+00  0.00000000000E+00  0.61246441243E+03  0.61246441243E+03  0.25500000920E-02 0. -1.
        2   -1    0    0  501    0  0.00000000000E+00  0.00000000000E+00 -0.60233529725E+03  0.60233529725E+03  0.25500000920E-02 0.  1.
    10030    2    1    2    0    0  0.00000000000E+00  0.00000000000E+00  0.10129115181E+02  0.12147997097E+04  0.12147574802E+04 0.  0.
        3    1    3    3  502    0  0.13783553339E+03  0.19733832586E+03  0.56272887937E+03  0.61204971284E+03  0.10100000352E+00 0. -1.
       -3    1    3    3    0  502 -0.13783553339E+03 -0.19733832586E+03 -0.55259976419E+03  0.60274999684E+03  0.10100000352E+00 0.  1.
</event>
<event>
 5   0  0.9170776E-04  0.1193034E+04  0.7818609E-02  0.9118975E-01
        1   -1    0    0  501    0  0.00000000000E+00  0.00000000000E+00  0.65954127873E+03  0.65954127875E+03  0.50400001928E-02 0. -1.
       -1   -1    0    0    0  501  0.00000000000E+00  0.00000000000E+00 -0.53951562597E+03  0.53951562600E+03  0.50400001928E-02 0.  1.
    10030    2    1    2    0    0  0.00000000000E+00  0.00000000000E+00  0.12002565276E+03  0.11990569048E+04  0.11930344938E+04 0.  0.
        5    1    3    3  502    0  0.29303809895E+03  0.31059973034E+03 -0.35858358229E+03  0.55762693211E+03  0.46999998093E+01 0.  1.
       -5    1    3    3    0  502 -0.29303809895E+03 -0.31059973034E+03  0.47860923505E+03  0.64142997264E+03  0.46999998093E+01 0. -1.
</event>
<event>
 5   0  0.1647550E-03  0.1213120E+04  0.7818609E-02  0.9101450E-01
       -2   -1    0    0    0  501  0.00000000000E+00  0.00000000000E+00  0.39916482193E+03  0.39916482194E+03  0.25500000920E-02 0. -1.
        2   -1    0    0  501    0  0.00000000000E+00  0.00000000000E+00 -0.92171137513E+03  0.92171137513E+03  0.25500000920E-02 0.  1.
    10030    2    1    2    0    0  0.00000000000E+00  0.00000000000E+00 -0.52254655320E+03  0.13208761971E+04  0.12131195439E+04 0.  0.
        3    1    3    3  502    0 -0.29537402382E+02  0.34937891657E+03  0.27764246605E+03  0.44723979546E+03  0.10100000352E+00 0. -1.
       -3    1    3    3    0  502  0.29537402382E+02 -0.34937891657E+03 -0.80018901926E+03  0.87363640161E+03  0.10100000352E+00 0.  1.
</event>
<event>
 5   0  0.9169078E-04  0.1203609E+04  0.7818609E-02  0.9109703E-01
       -1   -1    0    0    0  501  0.00000000000E+00  0.00000000000E+00  0.20732349456E+03  0.20732349462E+03  0.50400001928E-02 0. -1.
        1   -1    0    0  501    0  0.00000000000E+00  0.00000000000E+00 -0.17468775878E+04  0.17468775878E+04  0.50400001928E-02 0.  1.
    10030    2    1    2    0    0  0.00000000000E+00  0.00000000000E+00 -0.15395540932E+04  0.19542010824E+04  0.12036091826E+04 0.  0.
        1    1    3    3  502    0  0.27187767051E+03  0.31634182530E+03 -0.14740962115E+04  0.15319756066E+04  0.50400001928E-02 0.  1.
       -1    1    3    3    0  502 -0.27187767051E+03 -0.31634182530E+03 -0.65457881658E+02  0.42222547584E+03  0.50400001928E-02 0. -1.
</event>
<event>
 5   0  0.9170776E-04  0.1214620E+04  0.7818609E-02  0.9100155E-01
       -1   -1    0    0    0  501  0.00000000000E+00  0.00000000000E+00  0.43182396681E+03  0.43182396684E+03  0.50400001928E-02 0. -1.
        1   -1    0    0  501    0  0.00000000000E+00  0.00000000000E+00 -0.85411027828E+03  0.85411027830E+03  0.50400001928E-02 0.  1.
    10030    2    1    2    0    0  0.00000000000E+00  0.00000000000E+00 -0.42228631147E+03  0.12859342451E+04  0.12146197569E+04 0.  0.
        5    1    3    3  502    0 -0.21169477202E+01 -0.18565644247E+03  0.40101882904E+03  0.44194002686E+03  0.46999998093E+01 0. -1.
       -5    1    3    3    0  502  0.21169477202E+01  0.18565644247E+03 -0.82330514051E+03  0.84399421828E+03  0.46999998093E+01 0.  1.
</event>
<event>
 5   0  0.1567019E-03  0.1197873E+04  0.7818609E-02  0.9114720E-01
       -2   -1    0    0    0  501  0.00000000000E+00  0.00000000000E+00  0.37694851665E+03  0.37694851666E+03  0.25500000920E-02 0. -1.
        2   -1    0    0  501    0  0.00000000000E+00  0.00000000000E+00 -0.95165542810E+03  0.95165542810E+03  0.25500000920E-02 0.  1.
    10030    2    1    2    0    0  0.00000000000E+00  0.00000000000E+00 -0.57470691145E+03  0.13286039448E+04  0.11978732854E+04 0.  0.
        5    1    3    3  502    0  0.20169023430E+03 -0.47052729141E+03 -0.63212899322E+03  0.81343963307E+03  0.46999998093E+01 0.  1.
       -5    1    3    3    0  502 -0.20169023430E+03  0.47052729141E+03  0.57422081770E+02  0.51516431169E+03  0.46999998093E+01 0. -1.
</event>
<event>
 5   0  0.9169078E-04  0.1208924E+04  0.7818609E-02  0.9105081E-01
       -1   -1    0    0    0  501  0.00000000000E+00  0.00000000000E+00  0.32047880344E+03  0.32047880348E+03  0.50400001928E-02 0.  1.
        1   -1    0    0  501    0  0.00000000000E+00  0.00000000000E+00 -0.11400892630E+04  0.11400892630E+04  0.50400001928E-02 0. -1.
    10030    2    1    2    0    0  0.00000000000E+00  0.00000000000E+00 -0.81961045951E+03  0.14605680664E+04  0.12089242207E+04 0.  0.
        1    1    3    3  502    0  0.46004431408E+03  0.17781829366E+03  0.12382912461E+02  0.49336948936E+03  0.50400001928E-02 0.  1.
       -1    1    3    3    0  502 -0.46004431408E+03 -0.17781829366E+03 -0.83199337197E+03  0.96719857708E+03  0.50400001928E-02 0. -1.
</event>
<event>
 5   0  0.9358428E-04  0.1201700E+04  0.7818609E-02  0.9111370E-01
       -1   -1    0    0    0  501  0.00000000000E+00  0.00000000000E+00  0.69985914662E+03  0.69985914664E+03  0.50400001928E-02 0.  1.
        1   -1    0    0  501    0  0.00000000000E+00  0.00000000000E+00 -0.51584782235E+03  0.51584782238E+03  0.50400001928E-02 0. -1.
    10030    2    1    2    0    0  0.00000000000E+00  0.00000000000E+00  0.18401132427E+03  0.12157069690E+04  0.12017001569E+04 0.  0.
        2    1    3    3  502    0  0.90778855774E+02 -0.52968820705E+03 -0.17984645662E+03  0.56670551904E+03  0.25500000920E-02 0. -1.
       -2    1    3    3    0  502 -0.90778855774E+02  0.52968820705E+03  0.36385778089E+03  0.64900144998E+03  0.25500000920E-02 0.  1.
</event>
<event>
 5   0  0.1537557E-03  0.1200542E+04  0.7818609E-02  0.9112382E-01
       -2   -1    0    0    0  501  0.00000000000E+00  0.00000000000E+00  0.28790857099E+03  0.28790857100E+03  0.25500000920E-02 0.  1.
        2   -1    0    0  501    0  0.00000000000E+00  0.00000000000E+00 -0.12515272971E+04  0.12515272971E+04  0.25500000920E-02 0. -1.
    10030    2    1    2    0    0  0.00000000000E+00  0.00000000000E+00 -0.96361872607E+03  0.15394358681E+04  0.12005422702E+04 0.  0.
        2    1    3    3  502    0  0.62025014605E+02  0.44475580514E+03 -0.99258760253E+03  0.10894425076E+04  0.25500000920E-02 0. -1.
       -2    1    3    3    0  502 -0.62025014605E+02 -0.44475580514E+03  0.28968876469E+02  0.44999336046E+03  0.25500000920E-02 0.  1.
</event>
<event>
 5   0  0.1537557E-03  0.1198209E+04  0.7818609E-02  0.9114425E-01
        2   -1    0    0  501    0  0.00000000000E+00  0.00000000000E+00  0.27276514447E+03  0.27276514449E+03  0.25500000920E-02 0. -1.
       -2   -1    0    0    0  501  0.00000000000E+00  0.00000000000E+00 -0.13158807619E+04  0.13158807619E+04  0.25500000920E-02 0.  1.
    10030    2    1    2    0    0  0.00000000000E+00  0.00000000000E+00 -0.10431156174E+04  0.15886459064E+04  0.11982093409E+04 0.  0.
        2    1    3    3  502    0  0.50533568011E+03  0.32176702294E+03 -0.52860348614E+03  0.79894919251E+03  0.25500000920E-02 0. -1.
       -2    1    3    3    0  502 -0.50533568011E+03 -0.32176702294E+03 -0.51451213125E+03  0.78969671384E+03  0.25500000920E-02 0.  1.
</event>
<event>
 5   0  0.1551501E-03  0.1173349E+04  0.7818609E-02  0.9136509E-01
        2   -1    0    0  501    0  0.00000000000E+00  0.00000000000E+00  0.13248889498E+04  0.13248889498E+04  0.25500000920E-02 0.  1.
       -2   -1    0    0    0  501  0.00000000000E+00  0.00000000000E+00 -0.25978572044E+03  0.25978572045E+03  0.25500000920E-02 0. -1.
    10030    2    1    2    0    0  0.00000000000E+00  0.00000000000E+00  0.10651032293E+04  0.15846746702E+04  0.11733494455E+04 0.  0.
        4    1    3    3  502    0  0.43596668918E+03 -0.38911682531E+03  0.60281637811E+03  0.83956420626E+03  0.12699999809E+01 0.  1.
       -4    1    3    3    0  502 -0.43596668918E+03  0.38911682531E+03  0.46228685124E+03  0.74511046398E+03  0.12699999809E+01 0. -1.
</event>
<event>
 5   0  0.1597352E-03  0.1208037E+04  0.7818609E-02  0.9105851E-01
       -2   -1    0    0    0  501  0.00000000000E+00  0.00000000000E+00  0.30494752238E+03  0.30494752239E+03  0.25500000920E-02 0.  1.
        2   -1    0    0  501    0  0.00000000000E+00  0.00000000000E+00 -0.11963966739E+04  0.11963966739E+04  0.25500000920E-02 0. -1.
    10030    2    1    2    0    0  0.00000000000E+00  0.00000000000E+00 -0.89144915151E+03  0.15013441963E+04  0.12080367569E+04 0.  0.
        1    1    3    3  502    0  0.16284373559E+03  0.41875591594E+03  0.55976957803E+02  0.45277811253E+03  0.50400001928E-02 0.  1.
       -1    1    3    3    0  502 -0.16284373559E+03 -0.41875591594E+03 -0.94742610931E+03  0.10485660838E+04  0.50400001928E-02 0. -1.
</event>
<event>
 5   0  0.1567019E-03  0.1202578E+04  0.7818609E-02  0.9110603E-01
       -2   -1    0    0    0  501  0.00000000000E+00  0.00000000000E+00  0.36879135111E+03  0.36879135112E+03  0.25500000920E-02 0. -1.
        2   -1    0    0  501    0  0.00000000000E+00  0.00000000000E+00 -0.98036042117E+03  0.98036042117E+03  0.25500000920E-02 0.  1.
    10030    2    1    2    0    0  0.00000000000E+00  0.00000000000E+00 -0.61156907006E+03  0.13491517723E+04  0.12025779714E+04 0.  0.
        5    1    3    3  502    0  0.20681800813E+03  0.31612810981E+03  0.21900695962E+03  0.43668845721E+03  0.46999998093E+01 0. -1.
       -5    1    3    3    0  502 -0.20681800813E+03 -0.31612810981E+03 -0.83057602968E+03  0.91246331509E+03  0.46999998093E+01 0.  1.
</event>
<event>
 5   0  0.1537557E-03  0.1202953E+04  0.7818609E-02  0.9110276E-01
       -2   -1    0    0    0  501  0.00000000000E+00  0.00000000000E+00  0.18778904397E+03  0.18778904399E+03  0.25500000920E-02 0. -1.
        2   -1    0    0  501    0  0.00000000000E+00  0.00000000000E+00 -0.19264901175E+04  0.19264901175E+04  0.25500000920E-02 0.  1.
    10030    2    1    2    0    0  0.00000000000E+00  0.00000000000E+00 -0.17387010735E+04  0.21142791614E+04  0.12029525966E+04 0.  0.
        2    1    3    3  502    0 -0.13418408859E+03 -0.17822108928E+03 -0.18510872170E+04  0.18644817004E+04  0.25500000920E-02 0.  1.
       -2    1    3    3    0  502  0.13418408859E+03  0.17822108928E+03  0.11238614347E+03  0.24979746105E+03  0.25500000920E-02 0. -1.
</event>
<event>
 5   0  0.1597352E-03  0.1202080E+04  0.7818609E-02  0.9111038E-01
       -2   -1    0    0    0  501  0.00000000000E+00  0.00000000000E+00  0.77413193325E+03  0.77413193325E+03  0.25500000920E-02 0. -1.
        2   -1    0    0  501    0  0.00000000000E+00  0.00000000000E+00 -0.46665037235E+03  0.46665037236E+03  0.25500000920E-02 0.  1.
    10030    2    1    2    0    0  0.00000000000E+00  0.00000000000E+00  0.30748156090E+03  0.12407823056E+04  0.12020797892E+04 0.  0.
        1    1    3    3  502    0 -0.32140525252E+03  0.44127287238E+03  0.41328401061E+03  0.68470925048E+03  0.50400001928E-02 0. -1.
       -1    1    3    3    0  502  0.32140525252E+03 -0.44127287238E+03 -0.10580244971E+03  0.55607305512E+03  0.50400001928E-02 0.  1.
</event>
<event>
 5   0  0.6137750E-04  0.1201860E+04  0.7818609E-02  0.9111230E-01
       -3   -1    0    0    0  501  0.00000000000E+00  0.00000000000E+00  0.19529670260E+04  0.19529670286E+04  0.10100000352E+00 0.  1.
        3   -1    0    0  501    0  0.00000000000E+00  0.00000000000E+00 -0.18490663029E+03  0.18490665788E+03  0.10100000352E+00 0. -1.
    10030    2    1    2    0    0  0.00000000000E+00  0.00000000000E+00  0.17680603957E+04  0.21378736865E+04  0.12018595328E+04 0.  0.
        2    1    3    3  502    0 -0.56118990476E+03  0.21038253689E+03  0.80605312032E+03  0.10044483829E+04  0.25500000920E-02 0.  1.
       -2    1    3    3    0  502  0.56118990476E+03 -0.21038253689E+03  0.96200727540E+03  0.11334253036E+04  0.25500000920E-02 0. -1.
</event>
<event>
 5   0  0.6137750E-04  0.1201565E+04  0.7818609E-02  0.9111488E-01
        3   -1    0    0  501    0  0.00000000000E+00  0.00000000000E+00  0.14630491574E+04  0.14630491609E+04  0.10100000352E+00 0. -1.
       -3   -1    0    0    0  501  0.00000000000E+00  0.00000000000E+00 -0.24670359630E+03  0.24670361697E+03  0.10100000352E+00 0.  1.
    10030    2    1    2    0    0  0.00000000000E+00  0.00000000000E+00  0.12163455611E+04  0.17097527779E+04  0.12015648286E+04 0.  0.
        2    1    3    3  502    0  0.54103044953E+03  0.14023853077E+03  0.29461346334E+03  0.63180525925E+03  0.25500000920E-02 0.  1.
       -2    1    3    3    0  502 -0.54103044953E+03 -0.14023853077E+03  0.92173209781E+03  0.10779475186E+04  0.25500000920E-02 0. -1.
</event>
<event>
 5   0  0.9208078E-04  0.1225879E+04  0.7818609E-02  0.9090502E-01
        1   -1    0    0  501    0  0.00000000000E+00  0.00000000000E+00  0.91417403670E+03  0.91417403671E+03  0.50400001928E-02 0. -1.
       -1   -1    0    0    0  501  0.00000000000E+00  0.00000000000E+00 -0.41096632247E+03  0.41096632250E+03  0.50400001928E-02 0.  1.
    10030    2    1    2    0    0  0.00000000000E+00  0.00000000000E+00  0.50320771423E+03  0.13251403592E+04  0.12258788553E+04 0.  0.
        3    1    3    3  502    0 -0.26295785202E+03  0.53124869532E+03  0.42018943893E+03  0.72658873031E+03  0.10100000352E+00 0.  1.
       -3    1    3    3    0  502  0.26295785202E+03 -0.53124869532E+03  0.83018275302E+02  0.59855162890E+03  0.10100000352E+00 0. -1.
</event>
<event>
 5   0  0.1567019E-03  0.1199481E+04  0.7818609E-02  0.9113311E-01
        2   -1    0    0  501    0  0.00000000000E+00  0.00000000000E+00  0.12424881480E+04  0.12424881480E+04  0.25500000920E-02 0. -1.
       -2   -1    0    0    0  501  0.00000000000E+00  0.00000000000E+00 -0.28949074149E+03  0.28949074150E+03  0.25500000920E-02 0.  1.
    10030    2    1    2    0    0  0.00000000000E+00  0.00000000000E+00  0.95299740651E+03  0.15319788895E+04  0.11994812466E+04 0.  0.
        5    1    3    3  502    0  0.39578563182E+02 -0.31854704869E+03 -0.17051186172E+03  0.36350387877E+03  0.46999998093E+01 0.  1.
       -5    1    3    3    0  502 -0.39578563182E+02  0.31854704869E+03  0.11235092682E+04  0.11684750107E+04  0.46999998093E+01 0. -1.
</event>
<event>
 5   0  0.8908478E-04  0.1197676E+04  0.7818609E-02  0.9114893E-01
       -1   -1    0    0    0  501  0.00000000000E+00  0.00000000000E+00  0.29000046472E+03  0.29000046477E+03  0.50400001928E-02 0. -1.
        1   -1    0    0  501    0  0.00000000000E+00  0.00000000000E+00 -0.12365732347E+04  0.12365732347E+04  0.50400001928E-02 0.  1.
    10030    2    1    2    0    0  0.00000000000E+00  0.00000000000E+00 -0.94657276995E+03  0.15265736995E+04  0.11976757704E+04 0.  0.
        4    1    3    3  502    0 -0.15625713217E+03 -0.41695657035E+03  0.37094271937E+02  0.44681838684E+03  0.12699999809E+01 0. -1.
       -4    1    3    3    0  502  0.15625713217E+03  0.41695657035E+03 -0.98366704189E+03  0.10797553126E+04  0.12699999809E+01 0.  1.
</event>
<event>
 5   0  0.1597352E-03  0.1195545E+04  0.7818609E-02  0.9116765E-01
        2   -1    0    0  501    0  0.00000000000E+00  0.00000000000E+00  0.26039430691E+03  0.26039430693E+03  0.25500000920E-02 0. -1.
       -2   -1    0    0    0  501  0.00000000000E+00  0.00000000000E+00 -0.13722719170E+04  0.13722719170E+04  0.25500000920E-02 0.  1.
    10030    2    1    2    0    0  0.00000000000E+00  0.00000000000E+00 -0.11118776101E+04  0.16326662240E+04  0.11955447206E+04 0.  0.
        1    1    3    3  502    0 -0.20218517439E+02  0.13845266670E+03  0.23771617599E+03  0.27583855734E+03  0.50400001928E-02 0. -1.
       -1    1    3    3    0  502  0.20218517439E+02 -0.13845266670E+03 -0.13495937861E+04  0.13568276666E+04  0.50400001928E-02 0.  1.
</event>
<event>
 5   0  0.6137750E-04  0.1202323E+04  0.7818609E-02  0.9110826E-01
        3   -1    0    0  501    0  0.00000000000E+00  0.00000000000E+00  0.86636653729E+03  0.86636654317E+03  0.10100000352E+00 0. -1.
       -3   -1    0    0    0  501  0.00000000000E+00  0.00000000000E+00 -0.41713853049E+03  0.41713854272E+03  0.10100000352E+00 0.  1.
    10030    2    1    2    0    0  0.00000000000E+00  0.00000000000E+00  0.44922800679E+03  0.12835050859E+04  0.12023225455E+04 0.  0.
        1    1    3    3  502    0  0.51254638182E+03 -0.30365615784E+03  0.13865353368E+03  0.61166629639E+03  0.50400001928E-02 0. -1.
       -1    1    3    3    0  502 -0.51254638182E+03  0.30365615784E+03  0.31057447311E+03  0.67183878951E+03  0.50400001928E-02 0.  1.
</event>
<event>
 5   0  0.1537557E-03  0.1293316E+04  0.7818609E-02  0.9034882E-01
       -2   -1    0    0    0  501  0.00000000000E+00  0.00000000000E+00  0.26194158757E+03  0.26194158758E+03  0.25500000920E-02 0. -1.
        2   -1    0    0  501    0  0.00000000000E+00  0.00000000000E+00 -0.15964121236E+04  0.15964121236E+04  0.25500000920E-02 0.  1.
    10030    2    1    2    0    0  0.00000000000E+00  0.00000000000E+00 -0.13344705361E+04  0.18583537112E+04  0.12933162430E+04 0.  0.
        2    1    3    3  502    0  0.42859396252E+02 -0.60276741751E+02 -0.15903146420E+04  0.15920335656E+04  0.25500000920E-02 0.  1.
       -2    1    3    3    0  502 -0.42859396252E+02  0.60276741751E+02  0.25584410591E+03  0.26632014564E+03  0.25500000920E-02 0. -1.
</event>
<event>
 5   0  0.9170776E-04  0.1205840E+04  0.7818609E-02  0.9107760E-01
        1   -1    0    0  501    0  0.00000000000E+00  0.00000000000E+00  0.87602012556E+03  0.87602012558E+03  0.50400001928E-02 0.  1.
       -1   -1    0    0    0  501  0.00000000000E+00  0.00000000000E+00 -0.41495924689E+03  0.41495924692E+03  0.50400001928E-02 0. -1.
    10030    2    1    2    0    0  0.00000000000E+00  0.00000000000E+00  0.46106087868E+03  0.12909793725E+04  0.12058402076E+04 0.  0.
        5    1    3    3  502    0 -0.21583325460E+03  0.43789951871E+03 -0.14821374620E+03  0.51022483950E+03  0.46999998093E+01 0. -1.
       -5    1    3    3    0  502  0.21583325460E+03 -0.43789951871E+03  0.60927462488E+03  0.78075453300E+03  0.46999998093E+01 0.  1.
</event>
<event>
 5   0  0.1551501E-03  0.1199749E+04  0.7818609E-02  0.9113077E-01
       -2   -1    0    0    0  501  0.00000000000E+00  0.00000000000E+00  0.21703920042E+03  0.21703920043E+03  0.25500000920E-02 0.  1.
        2   -1    0    0  501    0  0.00000000000E+00  0.00000000000E+00 -0.16579917203E+04  0.16579917203E+04  0.25500000920E-02 0. -1.
    10030    2    1    2    0    0  0.00000000000E+00  0.00000000000E+00 -0.14409525199E+04  0.18750309208E+04  0.11997486358E+04 0.  0.
        4    1    3    3  502    0  0.17841212408E+03  0.40587470012E+03 -0.13519973979E+04  0.14228365103E+04  0.12699999809E+01 0. -1.
       -4    1    3    3    0  502 -0.17841212408E+03 -0.40587470012E+03 -0.88955122016E+02  0.45219441046E+03  0.12699999809E+01 0.  1.
</event>
<event>
 5   0  0.1567019E-03  0.1194928E+04  0.7818609E-02  0.9117307E-01
       -2   -1    0    0    0  501  0.00000000000E+00  0.00000000000E+00  0.48233991207E+03  0.48233991208E+03  0.25500000920E-02 0. -1.
        2   -1    0    0  501    0  0.00000000000E+00  0.00000000000E+00 -0.74006602311E+03  0.74006602311E+03  0.25500000920E-02 0.  1.
    10030    2    1    2    0    0  0.00000000000E+00  0.00000000000E+00 -0.25772611103E+03  0.12224059352E+04  0.11949282498E+04 0.  0.
        5    1    3    3  502    0 -0.20036183167E+03 -0.44956509755E+03 -0.47530618123E+03  0.68424534813E+03  0.46999998093E+01 0.  1.
       -5    1    3    3    0  502  0.20036183167E+03  0.44956509755E+03  0.21758007019E+03  0.53816058707E+03  0.46999998093E+01 0. -1.
</event>
<event>
 5   0  0.8908478E-04  0.1229114E+04  0.7818609E-02  0.9087748E-01
       -1   -1    0    0    0  501  0.00000000000E+00  0.00000000000E+00  0.99823941893E+03  0.99823941894E+03  0.50400001928E-02 0. -1.
        1   -1    0    0  501    0  0.00000000000E+00  0.00000000000E+00 -0.37834629272E+03  0.37834629275E+03  0.50400001928E-02 0.  1.
    10030    2    1    2    0    0  0.00000000000E+00  0.00000000000E+00  0.61989312621E+03  0.13765857117E+04  0.12291138002E+04 0.  0.
        4    1    3    3  502    0  0.59727940677E+03 -0.71674419108E+02  0.45072017945E+03  0.75168491083E+03  0.12699999809E+01 0.  1.
       -4    1    3    3    0  502 -0.59727940677E+03  0.71674419108E+02  0.16917294676E+03  0.62490080087E+03  0.12699999809E+01 0. -1.
</event>
<event>
 5   0  0.1597352E-03  0.1195167E+04  0.7818609E-02  0.9117097E-01
        2   -1    0    0  501    0  0.00000000000E+00  0.00000000000E+00  0.44214279529E+03  0.44214279530E+03  0.25500000920E-02 0. -1.
       -2   -1    0    0    0  501  0.00000000000E+00  0.00000000000E+00 -0.80767146445E+03  0.80767146445E+03  0.25500000920E-02 0.  1.
    10030    2    1    2    0    0  0.00000000000E+00  0.00000000000E+00 -0.36552866915E+03  0.12498142598E+04  0.11951671330E+04 0.  0.
        1    1    3    3  502    0 -0.51909731493E+03  0.15339196853E+03 -0.44755133455E+03  0.70234842882E+03  0.50400001928E-02 0.  1.
       -1    1    3    3    0  502  0.51909731493E+03 -0.15339196853E+03  0.82022665393E+02  0.54746583094E+03  0.50400001928E-02 0. -1.
</event>
<event>
 5   0  0.9170776E-04  0.1190751E+04  0.7818609E-02  0.9120991E-01
       -1   -1    0    0    0  501  0.00000000000E+00  0.00000000000E+00  0.69317463484E+03  0.69317463486E+03  0.50400001928E-02 0. -1.
        1   -1    0    0  501    0  0.00000000000E+00  0.00000000000E+00 -0.51137450389E+03  0.51137450392E+03  0.50400001928E-02 0.  1.
    10030    2    1    2    0    0  0.00000000000E+00  0.00000000000E+00  0.18180013094E+03  0.12045491388E+04  0.11907507464E+04 0.  0.
        5    1    3    3  502    0 -0.23327597093E+03  0.25919487545E+03  0.57903721136E+03  0.67594810763E+03  0.46999998093E+01 0. -1.
       -5    1    3    3    0  502  0.23327597093E+03 -0.25919487545E+03 -0.39723708041E+03  0.52860103114E+03  0.46999998093E+01 0.  1.
</event>
<event>
 5   0  0.9208078E-04  0.1198445E+04  0.7818609E-02  0.9114219E-01
        1   -1    0    0  501    0  0.00000000000E+00  0.00000000000E+00  0.18587334860E+04  0.18587334860E+04  0.50400001928E-02 0.  1.
       -1   -1    0    0    0  501  0.00000000000E+00  0.00000000000E+00 -0.19317849171E+03  0.19317849178E+03  0.50400001928E-02 0. -1.
    10030    2    1    2    0    0  0.00000000000E+00  0.00000000000E+00  0.16655549943E+04  0.20519119777E+04  0.11984445442E+04 0.  0.
        3    1    3    3  502    0  0.26077052931E+03  0.34433562124E+02 -0.89051141796E+02  0.27769957726E+03  0.10100000352E+00 0. -1.
       -3    1    3    3    0  502 -0.26077052931E+03 -0.34433562124E+02  0.17546061360E+04  0.17742124005E+04  0.10100000352E+00 0.  1.
</event>
<event>
 5   0  0.9208078E-04  0.1207881E+04  0.7818609E-02  0.9105986E-01
       -1   -1    0    0    0  501  0.00000000000E+00  0.00000000000E+00  0.57848280861E+03  0.57848280863E+03  0.50400001928E-02 0. -1.
        1   -1    0    0  501    0  0.00000000000E+00  0.00000000000E+00 -0.63051815145E+03  0.63051815147E+03  0.50400001928E-02 0.  1.
    10030    2    1    2    0    0  0.00000000000E+00  0.00000000000E+00 -0.52035342843E+02  0.12090009601E+04  0.12078806417E+04 0.  0.
        3    1    3    3  502    0  0.22155163363E+03 -0.14763829736E+03 -0.56861059290E+03  0.62785365315E+03  0.10100000352E+00 0.  1.
       -3    1    3    3    0  502 -0.22155163363E+03  0.14763829736E+03  0.51657525006E+03  0.58114730696E+03  0.10100000352E+00 0. -1.
</event>
<event>
 5   0  0.8908478E-04  0.1191323E+04  0.7818609E-02  0.9120485E-01
       -1   -1    0    0    0  501  0.00000000000E+00  0.00000000000E+00  0.17374650656E+03  0.17374650663E+03  0.50400001928E-02 0. -1.
        1   -1    0    0  501    0  0.00000000000E+00  0.00000000000E+00 -0.20421295312E+04  0.20421295312E+04  0.50400001928E-02 0.  1.
    10030    2    1    2    0    0  0.00000000000E+00  0.00000000000E+00 -0.18683830246E+04  0.22158760378E+04  0.11913234188E+04 0.  0.
        4    1    3    3  502    0 -0.38697394673E+03  0.44095948508E+03 -0.11258463942E+04  0.12695376399E+04  0.12699999809E+01 0. -1.
       -4    1    3    3    0  502  0.38697394673E+03 -0.44095948508E+03 -0.74253663043E+03  0.94633839791E+03  0.12699999809E+01 0.  1.
</event>
<event>
 5   0  0.1647550E-03  0.1197535E+04  0.7818609E-02  0.9115017E-01
       -2   -1    0    0    0  501  0.00000000000E+00  0.00000000000E+00  0.16931785764E+03  0.16931785766E+03  0.25500000920E-02 0. -1.
        2   -1    0    0  501    0  0.00000000000E+00  0.00000000000E+00 -0.21174511523E+04  0.21174511523E+04  0.25500000920E-02 0.  1.
    10030    2    1    2    0    0  0.00000000000E+00  0.00000000000E+00 -0.19481332947E+04  0.22867690100E+04  0.11975346221E+04 0.  0.
        3    1    3    3  502    0  0.47248339308E+03  0.36299979599E+03 -0.86088773804E+03  0.10469656710E+04  0.10100000352E+00 0.  1.
       -3    1    3    3    0  502 -0.47248339308E+03 -0.36299979599E+03 -0.10872455566E+04  0.12398033390E+04  0.10100000352E+00 0. -1.
</event>
<event>
 5   0  0.9170776E-04  0.1204280E+04  0.7818609E-02  0.9109119E-01
        1   -1    0    0  501    0  0.00000000000E+00  0.00000000000E+00  0.82435743598E+03  0.82435743599E+03  0.50400001928E-02 0.  1.
       -1   -1    0    0    0  501  0.00000000000E+00  0.00000000000E+00 -0.43982435241E+03  0.43982435244E+03  0.50400001928E-02 0. -1.
    10030    2    1    2    0    0  0.00000000000E+00  0.00000000000E+00  0.38453308357E+03  0.12641817884E+04  0.12042798270E+04 0.  0.
        5    1    3    3  502    0 -0.14903656670E+03  0.18710972075E+03  0.77231696406E+03  0.80852800124E+03  0.46999998093E+01 0.  1.
       -5    1    3    3    0  502  0.14903656670E+03 -0.18710972075E+03 -0.38778388049E+03  0.45565378719E+03  0.46999998093E+01 0. -1.
</event>
<event>
 5   0  0.1647550E-03  0.1199468E+04  0.7818609E-02  0.9113322E-01
        2   -1    0    0  501    0  0.00000000000E+00  0.00000000000E+00  0.29349458940E+04  0.29349458940E+04  0.25500000920E-02 0. -1.
       -2   -1    0    0    0  501  0.00000000000E+00  0.00000000000E+00 -0.12255107691E+03  0.12255107694E+03  0.25500000920E-02 0.  1.
    10030    2    1    2    0    0  0.00000000000E+00  0.00000000000E+00  0.28123948171E+04  0.30574969709E+04  0.11994678487E+04 0.  0.
        3    1    3    3  502    0  0.28384221294E+03  0.78898188370E+02  0.27377882277E+04  0.27535932372E+04  0.10100000352E+00 0. -1.
       -3    1    3    3    0  502 -0.28384221294E+03 -0.78898188370E+02  0.74606589335E+02  0.30390373369E+03  0.10100000352E+00 0.  1.
</event>
<event>
 5   0  0.1567019E-03  0.1195723E+04  0.7818609E-02  0.9116608E-01
       -2   -1    0    0    0  501  0.00000000000E+00  0.00000000000E+00  0.50099546533E+03  0.50099546534E+03  0.25500000920E-02 0.  1.
        2   -1    0    0  501    0  0.00000000000E+00  0.00000000000E+00 -0.71345650903E+03  0.71345650903E+03  0.25500000920E-02 0. -1.
    10030    2    1    2    0    0  0.00000000000E+00  0.00000000000E+00 -0.21246104370E+03  0.12144519744E+04  0.11957231715E+04 0.  0.
        5    1    3    3  502    0 -0.72932186035E+02  0.58105814178E+03 -0.22840056401E+03  0.62859889876E+03  0.46999998093E+01 0.  1.
       -5    1    3    3    0  502  0.72932186035E+02 -0.58105814178E+03  0.15939520315E+02  0.58585307560E+03  0.46999998093E+01 0. -1.
</event>
<event>
 5   0  0.9358428E-04  0.1202911E+04  0.7818609E-02  0.9110313E-01
       -1   -1    0    0    0  501  0.00000000000E+00  0.00000000000E+00  0.34820518727E+03  0.34820518730E+03  0.50400001928E-02 0. -1.
        1   -1    0    0  501    0  0.00000000000E+00  0.00000000000E+00 -0.10388944618E+04  0.10388944618E+04  0.50400001928E-02 0.  1.
    10030    2    1    2    0    0  0.00000000000E+00  0.00000000000E+00 -0.69068927453E+03  0.13870996491E+04  0.12029105381E+04 0.  0.
        2    1    3    3  502    0 -0.49330958945E+03 -0.19354356577E+03 -0.17292812240E+02  0.53020043781E+03  0.25500000920E-02 0. -1.
       -2    1    3    3    0  502  0.49330958945E+03  0.19354356577E+03 -0.67339646229E+03  0.85689921130E+03  0.25500000920E-02 0.  1.
</event>
<event>
 5   0  0.8908478E-04  0.1198749E+04  0.7818609E-02  0.9113953E-01
       -1   -1    0    0    0  501  0.00000000000E+00  0.00000000000E+00  0.37650025512E+03  0.37650025515E+03  0.50400001928E-02 0. -1.
        1   -1    0    0  501    0  0.00000000000E+00  0.00000000000E+00 -0.95418153619E+03  0.95418153620E+03  0.50400001928E-02 0.  1.
    10030    2    1    2    0    0  0.00000000000E+00  0.00000000000E+00 -0.57768128107E+03  0.13306817914E+04  0.11987486673E+04 0.  0.
        4    1    3    3  502    0  0.92268302324E+02 -0.11036198331E+03 -0.93473359414E+03  0.94573871227E+03  0.12699999809E+01 0.  1.
       -4    1    3    3    0  502 -0.92268302324E+02  0.11036198331E+03  0.35705231306E+03  0.38494307909E+03  0.12699999809E+01 0. -1.
</event>
<event>
 5   0  0.1537557E-03  0.1198515E+04  0.7818609E-02  0.9114158E-01
       -2   -1    0    0    0  501  0.00000000000E+00  0.00000000000E+00  0.41354094135E+03  0.41354094136E+03  0.25500000920E-02 0.  1.
        2   -1    0    0  501    0  0.00000000000E+00  0.00000000000E+00 -0.86837679178E+03  0.86837679178E+03  0.25500000920E-02 0. -1.
    10030    2    1    2    0    0  0.00000000000E+00  0.00000000000E+00 -0.45483585042E+03  0.12819177331E+04  0.11985146740E+04 0.  0.
        2    1    3    3  502    0  0.53227670021E+03 -0.21259223131E+03 -0.40330342629E+02  0.57457852287E+03  0.25500000920E-02 0.  1.
       -2    1    3    3    0  502 -0.53227670021E+03  0.21259223131E+03 -0.41450550779E+03  0.70733921028E+03  0.25500000920E-02 0. -1.
</event>
<event>
 5   0  0.1647550E-03  0.1212921E+04  0.7818609E-02  0.9101621E-01
       -2   -1    0    0    0  501  0.00000000000E+00  0.00000000000E+00  0.20493431240E+03  0.20493431242E+03  0.25500000920E-02 0.  1.
        2   -1    0    0  501    0  0.00000000000E+00  0.00000000000E+00 -0.17946945264E+04  0.17946945264E+04  0.25500000920E-02 0. -1.
    10030    2    1    2    0    0  0.00000000000E+00  0.00000000000E+00 -0.15897602140E+04  0.19996288388E+04  0.12129212485E+04 0.  0.
        3    1    3    3  502    0  0.21342333002E+01 -0.58733618480E+03 -0.54580350804E+03  0.80179163659E+03  0.10100000352E+00 0. -1.
       -3    1    3    3    0  502 -0.21342333002E+01  0.58733618480E+03 -0.10439567060E+04  0.11978372023E+04  0.10100000352E+00 0.  1.
</event>
<event>
 5   0  0.9169078E-04  0.1213805E+04  0.7818609E-02  0.9100858E-01
        1   -1    0    0  501    0  0.00000000000E+00  0.00000000000E+00  0.12670292501E+04  0.12670292501E+04  0.50400001928E-02 0.  1.
       -1   -1    0    0    0  501  0.00000000000E+00  0.00000000000E+00 -0.29070422152E+03  0.29070422156E+03  0.50400001928E-02 0. -1.
    10030    2    1    2    0    0  0.00000000000E+00  0.00000000000E+00  0.97632502859E+03  0.15577334717E+04  0.12138051769E+04 0.  0.
        1    1    3    3  502    0  0.39259461273E+03 -0.40371329213E+03  0.77859563763E+03  0.96089859983E+03  0.50400001928E-02 0.  1.
       -1    1    3    3    0  502 -0.39259461273E+03  0.40371329213E+03  0.19772939095E+03  0.59683487185E+03  0.50400001928E-02 0. -1.
</event>
<event>
 5   0  0.1567019E-03  0.1197494E+04  0.7818609E-02  0.9115053E-01
        2   -1    0    0  501    0  0.00000000000E+00  0.00000000000E+00  0.17047712419E+04  0.17047712419E+04  0.25500000920E-02 0.  1.
       -2   -1    0    0    0  501  0.00000000000E+00  0.00000000000E+00 -0.21029083364E+03  0.21029083365E+03  0.25500000920E-02 0. -1.
    10030    2    1    2    0    0  0.00000000000E+00  0.00000000000E+00  0.14944804082E+04  0.19150620755E+04  0.11974936587E+04 0.  0.
        5    1    3    3  502    0 -0.23453155480E+03 -0.28126307863E+03  0.15047425820E+04  0.15486724307E+04  0.46999998093E+01 0.  1.
       -5    1    3    3    0  502  0.23453155480E+03  0.28126307863E+03 -0.10262173780E+02  0.36638964479E+03  0.46999998093E+01 0. -1.
</event>
<event>
 5   0  0.8908478E-04  0.1202385E+04  0.7818609E-02  0.9110772E-01
       -1   -1    0    0    0  501  0.00000000000E+00  0.00000000000E+00  0.48668722680E+03  0.48668722683E+03  0.50400001928E-02 0.  1.
        1   -1    0    0  501    0  0.00000000000E+00  0.00000000000E+00 -0.74263794566E+03  0.74263794568E+03  0.50400001928E-02 0. -1.
    10030    2    1    2    0    0  0.00000000000E+00  0.00000000000E+00 -0.25595071886E+03  0.12293251725E+04  0.12023849672E+04 0.  0.
        4    1    3    3  502    0 -0.56780336202E+03  0.16737034618E+03 -0.23529045066E+03  0.63700604375E+03  0.12699999809E+01 0. -1.
       -4    1    3    3    0  502  0.56780336202E+03 -0.16737034618E+03 -0.20660268198E+02  0.59231912875E+03  0.12699999809E+01 0.  1.
</event>
<event>
 5   0  0.9170776E-04  0.1199512E+04  0.7818609E-02  0.9113284E-01
        1   -1    0    0  501    0  0.00000000000E+00  0.00000000000E+00  0.34036162464E+03  0.34036162468E+03  0.50400001928E-02 0. -1.
       -1   -1    0    0    0  501  0.00000000000E+00  0.00000000000E+00 -0.10568386567E+04  0.10568386567E+04  0.50400001928E-02 0.  1.
    10030    2    1    2    0    0  0.00000000000E+00  0.00000000000E+00 -0.71647703202E+03  0.13972002814E+04  0.11995121045E+04 0.  0.
        5    1    3    3  502    0 -0.25627256067E+03 -0.25925258516E+02  0.27262848864E+03  0.37509482428E+03  0.46999998093E+01 0. -1.
       -5    1    3    3    0  502  0.25627256067E+03  0.25925258516E+02 -0.98910552066E+03  0.10221054571E+04  0.46999998093E+01 0.  1.
</event>
<event>
 5   0  0.1537557E-03  0.1186473E+04  0.7818609E-02  0.9124780E-01
        2   -1    0    0  501    0  0.00000000000E+00  0.00000000000E+00  0.23237285787E+04  0.23237285787E+04  0.25500000920E-02 0. -1.
       -2   -1    0    0    0  501  0.00000000000E+00  0.00000000000E+00 -0.15145024410E+03  0.15145024412E+03  0.25500000920E-02 0.  1.
    10030    2    1    2    0    0  0.00000000000E+00  0.00000000000E+00  0.21722783346E+04  0.24751788228E+04  0.11864725205E+04 0.  0.
        2    1    3    3  502    0  0.14463006115E+03 -0.54986293578E+03  0.14393250512E+04  0.15475541043E+04  0.25500000920E-02 0. -1.
       -2    1    3    3    0  502 -0.14463006115E+03  0.54986293578E+03  0.73295328334E+03  0.92762471846E+03  0.25500000920E-02 0.  1.
</event>
<event>
 5   0  0.9169078E-04  0.1196354E+04  0.7818609E-02  0.9116054E-01
        1   -1    0    0  501    0  0.00000000000E+00  0.00000000000E+00  0.10279765587E+04  0.10279765587E+04  0.50400001928E-02 0. -1.
       -1   -1    0    0    0  501  0.00000000000E+00  0.00000000000E+00 -0.34807791352E+03  0.34807791355E+03  0.50400001928E-02 0.  1.
    10030    2    1    2    0    0  0.00000000000E+00  0.00000000000E+00  0.67989864517E+03  0.13760544723E+04  0.11963543551E+04 0.  0.
        1    1    3    3  502    0  0.26457823526E+03 -0.50467432382E+03  0.13063033332E+03  0.58460422484E+03  0.50400001928E-02 0. -1.
       -1    1    3    3    0  502 -0.26457823526E+03  0.50467432382E+03  0.54926831185E+03  0.79145024741E+03  0.50400001928E-02 0.  1.
</event>
<event>
 5   0  0.9358428E-04  0.1197136E+04  0.7818609E-02  0.9115367E-01
        1   -1    0    0  501    0  0.00000000000E+00  0.00000000000E+00  0.85765331134E+03  0.85765331135E+03  0.50400001928E-02 0.  1.
       -1   -1    0    0    0  501  0.00000000000E+00  0.00000000000E+00 -0.41774876061E+03  0.41774876064E+03  0.50400001928E-02 0. -1.
    10030    2    1    2    0    0  0.00000000000E+00  0.00000000000E+00  0.43990455072E+03  0.12754020720E+04  0.11971359286E+04 0.  0.
        2    1    3    3  502    0  0.17931790799E+03 -0.20185529856E+03  0.78909056541E+03  0.83400503242E+03  0.25500000920E-02 0.  1.
       -2    1    3    3    0  502 -0.17931790799E+03  0.20185529856E+03 -0.34918601468E+03  0.44139703957E+03  0.25500000920E-02 0. -1.
</event>
<event>
 5   0  0.1567019E-03  0.1195009E+04  0.7818609E-02  0.9117236E-01
        2   -1    0    0  501    0  0.00000000000E+00  0.00000000000E+00  0.39438177893E+03  0.39438177894E+03  0.25500000920E-02 0. -1.
       -2   -1    0    0    0  501  0.00000000000E+00  0.00000000000E+00 -0.90524386821E+03  0.90524386821E+03  0.25500000920E-02 0.  1.
    10030    2    1    2    0    0  0.00000000000E+00  0.00000000000E+00 -0.51086208927E+03  0.12996256472E+04  0.11950090997E+04 0.  0.
        5    1    3    3  502    0 -0.12212708357E+03  0.51997186553E+03  0.35786973985E+02  0.53533967067E+03  0.46999998093E+01 0. -1.
       -5    1    3    3    0  502  0.12212708357E+03 -0.51997186553E+03 -0.54664906326E+03  0.76428597648E+03  0.46999998093E+01 0.  1.
</event>
<event>
 5   0  0.1551501E-03  0.1196989E+04  0.7818609E-02  0.9115496E-01
       -2   -1    0    0    0  501  0.00000000000E+00  0.00000000000E+00  0.34611268032E+03  0.34611268033E+03  0.25500000920E-02 0.  1.
        2   -1    0    0  501    0  0.00000000000E+00  0.00000000000E+00 -0.10349112424E+04  0.10349112424E+04  0.25500000920E-02 0. -1.
    10030    2    1    2    0    0  0.00000000000E+00  0.00000000000E+00 -0.68879856212E+03  0.13810239228E+04  0.11969893968E+04 0.  0.
        4    1    3    3  502    0  0.77132753463E+02  0.35990607633E+03  0.20008223613E+03  0.41894672638E+03  0.12699999809E+01 0.  1.
       -4    1    3    3    0  502 -0.77132753463E+02 -0.35990607633E+03 -0.88888079825E+03  0.96207719640E+03  0.12699999809E+01 0. -1.
</event>
<event>
 5   0  0.9358428E-04  0.1202273E+04  0.7818609E-02  0.9110869E-01
       -1   -1    0    0    0  501  0.00000000000E+00  0.00000000000E+00  0.37021124795E+03  0.37021124798E+03  0.50400001928E-02 0.  1.
        1   -1    0    0  501    0  0.00000000000E+00  0.00000000000E+00 -0.97610483469E+03  0.97610483470E+03  0.50400001928E-02 0. -1.
    10030    2    1    2    0    0  0.00000000000E+00  0.00000000000E+00 -0.60589358674E+03  0.13463160827E+04  0.12022728293E+04 0.  0.
        2    1    3    3  502    0  0.17110968366E+03 -0.43006462092E+03  0.12658560599E+03  0.47985207893E+03  0.25500000920E-02 0.  1.
       -2    1    3    3    0  502 -0.17110968366E+03  0.43006462092E+03 -0.73247919273E+03  0.86646400375E+03  0.25500000920E-02 0. -1.
</event>
<event>
 5   0  0.9208078E-04  0.1192418E+04  0.7818609E-02  0.9119519E-01
       -1   -1    0    0    0  501  0.00000000000E+00  0.00000000000E+00  0.38339226215E+03  0.38339226218E+03  0.50400001928E-02 0.  1.
        1   -1    0    0  501    0  0.00000000000E+00  0.00000000000E+00 -0.92715828101E+03  0.92715828103E+03  0.50400001928E-02 0. -1.
    10030    2    1    2    0    0  0.00000000000E+00  0.00000000000E+00 -0.54376601887E+03  0.13105505432E+04  0.11924182333E+04 0.  0.
        3    1    3    3  502    0 -0.16393300961E+02  0.10117492327E+03 -0.91740294483E+03  0.92311065360E+03  0.10100000352E+00 0. -1.
       -3    1    3    3    0  502  0.16393300961E+02 -0.10117492327E+03  0.37363692596E+03  0.38743988961E+03  0.10100000352E+00 0.  1.
</event>
<event>
 5   0  0.9358428E-04  0.1196922E+04  0.7818609E-02  0.9115555E-01
        1   -1    0    0  501    0  0.00000000000E+00  0.00000000000E+00  0.84364907976E+03  0.84364907977E+03  0.50400001928E-02 0.  1.
       -1   -1    0    0    0  501  0.00000000000E+00  0.00000000000E+00 -0.42453161647E+03  0.42453161650E+03  0.50400001928E-02 0. -1.
    10030    2    1    2    0    0  0.00000000000E+00  0.00000000000E+00  0.41911746329E+03  0.12681806963E+04  0.11969222324E+04 0.  0.
        2    1    3    3  502    0  0.47916844244E+02 -0.43513996744E+03 -0.22279492527E+03  0.49120300688E+03  0.25500000920E-02 0. -1.
       -2    1    3    3    0  502 -0.47916844244E+02  0.43513996744E+03  0.64191238856E+03  0.77697768940E+03  0.25500000920E-02 0.  1.
</event>
<event>
 5   0  0.1647550E-03  0.1208465E+04  0.7818609E-02  0.9105479E-01
       -2   -1    0    0    0  501  0.00000000000E+00  0.00000000000E+00  0.43864151264E+03  0.43864151264E+03  0.25500000920E-02 0.  1.
        2   -1    0    0  501    0  0.00000000000E+00  0.00000000000E+00 -0.83233526028E+03  0.83233526029E+03  0.25500000920E-02 0. -1.
    10030    2    1    2    0    0  0.00000000000E+00  0.00000000000E+00 -0.39369374765E+03  0.12709767729E+04  0.12084648073E+04 0.  0.
        3    1    3    3  502    0 -0.13206530534E+03  0.54407927446E+03 -0.43583068752E+03  0.70951525717E+03  0.10100000352E+00 0.  1.
       -3    1    3    3    0  502  0.13206530534E+03 -0.54407927446E+03  0.42136939872E+02  0.56146151576E+03  0.10100000352E+00 0. -1.
</event>
<event>
 5   0  0.9170776E-04  0.1201765E+04  0.7818609E-02  0.9111313E-01
       -1   -1    0    0    0  501  0.00000000000E+00  0.00000000000E+00  0.11190314794E+04  0.11190314794E+04  0.50400001928E-02 0. -1.
        1   -1    0    0  501    0  0.00000000000E+00  0.00000000000E+00 -0.32265399276E+03  0.32265399280E+03  0.50400001928E-02 0.  1.
    10030    2    1    2    0    0  0.00000000000E+00  0.00000000000E+00  0.79637748664E+03  0.14416854722E+04  0.12017653263E+04 0.  0.
        5    1    3    3  502    0 -0.59825315620E+02 -0.17029752387E+03 -0.28933941588E+03  0.34105674397E+03  0.46999998093E+01 0.  1.
       -5    1    3    3    0  502  0.59825315620E+02  0.17029752387E+03  0.10857169025E+04  0.11006287283E+04  0.46999998093E+01 0. -1.
</event>
<event>
 5   0  0.8908478E-04  0.1200408E+04  0.7818609E-02  0.9112500E-01
        1   -1    0    0  501    0  0.00000000000E+00  0.00000000000E+00  0.11730876765E+04  0.11730876765E+04  0.50400001928E-02 0.  1.
       -1   -1    0    0    0  501  0.00000000000E+00  0.00000000000E+00 -0.30709112315E+03  0.30709112319E+03  0.50400001928E-02 0. -1.
    10030    2    1    2    0    0  0.00000000000E+00  0.00000000000E+00  0.86599655336E+03  0.14801787997E+04  0.12004079509E+04 0.  0.
        4    1    3    3  502    0 -0.25700485354E+03 -0.16141428651E+03 -0.20550597975E+03  0.36652474302E+03  0.12699999809E+01 0. -1.
       -4    1    3    3    0  502  0.25700485354E+03  0.16141428651E+03  0.10715025331E+04  0.11136540567E+04  0.12699999809E+01 0.  1.
</event>
<event>
 5   0  0.9169078E-04  0.1113621E+04  0.7818609E-02  0.9192017E-01
       -1   -1    0    0    0  501  0.00000000000E+00  0.00000000000E+00  0.12839356326E+04  0.12839356326E+04  0.50400001928E-02 0. -1.
        1   -1    0    0  501    0  0.00000000000E+00  0.00000000000E+00 -0.24147475147E+03  0.24147475152E+03  0.50400001928E-02 0.  1.
    10030    2    1    2    0    0  0.00000000000E+00  0.00000000000E+00  0.10424608811E+04  0.15254103841E+04  0.11136211884E+04 0.  0.
        1    1    3    3  502    0  0.12805208828E+03 -0.45229738547E+03  0.11243173111E+03  0.48333338019E+03  0.50400001928E-02 0.  1.
       -1    1    3    3    0  502 -0.12805208828E+03  0.45229738547E+03  0.93002914999E+03  0.10420770039E+04  0.50400001928E-02 0. -1.
</event>
<event>
 5   0  0.1597352E-03  0.1194868E+04  0.7818609E-02  0.9117361E-01
        2   -1    0    0  501    0  0.00000000000E+00  0.00000000000E+00  0.38181114847E+03  0.38181114848E+03  0.25500000920E-02 0. -1.
       -2   -1    0    0    0  501  0.00000000000E+00  0.00000000000E+00 -0.93482643181E+03  0.93482643182E+03  0.25500000920E-02 0.  1.
    10030    2    1    2    0    0  0.00000000000E+00  0.00000000000E+00 -0.55301528334E+03  0.13166375803E+04  0.11948676137E+04 0.  0.
        1    1    3    3  502    0 -0.22637872798E+02  0.22143948189E+03  0.33441148237E+03  0.40171999825E+03  0.50400001928E-02 0. -1.
       -1    1    3    3    0  502  0.22637872798E+02 -0.22143948189E+03 -0.88742676571E+03  0.91491758205E+03  0.50400001928E-02 0.  1.
</event>
<event>
 5   0  0.9169078E-04  0.1083390E+04  0.7818609E-02  0.9221534E-01
        1   -1    0    0  501    0  0.00000000000E+00  0.00000000000E+00  0.48023243697E+03  0.48023243700E+03  0.50400001928E-02 0.  1.
       -1   -1    0    0    0  501  0.00000000000E+00  0.00000000000E+00 -0.61102396705E+03  0.61102396707E+03  0.50400001928E-02 0. -1.
    10030    2    1    2    0    0  0.00000000000E+00  0.00000000000E+00 -0.13079153007E+03  0.10912564041E+04  0.10833901029E+04 0.  0.
        1    1    3    3  502    0 -0.21863662466E+03 -0.11895080146E+03 -0.55001517025E+03  0.60371181398E+03  0.50400001928E-02 0. -1.
       -1    1    3    3    0  502  0.21863662466E+03  0.11895080146E+03  0.41922364018E+03  0.48754459008E+03  0.50400001928E-02 0.  1.
</event>
<event>
 5   0  0.1647550E-03  0.1211919E+04  0.7818609E-02  0.9102488E-01
        2   -1    0    0  501    0  0.00000000000E+00  0.00000000000E+00  0.76012024124E+03  0.76012024125E+03  0.25500000920E-02 0.  1.
       -2   -1    0    0    0  501  0.00000000000E+00  0.00000000000E+00 -0.48306411157E+03  0.48306411158E+03  0.25500000920E-02 0. -1.
    10030    2    1    2    0    0  0.00000000000E+00  0.00000000000E+00  0.27705612967E+03  0.12431843528E+04  0.12119188241E+04 0.  0.
        3    1    3    3  502    0 -0.55679420187E+03 -0.46135131193E+02  0.37918343443E+03  0.67522464463E+03  0.10100000352E+00 0. -1.
       -3    1    3    3    0  502  0.55679420187E+03  0.46135131193E+02 -0.10212730476E+03  0.56795970820E+03  0.10100000352E+00 0.  1.
</event>
<event>
 5   0  0.1647550E-03  0.1202128E+04  0.7818609E-02  0.9110996E-01
        2   -1    0    0  501    0  0.00000000000E+00  0.00000000000E+00  0.14599350792E+04  0.14599350792E+04  0.25500000920E-02 0.  1.
       -2   -1    0    0    0  501  0.00000000000E+00  0.00000000000E+00 -0.24746174353E+03  0.24746174354E+03  0.25500000920E-02 0. -1.
    10030    2    1    2    0    0  0.00000000000E+00  0.00000000000E+00  0.12124733357E+04  0.17073968228E+04  0.12021282463E+04 0.  0.
        3    1    3    3  502    0 -0.20877440688E+03  0.56034168178E+03  0.51974310563E+03  0.79227675679E+03  0.10100000352E+00 0. -1.
       -3    1    3    3    0  502  0.20877440688E+03 -0.56034168178E+03  0.69273023007E+03  0.91512006598E+03  0.10100000352E+00 0.  1.
</event>
<event>
 5   0  0.1551501E-03  0.1197831E+04  0.7818609E-02  0.9114757E-01
       -2   -1    0    0    0  501  0.00000000000E+00  0.00000000000E+00  0.28561281238E+03  0.28561281239E+03  0.25500000920E-02 0. -1.
        2   -1    0    0  501    0  0.00000000000E+00  0.00000000000E+00 -0.12558949562E+04  0.12558949562E+04  0.25500000920E-02 0.  1.
    10030    2    1    2    0    0  0.00000000000E+00  0.00000000000E+00 -0.97028214381E+03  0.15415077686E+04  0.11978308570E+04 0.  0.
        4    1    3    3  502    0  0.53537611561E+03 -0.23278103653E+03 -0.31304290059E+03  0.66242891441E+03  0.12699999809E+01 0. -1.
       -4    1    3    3    0  502 -0.53537611561E+03  0.23278103653E+03 -0.65723924322E+03  0.87907885417E+03  0.12699999809E+01 0.  1.
</event>
<event>
 5   0  0.9208078E-04  0.1194520E+04  0.7818609E-02  0.9117667E-01
       -1   -1    0    0    0  501  0.00000000000E+00  0.00000000000E+00  0.59359123739E+03  0.59359123741E+03  0.50400001928E-02 0.  1.
        1   -1    0    0  501    0  0.00000000000E+00  0.00000000000E+00 -0.60095141945E+03  0.60095141947E+03  0.50400001928E-02 0. -1.
    10030    2    1    2    0    0  0.00000000000E+00  0.00000000000E+00 -0.73601820603E+01  0.11945426569E+04  0.11945199818E+04 0.  0.
        3    1    3    3  502    0  0.36738552265E+03  0.24391693903E+03 -0.40649276597E+03  0.59975326126E+03  0.10100000352E+00 0. -1.
       -3    1    3    3    0  502 -0.36738552265E+03 -0.24391693903E+03  0.39913258391E+03  0.59478939562E+03  0.10100000352E+00 0.  1.
</event>
<event>
 5   0  0.1551501E-03  0.1197668E+04  0.7818609E-02  0.9114900E-01
        2   -1    0    0  501    0  0.00000000000E+00  0.00000000000E+00  0.68931838280E+03  0.68931838280E+03  0.25500000920E-02 0. -1.
       -2   -1    0    0    0  501  0.00000000000E+00  0.00000000000E+00 -0.52022726474E+03  0.52022726475E+03  0.25500000920E-02 0.  1.
    10030    2    1    2    0    0  0.00000000000E+00  0.00000000000E+00  0.16909111806E+03  0.12095456475E+04  0.11976680956E+04 0.  0.
        4    1    3    3  502    0 -0.85102012643E+02 -0.17800930195E+03 -0.48645608844E+03  0.52494838129E+03  0.12699999809E+01 0.  1.
       -4    1    3    3    0  502  0.85102012643E+02  0.17800930195E+03  0.65554720649E+03  0.68459726626E+03  0.12699999809E+01 0. -1.
</event>
<event>
 5   0  0.9170776E-04  0.1205997E+04  0.7818609E-02  0.9107624E-01
       -1   -1    0    0    0  501  0.00000000000E+00  0.00000000000E+00  0.37952536561E+03  0.37952536564E+03  0.50400001928E-02 0.  1.
        1   -1    0    0  501    0  0.00000000000E+00  0.00000000000E+00 -0.95805723987E+03  0.95805723988E+03  0.50400001928E-02 0. -1.
    10030    2    1    2    0    0  0.00000000000E+00  0.00000000000E+00 -0.57853187426E+03  0.13375826055E+04  0.12059967235E+04 0.  0.
        5    1    3    3  502    0 -0.66834967954E+02 -0.59187395357E+03 -0.18520305154E+03  0.62378197325E+03  0.46999998093E+01 0.  1.
       -5    1    3    3    0  502  0.66834967954E+02  0.59187395357E+03 -0.39332882272E+03  0.71380063227E+03  0.46999998093E+01 0. -1.
</event>
<event>
 5   0  0.1597352E-03  0.1211419E+04  0.7818609E-02  0.9102920E-01
       -2   -1    0    0    0  501  0.00000000000E+00  0.00000000000E+00  0.30728615587E+03  0.30728615588E+03  0.25500000920E-02 0. -1.
        2   -1    0    0  501    0  0.00000000000E+00  0.00000000000E+00 -0.11939481094E+04  0.11939481095E+04  0.25500000920E-02 0.  1.
    10030    2    1    2    0    0  0.00000000000E+00  0.00000000000E+00 -0.88666195358E+03  0.15012342653E+04  0.12114185484E+04 0.  0.
        1    1    3    3  502    0 -0.39519570442E+03 -0.23330908070E+03 -0.93321511717E+03  0.10399534734E+04  0.50400001928E-02 0.  1.
       -1    1    3    3    0  502  0.39519570442E+03  0.23330908070E+03  0.46553163589E+02  0.46128079192E+03  0.50400001928E-02 0. -1.
</event>
<event>
 5   0  0.9358428E-04  0.1229121E+04  0.7818609E-02  0.9087742E-01
       -1   -1    0    0    0  501  0.00000000000E+00  0.00000000000E+00  0.48168896855E+03  0.48168896858E+03  0.50400001928E-02 0. -1.
        1   -1    0    0  501    0  0.00000000000E+00  0.00000000000E+00 -0.78408387066E+03  0.78408387068E+03  0.50400001928E-02 0.  1.
    10030    2    1    2    0    0  0.00000000000E+00  0.00000000000E+00 -0.30239490211E+03  0.12657728393E+04  0.12291209069E+04 0.  0.
        2    1    3    3  502    0 -0.59360184265E+03 -0.15363878347E+03 -0.19386390558E+03  0.64307949530E+03  0.25500000920E-02 0. -1.
       -2    1    3    3    0  502  0.59360184265E+03  0.15363878347E+03 -0.10853099654E+03  0.62269334395E+03  0.25500000920E-02 0.  1.
</event>
<event>
 5   0  0.1567019E-03  0.1206954E+04  0.7818609E-02  0.9106791E-01
        2   -1    0    0  501    0  0.00000000000E+00  0.00000000000E+00  0.19006175301E+04  0.19006175301E+04  0.25500000920E-02 0.  1.
       -2   -1    0    0    0  501  0.00000000000E+00  0.00000000000E+00 -0.19161386368E+03  0.19161386370E+03  0.25500000920E-02 0. -1.
    10030    2    1    2    0    0  0.00000000000E+00  0.00000000000E+00  0.17090036664E+04  0.20922313938E+04  0.12069542963E+04 0.  0.
        5    1    3    3  502    0 -0.28851958660E+03 -0.50281769115E+03  0.56395174638E+03  0.80878479501E+03  0.46999998093E+01 0. -1.
       -5    1    3    3    0  502  0.28851958660E+03  0.50281769115E+03  0.11450519200E+04  0.12834465988E+04  0.46999998093E+01 0.  1.
</event>
<event>
 5   0  0.9208078E-04  0.1200162E+04  0.7818609E-02  0.9112714E-01
       -1   -1    0    0    0  501  0.00000000000E+00  0.00000000000E+00  0.26841386732E+03  0.26841386736E+03  0.50400001928E-02 0.  1.
        1   -1    0    0  501    0  0.00000000000E+00  0.00000000000E+00 -0.13415755306E+04  0.13415755306E+04  0.50400001928E-02 0. -1.
    10030    2    1    2    0    0  0.00000000000E+00  0.00000000000E+00 -0.10731616632E+04  0.16099893979E+04  0.12001624498E+04 0.  0.
        3    1    3    3  502    0  0.11068028439E+03 -0.19428048379E+01 -0.13277602283E+04  0.13323667415E+04  0.10100000352E+00 0. -1.
       -3    1    3    3    0  502 -0.11068028439E+03  0.19428048379E+01  0.25459856504E+03  0.27762265643E+03  0.10100000352E+00 0.  1.
</event>
<event>
 5   0  0.9169078E-04  0.1198331E+04  0.7818609E-02  0.9114318E-01
        1   -1    0    0  501    0  0.00000000000E+00  0.00000000000E+00  0.51399511106E+03  0.51399511108E+03  0.50400001928E-02 0.  1.
       -1   -1    0    0    0  501  0.00000000000E+00  0.00000000000E+00 -0.69844925486E+03  0.69844925488E+03  0.50400001928E-02 0. -1.
    10030    2    1    2    0    0  0.00000000000E+00  0.00000000000E+00 -0.18445414381E+03  0.12124443660E+04  0.11983313437E+04 0.  0.
        1    1    3    3  502    0  0.45631871773E+03 -0.32095161334E+03 -0.31334795187E+03  0.63986221112E+03  0.50400001928E-02 0. -1.
       -1    1    3    3    0  502 -0.45631871773E+03  0.32095161334E+03  0.12889380806E+03  0.57258215484E+03  0.50400001928E-02 0.  1.
</event>
<event>
 5   0  0.6137750E-04  0.1199389E+04  0.7818609E-02  0.9113392E-01
       -3   -1    0    0    0  501  0.00000000000E+00  0.00000000000E+00  0.85520223147E+03  0.85520223743E+03  0.10100000352E+00 0. -1.
        3   -1    0    0  501    0  0.00000000000E+00  0.00000000000E+00 -0.42052444266E+03  0.42052445479E+03  0.10100000352E+00 0.  1.
    10030    2    1    2    0    0  0.00000000000E+00  0.00000000000E+00  0.43467778881E+03  0.12757266922E+04  0.11993889332E+04 0.  0.
        2    1    3    3  502    0 -0.33761303334E+03 -0.10193882392E+03  0.73324547705E+03  0.81364796671E+03  0.25500000920E-02 0.  1.
       -2    1    3    3    0  502  0.33761303334E+03  0.10193882392E+03 -0.29856768824E+03  0.46207872552E+03  0.25500000920E-02 0. -1.
</event>
<event>
 5   0  0.9169078E-04  0.1208878E+04  0.7818609E-02  0.9105121E-01
       -1   -1    0    0    0  501  0.00000000000E+00  0.00000000000E+00  0.49448764165E+03  0.49448764168E+03  0.50400001928E-02 0.  1.
        1   -1    0    0  501    0  0.00000000000E+00  0.00000000000E+00 -0.73883875025E+03  0.73883875027E+03  0.50400001928E-02 0. -1.
    10030    2    1    2    0    0  0.00000000000E+00  0.00000000000E+00 -0.24435110860E+03  0.12333263919E+04  0.12088782093E+04 0.  0.
        1    1    3    3  502    0 -0.28551988378E+03  0.10085971751E+03  0.41152181550E+03  0.51092513278E+03  0.50400001928E-02 0.  1.
       -1    1    3    3    0  502  0.28551988378E+03 -0.10085971751E+03 -0.65587292410E+03  0.72240125916E+03  0.50400001928E-02 0. -1.
</event>
<event>
 5   0  0.9358428E-04  0.1192966E+04  0.7818609E-02  0.9119036E-01
        1   -1    0    0  501    0  0.00000000000E+00  0.00000000000E+00  0.57797072249E+03  0.57797072251E+03  0.50400001928E-02 0.  1.
       -1   -1    0    0    0  501  0.00000000000E+00  0.00000000000E+00 -0.61558836131E+03  0.61558836133E+03  0.50400001928E-02 0. -1.
    10030    2    1    2    0    0  0.00000000000E+00  0.00000000000E+00 -0.37617638819E+02  0.11935590838E+04  0.11929661353E+04 0.  0.
        2    1    3    3  502    0 -0.19184687056E+03  0.38843496475E+03  0.39140119619E+03  0.58385087134E+03  0.25500000920E-02 0.  1.
       -2    1    3    3    0  502  0.19184687056E+03 -0.38843496475E+03 -0.42901883501E+03  0.60970821249E+03  0.25500000920E-02 0. -1.
</event>
<event>
 5   0  0.9170776E-04  0.1202195E+04  0.7818609E-02  0.9110937E-01
        1   -1    0    0  501    0  0.00000000000E+00  0.00000000000E+00  0.59097367423E+03  0.59097367425E+03  0.50400001928E-02 0.  1.
       -1   -1    0    0    0  501  0.00000000000E+00  0.00000000000E+00 -0.61139469775E+03  0.61139469778E+03  0.50400001928E-02 0. -1.
    10030    2    1    2    0    0  0.00000000000E+00  0.00000000000E+00 -0.20421023523E+02  0.12023683720E+04  0.12021949442E+04 0.  0.
        5    1    3    3  502    0 -0.66509393595E+02  0.33843828856E+03  0.48213289354E+03  0.59282222599E+03  0.46999998093E+01 0.  1.
       -5    1    3    3    0  502  0.66509393595E+02 -0.33843828856E+03 -0.50255391706E+03  0.60954614604E+03  0.46999998093E+01 0. -1.
</event>
<event>
 5   0  0.1567019E-03  0.1198125E+04  0.7818609E-02  0.9114499E-01
        2   -1    0    0  501    0  0.00000000000E+00  0.00000000000E+00  0.24099793144E+03  0.24099793146E+03  0.25500000920E-02 0. -1.
       -2   -1    0    0    0  501  0.00000000000E+00  0.00000000000E+00 -0.14891239292E+04  0.14891239292E+04  0.25500000920E-02 0.  1.
    10030    2    1    2    0    0  0.00000000000E+00  0.00000000000E+00 -0.12481259978E+04  0.17301218607E+04  0.11981248460E+04 0.  0.
        5    1    3    3  502    0  0.33443825582E+03  0.49655332564E+03 -0.59378856544E+03  0.84322067255E+03  0.46999998093E+01 0. -1.
       -5    1    3    3    0  502 -0.33443825582E+03 -0.49655332564E+03 -0.65433743236E+03  0.88690118815E+03  0.46999998093E+01 0.  1.
</event>
<event>
 5   0  0.9170776E-04  0.1203742E+04  0.7818609E-02  0.9109588E-01
       -1   -1    0    0    0  501  0.00000000000E+00  0.00000000000E+00  0.58197297933E+03  0.58197297936E+03  0.50400001928E-02 0. -1.
        1   -1    0    0  501    0  0.00000000000E+00  0.00000000000E+00 -0.62244910126E+03  0.62244910128E+03  0.50400001928E-02 0.  1.
    10030    2    1    2    0    0  0.00000000000E+00  0.00000000000E+00 -0.40476121926E+02  0.12044220806E+04  0.12037417630E+04 0.  0.
        5    1    3    3  502    0  0.35622297687E+03  0.29033223711E+03  0.36861875594E+03  0.58914301692E+03  0.46999998093E+01 0. -1.
       -5    1    3    3    0  502 -0.35622297687E+03 -0.29033223711E+03 -0.40909487787E+03  0.61527906372E+03  0.46999998093E+01 0.  1.
</event>
<event>
 5   0  0.1597352E-03  0.1177477E+04  0.7818609E-02  0.9132802E-01
        2   -1    0    0  501    0  0.00000000000E+00  0.00000000000E+00  0.80309270604E+03  0.80309270605E+03  0.25500000920E-02 0. -1.
       -2   -1    0    0    0  501  0.00000000000E+00  0.00000000000E+00 -0.43159805448E+03  0.43159805448E+03  0.25500000920E-02 0.  1.
    10030    2    1    2    0    0  0.00000000000E+00  0.00000000000E+00  0.37149465157E+03  0.12346907605E+04  0.11774773875E+04 0.  0.
        1    1    3    3  502    0  0.68586631329E+02 -0.17851892693E+03  0.76961518404E+03  0.79301996494E+03  0.50400001928E-02 0. -1.
       -1    1    3    3    0  502 -0.68586631329E+02  0.17851892693E+03 -0.39812053247E+03  0.44167079558E+03  0.50400001928E-02 0.  1.
</event>
<event>
 5   0  0.9169078E-04  0.1203740E+04  0.7818609E-02  0.9109590E-01
       -1   -1    0    0    0  501  0.00000000000E+00  0.00000000000E+00  0.74438765023E+03  0.74438765024E+03  0.50400001928E-02 0.  1.
        1   -1    0    0  501    0  0.00000000000E+00  0.00000000000E+00 -0.48663789560E+03  0.48663789562E+03  0.50400001928E-02 0. -1.
    10030    2    1    2    0    0  0.00000000000E+00  0.00000000000E+00  0.25774975463E+03  0.12310255459E+04  0.12037395726E+04 0.  0.
        1    1    3    3  502    0  0.38813626305E+03 -0.39716370756E+03 -0.10845998378E+03  0.56582005744E+03  0.50400001928E-02 0.  1.
       -1    1    3    3    0  502 -0.38813626305E+03  0.39716370756E+03  0.36620973841E+03  0.66520548842E+03  0.50400001928E-02 0. -1.
</event>
<event>
 5   0  0.1551501E-03  0.1203481E+04  0.7818609E-02  0.9109815E-01
        2   -1    0    0  501    0  0.00000000000E+00  0.00000000000E+00  0.98228579428E+03  0.98228579428E+03  0.25500000920E-02 0.  1.
       -2   -1    0    0    0  501  0.00000000000E+00  0.00000000000E+00 -0.36862176284E+03  0.36862176285E+03  0.25500000920E-02 0. -1.
    10030    2    1    2    0    0  0.00000000000E+00  0.00000000000E+00  0.61366403144E+03  0.13509075571E+04  0.12034814849E+04 0.  0.
        4    1    3    3  502    0  0.39392338522E+03  0.41425381449E+03  0.51775580092E+03  0.77126813660E+03  0.12699999809E+01 0.  1.
       -4    1    3    3    0  502 -0.39392338522E+03 -0.41425381449E+03  0.95908230521E+02  0.57963942053E+03  0.12699999809E+01 0. -1.
</event>
<event>
 5   0  0.1647550E-03  0.1190357E+04  0.7818609E-02  0.9121339E-01
        2   -1    0    0  501    0  0.00000000000E+00  0.00000000000E+00  0.78557080294E+03  0.78557080294E+03  0.25500000920E-02 0.  1.
       -2   -1    0    0    0  501  0.00000000000E+00  0.00000000000E+00 -0.45092979909E+03  0.45092979909E+03  0.25500000920E-02 0. -1.
    10030    2    1    2    0    0  0.00000000000E+00  0.00000000000E+00  0.33464100385E+03  0.12365006020E+04  0.11903567269E+04 0.  0.
        3    1    3    3  502    0 -0.92324076565E+02  0.22010700375E+03  0.73367733807E+03  0.77152658724E+03  0.10100000352E+00 0.  1.
       -3    1    3    3    0  502  0.92324076565E+02 -0.22010700375E+03 -0.39903633422E+03  0.46497401480E+03  0.10100000352E+00 0. -1.
</event>
<event>
 5   0  0.9208078E-04  0.1189435E+04  0.7818609E-02  0.9122154E-01
        1   -1    0    0  501    0  0.00000000000E+00  0.00000000000E+00  0.14427396126E+04  0.14427396126E+04  0.50400001928E-02 0.  1.
       -1   -1    0    0    0  501  0.00000000000E+00  0.00000000000E+00 -0.24515098475E+03  0.24515098480E+03  0.50400001928E-02 0. -1.
    10030    2    1    2    0    0  0.00000000000E+00  0.00000000000E+00  0.11975886278E+04  0.16878905974E+04  0.11894352220E+04 0.  0.
        3    1    3    3  502    0 -0.25554877115E+03 -0.36494358041E+02  0.13590922267E+04  0.13833902932E+04  0.10100000352E+00 0.  1.
       -3    1    3    3    0  502  0.25554877115E+03  0.36494358041E+02 -0.16150359883E+03  0.30450030418E+03  0.10100000352E+00 0. -1.
</event>
<event>
 5   0  0.9170776E-04  0.1196632E+04  0.7818609E-02  0.9115810E-01
        1   -1    0    0  501    0  0.00000000000E+00  0.00000000000E+00  0.30136208852E+03  0.30136208857E+03  0.50400001928E-02 0.  1.
       -1   -1    0    0    0  501  0.00000000000E+00  0.00000000000E+00 -0.11878800186E+04  0.11878800186E+04  0.50400001928E-02 0. -1.
    10030    2    1    2    0    0  0.00000000000E+00  0.00000000000E+00 -0.88651793004E+03  0.14892421071E+04  0.11966319457E+04 0.  0.
        5    1    3    3  502    0 -0.58607238149E+03  0.40663974411E+02 -0.30231639876E+03  0.66072058400E+03  0.46999998093E+01 0.  1.
       -5    1    3    3    0  502  0.58607238149E+03 -0.40663974411E+02 -0.58420153127E+03  0.82852152314E+03  0.46999998093E+01 0. -1.
</event>
<event>
 5   0  0.6137750E-04  0.1189570E+04  0.7818609E-02  0.9122035E-01
       -3   -1    0    0    0  501  0.00000000000E+00  0.00000000000E+00  0.33458195735E+03  0.33458197259E+03  0.10100000352E+00 0. -1.
        3   -1    0    0  501    0  0.00000000000E+00  0.00000000000E+00 -0.10573464103E+04  0.10573464151E+04  0.10100000352E+00 0.  1.
    10030    2    1    2    0    0  0.00000000000E+00  0.00000000000E+00 -0.72276445290E+03  0.13919283877E+04  0.11895697466E+04 0.  0.
        4    1    3    3  502    0 -0.33154472633E+03 -0.25646852793E+03  0.13238431176E+03  0.43957391901E+03  0.12699999809E+01 0.  1.
       -4    1    3    3    0  502  0.33154472633E+03  0.25646852793E+03 -0.85514876466E+03  0.95235446866E+03  0.12699999809E+01 0. -1.
</event>
<event>
 5   0  0.9358428E-04  0.1195924E+04  0.7818609E-02  0.9116432E-01
       -1   -1    0    0    0  501  0.00000000000E+00  0.00000000000E+00  0.26492900885E+03  0.26492900890E+03  0.50400001928E-02 0.  1.
        1   -1    0    0  501    0  0.00000000000E+00  0.00000000000E+00 -0.13496381468E+04  0.13496381468E+04  0.50400001928E-02 0. -1.
    10030    2    1    2    0    0  0.00000000000E+00  0.00000000000E+00 -0.10847091380E+04  0.16145671557E+04  0.11959235705E+04 0.  0.
        2    1    3    3  502    0 -0.19963765742E+03  0.39520134323E+03 -0.10849354639E+04  0.11718038474E+04  0.25500000920E-02 0. -1.
       -2    1    3    3    0  502  0.19963765742E+03 -0.39520134323E+03  0.22632595950E+00  0.44276330830E+03  0.25500000920E-02 0.  1.
</event>
<event>
 5   0  0.1647550E-03  0.1192867E+04  0.7818609E-02  0.9119123E-01
        2   -1    0    0  501    0  0.00000000000E+00  0.00000000000E+00  0.11734837877E+04  0.11734837877E+04  0.25500000920E-02 0. -1.
       -2   -1    0    0    0  501  0.00000000000E+00  0.00000000000E+00 -0.30314277891E+03  0.30314277892E+03  0.25500000920E-02 0.  1.
    10030    2    1    2    0    0  0.00000000000E+00  0.00000000000E+00  0.87034100876E+03  0.14766265666E+04  0.11928673630E+04 0.  0.
        3    1    3    3  502    0 -0.17075230663E+03 -0.49396433068E+03  0.79452797253E+02  0.52864909666E+03  0.10100000352E+00 0. -1.
       -3    1    3    3    0  502  0.17075230663E+03  0.49396433068E+03  0.79088821151E+03  0.94797746994E+03  0.10100000352E+00 0.  1.
</event>
<event>
 5   0  0.1537557E-03  0.1186234E+04  0.7818609E-02  0.9124992E-01
        2   -1    0    0  501    0  0.00000000000E+00  0.00000000000E+00  0.25749156663E+03  0.25749156664E+03  0.25500000920E-02 0.  1.
       -2   -1    0    0    0  501  0.00000000000E+00  0.00000000000E+00 -0.13662111157E+04  0.13662111157E+04  0.25500000920E-02 0. -1.
    10030    2    1    2    0    0  0.00000000000E+00  0.00000000000E+00 -0.11087195491E+04  0.16237026824E+04  0.11862341093E+04 0.  0.
        2    1    3    3  502    0  0.23368185900E+03 -0.36033092473E+03 -0.11142964412E+04  0.11941951874E+04  0.25500000920E-02 0. -1.
       -2    1    3    3    0  502 -0.23368185900E+03  0.36033092473E+03  0.55768921382E+01  0.42950749501E+03  0.25500000920E-02 0.  1.
</event>
<event>
 5   0  0.1647550E-03  0.1208792E+04  0.7818609E-02  0.9105195E-01
       -2   -1    0    0    0  501  0.00000000000E+00  0.00000000000E+00  0.11777286047E+04  0.11777286047E+04  0.25500000920E-02 0. -1.
        2   -1    0    0  501    0  0.00000000000E+00  0.00000000000E+00 -0.31016873615E+03  0.31016873616E+03  0.25500000920E-02 0.  1.
    10030    2    1    2    0    0  0.00000000000E+00  0.00000000000E+00  0.86755986856E+03  0.14878973409E+04  0.12087921126E+04 0.  0.
        3    1    3    3  502    0 -0.40634958290E+03  0.36795812075E+03  0.74706997090E+03  0.92662112741E+03  0.10100000352E+00 0. -1.
       -3    1    3    3    0  502  0.40634958290E+03 -0.36795812075E+03  0.12048989766E+03  0.56127621345E+03  0.10100000352E+00 0.  1.
</event>
<event>
 5   0  0.1537557E-03  0.1199644E+04  0.7818609E-02  0.9113168E-01
        2   -1    0    0  501    0  0.00000000000E+00  0.00000000000E+00  0.77221286589E+03  0.77221286590E+03  0.25500000920E-02 0. -1.
       -2   -1    0    0    0  501  0.00000000000E+00  0.00000000000E+00 -0.46591604823E+03  0.46591604824E+03  0.25500000920E-02 0.  1.
    10030    2    1    2    0    0  0.00000000000E+00  0.00000000000E+00  0.30629681766E+03  0.12381289141E+04  0.11996438920E+04 0.  0.
        2    1    3    3  502    0  0.11404891008E+03 -0.85598267674E+02  0.75446446483E+03  0.76782214478E+03  0.25500000920E-02 0. -1.
       -2    1    3    3    0  502 -0.11404891008E+03  0.85598267674E+02 -0.44816764717E+03  0.47030676935E+03  0.25500000920E-02 0.  1.
</event>
<event>
 5   0  0.1647550E-03  0.1200738E+04  0.7818609E-02  0.9112211E-01
        2   -1    0    0  501    0  0.00000000000E+00  0.00000000000E+00  0.14046692105E+04  0.14046692105E+04  0.25500000920E-02 0. -1.
       -2   -1    0    0    0  501  0.00000000000E+00  0.00000000000E+00 -0.25660326470E+03  0.25660326472E+03  0.25500000920E-02 0.  1.
    10030    2    1    2    0    0  0.00000000000E+00  0.00000000000E+00  0.11480659458E+04  0.16612724752E+04  0.12007376154E+04 0.  0.
        3    1    3    3  502    0  0.31798246067E+03  0.50330192419E+03  0.68135369464E+03  0.90480303911E+03  0.10100000352E+00 0.  1.
       -3    1    3    3    0  502 -0.31798246067E+03 -0.50330192419E+03  0.46671225117E+03  0.75646943612E+03  0.10100000352E+00 0. -1.
</event>
<event>
 5   0  0.1567019E-03  0.1196072E+04  0.7818609E-02  0.9116301E-01
       -2   -1    0    0    0  501  0.00000000000E+00  0.00000000000E+00  0.25913554582E+03  0.25913554584E+03  0.25500000920E-02 0.  1.
        2   -1    0    0  501    0  0.00000000000E+00  0.00000000000E+00 -0.13801551962E+04  0.13801551962E+04  0.25500000920E-02 0. -1.
    10030    2    1    2    0    0  0.00000000000E+00  0.00000000000E+00 -0.11210196504E+04  0.16392907420E+04  0.11960723558E+04 0.  0.
        5    1    3    3  502    0 -0.50365933112E+03 -0.22320577752E+03 -0.24163214465E+03  0.60158268282E+03  0.46999998093E+01 0.  1.
       -5    1    3    3    0  502  0.50365933112E+03  0.22320577752E+03 -0.87938750572E+03  0.10377080592E+04  0.46999998093E+01 0. -1.
</event>
<event>
 5   0  0.1551501E-03  0.1250478E+04  0.7818609E-02  0.9069786E-01
       -2   -1    0    0    0  501  0.00000000000E+00  0.00000000000E+00  0.36084413668E+03  0.36084413668E+03  0.25500000920E-02 0.  1.
        2   -1    0    0  501    0  0.00000000000E+00  0.00000000000E+00 -0.10833589500E+04  0.10833589500E+04  0.25500000920E-02 0. -1.
    10030    2    1    2    0    0  0.00000000000E+00  0.00000000000E+00 -0.72251481331E+03  0.14442030867E+04  0.12504778687E+04 0.  0.
        4    1    3    3  502    0  0.21129563839E+03 -0.68377264099E+02  0.31375492686E+03  0.38440221654E+03  0.12699999809E+01 0.  1.
       -4    1    3    3    0  502 -0.21129563839E+03  0.68377264099E+02 -0.10362697402E+04  0.10598008701E+04  0.12699999809E+01 0. -1.
</event>
<event>
 5   0  0.1551501E-03  0.1199446E+04  0.7818609E-02  0.9113342E-01
       -2   -1    0    0    0  501  0.00000000000E+00  0.00000000000E+00  0.10420994448E+04  0.10420994448E+04  0.25500000920E-02 0. -1.
        2   -1    0    0  501    0  0.00000000000E+00  0.00000000000E+00 -0.34513760344E+03  0.34513760345E+03  0.25500000920E-02 0.  1.
    10030    2    1    2    0    0  0.00000000000E+00  0.00000000000E+00  0.69696184137E+03  0.13872370483E+04  0.11994460470E+04 0.  0.
        4    1    3    3  502    0  0.20592393991E+03 -0.29392999842E+03  0.90419384210E+03  0.97281428340E+03  0.12699999809E+01 0. -1.
       -4    1    3    3    0  502 -0.20592393991E+03  0.29392999842E+03 -0.20723200073E+03  0.41442276485E+03  0.12699999809E+01 0.  1.
</event>
<event>
 5   0  0.9169078E-04  0.1200593E+04  0.7818609E-02  0.9112337E-01
        1   -1    0    0  501    0  0.00000000000E+00  0.00000000000E+00  0.66717098764E+03  0.66717098766E+03  0.50400001928E-02 0.  1.
       -1   -1    0    0    0  501  0.00000000000E+00  0.00000000000E+00 -0.54012550626E+03  0.54012550629E+03  0.50400001928E-02 0. -1.
    10030    2    1    2    0    0  0.00000000000E+00  0.00000000000E+00  0.12704548138E+03  0.12072964939E+04  0.12005932991E+04 0.  0.
        1    1    3    3  502    0 -0.22357249456E+03 -0.51009783018E+03 -0.16171805173E+03  0.57994584658E+03  0.50400001928E-02 0. -1.
       -1    1    3    3    0  502  0.22357249456E+03  0.51009783018E+03  0.28876353311E+03  0.62735064737E+03  0.50400001928E-02 0.  1.
</event>
<event>
 5   0  0.1537557E-03  0.1201263E+04  0.7818609E-02  0.9111752E-01
        2   -1    0    0  501    0  0.00000000000E+00  0.00000000000E+00  0.70845130684E+03  0.70845130684E+03  0.25500000920E-02 0. -1.
       -2   -1    0    0    0  501  0.00000000000E+00  0.00000000000E+00 -0.50922048925E+03  0.50922048926E+03  0.25500000920E-02 0.  1.
    10030    2    1    2    0    0  0.00000000000E+00  0.00000000000E+00  0.19923081759E+03  0.12176717961E+04  0.12012625376E+04 0.  0.
        2    1    3    3  502    0 -0.50338755683E+02 -0.57645467348E+03  0.26282392590E+03  0.63553945348E+03  0.25500000920E-02 0. -1.
       -2    1    3    3    0  502  0.50338755683E+02  0.57645467348E+03 -0.63593108310E+02  0.58213234262E+03  0.25500000920E-02 0.  1.
</event>
<event>
 5   0  0.9170776E-04  0.1203082E+04  0.7818609E-02  0.9110163E-01
       -1   -1    0    0    0  501  0.00000000000E+00  0.00000000000E+00  0.41939958366E+03  0.41939958369E+03  0.50400001928E-02 0.  1.
        1   -1    0    0  501    0  0.00000000000E+00  0.00000000000E+00 -0.86278523092E+03  0.86278523094E+03  0.50400001928E-02 0. -1.
    10030    2    1    2    0    0  0.00000000000E+00  0.00000000000E+00 -0.44338564727E+03  0.12821848146E+04  0.12030823191E+04 0.  0.
        5    1    3    3  502    0 -0.11431742911E+03  0.23677488184E+03 -0.79828108747E+03  0.84047938932E+03  0.46999998093E+01 0. -1.
       -5    1    3    3    0  502  0.11431742911E+03 -0.23677488184E+03  0.35489544020E+03  0.44170542530E+03  0.46999998093E+01 0.  1.
</event>
<event>
 5   0  0.8908478E-04  0.1202539E+04  0.7818609E-02  0.9110637E-01
        1   -1    0    0  501    0  0.00000000000E+00  0.00000000000E+00  0.96932607896E+03  0.96932607897E+03  0.50400001928E-02 0.  1.
       -1   -1    0    0    0  501  0.00000000000E+00  0.00000000000E+00 -0.37296559309E+03  0.37296559313E+03  0.50400001928E-02 0. -1.
    10030    2    1    2    0    0  0.00000000000E+00  0.00000000000E+00  0.59636048587E+03  0.13422916721E+04  0.12025394396E+04 0.  0.
        4    1    3    3  502    0 -0.14806403820E+02 -0.39043773661E+02  0.96770414508E+03  0.96860547756E+03  0.12699999809E+01 0.  1.
       -4    1    3    3    0  502  0.14806403820E+02  0.39043773661E+02 -0.37134365921E+03  0.37368619454E+03  0.12699999809E+01 0. -1.
</event>
<event>
 5   0  0.9170776E-04  0.1199429E+04  0.7818609E-02  0.9113356E-01
       -1   -1    0    0    0  501  0.00000000000E+00  0.00000000000E+00  0.47256548624E+03  0.47256548627E+03  0.50400001928E-02 0.  1.
        1   -1    0    0  501    0  0.00000000000E+00  0.00000000000E+00 -0.76107490704E+03  0.76107490706E+03  0.50400001928E-02 0. -1.
    10030    2    1    2    0    0  0.00000000000E+00  0.00000000000E+00 -0.28850942080E+03  0.12336403933E+04  0.11994294202E+04 0.  0.
        5    1    3    3  502    0 -0.28770398161E+03  0.52537636744E+03 -0.17409490065E+03  0.62379887218E+03  0.46999998093E+01 0. -1.
       -5    1    3    3    0  502  0.28770398161E+03 -0.52537636744E+03 -0.11441452015E+03  0.60984152115E+03  0.46999998093E+01 0.  1.
</event>
<event>
 5   0  0.1597352E-03  0.1193816E+04  0.7818609E-02  0.9118287E-01
       -2   -1    0    0    0  501  0.00000000000E+00  0.00000000000E+00  0.57627060725E+03  0.57627060726E+03  0.25500000920E-02 0.  1.
        2   -1    0    0  501    0  0.00000000000E+00  0.00000000000E+00 -0.61828451411E+03  0.61828451411E+03  0.25500000920E-02 0. -1.
    10030    2    1    2    0    0  0.00000000000E+00  0.00000000000E+00 -0.42013906853E+02  0.11945551214E+04  0.11938160535E+04 0.  0.
        1    1    3    3  502    0  0.27755651615E+03  0.13648487837E+03  0.48983182407E+03  0.57931076080E+03  0.50400001928E-02 0.  1.
       -1    1    3    3    0  502 -0.27755651615E+03 -0.13648487837E+03 -0.53184573092E+03  0.61524436057E+03  0.50400001928E-02 0. -1.
</event>
<event>
 5   0  0.1647550E-03  0.1194812E+04  0.7818609E-02  0.9117410E-01
       -2   -1    0    0    0  501  0.00000000000E+00  0.00000000000E+00  0.43894336755E+03  0.43894336756E+03  0.25500000920E-02 0. -1.
        2   -1    0    0  501    0  0.00000000000E+00  0.00000000000E+00 -0.81307501298E+03  0.81307501298E+03  0.25500000920E-02 0.  1.
    10030    2    1    2    0    0  0.00000000000E+00  0.00000000000E+00 -0.37413164543E+03  0.12520183805E+04  0.11948119254E+04 0.  0.
        3    1    3    3  502    0  0.20721699582E+03 -0.16554186950E+03 -0.74800016451E+03  0.79362916418E+03  0.10100000352E+00 0.  1.
       -3    1    3    3    0  502 -0.20721699582E+03  0.16554186950E+03  0.37386851909E+03  0.45838921637E+03  0.10100000352E+00 0. -1.
</event>
<event>
 5   0  0.1567019E-03  0.1171635E+04  0.7818609E-02  0.9138054E-01
        2   -1    0    0  501    0  0.00000000000E+00  0.00000000000E+00  0.10960845196E+04  0.10960845196E+04  0.25500000920E-02 0.  1.
       -2   -1    0    0    0  501  0.00000000000E+00  0.00000000000E+00 -0.31309799564E+03  0.31309799565E+03  0.25500000920E-02 0. -1.
    10030    2    1    2    0    0  0.00000000000E+00  0.00000000000E+00  0.78298652392E+03  0.14091825152E+04  0.11716345269E+04 0.  0.
        5    1    3    3  502    0 -0.23772806146E+03 -0.52361988580E+03  0.52578903290E+03  0.77921024963E+03  0.46999998093E+01 0. -1.
       -5    1    3    3    0  502  0.23772806146E+03  0.52361988580E+03  0.25719749102E+03  0.62997226558E+03  0.46999998093E+01 0.  1.
</event>
<event>
 5   0  0.9170776E-04  0.1197176E+04  0.7818609E-02  0.9115332E-01
        1   -1    0    0  501    0  0.00000000000E+00  0.00000000000E+00  0.36330109985E+03  0.36330109989E+03  0.50400001928E-02 0.  1.
       -1   -1    0    0    0  501  0.00000000000E+00  0.00000000000E+00 -0.98625580271E+03  0.98625580272E+03  0.50400001928E-02 0. -1.
    10030    2    1    2    0    0  0.00000000000E+00  0.00000000000E+00 -0.62295470286E+03  0.13495569026E+04  0.11971763745E+04 0.  0.
        5    1    3    3  502    0  0.14148217622E+03 -0.57748026393E+03 -0.23349846105E+03  0.63878343962E+03  0.46999998093E+01 0.  1.
       -5    1    3    3    0  502 -0.14148217622E+03  0.57748026393E+03 -0.38945624180E+03  0.71077346299E+03  0.46999998093E+01 0. -1.
</event>
<event>
 5   0  0.1647550E-03  0.1193153E+04  0.7818609E-02  0.9118871E-01
       -2   -1    0    0    0  501  0.00000000000E+00  0.00000000000E+00  0.18138073129E+03  0.18138073130E+03  0.25500000920E-02 0. -1.
        2   -1    0    0  501    0  0.00000000000E+00  0.00000000000E+00 -0.19621896222E+04  0.19621896222E+04  0.25500000920E-02 0.  1.
    10030    2    1    2    0    0  0.00000000000E+00  0.00000000000E+00 -0.17808088909E+04  0.21435703535E+04  0.11931527792E+04 0.  0.
        3    1    3    3  502    0  0.20814764160E+03  0.29667617834E+03 -0.39052704554E+02  0.36450969731E+03  0.10100000352E+00 0. -1.
       -3    1    3    3    0  502 -0.20814764160E+03 -0.29667617834E+03 -0.17417561864E+04  0.17790606562E+04  0.10100000352E+00 0.  1.
</event>
<event>
 5   0  0.1551501E-03  0.1187206E+04  0.7818609E-02  0.9124130E-01
       -2   -1    0    0    0  501  0.00000000000E+00  0.00000000000E+00  0.27773796403E+03  0.27773796404E+03  0.25500000920E-02 0.  1.
        2   -1    0    0  501    0  0.00000000000E+00  0.00000000000E+00 -0.12686932042E+04  0.12686932042E+04  0.25500000920E-02 0. -1.
    10030    2    1    2    0    0  0.00000000000E+00  0.00000000000E+00 -0.99095524022E+03  0.15464311683E+04  0.11872055720E+04 0.  0.
        4    1    3    3  502    0 -0.54907087313E+03 -0.22479496791E+03 -0.47107192324E+03  0.75757637969E+03  0.12699999809E+01 0.  1.
       -4    1    3    3    0  502  0.54907087313E+03  0.22479496791E+03 -0.51988331698E+03  0.78885478859E+03  0.12699999809E+01 0. -1.
</event>
<event>
 5   0  0.1567019E-03  0.1169263E+04  0.7818609E-02  0.9140194E-01
       -2   -1    0    0    0  501  0.00000000000E+00  0.00000000000E+00  0.73271669056E+03  0.73271669056E+03  0.25500000920E-02 0.  1.
        2   -1    0    0  501    0  0.00000000000E+00  0.00000000000E+00 -0.46647486422E+03  0.46647486422E+03  0.25500000920E-02 0. -1.
    10030    2    1    2    0    0  0.00000000000E+00  0.00000000000E+00  0.26624182634E+03  0.11991915548E+04  0.11692628768E+04 0.  0.
        5    1    3    3  502    0 -0.13145996137E+02 -0.18122301511E+03  0.70300295050E+03  0.72611971247E+03  0.46999998093E+01 0.  1.
       -5    1    3    3    0  502  0.13145996137E+02  0.18122301511E+03 -0.43676112416E+03  0.47307184232E+03  0.46999998093E+01 0. -1.
</event>
<event>
 5   0  0.9170776E-04  0.1190917E+04  0.7818609E-02  0.9120844E-01
        1   -1    0    0  501    0  0.00000000000E+00  0.00000000000E+00  0.47550394003E+03  0.47550394006E+03  0.50400001928E-02 0.  1.
       -1   -1    0    0    0  501  0.00000000000E+00  0.00000000000E+00 -0.74567400279E+03  0.74567400280E+03  0.50400001928E-02 0. -1.
    10030    2    1    2    0    0  0.00000000000E+00  0.00000000000E+00 -0.27017006276E+03  0.12211779429E+04  0.11909171698E+04 0.  0.
        5    1    3    3  502    0 -0.40473375502E+03  0.12942865026E+03  0.29263205904E+03  0.51596201404E+03  0.46999998093E+01 0.  1.
       -5    1    3    3    0  502  0.40473375502E+03 -0.12942865026E+03 -0.56280212179E+03  0.70521592882E+03  0.46999998093E+01 0. -1.
</event>
<event>
 5   0  0.1647550E-03  0.1197100E+04  0.7818609E-02  0.9115398E-01
        2   -1    0    0  501    0  0.00000000000E+00  0.00000000000E+00  0.10169984548E+04  0.10169984548E+04  0.25500000920E-02 0. -1.
       -2   -1    0    0    0  501  0.00000000000E+00  0.00000000000E+00 -0.35227412551E+03  0.35227412552E+03  0.25500000920E-02 0.  1.
    10030    2    1    2    0    0  0.00000000000E+00  0.00000000000E+00  0.66472432926E+03  0.13692725803E+04  0.11971002319E+04 0.  0.
        3    1    3    3  502    0 -0.14121523742E+03  0.33383300740E+03 -0.21245864266E+03  0.42014867029E+03  0.10100000352E+00 0.  1.
       -3    1    3    3    0  502  0.14121523742E+03 -0.33383300740E+03  0.87718297192E+03  0.94912391000E+03  0.10100000352E+00 0. -1.
</event>
<event>
 5   0  0.1597352E-03  0.1194594E+04  0.7818609E-02  0.9117601E-01
       -2   -1    0    0    0  501  0.00000000000E+00  0.00000000000E+00  0.41369388785E+03  0.41369388786E+03  0.25500000920E-02 0. -1.
        2   -1    0    0  501    0  0.00000000000E+00  0.00000000000E+00 -0.86238628963E+03  0.86238628963E+03  0.25500000920E-02 0.  1.
    10030    2    1    2    0    0  0.00000000000E+00  0.00000000000E+00 -0.44869240178E+03  0.12760801775E+04  0.11945943864E+04 0.  0.
        1    1    3    3  502    0  0.60613345503E+02  0.25374081148E+03  0.34961834506E+03  0.43622398408E+03  0.50400001928E-02 0. -1.
       -1    1    3    3    0  502 -0.60613345503E+02 -0.25374081148E+03 -0.79831074684E+03  0.83985619341E+03  0.50400001928E-02 0.  1.
</event>
<event>
 5   0  0.1551501E-03  0.1175867E+04  0.7818609E-02  0.9134246E-01
       -2   -1    0    0    0  501  0.00000000000E+00  0.00000000000E+00  0.23178556206E+03  0.23178556207E+03  0.25500000920E-02 0. -1.
        2   -1    0    0  501    0  0.00000000000E+00  0.00000000000E+00 -0.14913184741E+04  0.14913184741E+04  0.25500000920E-02 0.  1.
    10030    2    1    2    0    0  0.00000000000E+00  0.00000000000E+00 -0.12595329121E+04  0.17231040362E+04  0.11758674938E+04 0.  0.
        4    1    3    3  502    0  0.53056023799E+03  0.44205445632E+02 -0.26425177759E+03  0.59437269656E+03  0.12699999809E+01 0. -1.
       -4    1    3    3    0  502 -0.53056023799E+03 -0.44205445632E+02 -0.99528113449E+03  0.11287313397E+04  0.12699999809E+01 0.  1.
</event>
<event>
 5   0  0.1597352E-03  0.1198842E+04  0.7818609E-02  0.9113871E-01
       -2   -1    0    0    0  501  0.00000000000E+00  0.00000000000E+00  0.79837724555E+03  0.79837724556E+03  0.25500000920E-02 0.  1.
        2   -1    0    0  501    0  0.00000000000E+00  0.00000000000E+00 -0.45004467892E+03  0.45004467893E+03  0.25500000920E-02 0. -1.
    10030    2    1    2    0    0  0.00000000000E+00  0.00000000000E+00  0.34833256663E+03  0.12484219245E+04  0.11988418263E+04 0.  0.
        1    1    3    3  502    0 -0.53487044319E+03  0.23491446110E+03  0.34320822056E+02  0.58519151898E+03  0.50400001928E-02 0. -1.
       -1    1    3    3    0  502  0.53487044319E+03 -0.23491446110E+03  0.31401174457E+03  0.66323040551E+03  0.50400001928E-02 0.  1.
</event>
<event>
 5   0  0.1647550E-03  0.1209285E+04  0.7818609E-02  0.9104768E-01
        2   -1    0    0  501    0  0.00000000000E+00  0.00000000000E+00  0.34147746007E+03  0.34147746008E+03  0.25500000920E-02 0.  1.
       -2   -1    0    0    0  501  0.00000000000E+00  0.00000000000E+00 -0.10706201026E+04  0.10706201026E+04  0.25500000920E-02 0. -1.
    10030    2    1    2    0    0  0.00000000000E+00  0.00000000000E+00 -0.72914264253E+03  0.14120975627E+04  0.12092851332E+04 0.  0.
        3    1    3    3  502    0 -0.58528776108E+03 -0.18682609578E+02 -0.54043450825E+03  0.79685649341E+03  0.10100000352E+00 0. -1.
       -3    1    3    3    0  502  0.58528776108E+03  0.18682609578E+02 -0.18870813428E+03  0.61524106927E+03  0.10100000352E+00 0.  1.
</event>
<event>
 5   0  0.1537557E-03  0.1207144E+04  0.7818609E-02  0.9106626E-01
       -2   -1    0    0    0  501  0.00000000000E+00  0.00000000000E+00  0.95625329376E+03  0.95625329376E+03  0.25500000920E-02 0.  1.
        2   -1    0    0  501    0  0.00000000000E+00  0.00000000000E+00 -0.38096524133E+03  0.38096524134E+03  0.25500000920E-02 0. -1.
    10030    2    1    2    0    0  0.00000000000E+00  0.00000000000E+00  0.57528805243E+03  0.13372185351E+04  0.12071441784E+04 0.  0.
        2    1    3    3  502    0  0.57828802240E+03  0.14285273235E+03  0.39547420941E+03  0.71499915406E+03  0.25500000920E-02 0.  1.
       -2    1    3    3    0  502 -0.57828802240E+03 -0.14285273235E+03  0.17981384301E+03  0.62221938104E+03  0.25500000920E-02 0. -1.
</event>
<event>
 5   0  0.1597352E-03  0.1188576E+04  0.7818609E-02  0.9122915E-01
        2   -1    0    0  501    0  0.00000000000E+00  0.00000000000E+00  0.10770103010E+04  0.10770103010E+04  0.25500000920E-02 0.  1.
       -2   -1    0    0    0  501  0.00000000000E+00  0.00000000000E+00 -0.32792454735E+03  0.32792454736E+03  0.25500000920E-02 0. -1.
    10030    2    1    2    0    0  0.00000000000E+00  0.00000000000E+00  0.74908575368E+03  0.14049348484E+04  0.11885758124E+04 0.  0.
        1    1    3    3  502    0  0.88408109541E+02  0.58144042965E+03  0.47546065776E+03  0.75627495276E+03  0.50400001928E-02 0. -1.
       -1    1    3    3    0  502 -0.88408109541E+02 -0.58144042965E+03  0.27362509592E+03  0.64865989564E+03  0.50400001928E-02 0.  1.
</event>
<event>
 5   0  0.1537557E-03  0.1209615E+04  0.7818609E-02  0.9104482E-01
       -2   -1    0    0    0  501  0.00000000000E+00  0.00000000000E+00  0.42929166664E+03  0.42929166665E+03  0.25500000920E-02 0. -1.
        2   -1    0    0  501    0  0.00000000000E+00  0.00000000000E+00 -0.85208275834E+03  0.85208275834E+03  0.25500000920E-02 0.  1.
    10030    2    1    2    0    0  0.00000000000E+00  0.00000000000E+00 -0.42279109170E+03  0.12813744250E+04  0.12096148601E+04 0.  0.
        2    1    3    3  502    0  0.19383269053E+03  0.13271241660E+03 -0.80178078059E+03  0.83548555797E+03  0.25500000920E-02 0.  1.
       -2    1    3    3    0  502 -0.19383269053E+03 -0.13271241660E+03  0.37898968890E+03  0.44588886702E+03  0.25500000920E-02 0. -1.
</event>
<event>
 5   0  0.9169078E-04  0.1199546E+04  0.7818609E-02  0.9113254E-01
        1   -1    0    0  501    0  0.00000000000E+00  0.00000000000E+00  0.49722976180E+03  0.49722976182E+03  0.50400001928E-02 0. -1.
       -1   -1    0    0    0  501  0.00000000000E+00  0.00000000000E+00 -0.72346346494E+03  0.72346346496E+03  0.50400001928E-02 0.  1.
    10030    2    1    2    0    0  0.00000000000E+00  0.00000000000E+00 -0.22623370314E+03  0.12206932268E+04  0.11995458580E+04 0.  0.
        1    1    3    3  502    0  0.27187680387E+03 -0.31427732510E+03 -0.55322287513E+03  0.69191241002E+03  0.50400001928E-02 0.  1.
       -1    1    3    3    0  502 -0.27187680387E+03  0.31427732510E+03  0.32698917199E+03  0.52878081676E+03  0.50400001928E-02 0. -1.
</event>
<event>
 5   0  0.9358428E-04  0.1191125E+04  0.7818609E-02  0.9120661E-01
       -1   -1    0    0    0  501  0.00000000000E+00  0.00000000000E+00  0.79432892457E+03  0.79432892459E+03  0.50400001928E-02 0. -1.
        1   -1    0    0  501    0  0.00000000000E+00  0.00000000000E+00 -0.44653348180E+03  0.44653348183E+03  0.50400001928E-02 0.  1.
    10030    2    1    2    0    0  0.00000000000E+00  0.00000000000E+00  0.34779544277E+03  0.12408624064E+04  0.11911246121E+04 0.  0.
        2    1    3    3  502    0 -0.30282259420E+03  0.51163032605E+03  0.13740132456E+03  0.61020180112E+03  0.25500000920E-02 0. -1.
       -2    1    3    3    0  502  0.30282259420E+03 -0.51163032605E+03  0.21039411821E+03  0.63066060530E+03  0.25500000920E-02 0.  1.
</event>
<event>
 5   0  0.8908478E-04  0.1201075E+04  0.7818609E-02  0.9111916E-01
       -1   -1    0    0    0  501  0.00000000000E+00  0.00000000000E+00  0.43571478996E+03  0.43571478999E+03  0.50400001928E-02 0. -1.
        1   -1    0    0  501    0  0.00000000000E+00  0.00000000000E+00 -0.82770959856E+03  0.82770959857E+03  0.50400001928E-02 0.  1.
    10030    2    1    2    0    0  0.00000000000E+00  0.00000000000E+00 -0.39199480859E+03  0.12634243886E+04  0.12010750416E+04 0.  0.
        4    1    3    3  502    0 -0.42197970388E+03  0.26407278153E+03 -0.54935567778E+03  0.74134646289E+03  0.12699999809E+01 0.  1.
       -4    1    3    3    0  502  0.42197970388E+03 -0.26407278153E+03  0.15736086919E+03  0.52207792568E+03  0.12699999809E+01 0. -1.
</event>
<event>
 5   0  0.9170776E-04  0.1216139E+04  0.7818609E-02  0.9098846E-01
        1   -1    0    0  501    0  0.00000000000E+00  0.00000000000E+00  0.32571236141E+03  0.32571236145E+03  0.50400001928E-02 0. -1.
       -1   -1    0    0    0  501  0.00000000000E+00  0.00000000000E+00 -0.11351991003E+04  0.11351991003E+04  0.50400001928E-02 0.  1.
    10030    2    1    2    0    0  0.00000000000E+00  0.00000000000E+00 -0.80948673890E+03  0.14609114618E+04  0.12161387744E+04 0.  0.
        5    1    3    3  502    0  0.37006147968E+03  0.26961602191E+03  0.75896883079E+02  0.46413438234E+03  0.46999998093E+01 0. -1.
       -5    1    3    3    0  502 -0.37006147968E+03 -0.26961602191E+03 -0.88538362197E+03  0.99677707943E+03  0.46999998093E+01 0.  1.
</event>
<event>
 5   0  0.1647550E-03  0.1231218E+04  0.7818609E-02  0.9085962E-01
        2   -1    0    0  501    0  0.00000000000E+00  0.00000000000E+00  0.27049386614E+04  0.27049386614E+04  0.25500000920E-02 0.  1.
       -2   -1    0    0    0  501  0.00000000000E+00  0.00000000000E+00 -0.14010461654E+03  0.14010461656E+03  0.25500000920E-02 0. -1.
    10030    2    1    2    0    0  0.00000000000E+00  0.00000000000E+00  0.25648340449E+04  0.28450432780E+04  0.12312179238E+04 0.  0.
        3    1    3    3  502    0  0.18388897114E+03 -0.10735204596E+03  0.26171352736E+04  0.26257830577E+04  0.10100000352E+00 0.  1.
       -3    1    3    3    0  502 -0.18388897114E+03  0.10735204596E+03 -0.52301228730E+02  0.21926022030E+03  0.10100000352E+00 0. -1.
</event>
<event>
 5   0  0.6137750E-04  0.1193889E+04  0.7818609E-02  0.9118222E-01
       -3   -1    0    0    0  501  0.00000000000E+00  0.00000000000E+00  0.22796954322E+04  0.22796954344E+04  0.10100000352E+00 0. -1.
        3   -1    0    0  501    0  0.00000000000E+00  0.00000000000E+00 -0.15631163003E+03  0.15631166266E+03  0.10100000352E+00 0.  1.
    10030    2    1    2    0    0  0.00000000000E+00  0.00000000000E+00  0.21233838022E+04  0.24360070971E+04  0.11938893608E+04 0.  0.
        4    1    3    3  502    0  0.51759395729E+03  0.24715114036E+03  0.13991548221E+04  0.15121583977E+04  0.12699999809E+01 0. -1.
       -4    1    3    3    0  502 -0.51759395729E+03 -0.24715114036E+03  0.72422898008E+03  0.92384869935E+03  0.12699999809E+01 0.  1.
</event>
<event>
 5   0  0.1647550E-03  0.1205600E+04  0.7818609E-02  0.9107969E-01
        2   -1    0    0  501    0  0.00000000000E+00  0.00000000000E+00  0.90530361603E+03  0.90530361603E+03  0.25500000920E-02 0.  1.
       -2   -1    0    0    0  501  0.00000000000E+00  0.00000000000E+00 -0.40137683213E+03  0.40137683214E+03  0.25500000920E-02 0. -1.
    10030    2    1    2    0    0  0.00000000000E+00  0.00000000000E+00  0.50392678389E+03  0.13066804482E+04  0.12056000954E+04 0.  0.
        3    1    3    3  502    0 -0.22996644558E+03 -0.55720880404E+03  0.25336399779E+03  0.65388037359E+03  0.10100000352E+00 0.  1.
       -3    1    3    3    0  502  0.22996644558E+03  0.55720880404E+03  0.25056278611E+03  0.65280007458E+03  0.10100000352E+00 0. -1.
</event>
<event>
 5   0  0.9208078E-04  0.1197548E+04  0.7818609E-02  0.9115006E-01
        1   -1    0    0  501    0  0.00000000000E+00  0.00000000000E+00  0.73305988463E+03  0.73305988465E+03  0.50400001928E-02 0.  1.
       -1   -1    0    0    0  501  0.00000000000E+00  0.00000000000E+00 -0.48908718316E+03  0.48908718319E+03  0.50400001928E-02 0. -1.
    10030    2    1    2    0    0  0.00000000000E+00  0.00000000000E+00  0.24397270147E+03  0.12221470678E+04  0.11975478180E+04 0.  0.
        3    1    3    3  502    0  0.51044277874E+03  0.30441026428E+03  0.19637215660E+03  0.62592289738E+03  0.10100000352E+00 0.  1.
       -3    1    3    3    0  502 -0.51044277874E+03 -0.30441026428E+03  0.47600544866E+02  0.59622417046E+03  0.10100000352E+00 0. -1.
</event>
<event>
 5   0  0.8908478E-04  0.1160269E+04  0.7818609E-02  0.9148362E-01
       -1   -1    0    0    0  501  0.00000000000E+00  0.00000000000E+00  0.39728971412E+03  0.39728971415E+03  0.50400001928E-02 0. -1.
        1   -1    0    0  501    0  0.00000000000E+00  0.00000000000E+00 -0.84713027912E+03  0.84713027914E+03  0.50400001928E-02 0.  1.
    10030    2    1    2    0    0  0.00000000000E+00  0.00000000000E+00 -0.44984056500E+03  0.12444199933E+04  0.11602691868E+04 0.  0.
        4    1    3    3  502    0  0.51943071510E+03 -0.25827949367E+03 -0.23152907711E+03  0.62459898422E+03  0.12699999809E+01 0.  1.
       -4    1    3    3    0  502 -0.51943071510E+03  0.25827949367E+03 -0.21831148790E+03  0.61982100907E+03  0.12699999809E+01 0. -1.
</event>
<event>
 5   0  0.9170776E-04  0.1202546E+04  0.7818609E-02  0.9110631E-01
        1   -1    0    0  501    0  0.00000000000E+00  0.00000000000E+00  0.45243371198E+03  0.45243371201E+03  0.50400001928E-02 0. -1.
       -1   -1    0    0    0  501  0.00000000000E+00  0.00000000000E+00 -0.79907632897E+03  0.79907632899E+03  0.50400001928E-02 0.  1.
    10030    2    1    2    0    0  0.00000000000E+00  0.00000000000E+00 -0.34664261699E+03  0.12515100410E+04  0.12025457491E+04 0.  0.
        5    1    3    3  502    0 -0.48485582708E+03  0.70057665863E+02 -0.53610303822E+03  0.72623812017E+03  0.46999998093E+01 0.  1.
       -5    1    3    3    0  502  0.48485582708E+03 -0.70057665863E+02  0.18946042122E+03  0.52527192083E+03  0.46999998093E+01 0. -1.
</event>
<event>
 5   0  0.1551501E-03  0.1188739E+04  0.7818609E-02  0.9122771E-01
        2   -1    0    0  501    0  0.00000000000E+00  0.00000000000E+00  0.15116432002E+04  0.15116432002E+04  0.25500000920E-02 0. -1.
       -2   -1    0    0    0  501  0.00000000000E+00  0.00000000000E+00 -0.23370275242E+03  0.23370275243E+03  0.25500000920E-02 0.  1.
    10030    2    1    2    0    0  0.00000000000E+00  0.00000000000E+00  0.12779404477E+04  0.17453459526E+04  0.11887391246E+04 0.  0.
        4    1    3    3  502    0 -0.90105576425E+01 -0.32836818988E+03  0.13662521288E+04  0.14051880125E+04  0.12699999809E+01 0. -1.
       -4    1    3    3    0  502  0.90105576425E+01  0.32836818988E+03 -0.88311681043E+02  0.34015794006E+03  0.12699999809E+01 0.  1.
</event>
<event>
 5   0  0.1551501E-03  0.1197785E+04  0.7818609E-02  0.9114797E-01
        2   -1    0    0  501    0  0.00000000000E+00  0.00000000000E+00  0.83487241631E+03  0.83487241632E+03  0.25500000920E-02 0. -1.
       -2   -1    0    0    0  501  0.00000000000E+00  0.00000000000E+00 -0.42961350006E+03  0.42961350006E+03  0.25500000920E-02 0.  1.
    10030    2    1    2    0    0  0.00000000000E+00  0.00000000000E+00  0.40525891626E+03  0.12644859164E+04  0.11977853913E+04 0.  0.
        4    1    3    3  502    0  0.92462028289E+02 -0.49110561166E+03  0.55106503329E+03  0.74391412965E+03  0.12699999809E+01 0. -1.
       -4    1    3    3    0  502 -0.92462028289E+02  0.49110561166E+03 -0.14580611703E+03  0.52057178673E+03  0.12699999809E+01 0.  1.
</event>
<event>
 5   0  0.1647550E-03  0.1052230E+04  0.7818609E-02  0.9253045E-01
       -2   -1    0    0    0  501  0.00000000000E+00  0.00000000000E+00  0.18620987611E+03  0.18620987613E+03  0.25500000920E-02 0. -1.
        2   -1    0    0  501    0  0.00000000000E+00  0.00000000000E+00 -0.14864775615E+04  0.14864775615E+04  0.25500000920E-02 0.  1.
    10030    2    1    2    0    0  0.00000000000E+00  0.00000000000E+00 -0.13002676854E+04  0.16726874376E+04  0.10522296376E+04 0.  0.
        3    1    3    3  502    0 -0.28019656925E+03  0.25288189173E+03 -0.12327771643E+04  0.12892629350E+04  0.10100000352E+00 0.  1.
       -3    1    3    3    0  502  0.28019656925E+03 -0.25288189173E+03 -0.67490521119E+02  0.38342450264E+03  0.10100000352E+00 0. -1.
</event>
<event>
 5   0  0.9169078E-04  0.1199342E+04  0.7818609E-02  0.9113433E-01
       -1   -1    0    0    0  501  0.00000000000E+00  0.00000000000E+00  0.23321222512E+03  0.23321222518E+03  0.50400001928E-02 0.  1.
        1   -1    0    0  501    0  0.00000000000E+00  0.00000000000E+00 -0.15419650741E+04  0.15419650741E+04  0.50400001928E-02 0. -1.
    10030    2    1    2    0    0  0.00000000000E+00  0.00000000000E+00 -0.13087528490E+04  0.17751772993E+04  0.11993416628E+04 0.  0.
        1    1    3    3  502    0  0.57420541714E+03  0.26946551606E+02 -0.90715813665E+03  0.10739524490E+04  0.50400001928E-02 0.  1.
       -1    1    3    3    0  502 -0.57420541714E+03 -0.26946551606E+02 -0.40159471233E+03  0.70122485033E+03  0.50400001928E-02 0. -1.
</event>
<event>
 5   0  0.1551501E-03  0.1196326E+04  0.7818609E-02  0.9116079E-01
        2   -1    0    0  501    0  0.00000000000E+00  0.00000000000E+00  0.95795852323E+03  0.95795852323E+03  0.25500000920E-02 0.  1.
       -2   -1    0    0    0  501  0.00000000000E+00  0.00000000000E+00 -0.37350148519E+03  0.37350148520E+03  0.25500000920E-02 0. -1.
    10030    2    1    2    0    0  0.00000000000E+00  0.00000000000E+00  0.58445703803E+03  0.13314600084E+04  0.11963259275E+04 0.  0.
        4    1    3    3  502    0  0.20993500850E+03  0.11383092771E+03 -0.31814234938E+03  0.39780190455E+03  0.12699999809E+01 0. -1.
       -4    1    3    3    0  502 -0.20993500850E+03 -0.11383092771E+03  0.90259938741E+03  0.93365810388E+03  0.12699999809E+01 0.  1.
</event>
<event>
 5   0  0.8908478E-04  0.1205227E+04  0.7818609E-02  0.9108293E-01
        1   -1    0    0  501    0  0.00000000000E+00  0.00000000000E+00  0.72449235750E+03  0.72449235752E+03  0.50400001928E-02 0.  1.
       -1   -1    0    0    0  501  0.00000000000E+00  0.00000000000E+00 -0.50123831746E+03  0.50123831748E+03  0.50400001928E-02 0. -1.
    10030    2    1    2    0    0  0.00000000000E+00  0.00000000000E+00  0.22325404004E+03  0.12257306750E+04  0.12052274977E+04 0.  0.
        4    1    3    3  502    0 -0.39379465379E+03  0.17781371660E+03  0.53883226074E+03  0.69067631006E+03  0.12699999809E+01 0.  1.
       -4    1    3    3    0  502  0.39379465379E+03 -0.17781371660E+03 -0.31557822070E+03  0.53505436494E+03  0.12699999809E+01 0. -1.
</event>
<event>
 5   0  0.1597352E-03  0.1197854E+04  0.7818609E-02  0.9114737E-01
       -2   -1    0    0    0  501  0.00000000000E+00  0.00000000000E+00  0.28402370803E+03  0.28402370804E+03  0.25500000920E-02 0.  1.
        2   -1    0    0  501    0  0.00000000000E+00  0.00000000000E+00 -0.12629706893E+04  0.12629706893E+04  0.25500000920E-02 0. -1.
    10030    2    1    2    0    0  0.00000000000E+00  0.00000000000E+00 -0.97894698129E+03  0.15469943974E+04  0.11978541119E+04 0.  0.
        1    1    3    3  502    0  0.32204901617E+03 -0.50053136793E+03 -0.57578398051E+03  0.82811497471E+03  0.50400001928E-02 0. -1.
       -1    1    3    3    0  502 -0.32204901617E+03  0.50053136793E+03 -0.40316300078E+03  0.71887942265E+03  0.50400001928E-02 0.  1.
</event>
<event>
 5   0  0.1567019E-03  0.1204958E+04  0.7818609E-02  0.9108528E-01
        2   -1    0    0  501    0  0.00000000000E+00  0.00000000000E+00  0.17012701890E+04  0.17012701890E+04  0.25500000920E-02 0. -1.
       -2   -1    0    0    0  501  0.00000000000E+00  0.00000000000E+00 -0.21335887679E+03  0.21335887680E+03  0.25500000920E-02 0.  1.
    10030    2    1    2    0    0  0.00000000000E+00  0.00000000000E+00  0.14879113122E+04  0.19146290658E+04  0.12049582510E+04 0.  0.
        5    1    3    3  502    0 -0.37861335658E+03  0.20493947075E+03  0.74306590491E+02  0.43691168426E+03  0.46999998093E+01 0.  1.
       -5    1    3    3    0  502  0.37861335658E+03 -0.20493947075E+03  0.14136047217E+04  0.14777173816E+04  0.46999998093E+01 0. -1.
</event>
<event>
 5   0  0.8908478E-04  0.1198729E+04  0.7818609E-02  0.9113970E-01
       -1   -1    0    0    0  501  0.00000000000E+00  0.00000000000E+00  0.59456096073E+03  0.59456096075E+03  0.50400001928E-02 0.  1.
        1   -1    0    0  501    0  0.00000000000E+00  0.00000000000E+00 -0.60420668437E+03  0.60420668439E+03  0.50400001928E-02 0. -1.
    10030    2    1    2    0    0  0.00000000000E+00  0.00000000000E+00 -0.96457236436E+01  0.11987676451E+04  0.11987288380E+04 0.  0.
        4    1    3    3  502    0  0.27364970826E+03 -0.30698413013E+02  0.52755659752E+03  0.59510010240E+03  0.12699999809E+01 0.  1.
       -4    1    3    3    0  502 -0.27364970826E+03  0.30698413013E+02 -0.53720232116E+03  0.60366754274E+03  0.12699999809E+01 0. -1.
</event>
<event>
 5   0  0.9169078E-04  0.1193487E+04  0.7818609E-02  0.9118576E-01
        1   -1    0    0  501    0  0.00000000000E+00  0.00000000000E+00  0.82759824123E+03  0.82759824124E+03  0.50400001928E-02 0.  1.
       -1   -1    0    0    0  501  0.00000000000E+00  0.00000000000E+00 -0.43028471654E+03  0.43028471657E+03  0.50400001928E-02 0. -1.
    10030    2    1    2    0    0  0.00000000000E+00  0.00000000000E+00  0.39731352468E+03  0.12578829578E+04  0.11934871171E+04 0.  0.
        1    1    3    3  502    0 -0.20001527525E+03 -0.53574417495E+03  0.18942751806E+02  0.57217720961E+03  0.50400001928E-02 0. -1.
       -1    1    3    3    0  502  0.20001527525E+03  0.53574417495E+03  0.37837077288E+03  0.68570574821E+03  0.50400001928E-02 0.  1.
</event>
<event>
 5   0  0.8908478E-04  0.1205599E+04  0.7818609E-02  0.9107970E-01
        1   -1    0    0  501    0  0.00000000000E+00  0.00000000000E+00  0.12021044132E+04  0.12021044132E+04  0.50400001928E-02 0. -1.
       -1   -1    0    0    0  501  0.00000000000E+00  0.00000000000E+00 -0.30227573640E+03  0.30227573644E+03  0.50400001928E-02 0.  1.
    10030    2    1    2    0    0  0.00000000000E+00  0.00000000000E+00  0.89982867684E+03  0.15043801497E+04  0.12055986012E+04 0.  0.
        4    1    3    3  502    0  0.51022147827E+03  0.77023777301E+02  0.61066578499E+02  0.51960500293E+03  0.12699999809E+01 0.  1.
       -4    1    3    3    0  502 -0.51022147827E+03 -0.77023777301E+02  0.83876209834E+03  0.98477514676E+03  0.12699999809E+01 0. -1.
</event>
<event>
 5   0  0.1551501E-03  0.1202262E+04  0.7818609E-02  0.9110879E-01
       -2   -1    0    0    0  501  0.00000000000E+00  0.00000000000E+00  0.48231288031E+03  0.48231288031E+03  0.25500000920E-02 0.  1.
        2   -1    0    0  501    0  0.00000000000E+00  0.00000000000E+00 -0.74922010668E+03  0.74922010668E+03  0.25500000920E-02 0. -1.
    10030    2    1    2    0    0  0.00000000000E+00  0.00000000000E+00 -0.26690722637E+03  0.12315329870E+04  0.12022620474E+04 0.  0.
        4    1    3    3  502    0 -0.32504873185E+03 -0.43174867672E+03  0.13619148122E+03  0.55732695106E+03  0.12699999809E+01 0.  1.
       -4    1    3    3    0  502  0.32504873185E+03  0.43174867672E+03 -0.40309870759E+03  0.67420603593E+03  0.12699999809E+01 0. -1.
</event>
<event>
 5   0  0.9169078E-04  0.1208815E+04  0.7818609E-02  0.9105176E-01
       -1   -1    0    0    0  501  0.00000000000E+00  0.00000000000E+00  0.21108433628E+03  0.21108433634E+03  0.50400001928E-02 0. -1.
        1   -1    0    0  501    0  0.00000000000E+00  0.00000000000E+00 -0.17306279324E+04  0.17306279324E+04  0.50400001928E-02 0.  1.
    10030    2    1    2    0    0  0.00000000000E+00  0.00000000000E+00 -0.15195435961E+04  0.19417122687E+04  0.12088150372E+04 0.  0.
        1    1    3    3  502    0 -0.51025784561E+03 -0.10515184278E+03 -0.26758365123E+03  0.58567993775E+03  0.50400001928E-02 0. -1.
       -1    1    3    3    0  502  0.51025784561E+03  0.10515184278E+03 -0.12519599449E+04  0.13560323310E+04  0.50400001928E-02 0.  1.
</event>
<event>
 5   0  0.1551501E-03  0.1209009E+04  0.7818609E-02  0.9105008E-01
        2   -1    0    0  501    0  0.00000000000E+00  0.00000000000E+00  0.12372059416E+04  0.12372059416E+04  0.25500000920E-02 0. -1.
       -2   -1    0    0    0  501  0.00000000000E+00  0.00000000000E+00 -0.29536349080E+03  0.29536349081E+03  0.25500000920E-02 0.  1.
    10030    2    1    2    0    0  0.00000000000E+00  0.00000000000E+00  0.94184245077E+03  0.15325694324E+04  0.12090086282E+04 0.  0.
        4    1    3    3  502    0  0.24785124128E+03 -0.47915333732E+03  0.12514602163E+03  0.55378813467E+03  0.12699999809E+01 0.  1.
       -4    1    3    3    0  502 -0.24785124128E+03  0.47915333732E+03  0.81669642914E+03  0.97878129771E+03  0.12699999809E+01 0. -1.
</event>
<event>
 5   0  0.6137750E-04  0.1198481E+04  0.7818609E-02  0.9114187E-01
       -3   -1    0    0    0  501  0.00000000000E+00  0.00000000000E+00  0.64487655861E+03  0.64487656652E+03  0.10100000352E+00 0.  1.
        3   -1    0    0  501    0  0.00000000000E+00  0.00000000000E+00 -0.55683427034E+03  0.55683427950E+03  0.10100000352E+00 0. -1.
    10030    2    1    2    0    0  0.00000000000E+00  0.00000000000E+00  0.88042288271E+02  0.12017108460E+04  0.11984813361E+04 0.  0.
        2    1    3    3  502    0  0.97569504423E+02 -0.19041922920E+03  0.60527055025E+03  0.64197486715E+03  0.25500000920E-02 0.  1.
       -2    1    3    3    0  502 -0.97569504423E+02  0.19041922920E+03 -0.51722826198E+03  0.55973597887E+03  0.25500000920E-02 0. -1.
</event>
<event>
 5   0  0.9170776E-04  0.1203823E+04  0.7818609E-02  0.9109517E-01
        1   -1    0    0  501    0  0.00000000000E+00  0.00000000000E+00  0.61991821138E+03  0.61991821141E+03  0.50400001928E-02 0.  1.
       -1   -1    0    0    0  501  0.00000000000E+00  0.00000000000E+00 -0.58442767415E+03  0.58442767417E+03  0.50400001928E-02 0. -1.
    10030    2    1    2    0    0  0.00000000000E+00  0.00000000000E+00  0.35490537237E+02  0.12043458856E+04  0.12038228416E+04 0.  0.
        5    1    3    3  502    0 -0.40147677981E+03 -0.12885779673E+03 -0.41196123711E+03  0.58951004011E+03  0.46999998093E+01 0. -1.
       -5    1    3    3    0  502  0.40147677981E+03  0.12885779673E+03  0.44745177435E+03  0.61483584547E+03  0.46999998093E+01 0.  1.
</event>
<event>
 5   0  0.1647550E-03  0.1224072E+04  0.7818609E-02  0.9092043E-01
       -2   -1    0    0    0  501  0.00000000000E+00  0.00000000000E+00  0.52421824921E+03  0.52421824922E+03  0.25500000920E-02 0. -1.
        2   -1    0    0  501    0  0.00000000000E+00  0.00000000000E+00 -0.71456515651E+03  0.71456515651E+03  0.25500000920E-02 0.  1.
    10030    2    1    2    0    0  0.00000000000E+00  0.00000000000E+00 -0.19034690730E+03  0.12387834057E+04  0.12240720490E+04 0.  0.
        3    1    3    3  502    0 -0.44333416736E+03 -0.14942791574E+03 -0.49452236618E+03  0.68075418971E+03  0.10100000352E+00 0.  1.
       -3    1    3    3    0  502  0.44333416736E+03  0.14942791574E+03  0.30417545888E+03  0.55802921602E+03  0.10100000352E+00 0. -1.
</event>
<event>
 5   0  0.9169078E-04  0.1052479E+04  0.7818609E-02  0.9252788E-01
        1   -1    0    0  501    0  0.00000000000E+00  0.00000000000E+00  0.82104909972E+03  0.82104909973E+03  0.50400001928E-02 0. -1.
       -1   -1    0    0    0  501  0.00000000000E+00  0.00000000000E+00 -0.33728581677E+03  0.33728581681E+03  0.50400001928E-02 0.  1.
    10030    2    1    2    0    0  0.00000000000E+00  0.00000000000E+00  0.48376328295E+03  0.11583349165E+04  0.10524793893E+04 0.  0.
        1    1    3    3  502    0  0.29270055252E+03 -0.84343667481E+02  0.71415723239E+03  0.77640712277E+03  0.50400001928E-02 0. -1.
       -1    1    3    3    0  502 -0.29270055252E+03  0.84343667481E+02 -0.23039394944E+03  0.38192779377E+03  0.50400001928E-02 0.  1.
</event>
<event>
 5   0  0.9170776E-04  0.1149581E+04  0.7818609E-02  0.9158170E-01
        1   -1    0    0  501    0  0.00000000000E+00  0.00000000000E+00  0.14360864292E+04  0.14360864293E+04  0.50400001928E-02 0.  1.
       -1   -1    0    0    0  501  0.00000000000E+00  0.00000000000E+00 -0.23005879105E+03  0.23005879110E+03  0.50400001928E-02 0. -1.
    10030    2    1    2    0    0  0.00000000000E+00  0.00000000000E+00  0.12060276382E+04  0.16661452204E+04  0.11495813287E+04 0.  0.
        5    1    3    3  502    0  0.13679808524E+03 -0.15206959638E+03 -0.17549515887E+03  0.26955429704E+03  0.46999998093E+01 0. -1.
       -5    1    3    3    0  502 -0.13679808524E+03  0.15206959638E+03  0.13815227971E+04  0.13965909233E+04  0.46999998093E+01 0.  1.
</event>
<event>
 5   0  0.6137750E-04  0.1203417E+04  0.7818609E-02  0.9109871E-01
        3   -1    0    0  501    0  0.00000000000E+00  0.00000000000E+00  0.49447837036E+03  0.49447838068E+03  0.10100000352E+00 0. -1.
       -3   -1    0    0    0  501  0.00000000000E+00  0.00000000000E+00 -0.73219186503E+03  0.73219187199E+03  0.10100000352E+00 0.  1.
    10030    2    1    2    0    0  0.00000000000E+00  0.00000000000E+00 -0.23771349467E+03  0.12266702527E+04  0.12034168867E+04 0.  0.
        1    1    3    3  502    0 -0.50361395974E+03  0.14063010564E+03 -0.42235007794E+03  0.67214837306E+03  0.50400001928E-02 0.  1.
       -1    1    3    3    0  502  0.50361395974E+03 -0.14063010564E+03  0.18463658327E+03  0.55452187961E+03  0.50400001928E-02 0. -1.
</event>
<event>
 5   0  0.1567019E-03  0.1189212E+04  0.7818609E-02  0.9122352E-01
        2   -1    0    0  501    0  0.00000000000E+00  0.00000000000E+00  0.12598516485E+04  0.12598516485E+04  0.25500000920E-02 0.  1.
       -2   -1    0    0    0  501  0.00000000000E+00  0.00000000000E+00 -0.28063320723E+03  0.28063320724E+03  0.25500000920E-02 0. -1.
    10030    2    1    2    0    0  0.00000000000E+00  0.00000000000E+00  0.97921844130E+03  0.15404848558E+04  0.11892118546E+04 0.  0.
        5    1    3    3  502    0  0.29583408587E+03  0.13533321771E+03  0.11343160746E+04  0.11800542078E+04  0.46999998093E+01 0. -1.
       -5    1    3    3    0  502 -0.29583408587E+03 -0.13533321771E+03 -0.15509763329E+03  0.36043064802E+03  0.46999998093E+01 0.  1.
</event>
<event>
 5   0  0.9169078E-04  0.1194018E+04  0.7818609E-02  0.9118109E-01
        1   -1    0    0  501    0  0.00000000000E+00  0.00000000000E+00  0.10092983697E+04  0.10092983697E+04  0.50400001928E-02 0.  1.
       -1   -1    0    0    0  501  0.00000000000E+00  0.00000000000E+00 -0.35313607951E+03  0.35313607955E+03  0.50400001928E-02 0. -1.
    10030    2    1    2    0    0  0.00000000000E+00  0.00000000000E+00  0.65616229016E+03  0.13624344492E+04  0.11940178715E+04 0.  0.
        1    1    3    3  502    0  0.32372359655E+03  0.42242940437E+03  0.63674759069E+03  0.82987412474E+03  0.50400001928E-02 0.  1.
       -1    1    3    3    0  502 -0.32372359655E+03 -0.42242940437E+03  0.19414699465E+02  0.53256032449E+03  0.50400001928E-02 0. -1.
</event>
<event>
 5   0  0.9170776E-04  0.1192509E+04  0.7818609E-02  0.9119439E-01
        1   -1    0    0  501    0  0.00000000000E+00  0.00000000000E+00  0.12170280750E+04  0.12170280750E+04  0.50400001928E-02 0. -1.
       -1   -1    0    0    0  501  0.00000000000E+00  0.00000000000E+00 -0.29212080546E+03  0.29212080551E+03  0.50400001928E-02 0.  1.
    10030    2    1    2    0    0  0.00000000000E+00  0.00000000000E+00  0.92490726957E+03  0.15091488805E+04  0.11925086525E+04 0.  0.
        5    1    3    3  502    0 -0.17752969651E+03 -0.22514716951E+03  0.11240326096E+04  0.11600342402E+04  0.46999998093E+01 0. -1.
       -5    1    3    3    0  502  0.17752969651E+03  0.22514716951E+03 -0.19912533999E+03  0.34911464035E+03  0.46999998093E+01 0.  1.
</event>
<event>
 5   0  0.9208078E-04  0.1190563E+04  0.7818609E-02  0.9121157E-01
        1   -1    0    0  501    0  0.00000000000E+00  0.00000000000E+00  0.64874089982E+03  0.64874089984E+03  0.50400001928E-02 0.  1.
       -1   -1    0    0    0  501  0.00000000000E+00  0.00000000000E+00 -0.54622759788E+03  0.54622759790E+03  0.50400001928E-02 0. -1.
    10030    2    1    2    0    0  0.00000000000E+00  0.00000000000E+00  0.10251330194E+03  0.11949684977E+04  0.11905632001E+04 0.  0.
        3    1    3    3  502    0 -0.29719308626E+03 -0.43705782681E+03 -0.22364892874E+03  0.57390079981E+03  0.10100000352E+00 0. -1.
       -3    1    3    3    0  502  0.29719308626E+03  0.43705782681E+03  0.32616223068E+03  0.62106769793E+03  0.10100000352E+00 0.  1.
</event>
<event>
 5   0  0.1551501E-03  0.1200796E+04  0.7818609E-02  0.9112160E-01
        2   -1    0    0  501    0  0.00000000000E+00  0.00000000000E+00  0.67856782972E+03  0.67856782973E+03  0.25500000920E-02 0.  1.
       -2   -1    0    0    0  501  0.00000000000E+00  0.00000000000E+00 -0.53123340015E+03  0.53123340015E+03  0.25500000920E-02 0. -1.
    10030    2    1    2    0    0  0.00000000000E+00  0.00000000000E+00  0.14733442958E+03  0.12098012299E+04  0.12007962282E+04 0.  0.
        4    1    3    3  502    0 -0.48662216496E+03  0.26117145818E+03  0.31094262318E+03  0.63379696261E+03  0.12699999809E+01 0. -1.
       -4    1    3    3    0  502  0.48662216496E+03 -0.26117145818E+03 -0.16360819361E+03  0.57600426727E+03  0.12699999809E+01 0.  1.
</event>
<event>
 5   0  0.9358428E-04  0.1135141E+04  0.7818609E-02  0.9171602E-01
       -1   -1    0    0    0  501  0.00000000000E+00  0.00000000000E+00  0.70263923614E+03  0.70263923615E+03  0.50400001928E-02 0. -1.
        1   -1    0    0  501    0  0.00000000000E+00  0.00000000000E+00 -0.45846640412E+03  0.45846640415E+03  0.50400001928E-02 0.  1.
    10030    2    1    2    0    0  0.00000000000E+00  0.00000000000E+00  0.24417283201E+03  0.11611056403E+04  0.11351413727E+04 0.  0.
        2    1    3    3  502    0 -0.50656759157E+02  0.38006856951E+02  0.69901394941E+03  0.70187686235E+03  0.25500000920E-02 0. -1.
       -2    1    3    3    0  502  0.50656759157E+02 -0.38006856951E+02 -0.45484111739E+03  0.45922877796E+03  0.25500000920E-02 0.  1.
</event>
<event>
 5   0  0.9170776E-04  0.1195045E+04  0.7818609E-02  0.9117204E-01
        1   -1    0    0  501    0  0.00000000000E+00  0.00000000000E+00  0.82503748960E+03  0.82503748962E+03  0.50400001928E-02 0.  1.
       -1   -1    0    0    0  501  0.00000000000E+00  0.00000000000E+00 -0.43274803531E+03  0.43274803534E+03  0.50400001928E-02 0. -1.
    10030    2    1    2    0    0  0.00000000000E+00  0.00000000000E+00  0.39228945430E+03  0.12577855250E+04  0.11950453593E+04 0.  0.
        5    1    3    3  502    0 -0.48579015983E+03 -0.32708729157E+03  0.32082530651E+03  0.66777926218E+03  0.46999998093E+01 0.  1.
       -5    1    3    3    0  502  0.48579015983E+03  0.32708729157E+03  0.71464147785E+02  0.59000626278E+03  0.46999998093E+01 0. -1.
</event>
<event>
 5   0  0.1597352E-03  0.1200332E+04  0.7818609E-02  0.9112566E-01
       -2   -1    0    0    0  501  0.00000000000E+00  0.00000000000E+00  0.10028361275E+04  0.10028361275E+04  0.25500000920E-02 0. -1.
        2   -1    0    0  501    0  0.00000000000E+00  0.00000000000E+00 -0.35918025623E+03  0.35918025624E+03  0.25500000920E-02 0.  1.
    10030    2    1    2    0    0  0.00000000000E+00  0.00000000000E+00  0.64365587131E+03  0.13620163838E+04  0.12003315163E+04 0.  0.
        1    1    3    3  502    0 -0.45042476821E+03 -0.18980230237E+03  0.71700924705E+03  0.86776128410E+03  0.50400001928E-02 0. -1.
       -1    1    3    3    0  502  0.45042476821E+03  0.18980230237E+03 -0.73353375738E+02  0.49425509968E+03  0.50400001928E-02 0.  1.
</event>
<event>
 5   0  0.1551501E-03  0.1204790E+04  0.7818609E-02  0.9108674E-01
        2   -1    0    0  501    0  0.00000000000E+00  0.00000000000E+00  0.10829780652E+04  0.10829780652E+04  0.25500000920E-02 0. -1.
       -2   -1    0    0    0  501  0.00000000000E+00  0.00000000000E+00 -0.33507563287E+03  0.33507563288E+03  0.25500000920E-02 0.  1.
    10030    2    1    2    0    0  0.00000000000E+00  0.00000000000E+00  0.74790243229E+03  0.14180536980E+04  0.12047897088E+04 0.  0.
        4    1    3    3  502    0  0.54602172582E+02 -0.56980731249E+03  0.15307318012E+03  0.59253251555E+03  0.12699999809E+01 0. -1.
       -4    1    3    3    0  502 -0.54602172582E+02  0.56980731249E+03  0.59482925217E+03  0.82552118250E+03  0.12699999809E+01 0.  1.
</event>
<event>
 5   0  0.1551501E-03  0.1183861E+04  0.7818609E-02  0.9127101E-01
       -2   -1    0    0    0  501  0.00000000000E+00  0.00000000000E+00  0.70039494128E+03  0.70039494128E+03  0.25500000920E-02 0. -1.
        2   -1    0    0  501    0  0.00000000000E+00  0.00000000000E+00 -0.50026347244E+03  0.50026347244E+03  0.25500000920E-02 0.  1.
    10030    2    1    2    0    0  0.00000000000E+00  0.00000000000E+00  0.20013146884E+03  0.12006584137E+04  0.11838614875E+04 0.  0.
        4    1    3    3  502    0 -0.26236185972E+03  0.53018920881E+03  0.12148528313E+03  0.60389951937E+03  0.12699999809E+01 0.  1.
       -4    1    3    3    0  502  0.26236185972E+03 -0.53018920881E+03  0.78646185711E+02  0.59675889436E+03  0.12699999809E+01 0. -1.
</event>
<event>
 5   0  0.1537557E-03  0.1198230E+04  0.7818609E-02  0.9114407E-01
        2   -1    0    0  501    0  0.00000000000E+00  0.00000000000E+00  0.13590134483E+04  0.13590134483E+04  0.25500000920E-02 0. -1.
       -2   -1    0    0    0  501  0.00000000000E+00  0.00000000000E+00 -0.26411718749E+03  0.26411718750E+03  0.25500000920E-02 0.  1.
    10030    2    1    2    0    0  0.00000000000E+00  0.00000000000E+00  0.10948962609E+04  0.16231306358E+04  0.11982300443E+04 0.  0.
        2    1    3    3  502    0 -0.45743856032E+03  0.38554191672E+03  0.50363327311E+03  0.78200964176E+03  0.25500000920E-02 0. -1.
       -2    1    3    3    0  502  0.45743856032E+03 -0.38554191672E+03  0.59126298775E+03  0.84112099409E+03  0.25500000920E-02 0.  1.
</event>
<event>
 5   0  0.1647550E-03  0.1197281E+04  0.7818609E-02  0.9115240E-01
       -2   -1    0    0    0  501  0.00000000000E+00  0.00000000000E+00  0.28248523719E+03  0.28248523720E+03  0.25500000920E-02 0. -1.
        2   -1    0    0  501    0  0.00000000000E+00  0.00000000000E+00 -0.12686348645E+04  0.12686348645E+04  0.25500000920E-02 0.  1.
    10030    2    1    2    0    0  0.00000000000E+00  0.00000000000E+00 -0.98614962732E+03  0.15511201017E+04  0.11972812879E+04 0.  0.
        3    1    3    3  502    0  0.15514201387E+03 -0.44317903107E+03 -0.97415977144E+03  0.10814175736E+04  0.10100000352E+00 0.  1.
       -3    1    3    3    0  502 -0.15514201387E+03  0.44317903107E+03 -0.11989855879E+02  0.46970252809E+03  0.10100000352E+00 0. -1.
</event>
<event>
 5   0  0.9208078E-04  0.1157229E+04  0.7818609E-02  0.9151141E-01
        1   -1    0    0  501    0  0.00000000000E+00  0.00000000000E+00  0.76429059212E+03  0.76429059214E+03  0.50400001928E-02 0. -1.
       -1   -1    0    0    0  501  0.00000000000E+00  0.00000000000E+00 -0.43804611994E+03  0.43804611997E+03  0.50400001928E-02 0.  1.
    10030    2    1    2    0    0  0.00000000000E+00  0.00000000000E+00  0.32624447218E+03  0.12023367121E+04  0.11572286350E+04 0.  0.
        3    1    3    3  502    0 -0.20811926028E+03  0.18507238204E+03 -0.36382482899E+03  0.45818547498E+03  0.10100000352E+00 0.  1.
       -3    1    3    3    0  502  0.20811926028E+03 -0.18507238204E+03  0.69006930118E+03  0.74415123713E+03  0.10100000352E+00 0. -1.
</event>
<event>
 5   0  0.8908478E-04  0.1193282E+04  0.7818609E-02  0.9118757E-01
       -1   -1    0    0    0  501  0.00000000000E+00  0.00000000000E+00  0.39372255363E+03  0.39372255366E+03  0.50400001928E-02 0.  1.
        1   -1    0    0  501    0  0.00000000000E+00  0.00000000000E+00 -0.90413989770E+03  0.90413989772E+03  0.50400001928E-02 0. -1.
    10030    2    1    2    0    0  0.00000000000E+00  0.00000000000E+00 -0.51041734407E+03  0.12978624514E+04  0.11932816422E+04 0.  0.
        4    1    3    3  502    0  0.35193326953E+03  0.47403319413E+03 -0.16155674470E+03  0.61210022872E+03  0.12699999809E+01 0.  1.
       -4    1    3    3    0  502 -0.35193326953E+03 -0.47403319413E+03 -0.34886059937E+03  0.68576222266E+03  0.12699999809E+01 0. -1.
</event>
<event>
 5   0  0.1647550E-03  0.1196525E+04  0.7818609E-02  0.9115904E-01
       -2   -1    0    0    0  501  0.00000000000E+00  0.00000000000E+00  0.32583398550E+03  0.32583398551E+03  0.25500000920E-02 0. -1.
        2   -1    0    0  501    0  0.00000000000E+00  0.00000000000E+00 -0.10984667594E+04  0.10984667594E+04  0.25500000920E-02 0.  1.
    10030    2    1    2    0    0  0.00000000000E+00  0.00000000000E+00 -0.77263277389E+03  0.14243007449E+04  0.11965246377E+04 0.  0.
        3    1    3    3  502    0  0.34024437637E+03 -0.18084329301E+03  0.15845889872E+03  0.41662904971E+03  0.10100000352E+00 0. -1.
       -3    1    3    3    0  502 -0.34024437637E+03  0.18084329301E+03 -0.93109167261E+03  0.10076716952E+04  0.10100000352E+00 0.  1.
</event>
<event>
 5   0  0.1537557E-03  0.1149364E+04  0.7818609E-02  0.9158371E-01
        2   -1    0    0  501    0  0.00000000000E+00  0.00000000000E+00  0.14154159035E+04  0.14154159035E+04  0.25500000920E-02 0.  1.
       -2   -1    0    0    0  501  0.00000000000E+00  0.00000000000E+00 -0.23333025986E+03  0.23333025987E+03  0.25500000920E-02 0. -1.
    10030    2    1    2    0    0  0.00000000000E+00  0.00000000000E+00  0.11820856436E+04  0.16487461634E+04  0.11493639294E+04 0.  0.
        2    1    3    3  502    0  0.25179775222E+03  0.47257487418E+03  0.89033252079E+03  0.10389519321E+04  0.25500000920E-02 0.  1.
       -2    1    3    3    0  502 -0.25179775222E+03 -0.47257487418E+03  0.29175312285E+03  0.60979423122E+03  0.25500000920E-02 0. -1.
</event>
<event>
 5   0  0.9169078E-04  0.1202081E+04  0.7818609E-02  0.9111037E-01
        1   -1    0    0  501    0  0.00000000000E+00  0.00000000000E+00  0.10357402647E+04  0.10357402647E+04  0.50400001928E-02 0. -1.
       -1   -1    0    0    0  501  0.00000000000E+00  0.00000000000E+00 -0.34878385247E+03  0.34878385251E+03  0.50400001928E-02 0.  1.
    10030    2    1    2    0    0  0.00000000000E+00  0.00000000000E+00  0.68695641222E+03  0.13845241172E+04  0.12020806624E+04 0.  0.
        1    1    3    3  502    0 -0.79443348849E+02 -0.51911043916E+03  0.67690477017E+01  0.52519778536E+03  0.50400001928E-02 0.  1.
       -1    1    3    3    0  502  0.79443348849E+02  0.51911043916E+03  0.68018736451E+03  0.85932633184E+03  0.50400001928E-02 0. -1.
</event>
<event>
 5   0  0.1597352E-03  0.1198824E+04  0.7818609E-02  0.9113887E-01
        2   -1    0    0  501    0  0.00000000000E+00  0.00000000000E+00  0.88462008134E+03  0.88462008134E+03  0.25500000920E-02 0. -1.
       -2   -1    0    0    0  501  0.00000000000E+00  0.00000000000E+00 -0.40615692263E+03  0.40615692264E+03  0.25500000920E-02 0.  1.
    10030    2    1    2    0    0  0.00000000000E+00  0.00000000000E+00  0.47846315870E+03  0.12907770040E+04  0.11988237067E+04 0.  0.
        1    1    3    3  502    0 -0.24425648730E+03 -0.33394894716E+02  0.82750773477E+03  0.86344976791E+03  0.50400001928E-02 0. -1.
       -1    1    3    3    0  502  0.24425648730E+03  0.33394894716E+02 -0.34904457607E+03  0.42732723607E+03  0.50400001928E-02 0.  1.
</event>
<event>
 5   0  0.9358428E-04  0.1226641E+04  0.7818609E-02  0.9089852E-01
        1   -1    0    0  501    0  0.00000000000E+00  0.00000000000E+00  0.15359870532E+04  0.15359870532E+04  0.50400001928E-02 0. -1.
       -1   -1    0    0    0  501  0.00000000000E+00  0.00000000000E+00 -0.24489920867E+03  0.24489920872E+03  0.50400001928E-02 0.  1.
    10030    2    1    2    0    0  0.00000000000E+00  0.00000000000E+00  0.12910878446E+04  0.17808862620E+04  0.12266409644E+04 0.  0.
        2    1    3    3  502    0  0.38792503431E+02  0.57712679593E+03  0.94159759351E+03  0.11050729501E+04  0.25500000920E-02 0. -1.
       -2    1    3    3    0  502 -0.38792503431E+02 -0.57712679593E+03  0.34949025105E+03  0.67581331186E+03  0.25500000920E-02 0.  1.
</event>
<event>
 5   0  0.1567019E-03  0.1195601E+04  0.7818609E-02  0.9116716E-01
        2   -1    0    0  501    0  0.00000000000E+00  0.00000000000E+00  0.73357085003E+03  0.73357085003E+03  0.25500000920E-02 0. -1.
       -2   -1    0    0    0  501  0.00000000000E+00  0.00000000000E+00 -0.48715866480E+03  0.48715866481E+03  0.25500000920E-02 0.  1.
    10030    2    1    2    0    0  0.00000000000E+00  0.00000000000E+00  0.24641218523E+03  0.12207295148E+04  0.11956009298E+04 0.  0.
        5    1    3    3  502    0 -0.27147078593E+03 -0.20176590276E+03  0.62645220102E+03  0.71194825464E+03  0.46999998093E+01 0. -1.
       -5    1    3    3    0  502  0.27147078593E+03  0.20176590276E+03 -0.38004001579E+03  0.50878126020E+03  0.46999998093E+01 0.  1.
</event>
<event>
 5   0  0.9358428E-04  0.1198395E+04  0.7818609E-02  0.9114263E-01
       -1   -1    0    0    0  501  0.00000000000E+00  0.00000000000E+00  0.31318076179E+03  0.31318076183E+03  0.50400001928E-02 0. -1.
        1   -1    0    0  501    0  0.00000000000E+00  0.00000000000E+00 -0.11464226284E+04  0.11464226284E+04  0.50400001928E-02 0.  1.
    10030    2    1    2    0    0  0.00000000000E+00  0.00000000000E+00 -0.83324186657E+03  0.14596033902E+04  0.11983947799E+04 0.  0.
        2    1    3    3  502    0  0.84669489277E+02 -0.24865599573E+03 -0.10725592391E+04  0.11042563325E+04  0.25500000920E-02 0.  1.
       -2    1    3    3    0  502 -0.84669489277E+02  0.24865599573E+03  0.23931737248E+03  0.35534705768E+03  0.25500000920E-02 0. -1.
</event>
<event>
 5   0  0.9169078E-04  0.1204964E+04  0.7818609E-02  0.9108523E-01
       -1   -1    0    0    0  501  0.00000000000E+00  0.00000000000E+00  0.28286019988E+03  0.28286019992E+03  0.50400001928E-02 0. -1.
        1   -1    0    0  501    0  0.00000000000E+00  0.00000000000E+00 -0.12832638284E+04  0.12832638284E+04  0.50400001928E-02 0.  1.
    10030    2    1    2    0    0  0.00000000000E+00  0.00000000000E+00 -0.10004036286E+04  0.15661240284E+04  0.12049635066E+04 0.  0.
        1    1    3    3  502    0 -0.52056009401E+03 -0.20986305568E+03 -0.78483601949E+03  0.96487972884E+03  0.50400001928E-02 0.  1.
       -1    1    3    3    0  502  0.52056009401E+03  0.20986305568E+03 -0.21556760907E+03  0.60124429953E+03  0.50400001928E-02 0. -1.
</event>
<event>
 5   0  0.9170776E-04  0.1191708E+04  0.7818609E-02  0.9120145E-01
        1   -1    0    0  501    0  0.00000000000E+00  0.00000000000E+00  0.90127428832E+03  0.90127428833E+03  0.50400001928E-02 0.  1.
       -1   -1    0    0    0  501  0.00000000000E+00  0.00000000000E+00 -0.39393362725E+03  0.39393362728E+03  0.50400001928E-02 0. -1.
    10030    2    1    2    0    0  0.00000000000E+00  0.00000000000E+00  0.50734066107E+03  0.12952079156E+04  0.11917084368E+04 0.  0.
        5    1    3    3  502    0  0.36895476640E+02 -0.14167711618E+03 -0.37406084092E+03  0.40171791615E+03  0.46999998093E+01 0. -1.
       -5    1    3    3    0  502 -0.36895476640E+02  0.14167711618E+03  0.88140150199E+03  0.89348999947E+03  0.46999998093E+01 0.  1.
</event>
<event>
 5   0  0.1597352E-03  0.1212267E+04  0.7818609E-02  0.9102186E-01
        2   -1    0    0  501    0  0.00000000000E+00  0.00000000000E+00  0.59622945898E+03  0.59622945899E+03  0.25500000920E-02 0.  1.
       -2   -1    0    0    0  501  0.00000000000E+00  0.00000000000E+00 -0.61620208515E+03  0.61620208516E+03  0.25500000920E-02 0. -1.
    10030    2    1    2    0    0  0.00000000000E+00  0.00000000000E+00 -0.19972626171E+02  0.12124315441E+04  0.12122670265E+04 0.  0.
        1    1    3    3  502    0 -0.44818923448E+03 -0.16782445613E+02  0.39779760069E+03  0.59949826649E+03  0.50400001928E-02 0.  1.
       -1    1    3    3    0  502  0.44818923448E+03  0.16782445613E+02 -0.41777022686E+03  0.61293327766E+03  0.50400001928E-02 0. -1.
</event>
<event>
 5   0  0.9208078E-04  0.1198401E+04  0.7818609E-02  0.9114257E-01
        1   -1    0    0  501    0  0.00000000000E+00  0.00000000000E+00  0.63412272487E+03  0.63412272489E+03  0.50400001928E-02 0.  1.
       -1   -1    0    0    0  501  0.00000000000E+00  0.00000000000E+00 -0.56620175050E+03  0.56620175053E+03  0.50400001928E-02 0. -1.
    10030    2    1    2    0    0  0.00000000000E+00  0.00000000000E+00  0.67920974362E+02  0.12003244754E+04  0.11984012631E+04 0.  0.
        3    1    3    3  502    0 -0.23498299308E+03  0.18343994739E+03  0.55457744833E+03  0.62962161473E+03  0.10100000352E+00 0.  1.
       -3    1    3    3    0  502  0.23498299308E+03 -0.18343994739E+03 -0.48665647397E+03  0.57070286068E+03  0.10100000352E+00 0. -1.
</event>
<event>
 5   0  0.1537557E-03  0.1189724E+04  0.7818609E-02  0.9121899E-01
       -2   -1    0    0    0  501  0.00000000000E+00  0.00000000000E+00  0.11705390126E+04  0.11705390126E+04  0.25500000920E-02 0. -1.
        2   -1    0    0  501    0  0.00000000000E+00  0.00000000000E+00 -0.30230603879E+03  0.30230603880E+03  0.25500000920E-02 0.  1.
    10030    2    1    2    0    0  0.00000000000E+00  0.00000000000E+00  0.86823297381E+03  0.14728450514E+04  0.11897243583E+04 0.  0.
        2    1    3    3  502    0 -0.42129659164E+03 -0.19491231122E+03 -0.26401295363E+02  0.46495016464E+03  0.25500000920E-02 0.  1.
       -2    1    3    3    0  502  0.42129659164E+03  0.19491231122E+03  0.89463426917E+03  0.10078948868E+04  0.25500000920E-02 0. -1.
</event>
<event>
 5   0  0.8908478E-04  0.1182008E+04  0.7818609E-02  0.9128753E-01
       -1   -1    0    0    0  501  0.00000000000E+00  0.00000000000E+00  0.22504510943E+03  0.22504510949E+03  0.50400001928E-02 0.  1.
        1   -1    0    0  501    0  0.00000000000E+00  0.00000000000E+00 -0.15520688716E+04  0.15520688716E+04  0.50400001928E-02 0. -1.
    10030    2    1    2    0    0  0.00000000000E+00  0.00000000000E+00 -0.13270237622E+04  0.17771139811E+04  0.11820076296E+04 0.  0.
        4    1    3    3  502    0 -0.45984903585E+03  0.19662068368E+03 -0.11369573663E+04  0.12420927883E+04  0.12699999809E+01 0. -1.
       -4    1    3    3    0  502  0.45984903585E+03 -0.19662068368E+03 -0.19006639589E+03  0.53502119283E+03  0.12699999809E+01 0.  1.
</event>
<event>
 5   0  0.9170776E-04  0.1205106E+04  0.7818609E-02  0.9108399E-01
       -1   -1    0    0    0  501  0.00000000000E+00  0.00000000000E+00  0.29762499814E+03  0.29762499818E+03  0.50400001928E-02 0.  1.
        1   -1    0    0  501    0  0.00000000000E+00  0.00000000000E+00 -0.12198911329E+04  0.12198911329E+04  0.50400001928E-02 0. -1.
    10030    2    1    2    0    0  0.00000000000E+00  0.00000000000E+00 -0.92226613472E+03  0.15175161310E+04  0.12051059641E+04 0.  0.
        5    1    3    3  502    0 -0.45764395750E+03 -0.92462559521E+01  0.32264445720E+02  0.45889712305E+03  0.46999998093E+01 0.  1.
       -5    1    3    3    0  502  0.45764395750E+03  0.92462559521E+01 -0.95453058044E+03  0.10586190080E+04  0.46999998093E+01 0. -1.
</event>
<event>
 5   0  0.1567019E-03  0.1203685E+04  0.7818609E-02  0.9109637E-01
        2   -1    0    0  501    0  0.00000000000E+00  0.00000000000E+00  0.21296011630E+04  0.21296011630E+04  0.25500000920E-02 0. -1.
       -2   -1    0    0    0  501  0.00000000000E+00  0.00000000000E+00 -0.17008560526E+03  0.17008560527E+03  0.25500000920E-02 0.  1.
    10030    2    1    2    0    0  0.00000000000E+00  0.00000000000E+00  0.19595155577E+04  0.22996867682E+04  0.12036851794E+04 0.  0.
        5    1    3    3  502    0 -0.13104001916E+03 -0.12935136332E+02 -0.14219133659E+03  0.19385373500E+03  0.46999998093E+01 0.  1.
       -5    1    3    3    0  502  0.13104001916E+03  0.12935136332E+02  0.21017068943E+04  0.21058330333E+04  0.46999998093E+01 0. -1.
</event>
<event>
 5   0  0.9170776E-04  0.1199779E+04  0.7818609E-02  0.9113050E-01
        1   -1    0    0  501    0  0.00000000000E+00  0.00000000000E+00  0.47081361620E+03  0.47081361622E+03  0.50400001928E-02 0.  1.
       -1   -1    0    0    0  501  0.00000000000E+00  0.00000000000E+00 -0.76435172920E+03  0.76435172922E+03  0.50400001928E-02 0. -1.
    10030    2    1    2    0    0  0.00000000000E+00  0.00000000000E+00 -0.29353811301E+03  0.12351653454E+04  0.11997786491E+04 0.  0.
        5    1    3    3  502    0  0.30229961548E+03 -0.50323589963E+03 -0.27375076261E+03  0.64775998504E+03  0.46999998093E+01 0.  1.
       -5    1    3    3    0  502 -0.30229961548E+03  0.50323589963E+03 -0.19787350400E+02  0.58740536040E+03  0.46999998093E+01 0. -1.
</event>
<event>
 5   0  0.6137750E-04  0.1200458E+04  0.7818609E-02  0.9112455E-01
        4   -1    0    0  501    0  0.00000000000E+00  0.00000000000E+00  0.39700816445E+03  0.39701019576E+03  0.12699999809E+01 0.  1.
       -4   -1    0    0    0  501  0.00000000000E+00  0.00000000000E+00 -0.90747061515E+03  0.90747150383E+03  0.12699999809E+01 0. -1.
    10030    2    1    2    0    0  0.00000000000E+00  0.00000000000E+00 -0.51046245071E+03  0.13044816996E+04  0.12004584920E+04 0.  0.
        5    1    3    3  502    0  0.27813399428E+02  0.26985064436E+03  0.32656978143E+03  0.42457374811E+03  0.46999998093E+01 0.  1.
       -5    1    3    3    0  502 -0.27813399428E+02 -0.26985064436E+03 -0.83703223213E+03  0.87990795148E+03  0.46999998093E+01 0. -1.
</event>
<event>
 5   0  0.1597352E-03  0.1204703E+04  0.7818609E-02  0.9108750E-01
        2   -1    0    0  501    0  0.00000000000E+00  0.00000000000E+00  0.19077229553E+04  0.19077229553E+04  0.25500000920E-02 0.  1.
       -2   -1    0    0    0  501  0.00000000000E+00  0.00000000000E+00 -0.19018876670E+03  0.19018876671E+03  0.25500000920E-02 0. -1.
    10030    2    1    2    0    0  0.00000000000E+00  0.00000000000E+00  0.17175341886E+04  0.20979117220E+04  0.12047032433E+04 0.  0.
        1    1    3    3  502    0  0.49234503511E+03 -0.27987599026E+01  0.14630624344E+04  0.15436849270E+04  0.50400001928E-02 0.  1.
       -1    1    3    3    0  502 -0.49234503511E+03  0.27987599026E+01  0.25447175417E+03  0.55422679505E+03  0.50400001928E-02 0. -1.
</event>
<event>
 5   0  0.8908478E-04  0.1197221E+04  0.7818609E-02  0.9115292E-01
        1   -1    0    0  501    0  0.00000000000E+00  0.00000000000E+00  0.69707389179E+03  0.69707389181E+03  0.50400001928E-02 0. -1.
       -1   -1    0    0    0  501  0.00000000000E+00  0.00000000000E+00 -0.51405549336E+03  0.51405549339E+03  0.50400001928E-02 0.  1.
    10030    2    1    2    0    0  0.00000000000E+00  0.00000000000E+00  0.18301839842E+03  0.12111293852E+04  0.11972212216E+04 0.  0.
        4    1    3    3  502    0  0.32056538937E+03  0.47125302075E+03 -0.93623551194E+02  0.57758857387E+03  0.12699999809E+01 0.  1.
       -4    1    3    3    0  502 -0.32056538937E+03 -0.47125302075E+03  0.27664194962E+03  0.63354081132E+03  0.12699999809E+01 0. -1.
</event>
<event>
 5   0  0.1597352E-03  0.1200896E+04  0.7818609E-02  0.9112073E-01
        2   -1    0    0  501    0  0.00000000000E+00  0.00000000000E+00  0.67597753873E+03  0.67597753874E+03  0.25500000920E-02 0. -1.
       -2   -1    0    0    0  501  0.00000000000E+00  0.00000000000E+00 -0.53335731605E+03  0.53335731605E+03  0.25500000920E-02 0.  1.
    10030    2    1    2    0    0  0.00000000000E+00  0.00000000000E+00  0.14262022268E+03  0.12093348548E+04  0.12008956087E+04 0.  0.
        1    1    3    3  502    0  0.18622762609E+03  0.13804572263E+03 -0.48647785865E+03  0.53888594084E+03  0.50400001928E-02 0.  1.
       -1    1    3    3    0  502 -0.18622762609E+03 -0.13804572263E+03  0.62909808133E+03  0.67044891395E+03  0.50400001928E-02 0. -1.
</event>
<event>
 5   0  0.1597352E-03  0.1224870E+04  0.7818609E-02  0.9091362E-01
       -2   -1    0    0    0  501  0.00000000000E+00  0.00000000000E+00  0.34746032827E+03  0.34746032828E+03  0.25500000920E-02 0.  1.
        2   -1    0    0  501    0  0.00000000000E+00  0.00000000000E+00 -0.10794798123E+04  0.10794798123E+04  0.25500000920E-02 0. -1.
    10030    2    1    2    0    0  0.00000000000E+00  0.00000000000E+00 -0.73201948404E+03  0.14269401406E+04  0.12248696420E+04 0.  0.
        1    1    3    3  502    0 -0.29084227579E+03 -0.48114064078E+03 -0.83060676522E+02  0.56831735994E+03  0.50400001928E-02 0.  1.
       -1    1    3    3    0  502  0.29084227579E+03  0.48114064078E+03 -0.64895880751E+03  0.85862278066E+03  0.50400001928E-02 0. -1.
</event>
<event>
 5   0  0.8908478E-04  0.1222476E+04  0.7818609E-02  0.9093407E-01
       -1   -1    0    0    0  501  0.00000000000E+00  0.00000000000E+00  0.56998396625E+03  0.56998396627E+03  0.50400001928E-02 0.  1.
        1   -1    0    0  501    0  0.00000000000E+00  0.00000000000E+00 -0.65547832502E+03  0.65547832504E+03  0.50400001928E-02 0. -1.
    10030    2    1    2    0    0  0.00000000000E+00  0.00000000000E+00 -0.85494358771E+02  0.12254622913E+04  0.12224763973E+04 0.  0.
        4    1    3    3  502    0  0.12746772244E+03 -0.21063151566E+03 -0.60357489050E+03  0.65185728269E+03  0.12699999809E+01 0. -1.
       -4    1    3    3    0  502 -0.12746772244E+03  0.21063151566E+03  0.51808053173E+03  0.57360500862E+03  0.12699999809E+01 0.  1.
</event>
<event>
 5   0  0.9208078E-04  0.1176014E+04  0.7818609E-02  0.9134115E-01
       -1   -1    0    0    0  501  0.00000000000E+00  0.00000000000E+00  0.28163188748E+03  0.28163188752E+03  0.50400001928E-02 0.  1.
        1   -1    0    0  501    0  0.00000000000E+00  0.00000000000E+00 -0.12276739226E+04  0.12276739226E+04  0.50400001928E-02 0. -1.
    10030    2    1    2    0    0  0.00000000000E+00  0.00000000000E+00 -0.94604203510E+03  0.15093058101E+04  0.11760138164E+04 0.  0.
        3    1    3    3  502    0 -0.54477154453E+03  0.69752395899E+02 -0.20347265177E+03  0.58569835469E+03  0.10100000352E+00 0.  1.
       -3    1    3    3    0  502  0.54477154453E+03 -0.69752395899E+02 -0.74256938332E+03  0.92360745542E+03  0.10100000352E+00 0. -1.
</event>
<event>
 5   0  0.1551501E-03  0.1197805E+04  0.7818609E-02  0.9114780E-01
        2   -1    0    0  501    0  0.00000000000E+00  0.00000000000E+00  0.50098203546E+03  0.50098203547E+03  0.25500000920E-02 0.  1.
       -2   -1    0    0    0  501  0.00000000000E+00  0.00000000000E+00 -0.71596227686E+03  0.71596227687E+03  0.25500000920E-02 0. -1.
    10030    2    1    2    0    0  0.00000000000E+00  0.00000000000E+00 -0.21498024140E+03  0.12169443123E+04  0.11978050572E+04 0.  0.
        4    1    3    3  502    0 -0.38268849412E+03  0.34836817342E+03 -0.41375629112E+03  0.66257584405E+03  0.12699999809E+01 0. -1.
       -4    1    3    3    0  502  0.38268849412E+03 -0.34836817342E+03  0.19877604972E+03  0.55436846828E+03  0.12699999809E+01 0.  1.
</event>
<event>
 5   0  0.8908478E-04  0.1207909E+04  0.7818609E-02  0.9105962E-01
        1   -1    0    0  501    0  0.00000000000E+00  0.00000000000E+00  0.14874429168E+04  0.14874429168E+04  0.50400001928E-02 0. -1.
       -1   -1    0    0    0  501  0.00000000000E+00  0.00000000000E+00 -0.24522706205E+03  0.24522706210E+03  0.50400001928E-02 0.  1.
    10030    2    1    2    0    0  0.00000000000E+00  0.00000000000E+00  0.12422158547E+04  0.17326699789E+04  0.12079093617E+04 0.  0.
        4    1    3    3  502    0  0.21017828907E+03 -0.55488077879E+03  0.45950567100E+03  0.75047629306E+03  0.12699999809E+01 0.  1.
       -4    1    3    3    0  502 -0.21017828907E+03  0.55488077879E+03  0.78271018374E+03  0.98219368583E+03  0.12699999809E+01 0. -1.
</event>
<event>
 5   0  0.9169078E-04  0.1196802E+04  0.7818609E-02  0.9115661E-01
       -1   -1    0    0    0  501  0.00000000000E+00  0.00000000000E+00  0.36697449417E+03  0.36697449421E+03  0.50400001928E-02 0.  1.
        1   -1    0    0  501    0  0.00000000000E+00  0.00000000000E+00 -0.97577234524E+03  0.97577234525E+03  0.50400001928E-02 0. -1.
    10030    2    1    2    0    0  0.00000000000E+00  0.00000000000E+00 -0.60879785106E+03  0.13427468395E+04  0.11968016759E+04 0.  0.
        1    1    3    3  502    0 -0.15355866012E+02  0.59644950910E+03 -0.25303703587E+03  0.64808607536E+03  0.50400001928E-02 0.  1.
       -1    1    3    3    0  502  0.15355866012E+02 -0.59644950910E+03 -0.35576081519E+03  0.69466076410E+03  0.50400001928E-02 0. -1.
</event>
<event>
 5   0  0.9170776E-04  0.1195705E+04  0.7818609E-02  0.9116624E-01
        1   -1    0    0  501    0  0.00000000000E+00  0.00000000000E+00  0.35911834928E+03  0.35911834932E+03  0.50400001928E-02 0.  1.
       -1   -1    0    0    0  501  0.00000000000E+00  0.00000000000E+00 -0.99529213432E+03  0.99529213433E+03  0.50400001928E-02 0. -1.
    10030    2    1    2    0    0  0.00000000000E+00  0.00000000000E+00 -0.63617378503E+03  0.13544104836E+04  0.11957050947E+04 0.  0.
        5    1    3    3  502    0 -0.25214608073E+03  0.43853866854E+03  0.42811064895E+02  0.50768955781E+03  0.46999998093E+01 0.  1.
       -5    1    3    3    0  502  0.25214608073E+03 -0.43853866854E+03 -0.67898484993E+03  0.84672092584E+03  0.46999998093E+01 0. -1.
</event>
<event>
 5   0  0.1551501E-03  0.1200357E+04  0.7818609E-02  0.9112544E-01
       -2   -1    0    0    0  501  0.00000000000E+00  0.00000000000E+00  0.65413499152E+03  0.65413499152E+03  0.25500000920E-02 0.  1.
        2   -1    0    0  501    0  0.00000000000E+00  0.00000000000E+00 -0.55067270609E+03  0.55067270610E+03  0.25500000920E-02 0. -1.
    10030    2    1    2    0    0  0.00000000000E+00  0.00000000000E+00  0.10346228543E+03  0.12048076976E+04  0.12003570901E+04 0.  0.
        4    1    3    3  502    0  0.46509119981E+03 -0.31860287951E+03 -0.15493287503E+03  0.58465667502E+03  0.12699999809E+01 0. -1.
       -4    1    3    3    0  502 -0.46509119981E+03  0.31860287951E+03  0.25839516046E+03  0.62015102260E+03  0.12699999809E+01 0.  1.
</event>
<event>
 5   0  0.1537557E-03  0.1201414E+04  0.7818609E-02  0.9111620E-01
        2   -1    0    0  501    0  0.00000000000E+00  0.00000000000E+00  0.12524827990E+04  0.12524827990E+04  0.25500000920E-02 0.  1.
       -2   -1    0    0    0  501  0.00000000000E+00  0.00000000000E+00 -0.28810668163E+03  0.28810668165E+03  0.25500000920E-02 0. -1.
    10030    2    1    2    0    0  0.00000000000E+00  0.00000000000E+00  0.96437611733E+03  0.15405894806E+04  0.12014136058E+04 0.  0.
        2    1    3    3  502    0 -0.36507313242E+03 -0.42078516290E+03  0.19399496279E+03  0.58989201632E+03  0.25500000920E-02 0.  1.
       -2    1    3    3    0  502  0.36507313242E+03  0.42078516290E+03  0.77038115455E+03  0.95069746430E+03  0.25500000920E-02 0. -1.
</event>
<event>
 5   0  0.9170776E-04  0.1208498E+04  0.7818609E-02  0.9105451E-01
       -1   -1    0    0    0  501  0.00000000000E+00  0.00000000000E+00  0.41155426002E+03  0.41155426006E+03  0.50400001928E-02 0. -1.
        1   -1    0    0  501    0  0.00000000000E+00  0.00000000000E+00 -0.88716560398E+03  0.88716560399E+03  0.50400001928E-02 0.  1.
    10030    2    1    2    0    0  0.00000000000E+00  0.00000000000E+00 -0.47561134395E+03  0.12987198640E+04  0.12084978836E+04 0.  0.
        5    1    3    3  502    0  0.88644851064E+01  0.56113746071E+03 -0.47844438652E+03  0.73748555911E+03  0.46999998093E+01 0. -1.
       -5    1    3    3    0  502 -0.88644851064E+01 -0.56113746071E+03  0.28330425645E+01  0.56123430494E+03  0.46999998093E+01 0.  1.
</event>
<event>
 5   0  0.9169078E-04  0.1201629E+04  0.7818609E-02  0.9111432E-01
       -1   -1    0    0    0  501  0.00000000000E+00  0.00000000000E+00  0.23814209947E+03  0.23814209952E+03  0.50400001928E-02 0. -1.
        1   -1    0    0  501    0  0.00000000000E+00  0.00000000000E+00 -0.15158100918E+04  0.15158100918E+04  0.50400001928E-02 0.  1.
    10030    2    1    2    0    0  0.00000000000E+00  0.00000000000E+00 -0.12776679923E+04  0.17539521913E+04  0.12016292235E+04 0.  0.
        1    1    3    3  502    0 -0.37076140477E+03  0.32536283401E+03 -0.11395012071E+04  0.12416875589E+04  0.50400001928E-02 0. -1.
       -1    1    3    3    0  502  0.37076140477E+03 -0.32536283401E+03 -0.13816678522E+03  0.51226463237E+03  0.50400001928E-02 0.  1.
</event>
<event>
 5   0  0.1647550E-03  0.1197720E+04  0.7818609E-02  0.9114855E-01
       -2   -1    0    0    0  501  0.00000000000E+00  0.00000000000E+00  0.32183212194E+03  0.32183212195E+03  0.25500000920E-02 0. -1.
        2   -1    0    0  501    0  0.00000000000E+00  0.00000000000E+00 -0.11143481632E+04  0.11143481632E+04  0.25500000920E-02 0.  1.
    10030    2    1    2    0    0  0.00000000000E+00  0.00000000000E+00 -0.79251604122E+03  0.14361802851E+04  0.11977195564E+04 0.  0.
        3    1    3    3  502    0  0.34708069060E+03 -0.18501634475E+03  0.14524614434E+03  0.41927616944E+03  0.10100000352E+00 0. -1.
       -3    1    3    3    0  502 -0.34708069060E+03  0.18501634475E+03 -0.93776218557E+03  0.10169041157E+04  0.10100000352E+00 0.  1.
</event>
<event>
 5   0  0.1551501E-03  0.1090627E+04  0.7818609E-02  0.9214376E-01
        2   -1    0    0  501    0  0.00000000000E+00  0.00000000000E+00  0.19019851449E+04  0.19019851449E+04  0.25500000920E-02 0. -1.
       -2   -1    0    0    0  501  0.00000000000E+00  0.00000000000E+00 -0.15634547278E+03  0.15634547280E+03  0.25500000920E-02 0.  1.
    10030    2    1    2    0    0  0.00000000000E+00  0.00000000000E+00  0.17456396721E+04  0.20583306177E+04  0.10906269146E+04 0.  0.
        4    1    3    3  502    0  0.75976105282E+02 -0.47491459239E+03  0.38778629984E+03  0.61781555976E+03  0.12699999809E+01 0.  1.
       -4    1    3    3    0  502 -0.75976105282E+02  0.47491459239E+03  0.13578533723E+04  0.14405150579E+04  0.12699999809E+01 0. -1.
</event>
<event>
 5   0  0.1551501E-03  0.1199458E+04  0.7818609E-02  0.9113331E-01
        2   -1    0    0  501    0  0.00000000000E+00  0.00000000000E+00  0.14827773013E+04  0.14827773013E+04  0.25500000920E-02 0. -1.
       -2   -1    0    0    0  501  0.00000000000E+00  0.00000000000E+00 -0.24256848561E+03  0.24256848562E+03  0.25500000920E-02 0.  1.
    10030    2    1    2    0    0  0.00000000000E+00  0.00000000000E+00  0.12402088156E+04  0.17253457869E+04  0.11994582852E+04 0.  0.
        4    1    3    3  502    0 -0.19323317812E+03 -0.54342179199E+03  0.38362630324E+03  0.69268828384E+03  0.12699999809E+01 0.  1.
       -4    1    3    3    0  502  0.19323317812E+03  0.54342179199E+03  0.85658251241E+03  0.10326575030E+04  0.12699999809E+01 0. -1.
</event>
<event>
 5   0  0.9208078E-04  0.1195535E+04  0.7818609E-02  0.9116774E-01
       -1   -1    0    0    0  501  0.00000000000E+00  0.00000000000E+00  0.24305256311E+03  0.24305256317E+03  0.50400001928E-02 0.  1.
        1   -1    0    0  501    0  0.00000000000E+00  0.00000000000E+00 -0.14701597963E+04  0.14701597964E+04  0.50400001928E-02 0. -1.
    10030    2    1    2    0    0  0.00000000000E+00  0.00000000000E+00 -0.12271072332E+04  0.17132123595E+04  0.11955352052E+04 0.  0.
        3    1    3    3  502    0 -0.13914921778E+03 -0.37847949812E+03 -0.12458935506E+04  0.13095266263E+04  0.10100000352E+00 0. -1.
       -3    1    3    3    0  502  0.13914921778E+03  0.37847949812E+03  0.18786317354E+02  0.40368573325E+03  0.10100000352E+00 0.  1.
</event>
<event>
 5   0  0.9208078E-04  0.1201860E+04  0.7818609E-02  0.9111230E-01
        1   -1    0    0  501    0  0.00000000000E+00  0.00000000000E+00  0.11983323358E+04  0.11983323358E+04  0.50400001928E-02 0. -1.
       -1   -1    0    0    0  501  0.00000000000E+00  0.00000000000E+00 -0.30134971976E+03  0.30134971981E+03  0.50400001928E-02 0.  1.
    10030    2    1    2    0    0  0.00000000000E+00  0.00000000000E+00  0.89698261600E+03  0.14996820556E+04  0.12018604139E+04 0.  0.
        3    1    3    3  502    0  0.44197492021E+03 -0.28499846407E+03  0.81132275469E+03  0.96685602708E+03  0.10100000352E+00 0.  1.
       -3    1    3    3    0  502 -0.44197492021E+03  0.28499846407E+03  0.85659861310E+02  0.53282602851E+03  0.10100000352E+00 0. -1.
</event>
<event>
 5   0  0.9169078E-04  0.1198787E+04  0.7818609E-02  0.9113919E-01
        1   -1    0    0  501    0  0.00000000000E+00  0.00000000000E+00  0.11779842256E+04  0.11779842256E+04  0.50400001928E-02 0.  1.
       -1   -1    0    0    0  501  0.00000000000E+00  0.00000000000E+00 -0.30498944927E+03  0.30498944931E+03  0.50400001928E-02 0. -1.
    10030    2    1    2    0    0  0.00000000000E+00  0.00000000000E+00  0.87299477635E+03  0.14829736750E+04  0.11987873210E+04 0.  0.
        1    1    3    3  502    0  0.30282940681E+03 -0.24360931148E+03 -0.12798995013E+03  0.40918525588E+03  0.50400001928E-02 0. -1.
       -1    1    3    3    0  502 -0.30282940681E+03  0.24360931148E+03  0.10009847265E+04  0.10737884191E+04  0.50400001928E-02 0.  1.
</event>
<event>
 5   0  0.6137750E-04  0.1200694E+04  0.7818609E-02  0.9112249E-01
       -4   -1    0    0    0  501  0.00000000000E+00  0.00000000000E+00  0.26939595565E+03  0.26939894918E+03  0.12699999809E+01 0. -1.
        4   -1    0    0  501    0  0.00000000000E+00  0.00000000000E+00 -0.13378590857E+04  0.13378596885E+04  0.12699999809E+01 0.  1.
    10030    2    1    2    0    0  0.00000000000E+00  0.00000000000E+00 -0.10684631300E+04  0.16072586377E+04  0.12006943275E+04 0.  0.
        3    1    3    3  502    0 -0.64565948035E+02 -0.26128689708E+03  0.18411213692E+03  0.32609338140E+03  0.10100000352E+00 0. -1.
       -3    1    3    3    0  502  0.64565948035E+02  0.26128689708E+03 -0.12525752670E+04  0.12811652563E+04  0.10100000352E+00 0.  1.
</event>
<event>
 5   0  0.1647550E-03  0.1198834E+04  0.7818609E-02  0.9113878E-01
        2   -1    0    0  501    0  0.00000000000E+00  0.00000000000E+00  0.12390945697E+04  0.12390945697E+04  0.25500000920E-02 0.  1.
       -2   -1    0    0    0  501  0.00000000000E+00  0.00000000000E+00 -0.28997034863E+03  0.28997034864E+03  0.25500000920E-02 0. -1.
    10030    2    1    2    0    0  0.00000000000E+00  0.00000000000E+00  0.94912422104E+03  0.15290649183E+04  0.11988339074E+04 0.  0.
        3    1    3    3  502    0  0.49432673650E+03 -0.26986377188E+03  0.73631219892E+03  0.92700649527E+03  0.10100000352E+00 0.  1.
       -3    1    3    3    0  502 -0.49432673650E+03  0.26986377188E+03  0.21281202212E+03  0.60205842304E+03  0.10100000352E+00 0. -1.
</event>
<event>
 5   0  0.1647550E-03  0.1209004E+04  0.7818609E-02  0.9105011E-01
        2   -1    0    0  501    0  0.00000000000E+00  0.00000000000E+00  0.12011573088E+04  0.12011573088E+04  0.25500000920E-02 0.  1.
       -2   -1    0    0    0  501  0.00000000000E+00  0.00000000000E+00 -0.30422569273E+03  0.30422569274E+03  0.25500000920E-02 0. -1.
    10030    2    1    2    0    0  0.00000000000E+00  0.00000000000E+00  0.89693161605E+03  0.15053830015E+04  0.12090044075E+04 0.  0.
        3    1    3    3  502    0 -0.50939167136E+03  0.31963836881E+03  0.52496199294E+03  0.79826916883E+03  0.10100000352E+00 0.  1.
       -3    1    3    3    0  502  0.50939167136E+03 -0.31963836881E+03  0.37196962311E+03  0.70711383270E+03  0.10100000352E+00 0. -1.
</event>
<event>
 5   0  0.9208078E-04  0.1205279E+04  0.7818609E-02  0.9108249E-01
        1   -1    0    0  501    0  0.00000000000E+00  0.00000000000E+00  0.61002160622E+03  0.61002160624E+03  0.50400001928E-02 0.  1.
       -1   -1    0    0    0  501  0.00000000000E+00  0.00000000000E+00 -0.59534633530E+03  0.59534633532E+03  0.50400001928E-02 0. -1.
    10030    2    1    2    0    0  0.00000000000E+00  0.00000000000E+00  0.14675270918E+02  0.12053679416E+04  0.12052786030E+04 0.  0.
        3    1    3    3  502    0  0.18655957356E+03 -0.36804814085E+03  0.44658563851E+03  0.60803178469E+03  0.10100000352E+00 0.  1.
       -3    1    3    3    0  502 -0.18655957356E+03  0.36804814085E+03 -0.43191036759E+03  0.59733615687E+03  0.10100000352E+00 0. -1.
</event>
<event>
 5   0  0.1537557E-03  0.1189926E+04  0.7818609E-02  0.9121720E-01
        2   -1    0    0  501    0  0.00000000000E+00  0.00000000000E+00  0.25812864170E+04  0.25812864170E+04  0.25500000920E-02 0. -1.
       -2   -1    0    0    0  501  0.00000000000E+00  0.00000000000E+00 -0.13713355828E+03  0.13713355830E+03  0.25500000920E-02 0.  1.
    10030    2    1    2    0    0  0.00000000000E+00  0.00000000000E+00  0.24441528588E+04  0.27184199753E+04  0.11899260336E+04 0.  0.
        2    1    3    3  502    0 -0.22915280532E+03  0.32420294826E+03  0.22344150073E+04  0.22694115943E+04  0.25500000920E-02 0. -1.
       -2    1    3    3    0  502  0.22915280532E+03 -0.32420294826E+03  0.20973785149E+03  0.44900838099E+03  0.25500000920E-02 0.  1.
</event>
<event>
 5   0  0.1597352E-03  0.1201874E+04  0.7818609E-02  0.9111218E-01
        2   -1    0    0  501    0  0.00000000000E+00  0.00000000000E+00  0.89751602581E+03  0.89751602582E+03  0.25500000920E-02 0. -1.
       -2   -1    0    0    0  501  0.00000000000E+00  0.00000000000E+00 -0.40236101427E+03  0.40236101428E+03  0.25500000920E-02 0.  1.
    10030    2    1    2    0    0  0.00000000000E+00  0.00000000000E+00  0.49515501154E+03  0.12998770401E+04  0.12018743004E+04 0.  0.
        1    1    3    3  502    0 -0.18833427747E+03  0.56424978736E+03  0.33984407064E+03  0.68508511513E+03  0.50400001928E-02 0. -1.
       -1    1    3    3    0  502  0.18833427747E+03 -0.56424978736E+03  0.15531094091E+03  0.61479192496E+03  0.50400001928E-02 0.  1.
</event>
<event>
 5   0  0.1551501E-03  0.1219715E+04  0.7818609E-02  0.9095773E-01
        2   -1    0    0  501    0  0.00000000000E+00  0.00000000000E+00  0.15721495016E+04  0.15721495016E+04  0.25500000920E-02 0.  1.
       -2   -1    0    0    0  501  0.00000000000E+00  0.00000000000E+00 -0.23657169416E+03  0.23657169418E+03  0.25500000920E-02 0. -1.
    10030    2    1    2    0    0  0.00000000000E+00  0.00000000000E+00  0.13355778074E+04  0.18087211957E+04  0.12197148373E+04 0.  0.
        4    1    3    3  502    0  0.13941918292E+03  0.51558784796E+03  0.11043172412E+04  0.12266974850E+04  0.12699999809E+01 0.  1.
       -4    1    3    3    0  502 -0.13941918292E+03 -0.51558784796E+03  0.23126056621E+03  0.58202371078E+03  0.12699999809E+01 0. -1.
</event>
<event>
 5   0  0.9170776E-04  0.1200090E+04  0.7818609E-02  0.9112778E-01
       -1   -1    0    0    0  501  0.00000000000E+00  0.00000000000E+00  0.42951627242E+03  0.42951627245E+03  0.50400001928E-02 0.  1.
        1   -1    0    0  501    0  0.00000000000E+00  0.00000000000E+00 -0.83827765640E+03  0.83827765642E+03  0.50400001928E-02 0. -1.
    10030    2    1    2    0    0  0.00000000000E+00  0.00000000000E+00 -0.40876138398E+03  0.12677939289E+04  0.12000898204E+04 0.  0.
        5    1    3    3  502    0 -0.48096959859E+03 -0.32224674642E+03 -0.37824798345E+02  0.58019610971E+03  0.46999998093E+01 0.  1.
       -5    1    3    3    0  502  0.48096959859E+03  0.32224674642E+03 -0.37093658564E+03  0.68759781916E+03  0.46999998093E+01 0. -1.
</event>
<event>
 5   0  0.1597352E-03  0.1214271E+04  0.7818609E-02  0.9100456E-01
       -2   -1    0    0    0  501  0.00000000000E+00  0.00000000000E+00  0.83660129862E+03  0.83660129863E+03  0.25500000920E-02 0. -1.
        2   -1    0    0  501    0  0.00000000000E+00  0.00000000000E+00 -0.44060815998E+03  0.44060815999E+03  0.25500000920E-02 0.  1.
    10030    2    1    2    0    0  0.00000000000E+00  0.00000000000E+00  0.39599313864E+03  0.12772094586E+04  0.12142707422E+04 0.  0.
        1    1    3    3  502    0 -0.22104811992E+03 -0.38054439707E+03 -0.24193739662E+03  0.50220515068E+03  0.50400001928E-02 0.  1.
       -1    1    3    3    0  502  0.22104811992E+03  0.38054439707E+03  0.63793053526E+03  0.77500430793E+03  0.50400001928E-02 0. -1.
</event>
<event>
 5   0  0.1647550E-03  0.1236062E+04  0.7818609E-02  0.9081864E-01
       -2   -1    0    0    0  501  0.00000000000E+00  0.00000000000E+00  0.22203073467E+03  0.22203073469E+03  0.25500000920E-02 0.  1.
        2   -1    0    0  501    0  0.00000000000E+00  0.00000000000E+00 -0.17203137939E+04  0.17203137939E+04  0.25500000920E-02 0. -1.
    10030    2    1    2    0    0  0.00000000000E+00  0.00000000000E+00 -0.14982830593E+04  0.19423445286E+04  0.12360623537E+04 0.  0.
        3    1    3    3  502    0  0.53676760889E+03  0.10552548222E+03 -0.12010579850E+04  0.13197709600E+04  0.10100000352E+00 0. -1.
       -3    1    3    3    0  502 -0.53676760889E+03 -0.10552548222E+03 -0.29722507425E+03  0.62257356860E+03  0.10100000352E+00 0.  1.
</event>
<event>
 5   0  0.8908478E-04  0.1203999E+04  0.7818609E-02  0.9109364E-01
       -1   -1    0    0    0  501  0.00000000000E+00  0.00000000000E+00  0.18739133023E+03  0.18739133030E+03  0.50400001928E-02 0. -1.
        1   -1    0    0  501    0  0.00000000000E+00  0.00000000000E+00 -0.19339378794E+04  0.19339378794E+04  0.50400001928E-02 0.  1.
    10030    2    1    2    0    0  0.00000000000E+00  0.00000000000E+00 -0.17465465491E+04  0.21213292097E+04  0.12039986576E+04 0.  0.
        4    1    3    3  502    0 -0.40083169465E+03  0.44826630645E+03 -0.82366231879E+03  0.10198185904E+04  0.12699999809E+01 0. -1.
       -4    1    3    3    0  502  0.40083169465E+03 -0.44826630645E+03 -0.92288423034E+03  0.11015106193E+04  0.12699999809E+01 0.  1.
</event>
<event>
 5   0  0.1567019E-03  0.1197683E+04  0.7818609E-02  0.9114887E-01
        2   -1    0    0  501    0  0.00000000000E+00  0.00000000000E+00  0.71280881564E+03  0.71280881565E+03  0.25500000920E-02 0. -1.
       -2   -1    0    0    0  501  0.00000000000E+00  0.00000000000E+00 -0.50309594733E+03  0.50309594734E+03  0.25500000920E-02 0.  1.
    10030    2    1    2    0    0  0.00000000000E+00  0.00000000000E+00  0.20971286831E+03  0.12159047630E+04  0.11976831407E+04 0.  0.
        5    1    3    3  502    0 -0.15166289458E+03  0.29967583840E+03  0.60816296684E+03  0.69476004918E+03  0.46999998093E+01 0. -1.
       -5    1    3    3    0  502  0.15166289458E+03 -0.29967583840E+03 -0.39845009853E+03  0.52114471380E+03  0.46999998093E+01 0.  1.
</event>
<event>
 5   0  0.1537557E-03  0.1180246E+04  0.7818609E-02  0.9130325E-01
        2   -1    0    0  501    0  0.00000000000E+00  0.00000000000E+00  0.56312966862E+03  0.56312966862E+03  0.25500000920E-02 0.  1.
       -2   -1    0    0    0  501  0.00000000000E+00  0.00000000000E+00 -0.61841057539E+03  0.61841057540E+03  0.25500000920E-02 0. -1.
    10030    2    1    2    0    0  0.00000000000E+00  0.00000000000E+00 -0.55280906776E+02  0.11815402440E+04  0.11802463173E+04 0.  0.
        2    1    3    3  502    0  0.52832066372E+02  0.50260455830E+03 -0.33267562405E+03  0.60504184988E+03  0.25500000920E-02 0. -1.
       -2    1    3    3    0  502 -0.52832066372E+02 -0.50260455830E+03  0.27739471728E+03  0.57649839414E+03  0.25500000920E-02 0.  1.
</event>
<event>
 5   0  0.1537557E-03  0.1184398E+04  0.7818609E-02  0.9126624E-01
       -2   -1    0    0    0  501  0.00000000000E+00  0.00000000000E+00  0.19182601438E+03  0.19182601440E+03  0.25500000920E-02 0.  1.
        2   -1    0    0  501    0  0.00000000000E+00  0.00000000000E+00 -0.18282162746E+04  0.18282162746E+04  0.25500000920E-02 0. -1.
    10030    2    1    2    0    0  0.00000000000E+00  0.00000000000E+00 -0.16363902602E+04  0.20200422890E+04  0.11843976383E+04 0.  0.
        2    1    3    3  502    0  0.28260927187E+03  0.38769644618E+03 -0.14102987644E+04  0.14896708160E+04  0.25500000920E-02 0. -1.
       -2    1    3    3    0  502 -0.28260927187E+03 -0.38769644618E+03 -0.22609149573E+03  0.53037147300E+03  0.25500000920E-02 0.  1.
</event>
<event>
 5   0  0.9208078E-04  0.1203059E+04  0.7818609E-02  0.9110183E-01
       -1   -1    0    0    0  501  0.00000000000E+00  0.00000000000E+00  0.19839279684E+03  0.19839279691E+03  0.50400001928E-02 0. -1.
        1   -1    0    0  501    0  0.00000000000E+00  0.00000000000E+00 -0.18238444858E+04  0.18238444858E+04  0.50400001928E-02 0.  1.
    10030    2    1    2    0    0  0.00000000000E+00  0.00000000000E+00 -0.16254516890E+04  0.20222372827E+04  0.12030587826E+04 0.  0.
        3    1    3    3  502    0  0.14853834662E+03 -0.11993558962E+02 -0.17923249041E+04  0.17985093989E+04  0.10100000352E+00 0.  1.
       -3    1    3    3    0  502 -0.14853834662E+03  0.11993558962E+02  0.16687321513E+03  0.22372788382E+03  0.10100000352E+00 0. -1.
</event>
<event>
 5   0  0.9358428E-04  0.1195706E+04  0.7818609E-02  0.9116623E-01
        1   -1    0    0  501    0  0.00000000000E+00  0.00000000000E+00  0.61646241205E+03  0.61646241207E+03  0.50400001928E-02 0. -1.
       -1   -1    0    0    0  501  0.00000000000E+00  0.00000000000E+00 -0.57980536260E+03  0.57980536262E+03  0.50400001928E-02 0.  1.
    10030    2    1    2    0    0  0.00000000000E+00  0.00000000000E+00  0.36657049456E+02  0.11962677747E+04  0.11957060046E+04 0.  0.
        2    1    3    3  502    0 -0.29148373303E+03  0.50576314456E+03 -0.11084095337E+03  0.59417576689E+03  0.25500000920E-02 0. -1.
       -2    1    3    3    0  502  0.29148373303E+03 -0.50576314456E+03  0.14749800282E+03  0.60209200780E+03  0.25500000920E-02 0.  1.
</event>
<event>
 5   0  0.1597352E-03  0.1199026E+04  0.7818609E-02  0.9113709E-01
        2   -1    0    0  501    0  0.00000000000E+00  0.00000000000E+00  0.13986370118E+04  0.13986370118E+04  0.25500000920E-02 0.  1.
       -2   -1    0    0    0  501  0.00000000000E+00  0.00000000000E+00 -0.25697595706E+03  0.25697595707E+03  0.25500000920E-02 0. -1.
    10030    2    1    2    0    0  0.00000000000E+00  0.00000000000E+00  0.11416610547E+04  0.16556129689E+04  0.11990264129E+04 0.  0.
        1    1    3    3  502    0  0.31472669482E+03  0.41927961449E+03  0.97237400736E+03  0.11046988267E+04  0.50400001928E-02 0.  1.
       -1    1    3    3    0  502 -0.31472669482E+03 -0.41927961449E+03  0.16928704736E+03  0.55091414212E+03  0.50400001928E-02 0. -1.
</event>
<event>
 5   0  0.6137750E-04  0.1199090E+04  0.7818609E-02  0.9113654E-01
       -4   -1    0    0    0  501  0.00000000000E+00  0.00000000000E+00  0.11442838593E+04  0.11442845640E+04  0.12699999809E+01 0. -1.
        4   -1    0    0  501    0  0.00000000000E+00  0.00000000000E+00 -0.31412795600E+03  0.31413052326E+03  0.12699999809E+01 0.  1.
    10030    2    1    2    0    0  0.00000000000E+00  0.00000000000E+00  0.83015590326E+03  0.14584150873E+04  0.11990895476E+04 0.  0.
        4    1    3    3  502    0  0.20376815470E+03 -0.39542203638E+03  0.90396997489E+03  0.10074936110E+04  0.12699999809E+01 0. -1.
       -4    1    3    3    0  502 -0.20376815470E+03  0.39542203638E+03 -0.73814071633E+02  0.45092147631E+03  0.12699999809E+01 0.  1.
</event>
<event>
 5   0  0.9170776E-04  0.1194752E+04  0.7818609E-02  0.9117463E-01
        1   -1    0    0  501    0  0.00000000000E+00  0.00000000000E+00  0.37906979086E+03  0.37906979089E+03  0.50400001928E-02 0. -1.
       -1   -1    0    0    0  501  0.00000000000E+00  0.00000000000E+00 -0.94140422378E+03  0.94140422380E+03  0.50400001928E-02 0.  1.
    10030    2    1    2    0    0  0.00000000000E+00  0.00000000000E+00 -0.56233443293E+03  0.13204740147E+04  0.11947516935E+04 0.  0.
        5    1    3    3  502    0  0.95228316918E+02  0.10381213641E+03 -0.92276223312E+03  0.93346538279E+03  0.46999998093E+01 0.  1.
       -5    1    3    3    0  502 -0.95228316918E+02 -0.10381213641E+03  0.36042780019E+03  0.38700863189E+03  0.46999998093E+01 0. -1.
</event>
<event>
 5   0  0.1567019E-03  0.1196790E+04  0.7818609E-02  0.9115671E-01
       -2   -1    0    0    0  501  0.00000000000E+00  0.00000000000E+00  0.13243160400E+04  0.13243160400E+04  0.25500000920E-02 0.  1.
        2   -1    0    0  501    0  0.00000000000E+00  0.00000000000E+00 -0.27038596306E+03  0.27038596307E+03  0.25500000920E-02 0. -1.
    10030    2    1    2    0    0  0.00000000000E+00  0.00000000000E+00  0.10539300769E+04  0.15947020030E+04  0.11967898193E+04 0.  0.
        5    1    3    3  502    0  0.19204928812E+03 -0.44233716173E+02  0.12798058972E+04  0.12948995232E+04  0.46999998093E+01 0.  1.
       -5    1    3    3    0  502 -0.19204928812E+03  0.44233716173E+02 -0.22587582030E+03  0.29980247982E+03  0.46999998093E+01 0. -1.
</event>
<event>
 5   0  0.6137750E-04  0.1210381E+04  0.7818609E-02  0.9103818E-01
       -4   -1    0    0    0  501  0.00000000000E+00  0.00000000000E+00  0.25741870979E+03  0.25742184260E+03  0.12699999809E+01 0.  1.
        4   -1    0    0  501    0  0.00000000000E+00  0.00000000000E+00 -0.14227896464E+04  0.14227902132E+04  0.12699999809E+01 0. -1.
    10030    2    1    2    0    0  0.00000000000E+00  0.00000000000E+00 -0.11653709366E+04  0.16802120558E+04  0.12103813996E+04 0.  0.
        3    1    3    3  502    0 -0.75215891218E+02  0.56589720762E+03 -0.30380994234E+03  0.64668197064E+03  0.10100000352E+00 0. -1.
       -3    1    3    3    0  502  0.75215891218E+02 -0.56589720762E+03 -0.86156099426E+03  0.10335300852E+04  0.10100000352E+00 0.  1.
</event>
<event>
 5   0  0.9208078E-04  0.1195061E+04  0.7818609E-02  0.9117191E-01
        1   -1    0    0  501    0  0.00000000000E+00  0.00000000000E+00  0.23370147825E+04  0.23370147825E+04  0.50400001928E-02 0. -1.
       -1   -1    0    0    0  501  0.00000000000E+00  0.00000000000E+00 -0.15277721574E+03  0.15277721582E+03  0.50400001928E-02 0.  1.
    10030    2    1    2    0    0  0.00000000000E+00  0.00000000000E+00  0.21842375668E+04  0.24897919983E+04  0.11950608549E+04 0.  0.
        3    1    3    3  502    0  0.33372151151E+03  0.35826526042E+03  0.18057213494E+04  0.18709232068E+04  0.10100000352E+00 0. -1.
       -3    1    3    3    0  502 -0.33372151151E+03 -0.35826526042E+03  0.37851621740E+03  0.61886879151E+03  0.10100000352E+00 0.  1.
</event>
<event>
 5   0  0.9208078E-04  0.1213662E+04  0.7818609E-02  0.9100982E-01
        1   -1    0    0  501    0  0.00000000000E+00  0.00000000000E+00  0.45295034110E+03  0.45295034112E+03  0.50400001928E-02 0.  1.
       -1   -1    0    0    0  501  0.00000000000E+00  0.00000000000E+00 -0.81298954680E+03  0.81298954682E+03  0.50400001928E-02 0. -1.
    10030    2    1    2    0    0  0.00000000000E+00  0.00000000000E+00 -0.36003920570E+03  0.12659398879E+04  0.12136620494E+04 0.  0.
        3    1    3    3  502    0 -0.13723442443E+03 -0.34262555338E+03  0.32241143000E+03  0.49007621599E+03  0.10100000352E+00 0.  1.
       -3    1    3    3    0  502  0.13723442443E+03  0.34262555338E+03 -0.68245063571E+03  0.77586367195E+03  0.10100000352E+00 0. -1.
</event>
<event>
 5   0  0.1537557E-03  0.1174411E+04  0.7818609E-02  0.9135554E-01
        2   -1    0    0  501    0  0.00000000000E+00  0.00000000000E+00  0.15638109277E+04  0.15638109277E+04  0.25500000920E-02 0. -1.
       -2   -1    0    0    0  501  0.00000000000E+00  0.00000000000E+00 -0.22049378104E+03  0.22049378105E+03  0.25500000920E-02 0.  1.
    10030    2    1    2    0    0  0.00000000000E+00  0.00000000000E+00  0.13433171466E+04  0.17843047087E+04  0.11744114854E+04 0.  0.
        2    1    3    3  502    0  0.32670102099E+03  0.46308135497E+02 -0.66318200500E+02  0.33656515603E+03  0.25500000920E-02 0.  1.
       -2    1    3    3    0  502 -0.32670102099E+03 -0.46308135497E+02  0.14096353471E+04  0.14477395527E+04  0.25500000920E-02 0. -1.
</event>
<event>
 5   0  0.1597352E-03  0.1199600E+04  0.7818609E-02  0.9113207E-01
       -2   -1    0    0    0  501  0.00000000000E+00  0.00000000000E+00  0.82784036902E+03  0.82784036903E+03  0.25500000920E-02 0.  1.
        2   -1    0    0  501    0  0.00000000000E+00  0.00000000000E+00 -0.43457649079E+03  0.43457649079E+03  0.25500000920E-02 0. -1.
    10030    2    1    2    0    0  0.00000000000E+00  0.00000000000E+00  0.39326387824E+03  0.12624168598E+04  0.11995998708E+04 0.  0.
        1    1    3    3  502    0 -0.70970651994E+02  0.10675484401E+03  0.81325542094E+03  0.82329691478E+03  0.50400001928E-02 0.  1.
       -1    1    3    3    0  502  0.70970651994E+02 -0.10675484401E+03 -0.41999154271E+03  0.43911994504E+03  0.50400001928E-02 0. -1.
</event>
<event>
 5   0  0.9169078E-04  0.1207901E+04  0.7818609E-02  0.9105968E-01
        1   -1    0    0  501    0  0.00000000000E+00  0.00000000000E+00  0.14089940016E+04  0.14089940016E+04  0.50400001928E-02 0.  1.
       -1   -1    0    0    0  501  0.00000000000E+00  0.00000000000E+00 -0.25887719615E+03  0.25887719620E+03  0.50400001928E-02 0. -1.
    10030    2    1    2    0    0  0.00000000000E+00  0.00000000000E+00  0.11501168054E+04  0.16678711978E+04  0.12079013479E+04 0.  0.
        1    1    3    3  502    0  0.66106016853E+02  0.39004885853E+03  0.12051762411E+04  0.12684470386E+04  0.50400001928E-02 0.  1.
       -1    1    3    3    0  502 -0.66106016853E+02 -0.39004885853E+03 -0.55059435665E+02  0.39942415924E+03  0.50400001928E-02 0. -1.
</event>
<event>
 5   0  0.1597352E-03  0.1198280E+04  0.7818609E-02  0.9114363E-01
       -2   -1    0    0    0  501  0.00000000000E+00  0.00000000000E+00  0.11093687687E+04  0.11093687687E+04  0.25500000920E-02 0. -1.
        2   -1    0    0  501    0  0.00000000000E+00  0.00000000000E+00 -0.32357932571E+03  0.32357932572E+03  0.25500000920E-02 0.  1.
    10030    2    1    2    0    0  0.00000000000E+00  0.00000000000E+00  0.78578944297E+03  0.14329480944E+04  0.11982800977E+04 0.  0.
        1    1    3    3  502    0 -0.57123219424E+03  0.77515686162E+02  0.19766206265E+03  0.60941381046E+03  0.50400001928E-02 0.  1.
       -1    1    3    3    0  502  0.57123219424E+03 -0.77515686162E+02  0.58812738032E+03  0.82353428395E+03  0.50400001928E-02 0. -1.
</event>
<event>
 5   0  0.1597352E-03  0.1183755E+04  0.7818609E-02  0.9127196E-01
       -2   -1    0    0    0  501  0.00000000000E+00  0.00000000000E+00  0.11098825589E+04  0.11098825589E+04  0.25500000920E-02 0.  1.
        2   -1    0    0  501    0  0.00000000000E+00  0.00000000000E+00 -0.31563596444E+03  0.31563596445E+03  0.25500000920E-02 0. -1.
    10030    2    1    2    0    0  0.00000000000E+00  0.00000000000E+00  0.79424659444E+03  0.14255185233E+04  0.11837547920E+04 0.  0.
        1    1    3    3  502    0 -0.38048271086E+03  0.33530754118E+03  0.29643029334E+02  0.50801274556E+03  0.50400001928E-02 0. -1.
       -1    1    3    3    0  502  0.38048271086E+03 -0.33530754118E+03  0.76460356511E+03  0.91750577777E+03  0.50400001928E-02 0.  1.
</event>
<event>
 5   0  0.1567019E-03  0.1208722E+04  0.7818609E-02  0.9105257E-01
        2   -1    0    0  501    0  0.00000000000E+00  0.00000000000E+00  0.63978175947E+03  0.63978175947E+03  0.25500000920E-02 0. -1.
       -2   -1    0    0    0  501  0.00000000000E+00  0.00000000000E+00 -0.57090094695E+03  0.57090094695E+03  0.25500000920E-02 0.  1.
    10030    2    1    2    0    0  0.00000000000E+00  0.00000000000E+00  0.68880812517E+02  0.12106827064E+04  0.12087216592E+04 0.  0.
        5    1    3    3  502    0  0.20416721349E+03 -0.63832765803E+02 -0.53169431179E+03  0.57313157672E+03  0.46999998093E+01 0.  1.
       -5    1    3    3    0  502 -0.20416721349E+03  0.63832765803E+02  0.60057512430E+03  0.63755112970E+03  0.46999998093E+01 0. -1.
</event>
<event>
 5   0  0.1597352E-03  0.1209238E+04  0.7818609E-02  0.9104809E-01
       -2   -1    0    0    0  501  0.00000000000E+00  0.00000000000E+00  0.11820131556E+04  0.11820131556E+04  0.25500000920E-02 0.  1.
        2   -1    0    0  501    0  0.00000000000E+00  0.00000000000E+00 -0.30927262353E+03  0.30927262354E+03  0.25500000920E-02 0. -1.
    10030    2    1    2    0    0  0.00000000000E+00  0.00000000000E+00  0.87274053203E+03  0.14912857791E+04  0.12092382886E+04 0.  0.
        1    1    3    3  502    0  0.46779717588E+03  0.21896510973E+02  0.90799643637E+03  0.10216512044E+04  0.50400001928E-02 0.  1.
       -1    1    3    3    0  502 -0.46779717588E+03 -0.21896510973E+02 -0.35255904342E+02  0.46963457472E+03  0.50400001928E-02 0. -1.
</event>
<event>
 5   0  0.8908478E-04  0.1202492E+04  0.7818609E-02  0.9110678E-01
       -1   -1    0    0    0  501  0.00000000000E+00  0.00000000000E+00  0.76583847295E+03  0.76583847296E+03  0.50400001928E-02 0. -1.
        1   -1    0    0  501    0  0.00000000000E+00  0.00000000000E+00 -0.47202712932E+03  0.47202712935E+03  0.50400001928E-02 0.  1.
    10030    2    1    2    0    0  0.00000000000E+00  0.00000000000E+00  0.29381134363E+03  0.12378656023E+04  0.12024916398E+04 0.  0.
        4    1    3    3  502    0 -0.13959151250E+03  0.35303205867E+03  0.62685868484E+03  0.73285117757E+03  0.12699999809E+01 0. -1.
       -4    1    3    3    0  502  0.13959151250E+03 -0.35303205867E+03 -0.33304734121E+03  0.50501442474E+03  0.12699999809E+01 0.  1.
</event>
<event>
 5   0  0.9169078E-04  0.1126027E+04  0.7818609E-02  0.9180189E-01
       -1   -1    0    0    0  501  0.00000000000E+00  0.00000000000E+00  0.13627709977E+04  0.13627709977E+04  0.50400001928E-02 0. -1.
        1   -1    0    0  501    0  0.00000000000E+00  0.00000000000E+00 -0.23260259981E+03  0.23260259986E+03  0.50400001928E-02 0.  1.
    10030    2    1    2    0    0  0.00000000000E+00  0.00000000000E+00  0.11301683979E+04  0.15953735976E+04  0.11260267795E+04 0.  0.
        1    1    3    3  502    0  0.68452418211E+02  0.36142901728E+02 -0.22502717522E+03  0.23796905790E+03  0.50400001928E-02 0.  1.
       -1    1    3    3    0  502 -0.68452418211E+02 -0.36142901728E+02  0.13551955731E+04  0.13574045397E+04  0.50400001928E-02 0. -1.
</event>
<event>
 5   0  0.9169078E-04  0.1162421E+04  0.7818609E-02  0.9146400E-01
       -1   -1    0    0    0  501  0.00000000000E+00  0.00000000000E+00  0.37257391037E+03  0.37257391041E+03  0.50400001928E-02 0.  1.
        1   -1    0    0  501    0  0.00000000000E+00  0.00000000000E+00 -0.90668099724E+03  0.90668099725E+03  0.50400001928E-02 0. -1.
    10030    2    1    2    0    0  0.00000000000E+00  0.00000000000E+00 -0.53410708686E+03  0.12792549077E+04  0.11624210677E+04 0.  0.
        1    1    3    3  502    0  0.36070577314E+03 -0.42960786648E+03 -0.99667198662E+02  0.56974127833E+03  0.50400001928E-02 0.  1.
       -1    1    3    3    0  502 -0.36070577314E+03  0.42960786648E+03 -0.43443988820E+03  0.70951362933E+03  0.50400001928E-02 0. -1.
</event>
<event>
 5   0  0.1567019E-03  0.1212247E+04  0.7818609E-02  0.9102204E-01
       -2   -1    0    0    0  501  0.00000000000E+00  0.00000000000E+00  0.15516113610E+03  0.15516113612E+03  0.25500000920E-02 0.  1.
        2   -1    0    0  501    0  0.00000000000E+00  0.00000000000E+00 -0.23677677118E+04  0.23677677118E+04  0.25500000920E-02 0. -1.
    10030    2    1    2    0    0  0.00000000000E+00  0.00000000000E+00 -0.22126065758E+04  0.25229288480E+04  0.12122467211E+04 0.  0.
        5    1    3    3  502    0 -0.53641393602E+03 -0.27164482970E+03 -0.12652478232E+04  0.14008586540E+04  0.46999998093E+01 0. -1.
       -5    1    3    3    0  502  0.53641393602E+03  0.27164482970E+03 -0.94735875251E+03  0.11220701940E+04  0.46999998093E+01 0.  1.
</event>
<event>
 5   0  0.1597352E-03  0.1199085E+04  0.7818609E-02  0.9113658E-01
       -2   -1    0    0    0  501  0.00000000000E+00  0.00000000000E+00  0.28606440268E+03  0.28606440269E+03  0.25500000920E-02 0.  1.
        2   -1    0    0  501    0  0.00000000000E+00  0.00000000000E+00 -0.12565384500E+04  0.12565384500E+04  0.25500000920E-02 0. -1.
    10030    2    1    2    0    0  0.00000000000E+00  0.00000000000E+00 -0.97047404733E+03  0.15426028527E+04  0.11990845194E+04 0.  0.
        1    1    3    3  502    0  0.90463654124E+02  0.50696868292E+03 -0.88018966288E+03  0.10197719161E+04  0.50400001928E-02 0. -1.
       -1    1    3    3    0  502 -0.90463654124E+02 -0.50696868292E+03 -0.90284384453E+02  0.52283093661E+03  0.50400001928E-02 0.  1.
</event>
<event>
 5   0  0.9208078E-04  0.1202588E+04  0.7818609E-02  0.9110594E-01
       -1   -1    0    0    0  501  0.00000000000E+00  0.00000000000E+00  0.47245402151E+03  0.47245402153E+03  0.50400001928E-02 0.  1.
        1   -1    0    0  501    0  0.00000000000E+00  0.00000000000E+00 -0.76526908068E+03  0.76526908070E+03  0.50400001928E-02 0. -1.
    10030    2    1    2    0    0  0.00000000000E+00  0.00000000000E+00 -0.29281505917E+03  0.12377231022E+04  0.12025879672E+04 0.  0.
        3    1    3    3  502    0  0.46532210919E+03 -0.15331140141E+03 -0.50519738981E+03  0.70374246993E+03  0.10100000352E+00 0. -1.
       -3    1    3    3    0  502 -0.46532210919E+03  0.15331140141E+03  0.21238233064E+03  0.53398063230E+03  0.10100000352E+00 0.  1.
</event>
<event>
 5   0  0.9208078E-04  0.1201295E+04  0.7818609E-02  0.9111724E-01
        1   -1    0    0  501    0  0.00000000000E+00  0.00000000000E+00  0.65360384054E+03  0.65360384056E+03  0.50400001928E-02 0.  1.
       -1   -1    0    0    0  501  0.00000000000E+00  0.00000000000E+00 -0.55198207016E+03  0.55198207018E+03  0.50400001928E-02 0. -1.
    10030    2    1    2    0    0  0.00000000000E+00  0.00000000000E+00  0.10162177038E+03  0.12055859107E+04  0.12012953026E+04 0.  0.
        3    1    3    3  502    0  0.20305328190E+03  0.51548809412E+03 -0.18200688080E+03  0.58316817928E+03  0.10100000352E+00 0.  1.
       -3    1    3    3    0  502 -0.20305328190E+03 -0.51548809412E+03  0.28362865118E+03  0.62241773146E+03  0.10100000352E+00 0. -1.
</event>
<event>
 5   0  0.1597352E-03  0.1197145E+04  0.7818609E-02  0.9115360E-01
       -2   -1    0    0    0  501  0.00000000000E+00  0.00000000000E+00  0.49666208574E+03  0.49666208575E+03  0.25500000920E-02 0. -1.
        2   -1    0    0  501    0  0.00000000000E+00  0.00000000000E+00 -0.72139349204E+03  0.72139349204E+03  0.25500000920E-02 0.  1.
    10030    2    1    2    0    0  0.00000000000E+00  0.00000000000E+00 -0.22473140629E+03  0.12180555778E+04  0.11971445968E+04 0.  0.
        1    1    3    3  502    0 -0.51823606193E+03  0.63875827006E+02  0.18538923623E+03  0.55409196538E+03  0.50400001928E-02 0. -1.
       -1    1    3    3    0  502  0.51823606193E+03 -0.63875827006E+02 -0.41012064252E+03  0.66396361241E+03  0.50400001928E-02 0.  1.
</event>
<event>
 5   0  0.9169078E-04  0.1190044E+04  0.7818609E-02  0.9121616E-01
        1   -1    0    0  501    0  0.00000000000E+00  0.00000000000E+00  0.33517536167E+03  0.33517536171E+03  0.50400001928E-02 0. -1.
       -1   -1    0    0    0  501  0.00000000000E+00  0.00000000000E+00 -0.10563154590E+04  0.10563154591E+04  0.50400001928E-02 0.  1.
    10030    2    1    2    0    0  0.00000000000E+00  0.00000000000E+00 -0.72114009737E+03  0.13914908208E+04  0.11900435556E+04 0.  0.
        1    1    3    3  502    0  0.50431663902E+03  0.10502814427E+03 -0.70878059395E+03  0.87620552034E+03  0.50400001928E-02 0.  1.
       -1    1    3    3    0  502 -0.50431663902E+03 -0.10502814427E+03 -0.12359503420E+02  0.51528530043E+03  0.50400001928E-02 0. -1.
</event>
<event>
 5   0  0.9358428E-04  0.1207518E+04  0.7818609E-02  0.9106302E-01
        1   -1    0    0  501    0  0.00000000000E+00  0.00000000000E+00  0.65379809348E+03  0.65379809350E+03  0.50400001928E-02 0.  1.
       -1   -1    0    0    0  501  0.00000000000E+00  0.00000000000E+00 -0.55754945125E+03  0.55754945128E+03  0.50400001928E-02 0. -1.
    10030    2    1    2    0    0  0.00000000000E+00  0.00000000000E+00  0.96248642225E+02  0.12113475448E+04  0.12075177320E+04 0.  0.
        2    1    3    3  502    0  0.36274544804E+03 -0.34074650555E+03 -0.29476721101E+03  0.57842903611E+03  0.25500000920E-02 0. -1.
       -2    1    3    3    0  502 -0.36274544804E+03  0.34074650555E+03  0.39101585324E+03  0.63291850867E+03  0.25500000920E-02 0.  1.
</event>
<event>
 5   0  0.8908478E-04  0.1178709E+04  0.7818609E-02  0.9131699E-01
        1   -1    0    0  501    0  0.00000000000E+00  0.00000000000E+00  0.13022814051E+04  0.13022814051E+04  0.50400001928E-02 0. -1.
       -1   -1    0    0    0  501  0.00000000000E+00  0.00000000000E+00 -0.26671569120E+03  0.26671569125E+03  0.50400001928E-02 0.  1.
    10030    2    1    2    0    0  0.00000000000E+00  0.00000000000E+00  0.10355657139E+04  0.15689970964E+04  0.11787092689E+04 0.  0.
        4    1    3    3  502    0  0.36433113456E+03  0.72419523960E+02 -0.91273721118E+02  0.38251048107E+03  0.12699999809E+01 0.  1.
       -4    1    3    3    0  502 -0.36433113456E+03 -0.72419523960E+02  0.11268394350E+04  0.11864866153E+04  0.12699999809E+01 0. -1.
</event>
<event>
 5   0  0.9358428E-04  0.1161662E+04  0.7818609E-02  0.9147092E-01
       -1   -1    0    0    0  501  0.00000000000E+00  0.00000000000E+00  0.24301072583E+03  0.24301072589E+03  0.50400001928E-02 0. -1.
        1   -1    0    0  501    0  0.00000000000E+00  0.00000000000E+00 -0.13882707699E+04  0.13882707700E+04  0.50400001928E-02 0.  1.
    10030    2    1    2    0    0  0.00000000000E+00  0.00000000000E+00 -0.11452600441E+04  0.16312814958E+04  0.11616620636E+04 0.  0.
        2    1    3    3  502    0 -0.40458101939E+03 -0.15924083423E+03 -0.31812466099E+02  0.43595352682E+03  0.25500000920E-02 0. -1.
       -2    1    3    3    0  502  0.40458101939E+03  0.15924083423E+03 -0.11134475780E+04  0.11953279690E+04  0.25500000920E-02 0.  1.
</event>
<event>
 5   0  0.9169078E-04  0.1194211E+04  0.7818609E-02  0.9117939E-01
        1   -1    0    0  501    0  0.00000000000E+00  0.00000000000E+00  0.10530058590E+04  0.10530058590E+04  0.50400001928E-02 0.  1.
       -1   -1    0    0    0  501  0.00000000000E+00  0.00000000000E+00 -0.33858779512E+03  0.33858779516E+03  0.50400001928E-02 0. -1.
    10030    2    1    2    0    0  0.00000000000E+00  0.00000000000E+00  0.71441806390E+03  0.13915936542E+04  0.11942109229E+04 0.  0.
        1    1    3    3  502    0 -0.10550743122E+03  0.24797208753E+03 -0.26369432462E+03  0.37703669728E+03  0.50400001928E-02 0. -1.
       -1    1    3    3    0  502  0.10550743122E+03 -0.24797208753E+03  0.97811238852E+03  0.10145569569E+04  0.50400001928E-02 0.  1.
</event>
<event>
 5   0  0.9208078E-04  0.1221174E+04  0.7818609E-02  0.9094522E-01
        1   -1    0    0  501    0  0.00000000000E+00  0.00000000000E+00  0.64017087063E+03  0.64017087065E+03  0.50400001928E-02 0. -1.
       -1   -1    0    0    0  501  0.00000000000E+00  0.00000000000E+00 -0.58237005501E+03  0.58237005503E+03  0.50400001928E-02 0.  1.
    10030    2    1    2    0    0  0.00000000000E+00  0.00000000000E+00  0.57800815621E+02  0.12225409257E+04  0.12211737717E+04 0.  0.
        3    1    3    3  502    0  0.11699855943E+03 -0.28294162594E+03 -0.49996339558E+03  0.58626617992E+03  0.10100000352E+00 0.  1.
       -3    1    3    3    0  502 -0.11699855943E+03  0.28294162594E+03  0.55776421120E+03  0.63627474576E+03  0.10100000352E+00 0. -1.
</event>
<event>
 5   0  0.8908478E-04  0.1208288E+04  0.7818609E-02  0.9105633E-01
        1   -1    0    0  501    0  0.00000000000E+00  0.00000000000E+00  0.32489214459E+03  0.32489214463E+03  0.50400001928E-02 0.  1.
       -1   -1    0    0    0  501  0.00000000000E+00  0.00000000000E+00 -0.11234181814E+04  0.11234181814E+04  0.50400001928E-02 0. -1.
    10030    2    1    2    0    0  0.00000000000E+00  0.00000000000E+00 -0.79852603679E+03  0.14483103260E+04  0.12082876185E+04 0.  0.
        4    1    3    3  502    0 -0.12910395891E+03 -0.48279955689E+03  0.76152022193E+01  0.49982281715E+03  0.12699999809E+01 0.  1.
       -4    1    3    3    0  502  0.12910395891E+03  0.48279955689E+03 -0.80614123901E+03  0.94848750887E+03  0.12699999809E+01 0. -1.
</event>
<event>
 5   0  0.1647550E-03  0.1199989E+04  0.7818609E-02  0.9112866E-01
        2   -1    0    0  501    0  0.00000000000E+00  0.00000000000E+00  0.14125607350E+04  0.14125607350E+04  0.25500000920E-02 0. -1.
       -2   -1    0    0    0  501  0.00000000000E+00  0.00000000000E+00 -0.25485153296E+03  0.25485153297E+03  0.25500000920E-02 0.  1.
    10030    2    1    2    0    0  0.00000000000E+00  0.00000000000E+00  0.11577092021E+04  0.16674122680E+04  0.11999887812E+04 0.  0.
        3    1    3    3  502    0  0.51319838944E+03 -0.76941966231E+02  0.99733093239E+03  0.11242604912E+04  0.10100000352E+00 0. -1.
       -3    1    3    3    0  502 -0.51319838944E+03  0.76941966231E+02  0.16037826968E+03  0.54315177683E+03  0.10100000352E+00 0.  1.
</event>
<event>
 5   0  0.9358428E-04  0.1205542E+04  0.7818609E-02  0.9108019E-01
       -1   -1    0    0    0  501  0.00000000000E+00  0.00000000000E+00  0.29215766797E+03  0.29215766802E+03  0.50400001928E-02 0.  1.
        1   -1    0    0  501    0  0.00000000000E+00  0.00000000000E+00 -0.12436194499E+04  0.12436194499E+04  0.50400001928E-02 0. -1.
    10030    2    1    2    0    0  0.00000000000E+00  0.00000000000E+00 -0.95146178189E+03  0.15357771179E+04  0.12055421326E+04 0.  0.
        2    1    3    3  502    0 -0.39892617783E+03 -0.42813550159E+03 -0.29160116380E+03  0.65381445519E+03  0.25500000920E-02 0.  1.
       -2    1    3    3    0  502  0.39892617783E+03  0.42813550159E+03 -0.65986061810E+03  0.88196266270E+03  0.25500000920E-02 0. -1.
</event>
<event>
 5   0  0.9208078E-04  0.1205132E+04  0.7818609E-02  0.9108376E-01
        1   -1    0    0  501    0  0.00000000000E+00  0.00000000000E+00  0.19264951632E+04  0.19264951632E+04  0.50400001928E-02 0.  1.
       -1   -1    0    0    0  501  0.00000000000E+00  0.00000000000E+00 -0.18846968358E+03  0.18846968364E+03  0.50400001928E-02 0. -1.
    10030    2    1    2    0    0  0.00000000000E+00  0.00000000000E+00  0.17380254796E+04  0.21149648469E+04  0.12051322482E+04 0.  0.
        3    1    3    3  502    0 -0.38362227960E+03  0.13812606806E+02  0.53890404881E+02  0.38763517314E+03  0.10100000352E+00 0. -1.
       -3    1    3    3    0  502  0.38362227960E+03 -0.13812606806E+02  0.16841350748E+04  0.17273296737E+04  0.10100000352E+00 0.  1.
</event>
<event>
 5   0  0.6137750E-04  0.1210418E+04  0.7818609E-02  0.9103786E-01
       -4   -1    0    0    0  501  0.00000000000E+00  0.00000000000E+00  0.99492001159E+03  0.99492082215E+03  0.12699999809E+01 0. -1.
        4   -1    0    0  501    0  0.00000000000E+00  0.00000000000E+00 -0.36814609469E+03  0.36814828526E+03  0.12699999809E+01 0.  1.
    10030    2    1    2    0    0  0.00000000000E+00  0.00000000000E+00  0.62677391690E+03  0.13630691074E+04  0.12104180471E+04 0.  0.
        3    1    3    3  502    0  0.39599227415E+03  0.15709009213E+03  0.79747307425E+03  0.90412968793E+03  0.10100000352E+00 0. -1.
       -3    1    3    3    0  502 -0.39599227415E+03 -0.15709009213E+03 -0.17069915736E+03  0.45893941948E+03  0.10100000352E+00 0.  1.
</event>
<event>
 5   0  0.1597352E-03  0.1287773E+04  0.7818609E-02  0.9039318E-01
        2   -1    0    0  501    0  0.00000000000E+00  0.00000000000E+00  0.69718940895E+03  0.69718940895E+03  0.25500000920E-02 0.  1.
       -2   -1    0    0    0  501  0.00000000000E+00  0.00000000000E+00 -0.59465903024E+03  0.59465903024E+03  0.25500000920E-02 0. -1.
    10030    2    1    2    0    0  0.00000000000E+00  0.00000000000E+00  0.10253037871E+03  0.12918484392E+04  0.12877732375E+04 0.  0.
        1    1    3    3  502    0 -0.84432946153E+02  0.63347575651E+03 -0.27529673501E+02  0.63967049286E+03  0.50400001928E-02 0. -1.
       -1    1    3    3    0  502  0.84432946153E+02 -0.63347575651E+03  0.13006005221E+03  0.65217794634E+03  0.50400001928E-02 0.  1.
</event>
<event>
 5   0  0.9169078E-04  0.1236303E+04  0.7818609E-02  0.9081661E-01
       -1   -1    0    0    0  501  0.00000000000E+00  0.00000000000E+00  0.71474479750E+03  0.71474479752E+03  0.50400001928E-02 0. -1.
        1   -1    0    0  501    0  0.00000000000E+00  0.00000000000E+00 -0.53461214915E+03  0.53461214917E+03  0.50400001928E-02 0.  1.
    10030    2    1    2    0    0  0.00000000000E+00  0.00000000000E+00  0.18013264836E+03  0.12493569467E+04  0.12363029601E+04 0.  0.
        1    1    3    3  502    0 -0.24564339081E+03  0.52392271051E+02  0.66085376954E+03  0.70697477342E+03  0.50400001928E-02 0. -1.
       -1    1    3    3    0  502  0.24564339081E+03 -0.52392271051E+02 -0.48072112118E+03  0.54238217327E+03  0.50400001928E-02 0.  1.
</event>
<event>
 5   0  0.1537557E-03  0.1207898E+04  0.7818609E-02  0.9105971E-01
        2   -1    0    0  501    0  0.00000000000E+00  0.00000000000E+00  0.28641256032E+03  0.28641256033E+03  0.25500000920E-02 0. -1.
       -2   -1    0    0    0  501  0.00000000000E+00  0.00000000000E+00 -0.12735287746E+04  0.12735287746E+04  0.25500000920E-02 0.  1.
    10030    2    1    2    0    0  0.00000000000E+00  0.00000000000E+00 -0.98711621428E+03  0.15599413349E+04  0.12078984013E+04 0.  0.
        2    1    3    3  502    0 -0.21490722020E+03 -0.31409235234E+03  0.11206968599E+03  0.39673509250E+03  0.25500000920E-02 0. -1.
       -2    1    3    3    0  502  0.21490722020E+03  0.31409235234E+03 -0.10991859003E+04  0.11632062424E+04  0.25500000920E-02 0.  1.
</event>
<event>
 5   0  0.9170776E-04  0.1193379E+04  0.7818609E-02  0.9118671E-01
       -1   -1    0    0    0  501  0.00000000000E+00  0.00000000000E+00  0.59517664255E+03  0.59517664257E+03  0.50400001928E-02 0.  1.
        1   -1    0    0  501    0  0.00000000000E+00  0.00000000000E+00 -0.59820649309E+03  0.59820649311E+03  0.50400001928E-02 0. -1.
    10030    2    1    2    0    0  0.00000000000E+00  0.00000000000E+00 -0.30298505423E+01  0.11933831357E+04  0.11933792895E+04 0.  0.
        5    1    3    3  502    0 -0.43904594834E+03 -0.22038843525E+03 -0.34016633046E+03  0.59755136141E+03  0.46999998093E+01 0. -1.
       -5    1    3    3    0  502  0.43904594834E+03  0.22038843525E+03  0.33713647991E+03  0.59583177427E+03  0.46999998093E+01 0.  1.
</event>
<event>
 5   0  0.8908478E-04  0.1199058E+04  0.7818609E-02  0.9113682E-01
       -1   -1    0    0    0  501  0.00000000000E+00  0.00000000000E+00  0.53020701866E+03  0.53020701868E+03  0.50400001928E-02 0. -1.
        1   -1    0    0  501    0  0.00000000000E+00  0.00000000000E+00 -0.67791417870E+03  0.67791417872E+03  0.50400001928E-02 0.  1.
    10030    2    1    2    0    0  0.00000000000E+00  0.00000000000E+00 -0.14770716004E+03  0.12081211974E+04  0.11990577227E+04 0.  0.
        4    1    3    3  502    0 -0.15629922479E+03 -0.11786637670E+03 -0.64480376309E+03  0.67386603730E+03  0.12699999809E+01 0.  1.
       -4    1    3    3    0  502  0.15629922479E+03  0.11786637670E+03  0.49709660305E+03  0.53425516010E+03  0.12699999809E+01 0. -1.
</event>
<event>
 5   0  0.9208078E-04  0.1194987E+04  0.7818609E-02  0.9117256E-01
       -1   -1    0    0    0  501  0.00000000000E+00  0.00000000000E+00  0.49978858659E+03  0.49978858661E+03  0.50400001928E-02 0.  1.
        1   -1    0    0  501    0  0.00000000000E+00  0.00000000000E+00 -0.71429930464E+03  0.71429930466E+03  0.50400001928E-02 0. -1.
    10030    2    1    2    0    0  0.00000000000E+00  0.00000000000E+00 -0.21451071805E+03  0.12140878913E+04  0.11949872633E+04 0.  0.
        3    1    3    3  502    0 -0.30802579324E+03 -0.11670074840E+03 -0.61372073948E+03  0.69652861409E+03  0.10100000352E+00 0. -1.
       -3    1    3    3    0  502  0.30802579324E+03  0.11670074840E+03  0.39921002143E+03  0.51755927717E+03  0.10100000352E+00 0.  1.
</event>
<event>
 5   0  0.6137750E-04  0.1212997E+04  0.7818609E-02  0.9101556E-01
        3   -1    0    0  501    0  0.00000000000E+00  0.00000000000E+00  0.92194306282E+03  0.92194306835E+03  0.10100000352E+00 0.  1.
       -3   -1    0    0    0  501  0.00000000000E+00  0.00000000000E+00 -0.39898359759E+03  0.39898361037E+03  0.10100000352E+00 0. -1.
    10030    2    1    2    0    0  0.00000000000E+00  0.00000000000E+00  0.52295946523E+03  0.13209266787E+04  0.12129965739E+04 0.  0.
        1    1    3    3  502    0 -0.30179533855E+03  0.45731669375E+02  0.83220020936E+03  0.88641356061E+03  0.50400001928E-02 0.  1.
       -1    1    3    3    0  502  0.30179533855E+03 -0.45731669375E+02 -0.30924074413E+03  0.43451311811E+03  0.50400001928E-02 0. -1.
</event>
<event>
 5   0  0.1647550E-03  0.1202506E+04  0.7818609E-02  0.9110665E-01
       -2   -1    0    0    0  501  0.00000000000E+00  0.00000000000E+00  0.65433812551E+03  0.65433812551E+03  0.25500000920E-02 0.  1.
        2   -1    0    0  501    0  0.00000000000E+00  0.00000000000E+00 -0.55247501333E+03  0.55247501334E+03  0.25500000920E-02 0. -1.
    10030    2    1    2    0    0  0.00000000000E+00  0.00000000000E+00  0.10186311218E+03  0.12068131389E+04  0.12025064900E+04 0.  0.
        3    1    3    3  502    0  0.11828930254E+03  0.14357015069E+03  0.62473153884E+03  0.65183913129E+03  0.10100000352E+00 0.  1.
       -3    1    3    3    0  502 -0.11828930254E+03 -0.14357015069E+03 -0.52286842666E+03  0.55497400756E+03  0.10100000352E+00 0. -1.
</event>
<event>
 5   0  0.1551501E-03  0.1194692E+04  0.7818609E-02  0.9117515E-01
       -2   -1    0    0    0  501  0.00000000000E+00  0.00000000000E+00  0.67094905593E+03  0.67094905593E+03  0.25500000920E-02 0. -1.
        2   -1    0    0  501    0  0.00000000000E+00  0.00000000000E+00 -0.53181706464E+03  0.53181706464E+03  0.25500000920E-02 0.  1.
    10030    2    1    2    0    0  0.00000000000E+00  0.00000000000E+00  0.13913199129E+03  0.12027661206E+04  0.11946918556E+04 0.  0.
        4    1    3    3  502    0  0.27387773973E+03  0.19949161696E+03 -0.42570864008E+03  0.54409133489E+03  0.12699999809E+01 0.  1.
       -4    1    3    3    0  502 -0.27387773973E+03 -0.19949161696E+03  0.56484063137E+03  0.65867478569E+03  0.12699999809E+01 0. -1.
</event>
<event>
 5   0  0.8908478E-04  0.1199443E+04  0.7818609E-02  0.9113344E-01
       -1   -1    0    0    0  501  0.00000000000E+00  0.00000000000E+00  0.72550761389E+03  0.72550761391E+03  0.50400001928E-02 0.  1.
        1   -1    0    0  501    0  0.00000000000E+00  0.00000000000E+00 -0.49574354969E+03  0.49574354972E+03  0.50400001928E-02 0. -1.
    10030    2    1    2    0    0  0.00000000000E+00  0.00000000000E+00  0.22976406420E+03  0.12212511636E+04  0.11994427370E+04 0.  0.
        4    1    3    3  502    0 -0.43230962069E+03 -0.12593074843E+03 -0.28844398968E+03  0.53474452743E+03  0.12699999809E+01 0. -1.
       -4    1    3    3    0  502  0.43230962069E+03  0.12593074843E+03  0.51820805387E+03  0.68650663619E+03  0.12699999809E+01 0.  1.
</event>
<event>
 5   0  0.9170776E-04  0.1193205E+04  0.7818609E-02  0.9118825E-01
        1   -1    0    0  501    0  0.00000000000E+00  0.00000000000E+00  0.38659100462E+03  0.38659100465E+03  0.50400001928E-02 0.  1.
       -1   -1    0    0    0  501  0.00000000000E+00  0.00000000000E+00 -0.92070020132E+03  0.92070020133E+03  0.50400001928E-02 0. -1.
    10030    2    1    2    0    0  0.00000000000E+00  0.00000000000E+00 -0.53410919670E+03  0.13072912060E+04  0.11932047868E+04 0.  0.
        5    1    3    3  502    0  0.33492337594E+03 -0.67913465639E+02 -0.80281564344E+03  0.87253707882E+03  0.46999998093E+01 0. -1.
       -5    1    3    3    0  502 -0.33492337594E+03  0.67913465639E+02  0.26870644674E+03  0.43475412716E+03  0.46999998093E+01 0.  1.
</event>
<event>
 5   0  0.1647550E-03  0.1187622E+04  0.7818609E-02  0.9123761E-01
        2   -1    0    0  501    0  0.00000000000E+00  0.00000000000E+00  0.57681458406E+03  0.57681458407E+03  0.25500000920E-02 0. -1.
       -2   -1    0    0    0  501  0.00000000000E+00  0.00000000000E+00 -0.61130808512E+03  0.61130808513E+03  0.25500000920E-02 0.  1.
    10030    2    1    2    0    0  0.00000000000E+00  0.00000000000E+00 -0.34493501056E+02  0.11881226692E+04  0.11876218571E+04 0.  0.
        3    1    3    3  502    0  0.44493456789E+03 -0.32480493584E+03  0.20453659139E+03  0.58762253485E+03  0.10100000352E+00 0. -1.
       -3    1    3    3    0  502 -0.44493456789E+03  0.32480493584E+03 -0.23903009245E+03  0.60050013434E+03  0.10100000352E+00 0.  1.
</event>
<event>
 5   0  0.8908478E-04  0.1200669E+04  0.7818609E-02  0.9112271E-01
       -1   -1    0    0    0  501  0.00000000000E+00  0.00000000000E+00  0.39716908372E+03  0.39716908375E+03  0.50400001928E-02 0. -1.
        1   -1    0    0  501    0  0.00000000000E+00  0.00000000000E+00 -0.90742580858E+03  0.90742580859E+03  0.50400001928E-02 0.  1.
    10030    2    1    2    0    0  0.00000000000E+00  0.00000000000E+00 -0.51025672485E+03  0.13045948923E+04  0.12006689418E+04 0.  0.
        4    1    3    3  502    0  0.22744722930E+03  0.97881233227E+02  0.33909686122E+03  0.41988245036E+03  0.12699999809E+01 0. -1.
       -4    1    3    3    0  502 -0.22744722930E+03 -0.97881233227E+02 -0.84935358607E+03  0.88471244198E+03  0.12699999809E+01 0.  1.
</event>
<event>
 5   0  0.1647550E-03  0.1194909E+04  0.7818609E-02  0.9117324E-01
        2   -1    0    0  501    0  0.00000000000E+00  0.00000000000E+00  0.40892710037E+03  0.40892710038E+03  0.25500000920E-02 0.  1.
       -2   -1    0    0    0  501  0.00000000000E+00  0.00000000000E+00 -0.87289881481E+03  0.87289881481E+03  0.25500000920E-02 0. -1.
    10030    2    1    2    0    0  0.00000000000E+00  0.00000000000E+00 -0.46397171443E+03  0.12818259152E+04  0.11949091702E+04 0.  0.
        3    1    3    3  502    0  0.32004868545E+03  0.20780717023E+02  0.30875235578E+03  0.44518650772E+03  0.10100000352E+00 0.  1.
       -3    1    3    3    0  502 -0.32004868545E+03 -0.20780717023E+02 -0.77272407021E+03  0.83663940747E+03  0.10100000352E+00 0. -1.
</event>
<event>
 5   0  0.9170776E-04  0.1200168E+04  0.7818609E-02  0.9112710E-01
       -1   -1    0    0    0  501  0.00000000000E+00  0.00000000000E+00  0.28268157990E+03  0.28268157995E+03  0.50400001928E-02 0.  1.
        1   -1    0    0  501    0  0.00000000000E+00  0.00000000000E+00 -0.12738739841E+04  0.12738739841E+04  0.50400001928E-02 0. -1.
    10030    2    1    2    0    0  0.00000000000E+00  0.00000000000E+00 -0.99119240423E+03  0.15565555641E+04  0.12001678391E+04 0.  0.
        5    1    3    3  502    0  0.41989824577E+01  0.21676533930E+03 -0.12212775985E+04  0.12403813552E+04  0.46999998093E+01 0. -1.
       -5    1    3    3    0  502 -0.41989824577E+01 -0.21676533930E+03  0.23008519423E+03  0.31617420891E+03  0.46999998093E+01 0.  1.
</event>
<event>
 5   0  0.9358428E-04  0.1198478E+04  0.7818609E-02  0.9114190E-01
       -1   -1    0    0    0  501  0.00000000000E+00  0.00000000000E+00  0.28849299515E+03  0.28849299520E+03  0.50400001928E-02 0. -1.
        1   -1    0    0  501    0  0.00000000000E+00  0.00000000000E+00 -0.12447006107E+04  0.12447006108E+04  0.50400001928E-02 0.  1.
    10030    2    1    2    0    0  0.00000000000E+00  0.00000000000E+00 -0.95620761560E+03  0.15331936060E+04  0.11984780470E+04 0.  0.
        2    1    3    3  502    0 -0.33660849189E+03  0.40689011173E+03 -0.84044290229E+03  0.99257700550E+03  0.25500000920E-02 0.  1.
       -2    1    3    3    0  502  0.33660849189E+03 -0.40689011173E+03 -0.11576471331E+03  0.54061660046E+03  0.25500000920E-02 0. -1.
</event>
<event>
 5   0  0.1567019E-03  0.1196704E+04  0.7818609E-02  0.9115746E-01
       -2   -1    0    0    0  501  0.00000000000E+00  0.00000000000E+00  0.60064415794E+03  0.60064415795E+03  0.25500000920E-02 0. -1.
        2   -1    0    0  501    0  0.00000000000E+00  0.00000000000E+00 -0.59606880772E+03  0.59606880773E+03  0.25500000920E-02 0.  1.
    10030    2    1    2    0    0  0.00000000000E+00  0.00000000000E+00  0.45753502203E+01  0.11967129657E+04  0.11967042193E+04 0.  0.
        5    1    3    3  502    0 -0.41803872031E+03  0.20785988872E+03  0.37651100300E+03  0.59978723761E+03  0.46999998093E+01 0. -1.
       -5    1    3    3    0  502  0.41803872031E+03 -0.20785988872E+03 -0.37193565278E+03  0.59692572807E+03  0.46999998093E+01 0.  1.
</event>
<event>
 5   0  0.9169078E-04  0.1198431E+04  0.7818609E-02  0.9114231E-01
       -1   -1    0    0    0  501  0.00000000000E+00  0.00000000000E+00  0.93982847965E+03  0.93982847967E+03  0.50400001928E-02 0.  1.
        1   -1    0    0  501    0  0.00000000000E+00  0.00000000000E+00 -0.38204756661E+03  0.38204756664E+03  0.50400001928E-02 0. -1.
    10030    2    1    2    0    0  0.00000000000E+00  0.00000000000E+00  0.55778091305E+03  0.13218760463E+04  0.11984309470E+04 0.  0.
        1    1    3    3  502    0  0.83498652634E+02  0.81913345953E+01  0.93331778107E+03  0.93708121497E+03  0.50400001928E-02 0.  1.
       -1    1    3    3    0  502 -0.83498652634E+02 -0.81913345953E+01 -0.37553686803E+03  0.38479483134E+03  0.50400001928E-02 0. -1.
</event>
<event>
 5   0  0.9169078E-04  0.1182650E+04  0.7818609E-02  0.9128180E-01
       -1   -1    0    0    0  501  0.00000000000E+00  0.00000000000E+00  0.78391896147E+03  0.78391896149E+03  0.50400001928E-02 0. -1.
        1   -1    0    0  501    0  0.00000000000E+00  0.00000000000E+00 -0.44604798627E+03  0.44604798630E+03  0.50400001928E-02 0.  1.
    10030    2    1    2    0    0  0.00000000000E+00  0.00000000000E+00  0.33787097520E+03  0.12299669478E+04  0.11826503696E+04 0.  0.
        1    1    3    3  502    0  0.22548498162E+03  0.52139172736E+03 -0.18688869161E+01  0.56806364350E+03  0.50400001928E-02 0.  1.
       -1    1    3    3    0  502 -0.22548498162E+03 -0.52139172736E+03  0.33973986212E+03  0.66190330429E+03  0.50400001928E-02 0. -1.
</event>
<event>
 5   0  0.1647550E-03  0.1196068E+04  0.7818609E-02  0.9116305E-01
        2   -1    0    0  501    0  0.00000000000E+00  0.00000000000E+00  0.16379121772E+04  0.16379121772E+04  0.25500000920E-02 0.  1.
       -2   -1    0    0    0  501  0.00000000000E+00  0.00000000000E+00 -0.21835403005E+03  0.21835403007E+03  0.25500000920E-02 0. -1.
    10030    2    1    2    0    0  0.00000000000E+00  0.00000000000E+00  0.14195581471E+04  0.18562662073E+04  0.11960680997E+04 0.  0.
        3    1    3    3  502    0  0.12903569525E+03  0.48610905561E+03  0.20761907361E+03  0.54411204225E+03  0.10100000352E+00 0. -1.
       -3    1    3    3    0  502 -0.12903569525E+03 -0.48610905561E+03  0.12119390735E+04  0.13121541650E+04  0.10100000352E+00 0.  1.
</event>
<event>
 5   0  0.8908478E-04  0.1206679E+04  0.7818609E-02  0.9107030E-01
       -1   -1    0    0    0  501  0.00000000000E+00  0.00000000000E+00  0.32616296176E+03  0.32616296180E+03  0.50400001928E-02 0.  1.
        1   -1    0    0  501    0  0.00000000000E+00  0.00000000000E+00 -0.11160633601E+04  0.11160633601E+04  0.50400001928E-02 0. -1.
    10030    2    1    2    0    0  0.00000000000E+00  0.00000000000E+00 -0.78990039837E+03  0.14422263219E+04  0.12066789649E+04 0.  0.
        4    1    3    3  502    0 -0.33058382917E+03 -0.49387924017E+03 -0.51924295745E+03  0.78918770501E+03  0.12699999809E+01 0. -1.
       -4    1    3    3    0  502  0.33058382917E+03  0.49387924017E+03 -0.27065744093E+03  0.65303861693E+03  0.12699999809E+01 0.  1.
</event>
<event>
 5   0  0.9169078E-04  0.1201652E+04  0.7818609E-02  0.9111412E-01
       -1   -1    0    0    0  501  0.00000000000E+00  0.00000000000E+00  0.84640856885E+03  0.84640856886E+03  0.50400001928E-02 0.  1.
        1   -1    0    0  501    0  0.00000000000E+00  0.00000000000E+00 -0.42649836198E+03  0.42649836201E+03  0.50400001928E-02 0. -1.
    10030    2    1    2    0    0  0.00000000000E+00  0.00000000000E+00  0.41991020687E+03  0.12729069309E+04  0.12016519766E+04 0.  0.
        1    1    3    3  502    0  0.41048166346E+03  0.36727615117E+03  0.46419731816E+03  0.72032361995E+03  0.50400001928E-02 0.  1.
       -1    1    3    3    0  502 -0.41048166346E+03 -0.36727615117E+03 -0.44287111286E+02  0.55258331092E+03  0.50400001928E-02 0. -1.
</event>
<event>
 5   0  0.1567019E-03  0.1203685E+04  0.7818609E-02  0.9109637E-01
        2   -1    0    0  501    0  0.00000000000E+00  0.00000000000E+00  0.10880298920E+04  0.10880298920E+04  0.25500000920E-02 0.  1.
       -2   -1    0    0    0  501  0.00000000000E+00  0.00000000000E+00 -0.33290829792E+03  0.33290829793E+03  0.25500000920E-02 0. -1.
    10030    2    1    2    0    0  0.00000000000E+00  0.00000000000E+00  0.75512159410E+03  0.14209381900E+04  0.12036846422E+04 0.  0.
        5    1    3    3  502    0  0.16664414773E+03 -0.56152328457E+03  0.54076511707E+03  0.79719989521E+03  0.46999998093E+01 0.  1.
       -5    1    3    3    0  502 -0.16664414773E+03  0.56152328457E+03  0.21435647704E+03  0.62373829475E+03  0.46999998093E+01 0. -1.
</event>
<event>
 5   0  0.9170776E-04  0.1198200E+04  0.7818609E-02  0.9114434E-01
        1   -1    0    0  501    0  0.00000000000E+00  0.00000000000E+00  0.84947112526E+03  0.84947112527E+03  0.50400001928E-02 0.  1.
       -1   -1    0    0    0  501  0.00000000000E+00  0.00000000000E+00 -0.42252256914E+03  0.42252256917E+03  0.50400001928E-02 0. -1.
    10030    2    1    2    0    0  0.00000000000E+00  0.00000000000E+00  0.42694855612E+03  0.12719936944E+04  0.11981998536E+04 0.  0.
        5    1    3    3  502    0  0.41940063039E+03  0.42764577709E+03  0.20180488661E+03  0.63207998045E+03  0.46999998093E+01 0.  1.
       -5    1    3    3    0  502 -0.41940063039E+03 -0.42764577709E+03  0.22514366950E+03  0.63991371399E+03  0.46999998093E+01 0. -1.
</event>
<event>
 5   0  0.1647550E-03  0.1200282E+04  0.7818609E-02  0.9112609E-01
        2   -1    0    0  501    0  0.00000000000E+00  0.00000000000E+00  0.33726373863E+03  0.33726373864E+03  0.25500000920E-02 0.  1.
       -2   -1    0    0    0  501  0.00000000000E+00  0.00000000000E+00 -0.10679164188E+04  0.10679164188E+04  0.25500000920E-02 0. -1.
    10030    2    1    2    0    0  0.00000000000E+00  0.00000000000E+00 -0.73065268013E+03  0.14051801574E+04  0.12002824400E+04 0.  0.
        3    1    3    3  502    0 -0.26958560836E+03 -0.28531662585E+03 -0.89679098369E+03  0.97893618579E+03  0.10100000352E+00 0. -1.
       -3    1    3    3    0  502  0.26958560836E+03  0.28531662585E+03  0.16613830356E+03  0.42624397161E+03  0.10100000352E+00 0.  1.
</event>
<event>
 5   0  0.9358428E-04  0.1206857E+04  0.7818609E-02  0.9106875E-01
        1   -1    0    0  501    0  0.00000000000E+00  0.00000000000E+00  0.62120682873E+03  0.62120682875E+03  0.50400001928E-02 0. -1.
       -1   -1    0    0    0  501  0.00000000000E+00  0.00000000000E+00 -0.58615932707E+03  0.58615932710E+03  0.50400001928E-02 0.  1.
    10030    2    1    2    0    0  0.00000000000E+00  0.00000000000E+00  0.35047501656E+02  0.12073661558E+04  0.12068573681E+04 0.  0.
        2    1    3    3  502    0  0.23817915946E+03 -0.55370425100E+03  0.45969294565E+02  0.60450879698E+03  0.25500000920E-02 0. -1.
       -2    1    3    3    0  502 -0.23817915946E+03  0.55370425100E+03 -0.10921792909E+02  0.60285735887E+03  0.25500000920E-02 0.  1.
</event>
<event>
 5   0  0.8908478E-04  0.1201549E+04  0.7818609E-02  0.9111502E-01
       -1   -1    0    0    0  501  0.00000000000E+00  0.00000000000E+00  0.50030009360E+03  0.50030009362E+03  0.50400001928E-02 0. -1.
        1   -1    0    0  501    0  0.00000000000E+00  0.00000000000E+00 -0.72142658464E+03  0.72142658466E+03  0.50400001928E-02 0.  1.
    10030    2    1    2    0    0  0.00000000000E+00  0.00000000000E+00 -0.22112649105E+03  0.12217266783E+04  0.12015486471E+04 0.  0.
        4    1    3    3  502    0 -0.13032635468E+02 -0.33255025246E+03  0.39800488954E+03  0.51881502002E+03  0.12699999809E+01 0. -1.
       -4    1    3    3    0  502  0.13032635468E+02  0.33255025246E+03 -0.61913138059E+03  0.70291165827E+03  0.12699999809E+01 0.  1.
</event>
<event>
 5   0  0.9169078E-04  0.1200398E+04  0.7818609E-02  0.9112508E-01
       -1   -1    0    0    0  501  0.00000000000E+00  0.00000000000E+00  0.59842154071E+03  0.59842154073E+03  0.50400001928E-02 0. -1.
        1   -1    0    0  501    0  0.00000000000E+00  0.00000000000E+00 -0.60198199643E+03  0.60198199645E+03  0.50400001928E-02 0.  1.
    10030    2    1    2    0    0  0.00000000000E+00  0.00000000000E+00 -0.35604557246E+01  0.12004035372E+04  0.12003982569E+04 0.  0.
        1    1    3    3  502    0  0.20989214650E+02  0.14038597263E+03  0.58139488931E+03  0.59847204261E+03  0.50400001928E-02 0. -1.
       -1    1    3    3    0  502 -0.20989214650E+02 -0.14038597263E+03 -0.58495534504E+03  0.60193149457E+03  0.50400001928E-02 0.  1.
</event>
<event>
 5   0  0.8908478E-04  0.1204110E+04  0.7818609E-02  0.9109267E-01
        1   -1    0    0  501    0  0.00000000000E+00  0.00000000000E+00  0.48182952851E+03  0.48182952854E+03  0.50400001928E-02 0.  1.
       -1   -1    0    0    0  501  0.00000000000E+00  0.00000000000E+00 -0.75227852730E+03  0.75227852731E+03  0.50400001928E-02 0. -1.
    10030    2    1    2    0    0  0.00000000000E+00  0.00000000000E+00 -0.27044899879E+03  0.12341080558E+04  0.12041096431E+04 0.  0.
        4    1    3    3  502    0  0.50054347405E+03 -0.19350592535E+03 -0.41493400644E+03  0.67835105599E+03  0.12699999809E+01 0. -1.
       -4    1    3    3    0  502 -0.50054347405E+03  0.19350592535E+03  0.14448500766E+03  0.55575699986E+03  0.12699999809E+01 0.  1.
</event>
<event>
 5   0  0.1537557E-03  0.1202526E+04  0.7818609E-02  0.9110649E-01
       -2   -1    0    0    0  501  0.00000000000E+00  0.00000000000E+00  0.25895241626E+03  0.25895241627E+03  0.25500000920E-02 0. -1.
        2   -1    0    0  501    0  0.00000000000E+00  0.00000000000E+00 -0.13960751834E+04  0.13960751834E+04  0.25500000920E-02 0.  1.
    10030    2    1    2    0    0  0.00000000000E+00  0.00000000000E+00 -0.11371227671E+04  0.16550275996E+04  0.12025257453E+04 0.  0.
        2    1    3    3  502    0 -0.23250555566E+03 -0.20726734658E+02 -0.13311674952E+04  0.13514789422E+04  0.25500000920E-02 0.  1.
       -2    1    3    3    0  502  0.23250555566E+03  0.20726734658E+02  0.19404472807E+03  0.30354865746E+03  0.25500000920E-02 0. -1.
</event>
<event>
 5   0  0.1597352E-03  0.1199310E+04  0.7818609E-02  0.9113461E-01
       -2   -1    0    0    0  501  0.00000000000E+00  0.00000000000E+00  0.11331157739E+04  0.11331157739E+04  0.25500000920E-02 0.  1.
        2   -1    0    0  501    0  0.00000000000E+00  0.00000000000E+00 -0.31734265789E+03  0.31734265790E+03  0.25500000920E-02 0. -1.
    10030    2    1    2    0    0  0.00000000000E+00  0.00000000000E+00  0.81577311599E+03  0.14504584318E+04  0.11993097538E+04 0.  0.
        1    1    3    3  502    0 -0.38574454674E+03  0.45662892404E+03  0.46559893407E+03  0.75768806051E+03  0.50400001928E-02 0.  1.
       -1    1    3    3    0  502  0.38574454674E+03 -0.45662892404E+03  0.35017418192E+03  0.69277037128E+03  0.50400001928E-02 0. -1.
</event>
<event>
 5   0  0.1647550E-03  0.1211399E+04  0.7818609E-02  0.9102938E-01
       -2   -1    0    0    0  501  0.00000000000E+00  0.00000000000E+00  0.38367441051E+03  0.38367441052E+03  0.25500000920E-02 0. -1.
        2   -1    0    0  501    0  0.00000000000E+00  0.00000000000E+00 -0.95620556343E+03  0.95620556343E+03  0.25500000920E-02 0.  1.
    10030    2    1    2    0    0  0.00000000000E+00  0.00000000000E+00 -0.57253115292E+03  0.13398799740E+04  0.12113985403E+04 0.  0.
        3    1    3    3  502    0 -0.35078571414E+03  0.46240820991E+03 -0.47783966555E+03  0.75179965816E+03  0.10100000352E+00 0.  1.
       -3    1    3    3    0  502  0.35078571414E+03 -0.46240820991E+03 -0.94691487369E+02  0.58808031579E+03  0.10100000352E+00 0. -1.
</event>
<event>
 5   0  0.1597352E-03  0.1163692E+04  0.7818609E-02  0.9145244E-01
       -2   -1    0    0    0  501  0.00000000000E+00  0.00000000000E+00  0.41262035828E+03  0.41262035829E+03  0.25500000920E-02 0.  1.
        2   -1    0    0  501    0  0.00000000000E+00  0.00000000000E+00 -0.82047554128E+03  0.82047554129E+03  0.25500000920E-02 0. -1.
    10030    2    1    2    0    0  0.00000000000E+00  0.00000000000E+00 -0.40785518301E+03  0.12330958996E+04  0.11636922477E+04 0.  0.
        1    1    3    3  502    0 -0.39585062180E+03  0.40225244773E+03 -0.53921338751E+02  0.56693232160E+03  0.50400001928E-02 0.  1.
       -1    1    3    3    0  502  0.39585062180E+03 -0.40225244773E+03 -0.35393384425E+03  0.66616357797E+03  0.50400001928E-02 0. -1.
</event>
<event>
 5   0  0.1551501E-03  0.1193205E+04  0.7818609E-02  0.9118825E-01
        2   -1    0    0  501    0  0.00000000000E+00  0.00000000000E+00  0.40699359350E+03  0.40699359351E+03  0.25500000920E-02 0.  1.
       -2   -1    0    0    0  501  0.00000000000E+00  0.00000000000E+00 -0.87454516495E+03  0.87454516495E+03  0.25500000920E-02 0. -1.
    10030    2    1    2    0    0  0.00000000000E+00  0.00000000000E+00 -0.46755157145E+03  0.12815387585E+04  0.11932045581E+04 0.  0.
        4    1    3    3  502    0 -0.48201506579E+02  0.55918748277E+03 -0.45103461695E+03  0.72003323862E+03  0.12699999809E+01 0. -1.
       -4    1    3    3    0  502  0.48201506579E+02 -0.55918748277E+03 -0.16516954494E+02  0.56150551984E+03  0.12699999809E+01 0.  1.
</event>
<event>
 5   0  0.9208078E-04  0.1194929E+04  0.7818609E-02  0.9117306E-01
        1   -1    0    0  501    0  0.00000000000E+00  0.00000000000E+00  0.77528166544E+03  0.77528166545E+03  0.50400001928E-02 0.  1.
       -1   -1    0    0    0  501  0.00000000000E+00  0.00000000000E+00 -0.46043141722E+03  0.46043141725E+03  0.50400001928E-02 0. -1.
    10030    2    1    2    0    0  0.00000000000E+00  0.00000000000E+00  0.31485024822E+03  0.12357130827E+04  0.11949293468E+04 0.  0.
        3    1    3    3  502    0  0.45310717676E+03 -0.13482694649E+03 -0.22039307746E+03  0.52159135147E+03  0.10100000352E+00 0. -1.
       -3    1    3    3    0  502 -0.45310717676E+03  0.13482694649E+03  0.53524332568E+03  0.71412173123E+03  0.10100000352E+00 0.  1.
</event>
<event>
 5   0  0.9169078E-04  0.1189837E+04  0.7818609E-02  0.9121799E-01
        1   -1    0    0  501    0  0.00000000000E+00  0.00000000000E+00  0.78773363493E+03  0.78773363495E+03  0.50400001928E-02 0.  1.
       -1   -1    0    0    0  501  0.00000000000E+00  0.00000000000E+00 -0.44929942056E+03  0.44929942058E+03  0.50400001928E-02 0. -1.
    10030    2    1    2    0    0  0.00000000000E+00  0.00000000000E+00  0.33843421438E+03  0.12370330555E+04  0.11898374103E+04 0.  0.
        1    1    3    3  502    0 -0.27586474957E+03  0.14954506870E+03  0.69469910275E+03  0.76228074291E+03  0.50400001928E-02 0.  1.
       -1    1    3    3    0  502  0.27586474957E+03 -0.14954506870E+03 -0.35626488837E+03  0.47475231262E+03  0.50400001928E-02 0. -1.
</event>
<event>
 5   0  0.9170776E-04  0.1200749E+04  0.7818609E-02  0.9112201E-01
        1   -1    0    0  501    0  0.00000000000E+00  0.00000000000E+00  0.56845882405E+03  0.56845882407E+03  0.50400001928E-02 0.  1.
       -1   -1    0    0    0  501  0.00000000000E+00  0.00000000000E+00 -0.63408190129E+03  0.63408190131E+03  0.50400001928E-02 0. -1.
    10030    2    1    2    0    0  0.00000000000E+00  0.00000000000E+00 -0.65623077235E+02  0.12025407254E+04  0.12007488530E+04 0.  0.
        5    1    3    3  502    0 -0.19311146953E+03 -0.37664294353E+03  0.39358833493E+03  0.57800156917E+03  0.46999998093E+01 0.  1.
       -5    1    3    3    0  502  0.19311146953E+03  0.37664294353E+03 -0.45921141217E+03  0.62453915621E+03  0.46999998093E+01 0. -1.
</event>
<event>
 5   0  0.9169078E-04  0.1208981E+04  0.7818609E-02  0.9105031E-01
       -1   -1    0    0    0  501  0.00000000000E+00  0.00000000000E+00  0.60806159080E+03  0.60806159082E+03  0.50400001928E-02 0. -1.
        1   -1    0    0  501    0  0.00000000000E+00  0.00000000000E+00 -0.60094086630E+03  0.60094086632E+03  0.50400001928E-02 0.  1.
    10030    2    1    2    0    0  0.00000000000E+00  0.00000000000E+00  0.71207244999E+01  0.12090024571E+04  0.12089814873E+04 0.  0.
        1    1    3    3  502    0 -0.18124809543E+03  0.32405950377E+03 -0.47346324161E+03  0.60169167790E+03  0.50400001928E-02 0.  1.
       -1    1    3    3    0  502  0.18124809543E+03 -0.32405950377E+03  0.48058396611E+03  0.60731077924E+03  0.50400001928E-02 0. -1.
</event>
<event>
 5   0  0.8908478E-04  0.1194263E+04  0.7818609E-02  0.9117893E-01
       -1   -1    0    0    0  501  0.00000000000E+00  0.00000000000E+00  0.61083967605E+03  0.61083967607E+03  0.50400001928E-02 0. -1.
        1   -1    0    0  501    0  0.00000000000E+00  0.00000000000E+00 -0.58373078694E+03  0.58373078696E+03  0.50400001928E-02 0.  1.
    10030    2    1    2    0    0  0.00000000000E+00  0.00000000000E+00  0.27108889115E+02  0.11945704630E+04  0.11942628267E+04 0.  0.
        4    1    3    3  502    0  0.23035650208E+03 -0.41433828875E+03 -0.34961479908E+03  0.58904367938E+03  0.12699999809E+01 0.  1.
       -4    1    3    3    0  502 -0.23035650208E+03  0.41433828875E+03  0.37672368819E+03  0.60552678366E+03  0.12699999809E+01 0. -1.
</event>
<event>
 5   0  0.9208078E-04  0.1199255E+04  0.7818609E-02  0.9113509E-01
       -1   -1    0    0    0  501  0.00000000000E+00  0.00000000000E+00  0.32700678371E+03  0.32700678375E+03  0.50400001928E-02 0. -1.
        1   -1    0    0  501    0  0.00000000000E+00  0.00000000000E+00 -0.10995277202E+04  0.10995277202E+04  0.50400001928E-02 0.  1.
    10030    2    1    2    0    0  0.00000000000E+00  0.00000000000E+00 -0.77252093647E+03  0.14265345039E+04  0.11992548076E+04 0.  0.
        3    1    3    3  502    0 -0.41229248997E+03  0.20199388998E+03  0.72539327945E+02  0.46481027654E+03  0.10100000352E+00 0. -1.
       -3    1    3    3    0  502  0.41229248997E+03 -0.20199388998E+03 -0.84506026442E+03  0.96172422741E+03  0.10100000352E+00 0.  1.
</event>
<event>
 5   0  0.1551501E-03  0.1204565E+04  0.7818609E-02  0.9108870E-01
        2   -1    0    0  501    0  0.00000000000E+00  0.00000000000E+00  0.65298483021E+03  0.65298483022E+03  0.25500000920E-02 0.  1.
       -2   -1    0    0    0  501  0.00000000000E+00  0.00000000000E+00 -0.55551708589E+03  0.55551708590E+03  0.25500000920E-02 0. -1.
    10030    2    1    2    0    0  0.00000000000E+00  0.00000000000E+00  0.97467744321E+02  0.12085019161E+04  0.12045650336E+04 0.  0.
        4    1    3    3  502    0 -0.53231373257E+03  0.19663249976E+03  0.25118627439E+03  0.62057909020E+03  0.12699999809E+01 0.  1.
       -4    1    3    3    0  502  0.53231373257E+03 -0.19663249976E+03 -0.15371853007E+03  0.58792282592E+03  0.12699999809E+01 0. -1.
</event>
<event>
 5   0  0.9358428E-04  0.1194506E+04  0.7818609E-02  0.9117679E-01
       -1   -1    0    0    0  501  0.00000000000E+00  0.00000000000E+00  0.99526096168E+03  0.99526096170E+03  0.50400001928E-02 0. -1.
        1   -1    0    0  501    0  0.00000000000E+00  0.00000000000E+00 -0.35840973784E+03  0.35840973787E+03  0.50400001928E-02 0.  1.
    10030    2    1    2    0    0  0.00000000000E+00  0.00000000000E+00  0.63685122385E+03  0.13536706996E+04  0.11945061245E+04 0.  0.
        2    1    3    3  502    0  0.30047690812E+03  0.37952261121E+03 -0.78028626718E+02  0.49031852028E+03  0.25500000920E-02 0.  1.
       -2    1    3    3    0  502 -0.30047690812E+03 -0.37952261121E+03  0.71487985057E+03  0.86335217929E+03  0.25500000920E-02 0. -1.
</event>
<event>
 5   0  0.9208078E-04  0.1193459E+04  0.7818609E-02  0.9118601E-01
        1   -1    0    0  501    0  0.00000000000E+00  0.00000000000E+00  0.75582254177E+03  0.75582254179E+03  0.50400001928E-02 0. -1.
       -1   -1    0    0    0  501  0.00000000000E+00  0.00000000000E+00 -0.47112400802E+03  0.47112400804E+03  0.50400001928E-02 0.  1.
    10030    2    1    2    0    0  0.00000000000E+00  0.00000000000E+00  0.28469853376E+03  0.12269465498E+04  0.11934590823E+04 0.  0.
        3    1    3    3  502    0 -0.25834280638E+03 -0.38758944789E+03 -0.24110377823E+03  0.52449750028E+03  0.10100000352E+00 0.  1.
       -3    1    3    3    0  502  0.25834280638E+03  0.38758944789E+03  0.52580231199E+03  0.70244904955E+03  0.10100000352E+00 0. -1.
</event>
<event>
 5   0  0.1567019E-03  0.1208354E+04  0.7818609E-02  0.9105576E-01
        2   -1    0    0  501    0  0.00000000000E+00  0.00000000000E+00  0.28356223838E+04  0.28356223838E+04  0.25500000920E-02 0.  1.
       -2   -1    0    0    0  501  0.00000000000E+00  0.00000000000E+00 -0.12873003697E+03  0.12873003699E+03  0.25500000920E-02 0. -1.
    10030    2    1    2    0    0  0.00000000000E+00  0.00000000000E+00  0.27068923469E+04  0.29643524208E+04  0.12083538792E+04 0.  0.
        5    1    3    3  502    0  0.23704115376E+03 -0.39547756795E+03  0.23111956569E+04  0.23567431913E+04  0.46999998093E+01 0.  1.
       -5    1    3    3    0  502 -0.23704115376E+03  0.39547756795E+03  0.39569668994E+03  0.60760922948E+03  0.46999998093E+01 0. -1.
</event>
<event>
 5   0  0.9358428E-04  0.1215843E+04  0.7818609E-02  0.9099101E-01
       -1   -1    0    0    0  501  0.00000000000E+00  0.00000000000E+00  0.38695450339E+03  0.38695450342E+03  0.50400001928E-02 0.  1.
        1   -1    0    0  501    0  0.00000000000E+00  0.00000000000E+00 -0.95507017605E+03  0.95507017607E+03  0.50400001928E-02 0. -1.
    10030    2    1    2    0    0  0.00000000000E+00  0.00000000000E+00 -0.56811567266E+03  0.13420246795E+04  0.12158432559E+04 0.  0.
        2    1    3    3  502    0 -0.40594073992E+03 -0.24237449191E+03 -0.70586312900E+03  0.84957403182E+03  0.25500000920E-02 0. -1.
       -2    1    3    3    0  502  0.40594073992E+03  0.24237449191E+03  0.13774745634E+03  0.49245064767E+03  0.25500000920E-02 0.  1.
</event>
<event>
 5   0  0.9208078E-04  0.1194733E+04  0.7818609E-02  0.9117479E-01
        1   -1    0    0  501    0  0.00000000000E+00  0.00000000000E+00  0.35045440049E+03  0.35045440052E+03  0.50400001928E-02 0.  1.
       -1   -1    0    0    0  501  0.00000000000E+00  0.00000000000E+00 -0.10182404874E+04  0.10182404874E+04  0.50400001928E-02 0. -1.
    10030    2    1    2    0    0  0.00000000000E+00  0.00000000000E+00 -0.66778608692E+03  0.13686948879E+04  0.11947332080E+04 0.  0.
        3    1    3    3  502    0 -0.31645884737E+03 -0.46726712471E+02 -0.91184845030E+03  0.96633182409E+03  0.10100000352E+00 0. -1.
       -3    1    3    3    0  502  0.31645884737E+03  0.46726712471E+02  0.24406236337E+03  0.40236306385E+03  0.10100000352E+00 0.  1.
</event>
<event>
 5   0  0.9170776E-04  0.1205080E+04  0.7818609E-02  0.9108421E-01
       -1   -1    0    0    0  501  0.00000000000E+00  0.00000000000E+00  0.56816464143E+03  0.56816464146E+03  0.50400001928E-02 0. -1.
        1   -1    0    0  501    0  0.00000000000E+00  0.00000000000E+00 -0.63899529817E+03  0.63899529819E+03  0.50400001928E-02 0.  1.
    10030    2    1    2    0    0  0.00000000000E+00  0.00000000000E+00 -0.70830656739E+02  0.12071599396E+04  0.12050801376E+04 0.  0.
        5    1    3    3  502    0 -0.42965306902E+02  0.30366363431E+03  0.48410757983E+03  0.57309672765E+03  0.46999998093E+01 0. -1.
       -5    1    3    3    0  502  0.42965306902E+02 -0.30366363431E+03 -0.55493823657E+03  0.63406321199E+03  0.46999998093E+01 0.  1.
</event>
<event>
 5   0  0.1537557E-03  0.1177041E+04  0.7818609E-02  0.9133194E-01
        2   -1    0    0  501    0  0.00000000000E+00  0.00000000000E+00  0.12380996621E+04  0.12380996621E+04  0.25500000920E-02 0. -1.
       -2   -1    0    0    0  501  0.00000000000E+00  0.00000000000E+00 -0.27974823672E+03  0.27974823673E+03  0.25500000920E-02 0.  1.
    10030    2    1    2    0    0  0.00000000000E+00  0.00000000000E+00  0.95835142533E+03  0.15178478988E+04  0.11770406915E+04 0.  0.
        2    1    3    3  502    0  0.18783518157E+03 -0.32278168954E+03  0.10657222253E+04  0.11292625629E+04  0.25500000920E-02 0. -1.
       -2    1    3    3    0  502 -0.18783518157E+03  0.32278168954E+03 -0.10737079997E+03  0.38858533584E+03  0.25500000920E-02 0.  1.
</event>
<event>
 5   0  0.1537557E-03  0.1199565E+04  0.7818609E-02  0.9113237E-01
        2   -1    0    0  501    0  0.00000000000E+00  0.00000000000E+00  0.12148322669E+04  0.12148322669E+04  0.25500000920E-02 0.  1.
       -2   -1    0    0    0  501  0.00000000000E+00  0.00000000000E+00 -0.29612237801E+03  0.29612237802E+03  0.25500000920E-02 0. -1.
    10030    2    1    2    0    0  0.00000000000E+00  0.00000000000E+00  0.91870988892E+03  0.15109546450E+04  0.11995649541E+04 0.  0.
        2    1    3    3  502    0  0.33024056761E+03  0.22491515234E+03  0.10227901750E+04  0.10980643881E+04  0.25500000920E-02 0.  1.
       -2    1    3    3    0  502 -0.33024056761E+03 -0.22491515234E+03 -0.10408028611E+03  0.41289025686E+03  0.25500000920E-02 0. -1.
</event>
<event>
 5   0  0.1647550E-03  0.1200137E+04  0.7818609E-02  0.9112737E-01
       -2   -1    0    0    0  501  0.00000000000E+00  0.00000000000E+00  0.43520729910E+03  0.43520729910E+03  0.25500000920E-02 0.  1.
        2   -1    0    0  501    0  0.00000000000E+00  0.00000000000E+00 -0.82738082952E+03  0.82738082952E+03  0.25500000920E-02 0. -1.
    10030    2    1    2    0    0  0.00000000000E+00  0.00000000000E+00 -0.39217353042E+03  0.12625881286E+04  0.12001369524E+04 0.  0.
        3    1    3    3  502    0 -0.67944585894E+02 -0.56248946997E+03  0.11863653263E+02  0.56670241489E+03  0.10100000352E+00 0.  1.
       -3    1    3    3    0  502  0.67944585894E+02  0.56248946997E+03 -0.40403718369E+03  0.69588571373E+03  0.10100000352E+00 0. -1.
</event>
<event>
 5   0  0.1551501E-03  0.1206206E+04  0.7818609E-02  0.9107442E-01
        2   -1    0    0  501    0  0.00000000000E+00  0.00000000000E+00  0.28728490890E+03  0.28728490892E+03  0.25500000920E-02 0.  1.
       -2   -1    0    0    0  501  0.00000000000E+00  0.00000000000E+00 -0.12661057792E+04  0.12661057792E+04  0.25500000920E-02 0. -1.
    10030    2    1    2    0    0  0.00000000000E+00  0.00000000000E+00 -0.97882087029E+03  0.15533906881E+04  0.12062057593E+04 0.  0.
        4    1    3    3  502    0 -0.10601745163E+03 -0.55820474838E+03 -0.22896493261E+03  0.61258370402E+03  0.12699999809E+01 0.  1.
       -4    1    3    3    0  502  0.10601745163E+03  0.55820474838E+03 -0.74985593768E+03  0.94080698410E+03  0.12699999809E+01 0. -1.
</event>
<event>
 5   0  0.9169078E-04  0.1209270E+04  0.7818609E-02  0.9104781E-01
       -1   -1    0    0    0  501  0.00000000000E+00  0.00000000000E+00  0.61772896958E+03  0.61772896960E+03  0.50400001928E-02 0.  1.
        1   -1    0    0  501    0  0.00000000000E+00  0.00000000000E+00 -0.59181871115E+03  0.59181871117E+03  0.50400001928E-02 0. -1.
    10030    2    1    2    0    0  0.00000000000E+00  0.00000000000E+00  0.25910258430E+02  0.12095476808E+04  0.12092701313E+04 0.  0.
        1    1    3    3  502    0 -0.59864726478E+03  0.29981707432E+02 -0.66474130314E+02  0.60307235092E+03  0.50400001928E-02 0. -1.
       -1    1    3    3    0  502  0.59864726478E+03 -0.29981707432E+02  0.92384388744E+02  0.60647532986E+03  0.50400001928E-02 0.  1.
</event>
<event>
 5   0  0.1551501E-03  0.1200465E+04  0.7818609E-02  0.9112450E-01
        2   -1    0    0  501    0  0.00000000000E+00  0.00000000000E+00  0.26386128982E+04  0.26386128982E+04  0.25500000920E-02 0.  1.
       -2   -1    0    0    0  501  0.00000000000E+00  0.00000000000E+00 -0.13654106622E+03  0.13654106624E+03  0.25500000920E-02 0. -1.
    10030    2    1    2    0    0  0.00000000000E+00  0.00000000000E+00  0.25020718319E+04  0.27751539644E+04  0.12004649407E+04 0.  0.
        4    1    3    3  502    0 -0.12931686003E+03 -0.35347093764E+03  0.17016098052E+03  0.41306285990E+03  0.12699999809E+01 0. -1.
       -4    1    3    3    0  502  0.12931686003E+03  0.35347093764E+03  0.23319108514E+04  0.23620911045E+04  0.12699999809E+01 0.  1.
</event>
<event>
 5   0  0.8908478E-04  0.1211967E+04  0.7818609E-02  0.9102446E-01
       -1   -1    0    0    0  501  0.00000000000E+00  0.00000000000E+00  0.90917376810E+03  0.90917376811E+03  0.50400001928E-02 0.  1.
        1   -1    0    0  501    0  0.00000000000E+00  0.00000000000E+00 -0.40390094397E+03  0.40390094400E+03  0.50400001928E-02 0. -1.
    10030    2    1    2    0    0  0.00000000000E+00  0.00000000000E+00  0.50527282413E+03  0.13130747121E+04  0.12119672325E+04 0.  0.
        4    1    3    3  502    0 -0.28739839035E+02  0.38257817175E+03 -0.25556059313E+03  0.46098250022E+03  0.12699999809E+01 0. -1.
       -4    1    3    3    0  502  0.28739839035E+02 -0.38257817175E+03  0.76083341726E+03  0.85209221189E+03  0.12699999809E+01 0.  1.
</event>
<event>
 5   0  0.1597352E-03  0.1197945E+04  0.7818609E-02  0.9114657E-01
       -2   -1    0    0    0  501  0.00000000000E+00  0.00000000000E+00  0.60937701545E+03  0.60937701546E+03  0.25500000920E-02 0. -1.
        2   -1    0    0  501    0  0.00000000000E+00  0.00000000000E+00 -0.58874557623E+03  0.58874557623E+03  0.25500000920E-02 0.  1.
    10030    2    1    2    0    0  0.00000000000E+00  0.00000000000E+00  0.20631439224E+02  0.11981225917E+04  0.11979449438E+04 0.  0.
        1    1    3    3  502    0 -0.28213012302E+02 -0.45149409317E+03  0.40296167574E+03  0.60582258324E+03  0.50400001928E-02 0. -1.
       -1    1    3    3    0  502  0.28213012302E+02  0.45149409317E+03 -0.38233023652E+03  0.59230000845E+03  0.50400001928E-02 0.  1.
</event>
<event>
 5   0  0.9208078E-04  0.1217560E+04  0.7818609E-02  0.9097624E-01
        1   -1    0    0  501    0  0.00000000000E+00  0.00000000000E+00  0.14683605805E+04  0.14683605805E+04  0.50400001928E-02 0.  1.
       -1   -1    0    0    0  501  0.00000000000E+00  0.00000000000E+00 -0.25239927662E+03  0.25239927667E+03  0.50400001928E-02 0. -1.
    10030    2    1    2    0    0  0.00000000000E+00  0.00000000000E+00  0.12159613039E+04  0.17207598572E+04  0.12175600985E+04 0.  0.
        3    1    3    3  502    0  0.38835998403E+03 -0.46846077071E+03  0.63381585170E+03  0.87863616756E+03  0.10100000352E+00 0.  1.
       -3    1    3    3    0  502 -0.38835998403E+03  0.46846077071E+03  0.58214545216E+03  0.84212368959E+03  0.10100000352E+00 0. -1.
</event>
<event>
 5   0  0.1647550E-03  0.1202493E+04  0.7818609E-02  0.9110677E-01
        2   -1    0    0  501    0  0.00000000000E+00  0.00000000000E+00  0.47201515985E+03  0.47201515986E+03  0.25500000920E-02 0. -1.
       -2   -1    0    0    0  501  0.00000000000E+00  0.00000000000E+00 -0.76585987520E+03  0.76585987520E+03  0.25500000920E-02 0.  1.
    10030    2    1    2    0    0  0.00000000000E+00  0.00000000000E+00 -0.29384471535E+03  0.12378750351E+04  0.12024931957E+04 0.  0.
        3    1    3    3  502    0  0.51737896925E+03 -0.30114151497E+03 -0.20451722512E+03  0.63260929130E+03  0.10100000352E+00 0.  1.
       -3    1    3    3    0  502 -0.51737896925E+03  0.30114151497E+03 -0.89327490225E+02  0.60526574376E+03  0.10100000352E+00 0. -1.
</event>
<event>
 5   0  0.9170776E-04  0.1209282E+04  0.7818609E-02  0.9104770E-01
       -1   -1    0    0    0  501  0.00000000000E+00  0.00000000000E+00  0.38658805137E+03  0.38658805140E+03  0.50400001928E-02 0.  1.
        1   -1    0    0  501    0  0.00000000000E+00  0.00000000000E+00 -0.94568592259E+03  0.94568592261E+03  0.50400001928E-02 0. -1.
    10030    2    1    2    0    0  0.00000000000E+00  0.00000000000E+00 -0.55909787123E+03  0.13322739740E+04  0.12092822302E+04 0.  0.
        5    1    3    3  502    0 -0.38286975421E+03 -0.45937529210E+03 -0.18129376815E+03  0.62490353500E+03  0.46999998093E+01 0. -1.
       -5    1    3    3    0  502  0.38286975421E+03  0.45937529210E+03 -0.37780410307E+03  0.70737043901E+03  0.46999998093E+01 0.  1.
</event>
<event>
 5   0  0.1597352E-03  0.1195935E+04  0.7818609E-02  0.9116422E-01
        2   -1    0    0  501    0  0.00000000000E+00  0.00000000000E+00  0.81639960107E+03  0.81639960107E+03  0.25500000920E-02 0. -1.
       -2   -1    0    0    0  501  0.00000000000E+00  0.00000000000E+00 -0.43797839469E+03  0.43797839470E+03  0.25500000920E-02 0.  1.
    10030    2    1    2    0    0  0.00000000000E+00  0.00000000000E+00  0.37842120638E+03  0.12543779958E+04  0.11959354275E+04 0.  0.
        1    1    3    3  502    0 -0.50917310523E+02 -0.58939953687E+03  0.28053439750E+03  0.65473959311E+03  0.50400001928E-02 0.  1.
       -1    1    3    3    0  502  0.50917310523E+02  0.58939953687E+03  0.97886808874E+02  0.59963840266E+03  0.50400001928E-02 0. -1.
</event>
<event>
 5   0  0.1647550E-03  0.1197173E+04  0.7818609E-02  0.9115335E-01
        2   -1    0    0  501    0  0.00000000000E+00  0.00000000000E+00  0.49478800471E+03  0.49478800472E+03  0.25500000920E-02 0. -1.
       -2   -1    0    0    0  501  0.00000000000E+00  0.00000000000E+00 -0.72416035608E+03  0.72416035609E+03  0.25500000920E-02 0.  1.
    10030    2    1    2    0    0  0.00000000000E+00  0.00000000000E+00 -0.22937235137E+03  0.12189483608E+04  0.11971730997E+04 0.  0.
        3    1    3    3  502    0 -0.36889772326E+03 -0.44845809887E+03 -0.26260645979E+03  0.63730868469E+03  0.10100000352E+00 0.  1.
       -3    1    3    3    0  502  0.36889772326E+03  0.44845809887E+03  0.33234108414E+02  0.58163967611E+03  0.10100000352E+00 0. -1.
</event>
<event>
 5   0  0.9170776E-04  0.1204943E+04  0.7818609E-02  0.9108541E-01
        1   -1    0    0  501    0  0.00000000000E+00  0.00000000000E+00  0.10742588776E+04  0.10742588776E+04  0.50400001928E-02 0.  1.
       -1   -1    0    0    0  501  0.00000000000E+00  0.00000000000E+00 -0.33788135110E+03  0.33788135114E+03  0.50400001928E-02 0. -1.
    10030    2    1    2    0    0  0.00000000000E+00  0.00000000000E+00  0.73637752654E+03  0.14121402288E+04  0.12049432203E+04 0.  0.
        5    1    3    3  502    0 -0.18217255299E+03 -0.25119602175E+03  0.97338075050E+03  0.10216547635E+04  0.46999998093E+01 0.  1.
       -5    1    3    3    0  502  0.18217255299E+03  0.25119602175E+03 -0.23700322397E+03  0.39048546525E+03  0.46999998093E+01 0. -1.
</event>
<event>
 5   0  0.8908478E-04  0.1204816E+04  0.7818609E-02  0.9108652E-01
       -1   -1    0    0    0  501  0.00000000000E+00  0.00000000000E+00  0.71034269358E+03  0.71034269360E+03  0.50400001928E-02 0. -1.
        1   -1    0    0  501    0  0.00000000000E+00  0.00000000000E+00 -0.51087337723E+03  0.51087337725E+03  0.50400001928E-02 0.  1.
    10030    2    1    2    0    0  0.00000000000E+00  0.00000000000E+00  0.19946931636E+03  0.12212160709E+04  0.12048156222E+04 0.  0.
        4    1    3    3  502    0 -0.28943560054E+03  0.33278271939E+02  0.63418158998E+03  0.69790279567E+03  0.12699999809E+01 0. -1.
       -4    1    3    3    0  502  0.28943560054E+03 -0.33278271939E+02 -0.43471227362E+03  0.52331327518E+03  0.12699999809E+01 0.  1.
</event>
<event>
 5   0  0.9358428E-04  0.1211329E+04  0.7818609E-02  0.9102998E-01
        1   -1    0    0  501    0  0.00000000000E+00  0.00000000000E+00  0.89823774058E+03  0.89823774060E+03  0.50400001928E-02 0. -1.
       -1   -1    0    0    0  501  0.00000000000E+00  0.00000000000E+00 -0.40838764457E+03  0.40838764460E+03  0.50400001928E-02 0.  1.
    10030    2    1    2    0    0  0.00000000000E+00  0.00000000000E+00  0.48985009602E+03  0.13066253852E+04  0.12113285189E+04 0.  0.
        2    1    3    3  502    0  0.44218908112E+03 -0.38562110169E+03  0.40706473892E+03  0.71409839603E+03  0.25500000920E-02 0. -1.
       -2    1    3    3    0  502 -0.44218908112E+03  0.38562110169E+03  0.82785357099E+02  0.59252698917E+03  0.25500000920E-02 0.  1.
</event>
<event>
 5   0  0.1551501E-03  0.1188354E+04  0.7818609E-02  0.9123111E-01
        2   -1    0    0  501    0  0.00000000000E+00  0.00000000000E+00  0.94512176264E+03  0.94512176264E+03  0.25500000920E-02 0. -1.
       -2   -1    0    0    0  501  0.00000000000E+00  0.00000000000E+00 -0.37354614755E+03  0.37354614755E+03  0.25500000920E-02 0.  1.
    10030    2    1    2    0    0  0.00000000000E+00  0.00000000000E+00  0.57157561509E+03  0.13186679102E+04  0.11883544815E+04 0.  0.
        4    1    3    3  502    0 -0.45790857525E+03 -0.37348368616E+03  0.35486041631E+03  0.68927342548E+03  0.12699999809E+01 0.  1.
       -4    1    3    3    0  502  0.45790857525E+03  0.37348368616E+03  0.21671519878E+03  0.62939448472E+03  0.12699999809E+01 0. -1.
</event>
<event>
 5   0  0.1597352E-03  0.1204016E+04  0.7818609E-02  0.9109348E-01
       -2   -1    0    0    0  501  0.00000000000E+00  0.00000000000E+00  0.56397279090E+03  0.56397279090E+03  0.25500000920E-02 0.  1.
        2   -1    0    0  501    0  0.00000000000E+00  0.00000000000E+00 -0.64260862136E+03  0.64260862137E+03  0.25500000920E-02 0. -1.
    10030    2    1    2    0    0  0.00000000000E+00  0.00000000000E+00 -0.78635830466E+02  0.12065814123E+04  0.12040162418E+04 0.  0.
        1    1    3    3  502    0  0.57700813939E+03 -0.68670554930E+02 -0.19700543468E+03  0.61356758337E+03  0.50400001928E-02 0.  1.
       -1    1    3    3    0  502 -0.57700813939E+03  0.68670554930E+02  0.11836960422E+03  0.59301382890E+03  0.50400001928E-02 0. -1.
</event>
<event>
 5   0  0.9169078E-04  0.1201474E+04  0.7818609E-02  0.9111567E-01
       -1   -1    0    0    0  501  0.00000000000E+00  0.00000000000E+00  0.39681752198E+03  0.39681752201E+03  0.50400001928E-02 0. -1.
        1   -1    0    0  501    0  0.00000000000E+00  0.00000000000E+00 -0.90944810341E+03  0.90944810343E+03  0.50400001928E-02 0.  1.
    10030    2    1    2    0    0  0.00000000000E+00  0.00000000000E+00 -0.51263058143E+03  0.13062656254E+04  0.12014739994E+04 0.  0.
        1    1    3    3  502    0 -0.11090631446E+03  0.56912331985E+03 -0.42712770353E+03  0.72016639670E+03  0.50400001928E-02 0.  1.
       -1    1    3    3    0  502  0.11090631446E+03 -0.56912331985E+03 -0.85502877899E+02  0.58609922874E+03  0.50400001928E-02 0. -1.
</event>
<event>
 5   0  0.1567019E-03  0.1197357E+04  0.7818609E-02  0.9115173E-01
        2   -1    0    0  501    0  0.00000000000E+00  0.00000000000E+00  0.52774805402E+03  0.52774805402E+03  0.25500000920E-02 0. -1.
       -2   -1    0    0    0  501  0.00000000000E+00  0.00000000000E+00 -0.67914225817E+03  0.67914225817E+03  0.25500000920E-02 0.  1.
    10030    2    1    2    0    0  0.00000000000E+00  0.00000000000E+00 -0.15139420415E+03  0.12068903122E+04  0.11973570982E+04 0.  0.
        5    1    3    3  502    0 -0.52265793321E+03 -0.21365471664E+03 -0.27621378923E+03  0.62859828225E+03  0.46999998093E+01 0.  1.
       -5    1    3    3    0  502  0.52265793321E+03  0.21365471664E+03  0.12481958507E+03  0.57829202995E+03  0.46999998093E+01 0. -1.
</event>
<event>
 5   0  0.8908478E-04  0.1196858E+04  0.7818609E-02  0.9115611E-01
       -1   -1    0    0    0  501  0.00000000000E+00  0.00000000000E+00  0.49261862256E+03  0.49261862259E+03  0.50400001928E-02 0. -1.
        1   -1    0    0  501    0  0.00000000000E+00  0.00000000000E+00 -0.72696699569E+03  0.72696699571E+03  0.50400001928E-02 0.  1.
    10030    2    1    2    0    0  0.00000000000E+00  0.00000000000E+00 -0.23434837313E+03  0.12195856183E+04  0.11968583543E+04 0.  0.
        4    1    3    3  502    0 -0.90113855179E+02  0.29135070319E+03 -0.64183991723E+03  0.71060947882E+03  0.12699999809E+01 0.  1.
       -4    1    3    3    0  502  0.90113855179E+02 -0.29135070319E+03  0.40749154410E+03  0.50897613947E+03  0.12699999809E+01 0. -1.
</event>
<event>
 5   0  0.9208078E-04  0.1210606E+04  0.7818609E-02  0.9103624E-01
       -1   -1    0    0    0  501  0.00000000000E+00  0.00000000000E+00  0.45470735343E+03  0.45470735345E+03  0.50400001928E-02 0.  1.
        1   -1    0    0  501    0  0.00000000000E+00  0.00000000000E+00 -0.80577424082E+03  0.80577424083E+03  0.50400001928E-02 0. -1.
    10030    2    1    2    0    0  0.00000000000E+00  0.00000000000E+00 -0.35106688739E+03  0.12604815943E+04  0.12106055882E+04 0.  0.
        3    1    3    3  502    0  0.13926574362E+02  0.60311278450E+03 -0.22709627428E+03  0.64460197665E+03  0.10100000352E+00 0. -1.
       -3    1    3    3    0  502 -0.13926574362E+02 -0.60311278450E+03 -0.12397061311E+03  0.61587961764E+03  0.10100000352E+00 0.  1.
</event>
<event>
 5   0  0.6137750E-04  0.1201636E+04  0.7818609E-02  0.9111425E-01
        3   -1    0    0  501    0  0.00000000000E+00  0.00000000000E+00  0.17013159886E+04  0.17013159916E+04  0.10100000352E+00 0.  1.
       -3   -1    0    0    0  501  0.00000000000E+00  0.00000000000E+00 -0.21217837024E+03  0.21217839428E+03  0.10100000352E+00 0. -1.
    10030    2    1    2    0    0  0.00000000000E+00  0.00000000000E+00  0.14891376184E+04  0.19134943859E+04  0.12016363503E+04 0.  0.
        1    1    3    3  502    0 -0.37090468355E+03  0.35419472474E+03  0.12429650265E+04  0.13446137900E+04  0.50400001928E-02 0.  1.
       -1    1    3    3    0  502  0.37090468355E+03 -0.35419472474E+03  0.24617259193E+03  0.56888059587E+03  0.50400001928E-02 0. -1.
</event>
<event>
 5   0  0.9358428E-04  0.1204585E+04  0.7818609E-02  0.9108853E-01
       -1   -1    0    0    0  501  0.00000000000E+00  0.00000000000E+00  0.46063165510E+03  0.46063165513E+03  0.50400001928E-02 0. -1.
        1   -1    0    0  501    0  0.00000000000E+00  0.00000000000E+00 -0.78751932740E+03  0.78751932742E+03  0.50400001928E-02 0.  1.
    10030    2    1    2    0    0  0.00000000000E+00  0.00000000000E+00 -0.32688767230E+03  0.12481509826E+04  0.12045851257E+04 0.  0.
        2    1    3    3  502    0  0.11469853087E+03  0.47280166609E+03  0.20444519227E+03  0.52772625962E+03  0.25500000920E-02 0. -1.
       -2    1    3    3    0  502 -0.11469853087E+03 -0.47280166609E+03 -0.53133286457E+03  0.72042472294E+03  0.25500000920E-02 0.  1.
</event>
<event>
 5   0  0.6137750E-04  0.1196240E+04  0.7818609E-02  0.9116154E-01
        3   -1    0    0  501    0  0.00000000000E+00  0.00000000000E+00  0.32161904140E+03  0.32161905726E+03  0.10100000352E+00 0.  1.
       -3   -1    0    0    0  501  0.00000000000E+00  0.00000000000E+00 -0.11123336640E+04  0.11123336686E+04  0.10100000352E+00 0. -1.
    10030    2    1    2    0    0  0.00000000000E+00  0.00000000000E+00 -0.79071462265E+03  0.14339527259E+04  0.11962402792E+04 0.  0.
        5    1    3    3  502    0  0.88966948956E+02  0.22519218966E+03  0.26021993503E+03  0.35547594135E+03  0.46999998093E+01 0.  1.
       -5    1    3    3    0  502 -0.88966948956E+02 -0.22519218966E+03 -0.10509345577E+04  0.10784767845E+04  0.46999998093E+01 0. -1.
</event>
<event>
 5   0  0.1551501E-03  0.1208857E+04  0.7818609E-02  0.9105139E-01
        2   -1    0    0  501    0  0.00000000000E+00  0.00000000000E+00  0.55959671381E+03  0.55959671382E+03  0.25500000920E-02 0.  1.
       -2   -1    0    0    0  501  0.00000000000E+00  0.00000000000E+00 -0.65285224187E+03  0.65285224188E+03  0.25500000920E-02 0. -1.
    10030    2    1    2    0    0  0.00000000000E+00  0.00000000000E+00 -0.93255528059E+02  0.12124489557E+04  0.12088572607E+04 0.  0.
        4    1    3    3  502    0  0.46725701029E+03 -0.37994494942E+03 -0.98210892993E+02  0.61019199492E+03  0.12699999809E+01 0.  1.
       -4    1    3    3    0  502 -0.46725701029E+03  0.37994494942E+03  0.49553649344E+01  0.60225696078E+03  0.12699999809E+01 0. -1.
</event>
<event>
 5   0  0.9169078E-04  0.1201116E+04  0.7818609E-02  0.9111880E-01
        1   -1    0    0  501    0  0.00000000000E+00  0.00000000000E+00  0.45630597334E+03  0.45630597337E+03  0.50400001928E-02 0.  1.
       -1   -1    0    0    0  501  0.00000000000E+00  0.00000000000E+00 -0.79041252292E+03  0.79041252294E+03  0.50400001928E-02 0. -1.
    10030    2    1    2    0    0  0.00000000000E+00  0.00000000000E+00 -0.33410654958E+03  0.12467184963E+04  0.12011160737E+04 0.  0.
        1    1    3    3  502    0 -0.45845473130E+03  0.38208910958E+03 -0.97446579575E+02  0.60470543590E+03  0.50400001928E-02 0.  1.
       -1    1    3    3    0  502  0.45845473130E+03 -0.38208910958E+03 -0.23665997001E+03  0.64201306041E+03  0.50400001928E-02 0. -1.
</event>
<event>
 5   0  0.9208078E-04  0.1187141E+04  0.7818609E-02  0.9124187E-01
        1   -1    0    0  501    0  0.00000000000E+00  0.00000000000E+00  0.17423683887E+04  0.17423683887E+04  0.50400001928E-02 0.  1.
       -1   -1    0    0    0  501  0.00000000000E+00  0.00000000000E+00 -0.20221107818E+03  0.20221107825E+03  0.50400001928E-02 0. -1.
    10030    2    1    2    0    0  0.00000000000E+00  0.00000000000E+00  0.15401573105E+04  0.19445794670E+04  0.11871414247E+04 0.  0.
        3    1    3    3  502    0  0.15451580634E+03 -0.55861419275E+03  0.56029993103E+03  0.80613954975E+03  0.10100000352E+00 0. -1.
       -3    1    3    3    0  502 -0.15451580634E+03  0.55861419275E+03  0.97985737951E+03  0.11384399172E+04  0.10100000352E+00 0.  1.
</event>
<event>
 5   0  0.1537557E-03  0.1201854E+04  0.7818609E-02  0.9111235E-01
        2   -1    0    0  501    0  0.00000000000E+00  0.00000000000E+00  0.25121060473E+04  0.25121060473E+04  0.25500000920E-02 0. -1.
       -2   -1    0    0    0  501  0.00000000000E+00  0.00000000000E+00 -0.14374925445E+03  0.14374925447E+03  0.25500000920E-02 0.  1.
    10030    2    1    2    0    0  0.00000000000E+00  0.00000000000E+00  0.23683567928E+04  0.26558553018E+04  0.12018541865E+04 0.  0.
        2    1    3    3  502    0 -0.48136407507E+03  0.30646139306E+03  0.76791777955E+03  0.95672758629E+03  0.25500000920E-02 0.  1.
       -2    1    3    3    0  502  0.48136407507E+03 -0.30646139306E+03  0.16004390133E+04  0.16991277155E+04  0.25500000920E-02 0. -1.
</event>
<event>
 5   0  0.1551501E-03  0.1199559E+04  0.7818609E-02  0.9113243E-01
       -2   -1    0    0    0  501  0.00000000000E+00  0.00000000000E+00  0.13149693144E+04  0.13149693144E+04  0.25500000920E-02 0. -1.
        2   -1    0    0  501    0  0.00000000000E+00  0.00000000000E+00 -0.27356933869E+03  0.27356933870E+03  0.25500000920E-02 0.  1.
    10030    2    1    2    0    0  0.00000000000E+00  0.00000000000E+00  0.10413999757E+04  0.15885386531E+04  0.11995587284E+04 0.  0.
        4    1    3    3  502    0  0.58772830020E+02  0.39654823487E+03  0.11114916669E+04  0.11815752564E+04  0.12699999809E+01 0. -1.
       -4    1    3    3    0  502 -0.58772830020E+02 -0.39654823487E+03 -0.70091691221E+02  0.40696339664E+03  0.12699999809E+01 0.  1.
</event>
<event>
 5   0  0.9170776E-04  0.1197033E+04  0.7818609E-02  0.9115457E-01
       -1   -1    0    0    0  501  0.00000000000E+00  0.00000000000E+00  0.62141704178E+03  0.62141704180E+03  0.50400001928E-02 0. -1.
        1   -1    0    0  501    0  0.00000000000E+00  0.00000000000E+00 -0.57646014276E+03  0.57646014278E+03  0.50400001928E-02 0.  1.
    10030    2    1    2    0    0  0.00000000000E+00  0.00000000000E+00  0.44956899025E+02  0.11978771846E+04  0.11970332604E+04 0.  0.
        5    1    3    3  502    0  0.15447669086E+03 -0.17648807466E+03 -0.52853573655E+03  0.57825876848E+03  0.46999998093E+01 0.  1.
       -5    1    3    3    0  502 -0.15447669086E+03  0.17648807466E+03  0.57349263557E+03  0.61961841610E+03  0.46999998093E+01 0. -1.
</event>
<event>
 5   0  0.1551501E-03  0.1202642E+04  0.7818609E-02  0.9110547E-01
        2   -1    0    0  501    0  0.00000000000E+00  0.00000000000E+00  0.66524738282E+03  0.66524738282E+03  0.25500000920E-02 0.  1.
       -2   -1    0    0    0  501  0.00000000000E+00  0.00000000000E+00 -0.54353726471E+03  0.54353726472E+03  0.25500000920E-02 0. -1.
    10030    2    1    2    0    0  0.00000000000E+00  0.00000000000E+00  0.12171011811E+03  0.12087846475E+04  0.12026416637E+04 0.  0.
        4    1    3    3  502    0 -0.53501080312E+03 -0.20653818850E+03  0.24258387004E+03  0.62269023572E+03  0.12699999809E+01 0. -1.
       -4    1    3    3    0  502  0.53501080312E+03  0.20653818850E+03 -0.12087375193E+03  0.58609441182E+03  0.12699999809E+01 0.  1.
</event>
<event>
 5   0  0.9358428E-04  0.1186130E+04  0.7818609E-02  0.9125084E-01
        1   -1    0    0  501    0  0.00000000000E+00  0.00000000000E+00  0.14972376380E+04  0.14972376380E+04  0.50400001928E-02 0. -1.
       -1   -1    0    0    0  501  0.00000000000E+00  0.00000000000E+00 -0.23491669780E+03  0.23491669786E+03  0.50400001928E-02 0.  1.
    10030    2    1    2    0    0  0.00000000000E+00  0.00000000000E+00  0.12623209402E+04  0.17321543358E+04  0.11861300465E+04 0.  0.
        2    1    3    3  502    0 -0.35546226438E+02  0.50357854777E+03  0.10856791048E+04  0.11973111569E+04  0.25500000920E-02 0. -1.
       -2    1    3    3    0  502  0.35546226438E+02 -0.50357854777E+03  0.17664183540E+03  0.53484317889E+03  0.25500000920E-02 0.  1.
</event>
<event>
 5   0  0.1567019E-03  0.1199130E+04  0.7818609E-02  0.9113618E-01
       -2   -1    0    0    0  501  0.00000000000E+00  0.00000000000E+00  0.37649440493E+03  0.37649440494E+03  0.25500000920E-02 0. -1.
        2   -1    0    0  501    0  0.00000000000E+00  0.00000000000E+00 -0.95480346115E+03  0.95480346115E+03  0.25500000920E-02 0.  1.
    10030    2    1    2    0    0  0.00000000000E+00  0.00000000000E+00 -0.57830905621E+03  0.13312978661E+04  0.11991299528E+04 0.  0.
        5    1    3    3  502    0 -0.16758513319E+03  0.31327544491E+03  0.24701360083E+03  0.43274021103E+03  0.46999998093E+01 0. -1.
       -5    1    3    3    0  502  0.16758513319E+03 -0.31327544491E+03 -0.82532265705E+03  0.89855765507E+03  0.46999998093E+01 0.  1.
</event>
<event>
 5   0  0.9358428E-04  0.1203368E+04  0.7818609E-02  0.9109914E-01
        1   -1    0    0  501    0  0.00000000000E+00  0.00000000000E+00  0.50651438198E+03  0.50651438200E+03  0.50400001928E-02 0. -1.
       -1   -1    0    0    0  501  0.00000000000E+00  0.00000000000E+00 -0.71473489118E+03  0.71473489120E+03  0.50400001928E-02 0.  1.
    10030    2    1    2    0    0  0.00000000000E+00  0.00000000000E+00 -0.20822050921E+03  0.12212492732E+04  0.12033677770E+04 0.  0.
        2    1    3    3  502    0  0.38963819603E+03  0.39797197775E+03  0.12692109471E+03  0.57123426295E+03  0.25500000920E-02 0. -1.
       -2    1    3    3    0  502 -0.38963819603E+03 -0.39797197775E+03 -0.33514160391E+03  0.65001501025E+03  0.25500000920E-02 0.  1.
</event>
<event>
 5   0  0.1647550E-03  0.1201244E+04  0.7818609E-02  0.9111769E-01
       -2   -1    0    0    0  501  0.00000000000E+00  0.00000000000E+00  0.24464440344E+03  0.24464440345E+03  0.25500000920E-02 0.  1.
        2   -1    0    0  501    0  0.00000000000E+00  0.00000000000E+00 -0.14745752880E+04  0.14745752880E+04  0.25500000920E-02 0. -1.
    10030    2    1    2    0    0  0.00000000000E+00  0.00000000000E+00 -0.12299308846E+04  0.17192196915E+04  0.12012436750E+04 0.  0.
        3    1    3    3  502    0 -0.20572464662E+03 -0.53936266411E+03 -0.85235428375E+03  0.10294379772E+04  0.10100000352E+00 0. -1.
       -3    1    3    3    0  502  0.20572464662E+03  0.53936266411E+03 -0.37757660082E+03  0.68978171427E+03  0.10100000352E+00 0.  1.
</event>
<event>
 5   0  0.6137750E-04  0.1213908E+04  0.7818609E-02  0.9100769E-01
        4   -1    0    0  501    0  0.00000000000E+00  0.00000000000E+00  0.59605732207E+03  0.59605867504E+03  0.12699999809E+01 0. -1.
       -4   -1    0    0    0  501  0.00000000000E+00  0.00000000000E+00 -0.61804743965E+03  0.61804874449E+03  0.12699999809E+01 0.  1.
    10030    2    1    2    0    0  0.00000000000E+00  0.00000000000E+00 -0.21990117584E+02  0.12141074195E+04  0.12139082588E+04 0.  0.
        2    1    3    3  502    0  0.35468254871E+03 -0.43069674021E+03  0.22798749009E+03  0.60272521768E+03  0.25500000920E-02 0. -1.
       -2    1    3    3    0  502 -0.35468254871E+03  0.43069674021E+03 -0.24997760767E+03  0.61138220184E+03  0.25500000920E-02 0.  1.
</event>
<event>
 5   0  0.1537557E-03  0.1206916E+04  0.7818609E-02  0.9106824E-01
       -2   -1    0    0    0  501  0.00000000000E+00  0.00000000000E+00  0.61265352291E+03  0.61265352292E+03  0.25500000920E-02 0. -1.
        2   -1    0    0  501    0  0.00000000000E+00  0.00000000000E+00 -0.59440061748E+03  0.59440061749E+03  0.25500000920E-02 0.  1.
    10030    2    1    2    0    0  0.00000000000E+00  0.00000000000E+00  0.18252905431E+02  0.12070541404E+04  0.12069161236E+04 0.  0.
        2    1    3    3  502    0 -0.36571896135E+03 -0.14810636414E+02 -0.47071161253E+03  0.59627102548E+03  0.25500000920E-02 0.  1.
       -2    1    3    3    0  502  0.36571896135E+03  0.14810636414E+02  0.48896451796E+03  0.61078311492E+03  0.25500000920E-02 0. -1.
</event>
<event>
 5   0  0.9170776E-04  0.1188403E+04  0.7818609E-02  0.9123068E-01
       -1   -1    0    0    0  501  0.00000000000E+00  0.00000000000E+00  0.29220745875E+03  0.29220745880E+03  0.50400001928E-02 0. -1.
        1   -1    0    0  501    0  0.00000000000E+00  0.00000000000E+00 -0.12083043948E+04  0.12083043949E+04  0.50400001928E-02 0.  1.
    10030    2    1    2    0    0  0.00000000000E+00  0.00000000000E+00 -0.91609693609E+03  0.15005118536E+04  0.11884032256E+04 0.  0.
        5    1    3    3  502    0 -0.36578795810E+03 -0.35154658535E+03 -0.67515117945E+02  0.51182635054E+03  0.46999998093E+01 0. -1.
       -5    1    3    3    0  502  0.36578795810E+03  0.35154658535E+03 -0.84858181815E+03  0.98868550310E+03  0.46999998093E+01 0.  1.
</event>
<event>
 5   0  0.1551501E-03  0.1201175E+04  0.7818609E-02  0.9111829E-01
       -2   -1    0    0    0  501  0.00000000000E+00  0.00000000000E+00  0.25148750873E+03  0.25148750875E+03  0.25500000920E-02 0.  1.
        2   -1    0    0  501    0  0.00000000000E+00  0.00000000000E+00 -0.14342864516E+04  0.14342864516E+04  0.25500000920E-02 0. -1.
    10030    2    1    2    0    0  0.00000000000E+00  0.00000000000E+00 -0.11827989429E+04  0.16857739604E+04  0.12011746360E+04 0.  0.
        4    1    3    3  502    0 -0.78897143549E+02 -0.23965456901E+03 -0.13562981372E+04  0.13795670776E+04  0.12699999809E+01 0. -1.
       -4    1    3    3    0  502  0.78897143549E+02  0.23965456901E+03  0.17349919434E+03  0.30620688275E+03  0.12699999809E+01 0.  1.
</event>
<event>
 5   0  0.1567019E-03  0.1204990E+04  0.7818609E-02  0.9108500E-01
       -2   -1    0    0    0  501  0.00000000000E+00  0.00000000000E+00  0.17408099819E+03  0.17408099821E+03  0.25500000920E-02 0.  1.
        2   -1    0    0  501    0  0.00000000000E+00  0.00000000000E+00 -0.20852357969E+04  0.20852357970E+04  0.25500000920E-02 0. -1.
    10030    2    1    2    0    0  0.00000000000E+00  0.00000000000E+00 -0.19111547988E+04  0.22593167952E+04  0.12049895087E+04 0.  0.
        5    1    3    3  502    0 -0.36805778192E+03  0.23003789046E+03 -0.17213265826E+03  0.46694293432E+03  0.46999998093E+01 0.  1.
       -5    1    3    3    0  502  0.36805778192E+03 -0.23003789046E+03 -0.17390221405E+04  0.17923738608E+04  0.46999998093E+01 0. -1.
</event>
<event>
 5   0  0.8908478E-04  0.1200592E+04  0.7818609E-02  0.9112339E-01
        1   -1    0    0  501    0  0.00000000000E+00  0.00000000000E+00  0.33898601645E+03  0.33898601649E+03  0.50400001928E-02 0. -1.
       -1   -1    0    0    0  501  0.00000000000E+00  0.00000000000E+00 -0.10630385980E+04  0.10630385980E+04  0.50400001928E-02 0.  1.
    10030    2    1    2    0    0  0.00000000000E+00  0.00000000000E+00 -0.72405258154E+03  0.14020246145E+04  0.12005918869E+04 0.  0.
        4    1    3    3  502    0  0.36113816904E+03  0.40450147610E+03 -0.66274073227E+03  0.85631134082E+03  0.12699999809E+01 0.  1.
       -4    1    3    3    0  502 -0.36113816904E+03 -0.40450147610E+03 -0.61311849271E+02  0.54571327368E+03  0.12699999809E+01 0. -1.
</event>
<event>
 5   0  0.6137750E-04  0.1207780E+04  0.7818609E-02  0.9106074E-01
        4   -1    0    0  501    0  0.00000000000E+00  0.00000000000E+00  0.26648582087E+03  0.26648884710E+03  0.12699999809E+01 0. -1.
       -4   -1    0    0    0  501  0.00000000000E+00  0.00000000000E+00 -0.13684795853E+04  0.13684801746E+04  0.12699999809E+01 0.  1.
    10030    2    1    2    0    0  0.00000000000E+00  0.00000000000E+00 -0.11019937644E+04  0.16349690217E+04  0.12077803795E+04 0.  0.
        4    1    3    3  502    0 -0.25291272700E+03  0.51485791556E+03 -0.29544469215E+03  0.64523848283E+03  0.12699999809E+01 0. -1.
       -4    1    3    3    0  502  0.25291272700E+03 -0.51485791556E+03 -0.80654907228E+03  0.98973053888E+03  0.12699999809E+01 0.  1.
</event>
<event>
 5   0  0.1567019E-03  0.1188312E+04  0.7818609E-02  0.9123149E-01
        2   -1    0    0  501    0  0.00000000000E+00  0.00000000000E+00  0.65559577144E+03  0.65559577144E+03  0.25500000920E-02 0. -1.
       -2   -1    0    0    0  501  0.00000000000E+00  0.00000000000E+00 -0.53847430707E+03  0.53847430708E+03  0.25500000920E-02 0.  1.
    10030    2    1    2    0    0  0.00000000000E+00  0.00000000000E+00  0.11712146436E+03  0.11940700785E+04  0.11883122128E+04 0.  0.
        5    1    3    3  502    0 -0.13947132011E+02 -0.38827534177E+03 -0.39311378916E+03  0.55273212747E+03  0.46999998093E+01 0.  1.
       -5    1    3    3    0  502  0.13947132011E+02  0.38827534177E+03  0.51023525352E+03  0.64133795105E+03  0.46999998093E+01 0. -1.
</event>
<event>
 5   0  0.9208078E-04  0.1178574E+04  0.7818609E-02  0.9131820E-01
        1   -1    0    0  501    0  0.00000000000E+00  0.00000000000E+00  0.26725329383E+04  0.26725329383E+04  0.50400001928E-02 0.  1.
       -1   -1    0    0    0  501  0.00000000000E+00  0.00000000000E+00 -0.12993641378E+03  0.12993641388E+03  0.50400001928E-02 0. -1.
    10030    2    1    2    0    0  0.00000000000E+00  0.00000000000E+00  0.25425965245E+04  0.28024693522E+04  0.11785743012E+04 0.  0.
        3    1    3    3  502    0 -0.52066545594E+02 -0.57628097013E+03  0.15366030589E+04  0.16419377736E+04  0.10100000352E+00 0. -1.
       -3    1    3    3    0  502  0.52066545594E+02  0.57628097013E+03  0.10059934656E+04  0.11605315785E+04  0.10100000352E+00 0.  1.
</event>
<event>
 5   0  0.1597352E-03  0.1247562E+04  0.7818609E-02  0.9072215E-01
       -2   -1    0    0    0  501  0.00000000000E+00  0.00000000000E+00  0.76141238590E+03  0.76141238590E+03  0.25500000920E-02 0.  1.
        2   -1    0    0  501    0  0.00000000000E+00  0.00000000000E+00 -0.51102770721E+03  0.51102770722E+03  0.25500000920E-02 0. -1.
    10030    2    1    2    0    0  0.00000000000E+00  0.00000000000E+00  0.25038467868E+03  0.12724400931E+04  0.12475621440E+04 0.  0.
        1    1    3    3  502    0  0.23270508906E+02 -0.19441325387E+03  0.72925662069E+03  0.75508492814E+03  0.50400001928E-02 0.  1.
       -1    1    3    3    0  502 -0.23270508906E+02  0.19441325387E+03 -0.47887194201E+03  0.51735516498E+03  0.50400001928E-02 0. -1.
</event>
<event>
 5   0  0.9169078E-04  0.1202754E+04  0.7818609E-02  0.9110449E-01
        1   -1    0    0  501    0  0.00000000000E+00  0.00000000000E+00  0.14080025035E+04  0.14080025035E+04  0.50400001928E-02 0.  1.
       -1   -1    0    0    0  501  0.00000000000E+00  0.00000000000E+00 -0.25685628035E+03  0.25685628040E+03  0.50400001928E-02 0. -1.
    10030    2    1    2    0    0  0.00000000000E+00  0.00000000000E+00  0.11511462231E+04  0.16648587839E+04  0.12027539829E+04 0.  0.
        1    1    3    3  502    0  0.14725683699E+03  0.55755882957E+02 -0.22781603304E+03  0.27693580386E+03  0.50400001928E-02 0. -1.
       -1    1    3    3    0  502 -0.14725683699E+03 -0.55755882957E+02  0.13789622562E+04  0.13879229800E+04  0.50400001928E-02 0.  1.
</event>
<event>
 5   0  0.1597352E-03  0.1200764E+04  0.7818609E-02  0.9112188E-01
        2   -1    0    0  501    0  0.00000000000E+00  0.00000000000E+00  0.78617188642E+03  0.78617188642E+03  0.25500000920E-02 0.  1.
       -2   -1    0    0    0  501  0.00000000000E+00  0.00000000000E+00 -0.45849820384E+03  0.45849820384E+03  0.25500000920E-02 0. -1.
    10030    2    1    2    0    0  0.00000000000E+00  0.00000000000E+00  0.32767368258E+03  0.12446700903E+04  0.12007637533E+04 0.  0.
        1    1    3    3  502    0  0.59323729900E+03 -0.78220822640E+00  0.68116932187E+02  0.59713568077E+03  0.50400001928E-02 0. -1.
       -1    1    3    3    0  502 -0.59323729900E+03  0.78220822640E+00  0.25955675040E+03  0.64753440949E+03  0.50400001928E-02 0.  1.
</event>
<event>
 5   0  0.1597352E-03  0.1201249E+04  0.7818609E-02  0.9111764E-01
        2   -1    0    0  501    0  0.00000000000E+00  0.00000000000E+00  0.20294912879E+04  0.20294912879E+04  0.25500000920E-02 0. -1.
       -2   -1    0    0    0  501  0.00000000000E+00  0.00000000000E+00 -0.17775367132E+03  0.17775367134E+03  0.25500000920E-02 0.  1.
    10030    2    1    2    0    0  0.00000000000E+00  0.00000000000E+00  0.18517376165E+04  0.22072449592E+04  0.12012485627E+04 0.  0.
        1    1    3    3  502    0 -0.51129327688E+03  0.29018278339E+03  0.69990868013E+03  0.91405635675E+03  0.50400001928E-02 0.  1.
       -1    1    3    3    0  502  0.51129327688E+03 -0.29018278339E+03  0.11518289364E+04  0.12931886025E+04  0.50400001928E-02 0. -1.
</event>
<event>
 5   0  0.1567019E-03  0.1198504E+04  0.7818609E-02  0.9114167E-01
        2   -1    0    0  501    0  0.00000000000E+00  0.00000000000E+00  0.13204487045E+04  0.13204487045E+04  0.25500000920E-02 0. -1.
       -2   -1    0    0    0  501  0.00000000000E+00  0.00000000000E+00 -0.27195540929E+03  0.27195540930E+03  0.25500000920E-02 0.  1.
    10030    2    1    2    0    0  0.00000000000E+00  0.00000000000E+00  0.10484932952E+04  0.15924041138E+04  0.11985043477E+04 0.  0.
        5    1    3    3  502    0  0.57650876233E+02  0.57494895857E+03  0.31336554247E+03  0.65735072959E+03  0.46999998093E+01 0.  1.
       -5    1    3    3    0  502 -0.57650876233E+02 -0.57494895857E+03  0.73512775274E+03  0.93505338422E+03  0.46999998093E+01 0. -1.
</event>
<event>
 5   0  0.1647550E-03  0.1199455E+04  0.7818609E-02  0.9113334E-01
        2   -1    0    0  501    0  0.00000000000E+00  0.00000000000E+00  0.92802890383E+03  0.92802890383E+03  0.25500000920E-02 0. -1.
       -2   -1    0    0    0  501  0.00000000000E+00  0.00000000000E+00 -0.38756666706E+03  0.38756666707E+03  0.25500000920E-02 0.  1.
    10030    2    1    2    0    0  0.00000000000E+00  0.00000000000E+00  0.54046223677E+03  0.13155955709E+04  0.11994549916E+04 0.  0.
        3    1    3    3  502    0  0.39289877272E+03 -0.37580773778E+03  0.54786541943E+03  0.77185324343E+03  0.10100000352E+00 0. -1.
       -3    1    3    3    0  502 -0.39289877272E+03  0.37580773778E+03 -0.74031826618E+01  0.54374232748E+03  0.10100000352E+00 0.  1.
</event>
<event>
 5   0  0.9358428E-04  0.1209449E+04  0.7818609E-02  0.9104626E-01
       -1   -1    0    0    0  501  0.00000000000E+00  0.00000000000E+00  0.39226489387E+03  0.39226489390E+03  0.50400001928E-02 0. -1.
        1   -1    0    0  501    0  0.00000000000E+00  0.00000000000E+00 -0.93225713950E+03  0.93225713951E+03  0.50400001928E-02 0.  1.
    10030    2    1    2    0    0  0.00000000000E+00  0.00000000000E+00 -0.53999224563E+03  0.13245220334E+04  0.12094490447E+04 0.  0.
        2    1    3    3  502    0 -0.51579482439E+03 -0.28708735491E+03 -0.41374113864E+03  0.72086418973E+03  0.25500000920E-02 0. -1.
       -2    1    3    3    0  502  0.51579482439E+03  0.28708735491E+03 -0.12625110699E+03  0.60365784369E+03  0.25500000920E-02 0.  1.
</event>
<event>
 5   0  0.9208078E-04  0.1212868E+04  0.7818609E-02  0.9101667E-01
        1   -1    0    0  501    0  0.00000000000E+00  0.00000000000E+00  0.22930822933E+04  0.22930822933E+04  0.50400001928E-02 0.  1.
       -1   -1    0    0    0  501  0.00000000000E+00  0.00000000000E+00 -0.16037906429E+03  0.16037906437E+03  0.50400001928E-02 0. -1.
    10030    2    1    2    0    0  0.00000000000E+00  0.00000000000E+00  0.21327032290E+04  0.24534613577E+04  0.12128683237E+04 0.  0.
        3    1    3    3  502    0  0.42366944233E+02 -0.58805201199E+03  0.13535851390E+04  0.14764121598E+04  0.10100000352E+00 0.  1.
       -3    1    3    3    0  502 -0.42366944233E+02  0.58805201199E+03  0.77911809006E+03  0.97704919796E+03  0.10100000352E+00 0. -1.
</event>
<event>
 5   0  0.6137750E-04  0.1191533E+04  0.7818609E-02  0.9120300E-01
        3   -1    0    0  501    0  0.00000000000E+00  0.00000000000E+00  0.41502421099E+03  0.41502422328E+03  0.10100000352E+00 0.  1.
       -3   -1    0    0    0  501  0.00000000000E+00  0.00000000000E+00 -0.85522230631E+03  0.85522231228E+03  0.10100000352E+00 0. -1.
    10030    2    1    2    0    0  0.00000000000E+00  0.00000000000E+00 -0.44019809533E+03  0.12702465356E+04  0.11915334229E+04 0.  0.
        2    1    3    3  502    0 -0.37003117027E+03  0.33469667565E+02 -0.71658418134E+03  0.80717790763E+03  0.25500000920E-02 0. -1.
       -2    1    3    3    0  502  0.37003117027E+03 -0.33469667565E+02  0.27638608601E+03  0.46306862792E+03  0.25500000920E-02 0.  1.
</event>
<event>
 5   0  0.9358428E-04  0.1199140E+04  0.7818609E-02  0.9113610E-01
        1   -1    0    0  501    0  0.00000000000E+00  0.00000000000E+00  0.56365335481E+03  0.56365335483E+03  0.50400001928E-02 0. -1.
       -1   -1    0    0    0  501  0.00000000000E+00  0.00000000000E+00 -0.63777527603E+03  0.63777527605E+03  0.50400001928E-02 0.  1.
    10030    2    1    2    0    0  0.00000000000E+00  0.00000000000E+00 -0.74121921219E+02  0.12014286309E+04  0.11991399818E+04 0.  0.
        2    1    3    3  502    0 -0.54307591911E+03 -0.21101224203E+03 -0.17884625990E+03  0.60946173373E+03  0.25500000920E-02 0. -1.
       -2    1    3    3    0  502  0.54307591911E+03  0.21101224203E+03  0.10472433868E+03  0.59196689715E+03  0.25500000920E-02 0.  1.
</event>
<event>
 5   0  0.9169078E-04  0.1218438E+04  0.7818609E-02  0.9096869E-01
       -1   -1    0    0    0  501  0.00000000000E+00  0.00000000000E+00  0.24792329036E+03  0.24792329041E+03  0.50400001928E-02 0.  1.
        1   -1    0    0  501    0  0.00000000000E+00  0.00000000000E+00 -0.14970257153E+04  0.14970257153E+04  0.50400001928E-02 0. -1.
    10030    2    1    2    0    0  0.00000000000E+00  0.00000000000E+00 -0.12491024250E+04  0.17449490058E+04  0.12184375916E+04 0.  0.
        1    1    3    3  502    0  0.59336696246E+03 -0.56640370225E+02 -0.80487929313E+03  0.10015603627E+04  0.50400001928E-02 0. -1.
       -1    1    3    3    0  502 -0.59336696246E+03  0.56640370225E+02 -0.44422313185E+03  0.74338864302E+03  0.50400001928E-02 0.  1.
</event>
<event>
 5   0  0.1551501E-03  0.1192365E+04  0.7818609E-02  0.9119566E-01
       -2   -1    0    0    0  501  0.00000000000E+00  0.00000000000E+00  0.27468421447E+03  0.27468421449E+03  0.25500000920E-02 0.  1.
        2   -1    0    0  501    0  0.00000000000E+00  0.00000000000E+00 -0.12939721412E+04  0.12939721412E+04  0.25500000920E-02 0. -1.
    10030    2    1    2    0    0  0.00000000000E+00  0.00000000000E+00 -0.10192879267E+04  0.15686563556E+04  0.11923652480E+04 0.  0.
        4    1    3    3  502    0  0.58829371876E+03 -0.61005642688E+02 -0.60827695744E+03  0.84841832714E+03  0.12699999809E+01 0. -1.
       -4    1    3    3    0  502 -0.58829371876E+03  0.61005642688E+02 -0.41101096924E+03  0.72023802850E+03  0.12699999809E+01 0.  1.
</event>
<event>
 5   0  0.9208078E-04  0.1200637E+04  0.7818609E-02  0.9112299E-01
       -1   -1    0    0    0  501  0.00000000000E+00  0.00000000000E+00  0.65097714570E+03  0.65097714572E+03  0.50400001928E-02 0. -1.
        1   -1    0    0  501    0  0.00000000000E+00  0.00000000000E+00 -0.55360228526E+03  0.55360228528E+03  0.50400001928E-02 0.  1.
    10030    2    1    2    0    0  0.00000000000E+00  0.00000000000E+00  0.97374860439E+02  0.12045794310E+04  0.12006372234E+04 0.  0.
        3    1    3    3  502    0  0.11118487708E+03  0.51724031604E+03 -0.23593897544E+03  0.57928130624E+03  0.10100000352E+00 0.  1.
       -3    1    3    3    0  502 -0.11118487708E+03 -0.51724031604E+03  0.33331383588E+03  0.62529812475E+03  0.10100000352E+00 0. -1.
</event>
<event>
 5   0  0.1537557E-03  0.1205014E+04  0.7818609E-02  0.9108480E-01
        2   -1    0    0  501    0  0.00000000000E+00  0.00000000000E+00  0.21427012872E+04  0.21427012872E+04  0.25500000920E-02 0. -1.
       -2   -1    0    0    0  501  0.00000000000E+00  0.00000000000E+00 -0.16941903767E+03  0.16941903769E+03  0.25500000920E-02 0.  1.
    10030    2    1    2    0    0  0.00000000000E+00  0.00000000000E+00  0.19732822495E+04  0.23121203249E+04  0.12050135105E+04 0.  0.
        2    1    3    3  502    0  0.71446273114E+02  0.14567257750E+03  0.20999948989E+04  0.21062534618E+04  0.25500000920E-02 0. -1.
       -2    1    3    3    0  502 -0.71446273114E+02 -0.14567257750E+03 -0.12671264943E+03  0.20586686307E+03  0.25500000920E-02 0.  1.
</event>
<event>
 5   0  0.9170776E-04  0.1186828E+04  0.7818609E-02  0.9124465E-01
        1   -1    0    0  501    0  0.00000000000E+00  0.00000000000E+00  0.53537196402E+03  0.53537196404E+03  0.50400001928E-02 0.  1.
       -1   -1    0    0    0  501  0.00000000000E+00  0.00000000000E+00 -0.65774833492E+03  0.65774833494E+03  0.50400001928E-02 0. -1.
    10030    2    1    2    0    0  0.00000000000E+00  0.00000000000E+00 -0.12237637090E+03  0.11931202990E+04  0.11868277346E+04 0.  0.
        5    1    3    3  502    0  0.21808258182E+03  0.50510273033E+03 -0.28469363000E+03  0.61948473237E+03  0.46999998093E+01 0. -1.
       -5    1    3    3    0  502 -0.21808258182E+03 -0.50510273033E+03  0.16231725910E+03  0.57363556661E+03  0.46999998093E+01 0.  1.
</event>
<event>
 5   0  0.1551501E-03  0.1194589E+04  0.7818609E-02  0.9117606E-01
       -2   -1    0    0    0  501  0.00000000000E+00  0.00000000000E+00  0.14269018574E+03  0.14269018576E+03  0.25500000920E-02 0.  1.
        2   -1    0    0  501    0  0.00000000000E+00  0.00000000000E+00 -0.25002488547E+04  0.25002488547E+04  0.25500000920E-02 0. -1.
    10030    2    1    2    0    0  0.00000000000E+00  0.00000000000E+00 -0.23575586689E+04  0.26429390404E+04  0.11945894249E+04 0.  0.
        4    1    3    3  502    0  0.22238810061E+02 -0.19816111408E+03 -0.24244293423E+04  0.24326162132E+04  0.12699999809E+01 0. -1.
       -4    1    3    3    0  502 -0.22238810061E+02  0.19816111408E+03  0.66870673395E+02  0.21032282726E+03  0.12699999809E+01 0.  1.
</event>
<event>
 5   0  0.1597352E-03  0.1200526E+04  0.7818609E-02  0.9112396E-01
       -2   -1    0    0    0  501  0.00000000000E+00  0.00000000000E+00  0.70518669003E+03  0.70518669004E+03  0.25500000920E-02 0.  1.
        2   -1    0    0  501    0  0.00000000000E+00  0.00000000000E+00 -0.51095105448E+03  0.51095105449E+03  0.25500000920E-02 0. -1.
    10030    2    1    2    0    0  0.00000000000E+00  0.00000000000E+00  0.19423563555E+03  0.12161377445E+04  0.12005263560E+04 0.  0.
        1    1    3    3  502    0  0.47131251445E+03  0.19602349059E+03  0.41706538614E+03  0.65916934963E+03  0.50400001928E-02 0.  1.
       -1    1    3    3    0  502 -0.47131251445E+03 -0.19602349059E+03 -0.22282975059E+03  0.55696839490E+03  0.50400001928E-02 0. -1.
</event>
<event>
 5   0  0.1597352E-03  0.1206401E+04  0.7818609E-02  0.9107272E-01
       -2   -1    0    0    0  501  0.00000000000E+00  0.00000000000E+00  0.28808328895E+03  0.28808328896E+03  0.25500000920E-02 0. -1.
        2   -1    0    0  501    0  0.00000000000E+00  0.00000000000E+00 -0.12630052916E+04  0.12630052916E+04  0.25500000920E-02 0.  1.
    10030    2    1    2    0    0  0.00000000000E+00  0.00000000000E+00 -0.97492200262E+03  0.15510885805E+04  0.12064007930E+04 0.  0.
        1    1    3    3  502    0  0.14388233984E+03 -0.14692760051E+03  0.24162134833E+03  0.31728650067E+03  0.50400001928E-02 0. -1.
       -1    1    3    3    0  502 -0.14388233984E+03  0.14692760051E+03 -0.12165433509E+04  0.12338020799E+04  0.50400001928E-02 0.  1.
</event>
<event>
 5   0  0.8908478E-04  0.1197501E+04  0.7818609E-02  0.9115047E-01
       -1   -1    0    0    0  501  0.00000000000E+00  0.00000000000E+00  0.31793454267E+03  0.31793454271E+03  0.50400001928E-02 0.  1.
        1   -1    0    0  501    0  0.00000000000E+00  0.00000000000E+00 -0.11275976259E+04  0.11275976259E+04  0.50400001928E-02 0. -1.
    10030    2    1    2    0    0  0.00000000000E+00  0.00000000000E+00 -0.80966308322E+03  0.14455321686E+04  0.11975011241E+04 0.  0.
        4    1    3    3  502    0  0.13180002503E+03  0.15635555479E+03  0.27447177916E+03  0.34227865339E+03  0.12699999809E+01 0.  1.
       -4    1    3    3    0  502 -0.13180002503E+03 -0.15635555479E+03 -0.10841348624E+04  0.11032535152E+04  0.12699999809E+01 0. -1.
</event>
<event>
 5   0  0.1551501E-03  0.1193125E+04  0.7818609E-02  0.9118896E-01
        2   -1    0    0  501    0  0.00000000000E+00  0.00000000000E+00  0.25689860807E+04  0.25689860807E+04  0.25500000920E-02 0. -1.
       -2   -1    0    0    0  501  0.00000000000E+00  0.00000000000E+00 -0.13853201270E+03  0.13853201272E+03  0.25500000920E-02 0.  1.
    10030    2    1    2    0    0  0.00000000000E+00  0.00000000000E+00  0.24304540680E+04  0.27075180935E+04  0.11931249933E+04 0.  0.
        4    1    3    3  502    0  0.39946809175E+03 -0.44306831530E+03  0.12130609268E+04  0.13518146002E+04  0.12699999809E+01 0.  1.
       -4    1    3    3    0  502 -0.39946809175E+03  0.44306831530E+03  0.12173931412E+04  0.13557034932E+04  0.12699999809E+01 0. -1.
</event>
<event>
 5   0  0.1551501E-03  0.1174250E+04  0.7818609E-02  0.9135698E-01
        2   -1    0    0  501    0  0.00000000000E+00  0.00000000000E+00  0.12334127801E+04  0.12334127801E+04  0.25500000920E-02 0. -1.
       -2   -1    0    0    0  501  0.00000000000E+00  0.00000000000E+00 -0.27948147671E+03  0.27948147672E+03  0.25500000920E-02 0.  1.
    10030    2    1    2    0    0  0.00000000000E+00  0.00000000000E+00  0.95393130339E+03  0.15128942568E+04  0.11742504421E+04 0.  0.
        4    1    3    3  502    0  0.10571673298E+03 -0.85297889988E+01 -0.26703510845E+03  0.28732933539E+03  0.12699999809E+01 0.  1.
       -4    1    3    3    0  502 -0.10571673298E+03  0.85297889988E+01  0.12209664118E+04  0.12255649214E+04  0.12699999809E+01 0. -1.
</event>
<event>
 5   0  0.6137750E-04  0.1207141E+04  0.7818609E-02  0.9106629E-01
        4   -1    0    0  501    0  0.00000000000E+00  0.00000000000E+00  0.72211206028E+03  0.72211317707E+03  0.12699999809E+01 0.  1.
       -4   -1    0    0    0  501  0.00000000000E+00  0.00000000000E+00 -0.50448624460E+03  0.50448784315E+03  0.12699999809E+01 0. -1.
    10030    2    1    2    0    0  0.00000000000E+00  0.00000000000E+00  0.21762581568E+03  0.12266010202E+04  0.12071408647E+04 0.  0.
        4    1    3    3  502    0  0.28637610890E+03 -0.32811196764E+01 -0.43104629622E+03  0.51751769427E+03  0.12699999809E+01 0. -1.
       -4    1    3    3    0  502 -0.28637610890E+03  0.32811196764E+01  0.64867211190E+03  0.70908332596E+03  0.12699999809E+01 0.  1.
</event>
<event>
 5   0  0.1551501E-03  0.1197422E+04  0.7818609E-02  0.9115116E-01
       -2   -1    0    0    0  501  0.00000000000E+00  0.00000000000E+00  0.42013651515E+03  0.42013651516E+03  0.25500000920E-02 0.  1.
        2   -1    0    0  501    0  0.00000000000E+00  0.00000000000E+00 -0.85318664792E+03  0.85318664793E+03  0.25500000920E-02 0. -1.
    10030    2    1    2    0    0  0.00000000000E+00  0.00000000000E+00 -0.43305013277E+03  0.12733231631E+04  0.11974220059E+04 0.  0.
        4    1    3    3  502    0 -0.23026853568E+03 -0.34372975469E+03 -0.67671438665E+03  0.79316941240E+03  0.12699999809E+01 0. -1.
       -4    1    3    3    0  502  0.23026853568E+03  0.34372975469E+03  0.24366425387E+03  0.48015375068E+03  0.12699999809E+01 0.  1.
</event>
<event>
 5   0  0.9208078E-04  0.1203049E+04  0.7818609E-02  0.9110192E-01
       -1   -1    0    0    0  501  0.00000000000E+00  0.00000000000E+00  0.29791195840E+03  0.29791195845E+03  0.50400001928E-02 0. -1.
        1   -1    0    0  501    0  0.00000000000E+00  0.00000000000E+00 -0.12145584533E+04  0.12145584533E+04  0.50400001928E-02 0.  1.
    10030    2    1    2    0    0  0.00000000000E+00  0.00000000000E+00 -0.91664649486E+03  0.15124704117E+04  0.12030486066E+04 0.  0.
        3    1    3    3  502    0 -0.20309226389E+03  0.43404498152E+03 -0.91541454657E+03  0.10332595588E+04  0.10100000352E+00 0.  1.
       -3    1    3    3    0  502  0.20309226389E+03 -0.43404498152E+03 -0.12319482906E+01  0.47921085289E+03  0.10100000352E+00 0. -1.
</event>
<event>
 5   0  0.9170776E-04  0.1188107E+04  0.7818609E-02  0.9123331E-01
        1   -1    0    0  501    0  0.00000000000E+00  0.00000000000E+00  0.37951414977E+03  0.37951414980E+03  0.50400001928E-02 0. -1.
       -1   -1    0    0    0  501  0.00000000000E+00  0.00000000000E+00 -0.92987200207E+03  0.92987200209E+03  0.50400001928E-02 0.  1.
    10030    2    1    2    0    0  0.00000000000E+00  0.00000000000E+00 -0.55035785230E+03  0.13093861519E+04  0.11881070361E+04 0.  0.
        5    1    3    3  502    0 -0.42953265579E+03 -0.46352981812E+02 -0.72451123793E+03  0.84355528877E+03  0.46999998093E+01 0.  1.
       -5    1    3    3    0  502  0.42953265579E+03  0.46352981812E+02  0.17415338563E+03  0.46583086313E+03  0.46999998093E+01 0. -1.
</event>
<event>
 5   0  0.9170776E-04  0.1201242E+04  0.7818609E-02  0.9111770E-01
        1   -1    0    0  501    0  0.00000000000E+00  0.00000000000E+00  0.43044913100E+03  0.43044913103E+03  0.50400001928E-02 0. -1.
       -1   -1    0    0    0  501  0.00000000000E+00  0.00000000000E+00 -0.83806855937E+03  0.83806855938E+03  0.50400001928E-02 0.  1.
    10030    2    1    2    0    0  0.00000000000E+00  0.00000000000E+00 -0.40761942837E+03  0.12685176904E+04  0.12012424953E+04 0.  0.
        5    1    3    3  502    0 -0.52514538630E+03  0.27211745602E+03 -0.31405076829E+03  0.66968318008E+03  0.46999998093E+01 0.  1.
       -5    1    3    3    0  502  0.52514538630E+03 -0.27211745602E+03 -0.93568660078E+02  0.59883451033E+03  0.46999998093E+01 0. -1.
</event>
<event>
 5   0  0.6137750E-04  0.1199846E+04  0.7818609E-02  0.9112992E-01
       -4   -1    0    0    0  501  0.00000000000E+00  0.00000000000E+00  0.73956897040E+03  0.73957006083E+03  0.12699999809E+01 0.  1.
        4   -1    0    0  501    0  0.00000000000E+00  0.00000000000E+00 -0.48664265231E+03  0.48664430948E+03  0.12699999809E+01 0. -1.
    10030    2    1    2    0    0  0.00000000000E+00  0.00000000000E+00  0.25292631809E+03  0.12262143703E+04  0.11998458066E+04 0.  0.
        5    1    3    3  502    0  0.33131155898E+03  0.47582585607E+02 -0.38232721274E+03  0.50816103665E+03  0.46999998093E+01 0. -1.
       -5    1    3    3    0  502 -0.33131155898E+03 -0.47582585607E+02  0.63525353083E+03  0.71805333367E+03  0.46999998093E+01 0.  1.
</event>
<event>
 5   0  0.1647550E-03  0.1202328E+04  0.7818609E-02  0.9110822E-01
        2   -1    0    0  501    0  0.00000000000E+00  0.00000000000E+00  0.12403702455E+04  0.12403702455E+04  0.25500000920E-02 0.  1.
       -2   -1    0    0    0  501  0.00000000000E+00  0.00000000000E+00 -0.29136289344E+03  0.29136289345E+03  0.25500000920E-02 0. -1.
    10030    2    1    2    0    0  0.00000000000E+00  0.00000000000E+00  0.94900735208E+03  0.15317331390E+04  0.12023275156E+04 0.  0.
        3    1    3    3  502    0  0.34075190361E+03 -0.43410473234E+03  0.77823097160E+03  0.95404519484E+03  0.10100000352E+00 0.  1.
       -3    1    3    3    0  502 -0.34075190361E+03  0.43410473234E+03  0.17077638048E+03  0.57768794412E+03  0.10100000352E+00 0. -1.
</event>
<event>
 5   0  0.1567019E-03  0.1203164E+04  0.7818609E-02  0.9110092E-01
        2   -1    0    0  501    0  0.00000000000E+00  0.00000000000E+00  0.54527227235E+03  0.54527227236E+03  0.25500000920E-02 0.  1.
       -2   -1    0    0    0  501  0.00000000000E+00  0.00000000000E+00 -0.66370622682E+03  0.66370622683E+03  0.25500000920E-02 0. -1.
    10030    2    1    2    0    0  0.00000000000E+00  0.00000000000E+00 -0.11843395447E+03  0.12089784992E+04  0.12031635009E+04 0.  0.
        5    1    3    3  502    0 -0.21137089521E+03  0.50250361325E+03  0.19635649873E+03  0.57945276016E+03  0.46999998093E+01 0.  1.
       -5    1    3    3    0  502  0.21137089521E+03 -0.50250361325E+03 -0.31479045320E+03  0.62952573903E+03  0.46999998093E+01 0. -1.
</event>
<event>
 5   0  0.1537557E-03  0.1199269E+04  0.7818609E-02  0.9113496E-01
       -2   -1    0    0    0  501  0.00000000000E+00  0.00000000000E+00  0.44547444803E+03  0.44547444804E+03  0.25500000920E-02 0. -1.
        2   -1    0    0  501    0  0.00000000000E+00  0.00000000000E+00 -0.80714326850E+03  0.80714326851E+03  0.25500000920E-02 0.  1.
    10030    2    1    2    0    0  0.00000000000E+00  0.00000000000E+00 -0.36166882048E+03  0.12526177165E+04  0.11992692809E+04 0.  0.
        2    1    3    3  502    0 -0.52631814009E+03  0.28316069699E+03 -0.12997610805E+03  0.61162452009E+03  0.25500000920E-02 0.  1.
       -2    1    3    3    0  502  0.52631814009E+03 -0.28316069699E+03 -0.23169271243E+03  0.64099319645E+03  0.25500000920E-02 0. -1.
</event>
<event>
 5   0  0.9358428E-04  0.1198996E+04  0.7818609E-02  0.9113736E-01
       -1   -1    0    0    0  501  0.00000000000E+00  0.00000000000E+00  0.26260542605E+03  0.26260542609E+03  0.50400001928E-02 0.  1.
        1   -1    0    0  501    0  0.00000000000E+00  0.00000000000E+00 -0.13685849199E+04  0.13685849199E+04  0.50400001928E-02 0. -1.
    10030    2    1    2    0    0  0.00000000000E+00  0.00000000000E+00 -0.11059794939E+04  0.16311903460E+04  0.11989959567E+04 0.  0.
        2    1    3    3  502    0 -0.54154355110E+02  0.49571827832E+02 -0.13624458809E+04  0.13644225294E+04  0.25500000920E-02 0. -1.
       -2    1    3    3    0  502  0.54154355110E+02 -0.49571827832E+02  0.25646638705E+03  0.26676781662E+03  0.25500000920E-02 0.  1.
</event>
<event>
 5   0  0.1597352E-03  0.1214491E+04  0.7818609E-02  0.9100267E-01
        2   -1    0    0  501    0  0.00000000000E+00  0.00000000000E+00  0.17511922900E+03  0.17511922902E+03  0.25500000920E-02 0. -1.
       -2   -1    0    0    0  501  0.00000000000E+00  0.00000000000E+00 -0.21056904913E+04  0.21056904913E+04  0.25500000920E-02 0.  1.
    10030    2    1    2    0    0  0.00000000000E+00  0.00000000000E+00 -0.19305712623E+04  0.22808097203E+04  0.12144906675E+04 0.  0.
        1    1    3    3  502    0 -0.22172415915E+03 -0.41609098453E+03 -0.16839810509E+04  0.17487382566E+04  0.50400001928E-02 0.  1.
       -1    1    3    3    0  502  0.22172415915E+03  0.41609098453E+03 -0.24659021140E+03  0.53207146376E+03  0.50400001928E-02 0. -1.
</event>
<event>
 5   0  0.6137750E-04  0.1189745E+04  0.7818609E-02  0.9121880E-01
       -3   -1    0    0    0  501  0.00000000000E+00  0.00000000000E+00  0.22157228258E+03  0.22157230560E+03  0.10100000352E+00 0.  1.
        3   -1    0    0  501    0  0.00000000000E+00  0.00000000000E+00 -0.15971009607E+04  0.15971009639E+04  0.10100000352E+00 0. -1.
    10030    2    1    2    0    0  0.00000000000E+00  0.00000000000E+00 -0.13755286781E+04  0.18186732695E+04  0.11897450638E+04 0.  0.
        4    1    3    3  502    0  0.27369455537E+02 -0.57771470338E+03 -0.90050332861E+03  0.10702388628E+04  0.12699999809E+01 0. -1.
       -4    1    3    3    0  502 -0.27369455537E+02  0.57771470338E+03 -0.47502534949E+03  0.74843440672E+03  0.12699999809E+01 0.  1.
</event>
<event>
 5   0  0.6137750E-04  0.1197462E+04  0.7818609E-02  0.9115081E-01
        4   -1    0    0  501    0  0.00000000000E+00  0.00000000000E+00  0.92178667219E+03  0.92178754707E+03  0.12699999809E+01 0. -1.
       -4   -1    0    0    0  501  0.00000000000E+00  0.00000000000E+00 -0.38889380814E+03  0.38889588184E+03  0.12699999809E+01 0.  1.
    10030    2    1    2    0    0  0.00000000000E+00  0.00000000000E+00  0.53289286405E+03  0.13106834289E+04  0.11974624196E+04 0.  0.
        4    1    3    3  502    0 -0.23706020089E+03 -0.28935633249E+03  0.77814491087E+03  0.86338620629E+03  0.12699999809E+01 0. -1.
       -4    1    3    3    0  502  0.23706020089E+03  0.28935633249E+03 -0.24525204682E+03  0.44729722262E+03  0.12699999809E+01 0.  1.
</event>
<event>
 5   0  0.9169078E-04  0.1198012E+04  0.7818609E-02  0.9114598E-01
        1   -1    0    0  501    0  0.00000000000E+00  0.00000000000E+00  0.68335546505E+03  0.68335546507E+03  0.50400001928E-02 0.  1.
       -1   -1    0    0    0  501  0.00000000000E+00  0.00000000000E+00 -0.52506839301E+03  0.52506839303E+03  0.50400001928E-02 0. -1.
    10030    2    1    2    0    0  0.00000000000E+00  0.00000000000E+00  0.15828707205E+03  0.12084238581E+04  0.11980122803E+04 0.  0.
        1    1    3    3  502    0 -0.46838475942E+03  0.28185483667E+03 -0.16789699809E+03  0.57185298268E+03  0.50400001928E-02 0. -1.
       -1    1    3    3    0  502  0.46838475942E+03 -0.28185483667E+03  0.32618407013E+03  0.63657087543E+03  0.50400001928E-02 0.  1.
</event>
<event>
 5   0  0.9208078E-04  0.1196896E+04  0.7818609E-02  0.9115578E-01
       -1   -1    0    0    0  501  0.00000000000E+00  0.00000000000E+00  0.71316190845E+03  0.71316190847E+03  0.50400001928E-02 0. -1.
        1   -1    0    0  501    0  0.00000000000E+00  0.00000000000E+00 -0.50218581584E+03  0.50218581586E+03  0.50400001928E-02 0.  1.
    10030    2    1    2    0    0  0.00000000000E+00  0.00000000000E+00  0.21097609261E+03  0.12153477243E+04  0.11968956426E+04 0.  0.
        3    1    3    3  502    0  0.44026312601E+03  0.38356064393E+03 -0.27641541263E+02  0.58456347192E+03  0.10100000352E+00 0. -1.
       -3    1    3    3    0  502 -0.44026312601E+03 -0.38356064393E+03  0.23861763387E+03  0.63078425241E+03  0.10100000352E+00 0.  1.
</event>
<event>
 5   0  0.9358428E-04  0.1218756E+04  0.7818609E-02  0.9096596E-01
        1   -1    0    0  501    0  0.00000000000E+00  0.00000000000E+00  0.16067242997E+04  0.16067242997E+04  0.50400001928E-02 0. -1.
       -1   -1    0    0    0  501  0.00000000000E+00  0.00000000000E+00 -0.23111729282E+03  0.23111729287E+03  0.50400001928E-02 0.  1.
    10030    2    1    2    0    0  0.00000000000E+00  0.00000000000E+00  0.13756070069E+04  0.18378415926E+04  0.12187563670E+04 0.  0.
        2    1    3    3  502    0  0.58232887642E+03 -0.99674931421E+02  0.91298943567E+03  0.10874703315E+04  0.25500000920E-02 0. -1.
       -2    1    3    3    0  502 -0.58232887642E+03  0.99674931421E+02  0.46261757124E+03  0.75037126111E+03  0.25500000920E-02 0.  1.
</event>
<event>
 5   0  0.9208078E-04  0.1207519E+04  0.7818609E-02  0.9106300E-01
        1   -1    0    0  501    0  0.00000000000E+00  0.00000000000E+00  0.65378737781E+03  0.65378737783E+03  0.50400001928E-02 0. -1.
       -1   -1    0    0    0  501  0.00000000000E+00  0.00000000000E+00 -0.55755979826E+03  0.55755979828E+03  0.50400001928E-02 0.  1.
    10030    2    1    2    0    0  0.00000000000E+00  0.00000000000E+00  0.96227579552E+02  0.12113471761E+04  0.12075190408E+04 0.  0.
        3    1    3    3  502    0  0.18885025527E+02  0.54190925597E+03 -0.21825249320E+03  0.58451385516E+03  0.10100000352E+00 0.  1.
       -3    1    3    3    0  502 -0.18885025527E+02 -0.54190925597E+03  0.31448007275E+03  0.62683332095E+03  0.10100000352E+00 0. -1.
</event>
<event>
 5   0  0.8908478E-04  0.1192049E+04  0.7818609E-02  0.9119845E-01
       -1   -1    0    0    0  501  0.00000000000E+00  0.00000000000E+00  0.26382358714E+03  0.26382358719E+03  0.50400001928E-02 0.  1.
        1   -1    0    0  501    0  0.00000000000E+00  0.00000000000E+00 -0.13465255289E+04  0.13465255290E+04  0.50400001928E-02 0. -1.
    10030    2    1    2    0    0  0.00000000000E+00  0.00000000000E+00 -0.10827019418E+04  0.16103491161E+04  0.11920489843E+04 0.  0.
        4    1    3    3  502    0  0.29376080130E+03 -0.40924752519E+03 -0.11103913626E+03  0.51585874805E+03  0.12699999809E+01 0.  1.
       -4    1    3    3    0  502 -0.29376080130E+03  0.40924752519E+03 -0.97166280555E+03  0.10944903681E+04  0.12699999809E+01 0. -1.
</event>
<event>
 5   0  0.9358428E-04  0.1208268E+04  0.7818609E-02  0.9105650E-01
        1   -1    0    0  501    0  0.00000000000E+00  0.00000000000E+00  0.42384657337E+03  0.42384657340E+03  0.50400001928E-02 0.  1.
       -1   -1    0    0    0  501  0.00000000000E+00  0.00000000000E+00 -0.86110812272E+03  0.86110812273E+03  0.50400001928E-02 0. -1.
    10030    2    1    2    0    0  0.00000000000E+00  0.00000000000E+00 -0.43726154935E+03  0.12849546961E+04  0.12082677305E+04 0.  0.
        2    1    3    3  502    0 -0.81999641887E+02  0.52674107687E+03  0.83659331723E+02  0.53961003245E+03  0.25500000920E-02 0.  1.
       -2    1    3    3    0  502  0.81999641887E+02 -0.52674107687E+03 -0.52092088107E+03  0.74534466368E+03  0.25500000920E-02 0. -1.
</event>
<event>
 5   0  0.1537557E-03  0.1201412E+04  0.7818609E-02  0.9111621E-01
        2   -1    0    0  501    0  0.00000000000E+00  0.00000000000E+00  0.95427758984E+03  0.95427758984E+03  0.25500000920E-02 0.  1.
       -2   -1    0    0    0  501  0.00000000000E+00  0.00000000000E+00 -0.37813730491E+03  0.37813730492E+03  0.25500000920E-02 0. -1.
    10030    2    1    2    0    0  0.00000000000E+00  0.00000000000E+00  0.57614028493E+03  0.13324148948E+04  0.12014124287E+04 0.  0.
        2    1    3    3  502    0  0.14201966440E+03  0.28611603309E+03 -0.27614262253E+03  0.42224011824E+03  0.25500000920E-02 0. -1.
       -2    1    3    3    0  502 -0.14201966440E+03 -0.28611603309E+03  0.85228290746E+03  0.91017477652E+03  0.25500000920E-02 0.  1.
</event>
<event>
 5   0  0.9358428E-04  0.1153063E+04  0.7818609E-02  0.9154962E-01
        1   -1    0    0  501    0  0.00000000000E+00  0.00000000000E+00  0.33703641285E+03  0.33703641289E+03  0.50400001928E-02 0. -1.
       -1   -1    0    0    0  501  0.00000000000E+00  0.00000000000E+00 -0.98620968113E+03  0.98620968114E+03  0.50400001928E-02 0.  1.
    10030    2    1    2    0    0  0.00000000000E+00  0.00000000000E+00 -0.64917326828E+03  0.13232460940E+04  0.11530630048E+04 0.  0.
        2    1    3    3  502    0  0.50960291220E+03 -0.20413753938E+03 -0.12246274301E+03  0.56246278681E+03  0.25500000920E-02 0. -1.
       -2    1    3    3    0  502 -0.50960291220E+03  0.20413753938E+03 -0.52671052527E+03  0.76078330722E+03  0.25500000920E-02 0.  1.
</event>
<event>
 5   0  0.9170776E-04  0.1203299E+04  0.7818609E-02  0.9109974E-01
        1   -1    0    0  501    0  0.00000000000E+00  0.00000000000E+00  0.12380410399E+04  0.12380410399E+04  0.50400001928E-02 0.  1.
       -1   -1    0    0    0  501  0.00000000000E+00  0.00000000000E+00 -0.29238308514E+03  0.29238308518E+03  0.50400001928E-02 0. -1.
    10030    2    1    2    0    0  0.00000000000E+00  0.00000000000E+00  0.94565795475E+03  0.15304241251E+04  0.12032992293E+04 0.  0.
        5    1    3    3  502    0  0.22126774559E+03 -0.22878021335E+02  0.11837926913E+04  0.12045206703E+04  0.46999998093E+01 0.  1.
       -5    1    3    3    0  502 -0.22126774559E+03  0.22878021335E+02 -0.23813473656E+03  0.32590345481E+03  0.46999998093E+01 0. -1.
</event>
<event>
 5   0  0.6137750E-04  0.1216038E+04  0.7818609E-02  0.9098933E-01
        3   -1    0    0  501    0  0.00000000000E+00  0.00000000000E+00  0.91019607908E+03  0.91019608469E+03  0.10100000352E+00 0.  1.
       -3   -1    0    0    0  501  0.00000000000E+00  0.00000000000E+00 -0.40616196880E+03  0.40616198136E+03  0.10100000352E+00 0. -1.
    10030    2    1    2    0    0  0.00000000000E+00  0.00000000000E+00  0.50403411029E+03  0.13163580660E+04  0.12160378998E+04 0.  0.
        2    1    3    3  502    0  0.43810113229E+03 -0.41628044457E+03  0.32435051750E+03  0.68587554910E+03  0.25500000920E-02 0.  1.
       -2    1    3    3    0  502 -0.43810113229E+03  0.41628044457E+03  0.17968359279E+03  0.63048251694E+03  0.25500000920E-02 0. -1.
</event>
<event>
 5   0  0.1647550E-03  0.1200752E+04  0.7818609E-02  0.9112199E-01
        2   -1    0    0  501    0  0.00000000000E+00  0.00000000000E+00  0.60183138060E+03  0.60183138061E+03  0.25500000920E-02 0. -1.
       -2   -1    0    0    0  501  0.00000000000E+00  0.00000000000E+00 -0.59892397875E+03  0.59892397876E+03  0.25500000920E-02 0.  1.
    10030    2    1    2    0    0  0.00000000000E+00  0.00000000000E+00  0.29074018502E+01  0.12007553594E+04  0.12007518395E+04 0.  0.
        3    1    3    3  502    0 -0.44388293580E+03  0.32447526770E+03 -0.23965896071E+03  0.59979387100E+03  0.10100000352E+00 0.  1.
       -3    1    3    3    0  502  0.44388293580E+03 -0.32447526770E+03  0.24256636256E+03  0.60096148836E+03  0.10100000352E+00 0. -1.
</event>
<event>
 5   0  0.1647550E-03  0.1207502E+04  0.7818609E-02  0.9106315E-01
        2   -1    0    0  501    0  0.00000000000E+00  0.00000000000E+00  0.80081289738E+03  0.80081289739E+03  0.25500000920E-02 0.  1.
       -2   -1    0    0    0  501  0.00000000000E+00  0.00000000000E+00 -0.45518178924E+03  0.45518178925E+03  0.25500000920E-02 0. -1.
    10030    2    1    2    0    0  0.00000000000E+00  0.00000000000E+00  0.34563110814E+03  0.12559946866E+04  0.12075022940E+04 0.  0.
        3    1    3    3  502    0  0.85098612325E+02  0.46104516151E+03 -0.22287040884E+03  0.51911043537E+03  0.10100000352E+00 0. -1.
       -3    1    3    3    0  502 -0.85098612325E+02 -0.46104516151E+03  0.56850151697E+03  0.73688425127E+03  0.10100000352E+00 0.  1.
</event>
<event>
 5   0  0.1551501E-03  0.1216529E+04  0.7818609E-02  0.9098510E-01
        2   -1    0    0  501    0  0.00000000000E+00  0.00000000000E+00  0.98018541581E+03  0.98018541581E+03  0.25500000920E-02 0.  1.
       -2   -1    0    0    0  501  0.00000000000E+00  0.00000000000E+00 -0.37746510121E+03  0.37746510122E+03  0.25500000920E-02 0. -1.
    10030    2    1    2    0    0  0.00000000000E+00  0.00000000000E+00  0.60272031460E+03  0.13576505170E+04  0.12165291401E+04 0.  0.
        4    1    3    3  502    0 -0.28915461254E+03  0.11007396764E+03  0.88580661973E+03  0.93828654939E+03  0.12699999809E+01 0.  1.
       -4    1    3    3    0  502  0.28915461254E+03 -0.11007396764E+03 -0.28308630513E+03  0.41936396764E+03  0.12699999809E+01 0. -1.
</event>
<event>
 5   0  0.1647550E-03  0.1222196E+04  0.7818609E-02  0.9093648E-01
        2   -1    0    0  501    0  0.00000000000E+00  0.00000000000E+00  0.28584636897E+03  0.28584636898E+03  0.25500000920E-02 0. -1.
       -2   -1    0    0    0  501  0.00000000000E+00  0.00000000000E+00 -0.13064380958E+04  0.13064380958E+04  0.25500000920E-02 0.  1.
    10030    2    1    2    0    0  0.00000000000E+00  0.00000000000E+00 -0.10205917269E+04  0.15922844648E+04  0.12221957061E+04 0.  0.
        3    1    3    3  502    0 -0.33886545054E+03 -0.45400003651E+03 -0.21180033039E+03  0.60481833378E+03  0.10100000352E+00 0. -1.
       -3    1    3    3    0  502  0.33886545054E+03  0.45400003651E+03 -0.80879139647E+03  0.98746613103E+03  0.10100000352E+00 0.  1.
</event>
<event>
 5   0  0.1597352E-03  0.1181647E+04  0.7818609E-02  0.9129074E-01
       -2   -1    0    0    0  501  0.00000000000E+00  0.00000000000E+00  0.46127695760E+03  0.46127695761E+03  0.25500000920E-02 0.  1.
        2   -1    0    0  501    0  0.00000000000E+00  0.00000000000E+00 -0.75675206941E+03  0.75675206941E+03  0.25500000920E-02 0. -1.
    10030    2    1    2    0    0  0.00000000000E+00  0.00000000000E+00 -0.29547511180E+03  0.12180290270E+04  0.11816468038E+04 0.  0.
        1    1    3    3  502    0  0.36931672498E+03 -0.16323858705E+03  0.29685497426E+03  0.50116320238E+03  0.50400001928E-02 0.  1.
       -1    1    3    3    0  502 -0.36931672498E+03  0.16323858705E+03 -0.59233008607E+03  0.71686582464E+03  0.50400001928E-02 0. -1.
</event>
<event>
 5   0  0.1647550E-03  0.1171021E+04  0.7818609E-02  0.9138607E-01
        2   -1    0    0  501    0  0.00000000000E+00  0.00000000000E+00  0.75122227971E+03  0.75122227971E+03  0.25500000920E-02 0.  1.
       -2   -1    0    0    0  501  0.00000000000E+00  0.00000000000E+00 -0.45635300707E+03  0.45635300708E+03  0.25500000920E-02 0. -1.
    10030    2    1    2    0    0  0.00000000000E+00  0.00000000000E+00  0.29486927263E+03  0.12075752868E+04  0.11710210012E+04 0.  0.
        3    1    3    3  502    0  0.26681588738E+03 -0.31487250110E+03  0.57571471741E+03  0.70836632878E+03  0.10100000352E+00 0.  1.
       -3    1    3    3    0  502 -0.26681588738E+03  0.31487250110E+03 -0.28084544478E+03  0.49920895801E+03  0.10100000352E+00 0. -1.
</event>
<event>
 5   0  0.1567019E-03  0.1200974E+04  0.7818609E-02  0.9112004E-01
       -2   -1    0    0    0  501  0.00000000000E+00  0.00000000000E+00  0.20260581772E+03  0.20260581773E+03  0.25500000920E-02 0.  1.
        2   -1    0    0  501    0  0.00000000000E+00  0.00000000000E+00 -0.17797348211E+04  0.17797348211E+04  0.25500000920E-02 0. -1.
    10030    2    1    2    0    0  0.00000000000E+00  0.00000000000E+00 -0.15771290034E+04  0.19823406388E+04  0.12009739860E+04 0.  0.
        5    1    3    3  502    0  0.44018016606E+03  0.26901109676E+03 -0.12958071391E+04  0.13947271348E+04  0.46999998093E+01 0. -1.
       -5    1    3    3    0  502 -0.44018016606E+03 -0.26901109676E+03 -0.28132186422E+03  0.58761350399E+03  0.46999998093E+01 0.  1.
</event>
<event>
 5   0  0.9208078E-04  0.1192654E+04  0.7818609E-02  0.9119311E-01
        1   -1    0    0  501    0  0.00000000000E+00  0.00000000000E+00  0.57332105453E+03  0.57332105455E+03  0.50400001928E-02 0.  1.
       -1   -1    0    0    0  501  0.00000000000E+00  0.00000000000E+00 -0.62025621212E+03  0.62025621214E+03  0.50400001928E-02 0. -1.
    10030    2    1    2    0    0  0.00000000000E+00  0.00000000000E+00 -0.46935157585E+02  0.11935772667E+04  0.11926540917E+04 0.  0.
        3    1    3    3  502    0 -0.19213442556E+03 -0.54315653238E+03  0.13050624694E+03  0.59073390528E+03  0.10100000352E+00 0.  1.
       -3    1    3    3    0  502  0.19213442556E+03  0.54315653238E+03 -0.17744140453E+03  0.60284336141E+03  0.10100000352E+00 0. -1.
</event>
<event>
 5   0  0.9169078E-04  0.1199200E+04  0.7818609E-02  0.9113557E-01
        1   -1    0    0  501    0  0.00000000000E+00  0.00000000000E+00  0.56057457679E+03  0.56057457681E+03  0.50400001928E-02 0. -1.
       -1   -1    0    0    0  501  0.00000000000E+00  0.00000000000E+00 -0.64134270789E+03  0.64134270791E+03  0.50400001928E-02 0.  1.
    10030    2    1    2    0    0  0.00000000000E+00  0.00000000000E+00 -0.80768131098E+02  0.12019172847E+04  0.11992004287E+04 0.  0.
        1    1    3    3  502    0  0.12470053784E+03  0.22323808950E+02  0.54700840371E+03  0.56148621562E+03  0.50400001928E-02 0. -1.
       -1    1    3    3    0  502 -0.12470053784E+03 -0.22323808950E+02 -0.62777653481E+03  0.64043106910E+03  0.50400001928E-02 0.  1.
</event>
<event>
 5   0  0.9208078E-04  0.1194120E+04  0.7818609E-02  0.9118019E-01
       -1   -1    0    0    0  501  0.00000000000E+00  0.00000000000E+00  0.35881061522E+03  0.35881061525E+03  0.50400001928E-02 0.  1.
        1   -1    0    0  501    0  0.00000000000E+00  0.00000000000E+00 -0.99350648437E+03  0.99350648438E+03  0.50400001928E-02 0. -1.
    10030    2    1    2    0    0  0.00000000000E+00  0.00000000000E+00 -0.63469586915E+03  0.13523170996E+04  0.11941200491E+04 0.  0.
        3    1    3    3  502    0  0.16099590534E+03 -0.45263263193E+03 -0.71883515338E+03  0.86459237156E+03  0.10100000352E+00 0. -1.
       -3    1    3    3    0  502 -0.16099590534E+03  0.45263263193E+03  0.84139284229E+02  0.48772472807E+03  0.10100000352E+00 0.  1.
</event>
<event>
 5   0  0.8908478E-04  0.1185468E+04  0.7818609E-02  0.9125672E-01
       -1   -1    0    0    0  501  0.00000000000E+00  0.00000000000E+00  0.22141881432E+03  0.22141881438E+03  0.50400001928E-02 0. -1.
        1   -1    0    0  501    0  0.00000000000E+00  0.00000000000E+00 -0.15867386952E+04  0.15867386952E+04  0.50400001928E-02 0.  1.
    10030    2    1    2    0    0  0.00000000000E+00  0.00000000000E+00 -0.13653198809E+04  0.18081575096E+04  0.11854683473E+04 0.  0.
        4    1    3    3  502    0 -0.34569006722E+03 -0.29633926631E+03 -0.10383390561E+03  0.46701357174E+03  0.12699999809E+01 0. -1.
       -4    1    3    3    0  502  0.34569006722E+03  0.29633926631E+03 -0.12614859753E+04  0.13411439378E+04  0.12699999809E+01 0.  1.
</event>
<event>
 5   0  0.8908478E-04  0.1201381E+04  0.7818609E-02  0.9111649E-01
        1   -1    0    0  501    0  0.00000000000E+00  0.00000000000E+00  0.38735466517E+03  0.38735466520E+03  0.50400001928E-02 0. -1.
       -1   -1    0    0    0  501  0.00000000000E+00  0.00000000000E+00 -0.93152062501E+03  0.93152062502E+03  0.50400001928E-02 0.  1.
    10030    2    1    2    0    0  0.00000000000E+00  0.00000000000E+00 -0.54416595985E+03  0.13188752902E+04  0.12013806388E+04 0.  0.
        4    1    3    3  502    0 -0.10936300121E+03 -0.55941354356E+03 -0.48015430459E+03  0.74528756052E+03  0.12699999809E+01 0. -1.
       -4    1    3    3    0  502  0.10936300121E+03  0.55941354356E+03 -0.64011655258E+02  0.57358772970E+03  0.12699999809E+01 0.  1.
</event>
<event>
 5   0  0.1551501E-03  0.1203509E+04  0.7818609E-02  0.9109791E-01
        2   -1    0    0  501    0  0.00000000000E+00  0.00000000000E+00  0.43918775950E+03  0.43918775950E+03  0.25500000920E-02 0. -1.
       -2   -1    0    0    0  501  0.00000000000E+00  0.00000000000E+00 -0.82449606149E+03  0.82449606149E+03  0.25500000920E-02 0.  1.
    10030    2    1    2    0    0  0.00000000000E+00  0.00000000000E+00 -0.38530830199E+03  0.12636838210E+04  0.12035091657E+04 0.  0.
        4    1    3    3  502    0  0.31437497308E+03 -0.12626961869E+03 -0.71484419210E+03  0.79106224292E+03  0.12699999809E+01 0.  1.
       -4    1    3    3    0  502 -0.31437497308E+03  0.12626961869E+03  0.32953589010E+03  0.47262157808E+03  0.12699999809E+01 0. -1.
</event>
<event>
 5   0  0.1567019E-03  0.1224689E+04  0.7818609E-02  0.9091516E-01
       -2   -1    0    0    0  501  0.00000000000E+00  0.00000000000E+00  0.35808892710E+03  0.35808892711E+03  0.25500000920E-02 0.  1.
        2   -1    0    0  501    0  0.00000000000E+00  0.00000000000E+00 -0.10471306613E+04  0.10471306613E+04  0.25500000920E-02 0. -1.
    10030    2    1    2    0    0  0.00000000000E+00  0.00000000000E+00 -0.68904173417E+03  0.14052195884E+04  0.12246891769E+04 0.  0.
        5    1    3    3  502    0  0.23319389193E+03  0.82899269472E+02  0.29812263896E+03  0.38749306829E+03  0.46999998093E+01 0.  1.
       -5    1    3    3    0  502 -0.23319389193E+03 -0.82899269472E+02 -0.98716437313E+03  0.10177265201E+04  0.46999998093E+01 0. -1.
</event>
<event>
 5   0  0.8908478E-04  0.1194017E+04  0.7818609E-02  0.9118110E-01
       -1   -1    0    0    0  501  0.00000000000E+00  0.00000000000E+00  0.52752306655E+03  0.52752306657E+03  0.50400001928E-02 0. -1.
        1   -1    0    0  501    0  0.00000000000E+00  0.00000000000E+00 -0.67564651149E+03  0.67564651150E+03  0.50400001928E-02 0.  1.
    10030    2    1    2    0    0  0.00000000000E+00  0.00000000000E+00 -0.14812344494E+03  0.12031695781E+04  0.11940169507E+04 0.  0.
        4    1    3    3  502    0  0.43443403759E+03 -0.80729608523E+02 -0.47859552866E+03  0.65138736222E+03  0.12699999809E+01 0.  1.
       -4    1    3    3    0  502 -0.43443403759E+03  0.80729608523E+02  0.33047208372E+03  0.55178221585E+03  0.12699999809E+01 0. -1.
</event>
<event>
 5   0  0.1647550E-03  0.1202157E+04  0.7818609E-02  0.9110971E-01
       -2   -1    0    0    0  501  0.00000000000E+00  0.00000000000E+00  0.36979367723E+03  0.36979367724E+03  0.25500000920E-02 0.  1.
        2   -1    0    0  501    0  0.00000000000E+00  0.00000000000E+00 -0.97701889595E+03  0.97701889595E+03  0.25500000920E-02 0. -1.
    10030    2    1    2    0    0  0.00000000000E+00  0.00000000000E+00 -0.60722521872E+03  0.13468125732E+04  0.12021570784E+04 0.  0.
        3    1    3    3  502    0 -0.84802870769E+02 -0.60571335518E+02 -0.96682048279E+03  0.97242082954E+03  0.10100000352E+00 0. -1.
       -3    1    3    3    0  502  0.84802870769E+02  0.60571335518E+02  0.35959526407E+03  0.37439174366E+03  0.10100000352E+00 0.  1.
</event>
<event>
 5   0  0.1597352E-03  0.1195897E+04  0.7818609E-02  0.9116456E-01
        2   -1    0    0  501    0  0.00000000000E+00  0.00000000000E+00  0.11549321351E+04  0.11549321351E+04  0.25500000920E-02 0.  1.
       -2   -1    0    0    0  501  0.00000000000E+00  0.00000000000E+00 -0.30957860346E+03  0.30957860347E+03  0.25500000920E-02 0. -1.
    10030    2    1    2    0    0  0.00000000000E+00  0.00000000000E+00  0.84535353166E+03  0.14645107386E+04  0.11958967806E+04 0.  0.
        1    1    3    3  502    0 -0.38424593786E+03  0.68286523314E+02 -0.13210710025E+03  0.41201975194E+03  0.50400001928E-02 0. -1.
       -1    1    3    3    0  502  0.38424593786E+03 -0.68286523314E+02  0.97746063190E+03  0.10524909866E+04  0.50400001928E-02 0.  1.
</event>
<event>
 5   0  0.1537557E-03  0.1230306E+04  0.7818609E-02  0.9086736E-01
        2   -1    0    0  501    0  0.00000000000E+00  0.00000000000E+00  0.69751709421E+03  0.69751709421E+03  0.25500000920E-02 0.  1.
       -2   -1    0    0    0  501  0.00000000000E+00  0.00000000000E+00 -0.54251464084E+03  0.54251464085E+03  0.25500000920E-02 0. -1.
    10030    2    1    2    0    0  0.00000000000E+00  0.00000000000E+00  0.15500245337E+03  0.12400317351E+04  0.12303060365E+04 0.  0.
        2    1    3    3  502    0 -0.22198652380E+03  0.55375256450E+03 -0.73662082662E+02  0.60112063836E+03  0.25500000920E-02 0. -1.
       -2    1    3    3    0  502  0.22198652380E+03 -0.55375256450E+03  0.22866453603E+03  0.63891109670E+03  0.25500000920E-02 0.  1.
</event>
<event>
 5   0  0.6137750E-04  0.1200937E+04  0.7818609E-02  0.9112036E-01
       -4   -1    0    0    0  501  0.00000000000E+00  0.00000000000E+00  0.40123177039E+03  0.40123378032E+03  0.12699999809E+01 0. -1.
        4   -1    0    0  501    0  0.00000000000E+00  0.00000000000E+00 -0.89863475111E+03  0.89863564853E+03  0.12699999809E+01 0.  1.
    10030    2    1    2    0    0  0.00000000000E+00  0.00000000000E+00 -0.49740298072E+03  0.12998694289E+04  0.12009374700E+04 0.  0.
        4    1    3    3  502    0  0.22112929616E+03 -0.27813372397E+03 -0.77262718776E+03  0.85041808435E+03  0.12699999809E+01 0.  1.
       -4    1    3    3    0  502 -0.22112929616E+03  0.27813372397E+03  0.27522420704E+03  0.44945134450E+03  0.12699999809E+01 0. -1.
</event>
<event>
 5   0  0.8908478E-04  0.1215736E+04  0.7818609E-02  0.9099194E-01
        1   -1    0    0  501    0  0.00000000000E+00  0.00000000000E+00  0.63475546306E+03  0.63475546308E+03  0.50400001928E-02 0. -1.
       -1   -1    0    0    0  501  0.00000000000E+00  0.00000000000E+00 -0.58211904232E+03  0.58211904234E+03  0.50400001928E-02 0.  1.
    10030    2    1    2    0    0  0.00000000000E+00  0.00000000000E+00  0.52636420735E+02  0.12168745054E+04  0.12157355671E+04 0.  0.
        4    1    3    3  502    0  0.52589876299E+03  0.25553473042E+03  0.19270908529E+03  0.61563456029E+03  0.12699999809E+01 0. -1.
       -4    1    3    3    0  502 -0.52589876299E+03 -0.25553473042E+03 -0.14007266455E+03  0.60123994513E+03  0.12699999809E+01 0.  1.
</event>
<event>
 5   0  0.1567019E-03  0.1193705E+04  0.7818609E-02  0.9118384E-01
       -2   -1    0    0    0  501  0.00000000000E+00  0.00000000000E+00  0.84675411568E+03  0.84675411569E+03  0.25500000920E-02 0.  1.
        2   -1    0    0  501    0  0.00000000000E+00  0.00000000000E+00 -0.42070433627E+03  0.42070433628E+03  0.25500000920E-02 0. -1.
    10030    2    1    2    0    0  0.00000000000E+00  0.00000000000E+00  0.42604977942E+03  0.12674584520E+04  0.11937053711E+04 0.  0.
        5    1    3    3  502    0 -0.26558891357E+03  0.39125280627E+03  0.59965871342E+03  0.76369423987E+03  0.46999998093E+01 0.  1.
       -5    1    3    3    0  502  0.26558891357E+03 -0.39125280627E+03 -0.17360893401E+03  0.50376421210E+03  0.46999998093E+01 0. -1.
</event>
<event>
 5   0  0.6137750E-04  0.1204799E+04  0.7818609E-02  0.9108667E-01
       -4   -1    0    0    0  501  0.00000000000E+00  0.00000000000E+00  0.11238266387E+04  0.11238273563E+04  0.12699999809E+01 0.  1.
        4   -1    0    0  501    0  0.00000000000E+00  0.00000000000E+00 -0.32289902945E+03  0.32290152697E+03  0.12699999809E+01 0. -1.
    10030    2    1    2    0    0  0.00000000000E+00  0.00000000000E+00  0.80092760926E+03  0.14467288833E+04  0.12047985003E+04 0.  0.
        2    1    3    3  502    0  0.29838552134E+03 -0.42843399591E+03  0.39631690991E+02  0.52360316952E+03  0.25500000920E-02 0. -1.
       -2    1    3    3    0  502 -0.29838552134E+03  0.42843399591E+03  0.76129591827E+03  0.92312571374E+03  0.25500000920E-02 0.  1.
</event>
<event>
 5   0  0.9170776E-04  0.1194540E+04  0.7818609E-02  0.9117649E-01
       -1   -1    0    0    0  501  0.00000000000E+00  0.00000000000E+00  0.11045129048E+04  0.11045129048E+04  0.50400001928E-02 0. -1.
        1   -1    0    0  501    0  0.00000000000E+00  0.00000000000E+00 -0.32297626758E+03  0.32297626762E+03  0.50400001928E-02 0.  1.
    10030    2    1    2    0    0  0.00000000000E+00  0.00000000000E+00  0.78153663726E+03  0.14274891725E+04  0.11945400044E+04 0.  0.
        5    1    3    3  502    0  0.12377103424E+03  0.12377619564E+03  0.10731498219E+04  0.10873419176E+04  0.46999998093E+01 0. -1.
       -5    1    3    3    0  502 -0.12377103424E+03 -0.12377619564E+03 -0.29161318465E+03  0.34014725486E+03  0.46999998093E+01 0.  1.
</event>
<event>
 5   0  0.8908478E-04  0.1197299E+04  0.7818609E-02  0.9115224E-01
        1   -1    0    0  501    0  0.00000000000E+00  0.00000000000E+00  0.67919456852E+03  0.67919456854E+03  0.50400001928E-02 0.  1.
       -1   -1    0    0    0  501  0.00000000000E+00  0.00000000000E+00 -0.52765610628E+03  0.52765610630E+03  0.50400001928E-02 0. -1.
    10030    2    1    2    0    0  0.00000000000E+00  0.00000000000E+00  0.15153846225E+03  0.12068506748E+04  0.11972988958E+04 0.  0.
        4    1    3    3  502    0  0.26334242017E+03  0.53761114221E+03  0.73612519401E+02  0.60315452945E+03  0.12699999809E+01 0. -1.
       -4    1    3    3    0  502 -0.26334242017E+03 -0.53761114221E+03  0.77925942844E+02  0.60369614539E+03  0.12699999809E+01 0.  1.
</event>
<event>
 5   0  0.9208078E-04  0.1198969E+04  0.7818609E-02  0.9113759E-01
        1   -1    0    0  501    0  0.00000000000E+00  0.00000000000E+00  0.52718885560E+03  0.52718885563E+03  0.50400001928E-02 0.  1.
       -1   -1    0    0    0  501  0.00000000000E+00  0.00000000000E+00 -0.68169447027E+03  0.68169447029E+03  0.50400001928E-02 0. -1.
    10030    2    1    2    0    0  0.00000000000E+00  0.00000000000E+00 -0.15450561467E+03  0.12088833259E+04  0.11989691033E+04 0.  0.
        3    1    3    3  502    0 -0.27428922016E+03 -0.47489500633E+03 -0.32137442832E+03  0.63564249127E+03  0.10100000352E+00 0.  1.
       -3    1    3    3    0  502  0.27428922016E+03  0.47489500633E+03  0.16686881366E+03  0.57324083464E+03  0.10100000352E+00 0. -1.
</event>
<event>
 5   0  0.6137750E-04  0.1184055E+04  0.7818609E-02  0.9126929E-01
        3   -1    0    0  501    0  0.00000000000E+00  0.00000000000E+00  0.11373592157E+04  0.11373592202E+04  0.10100000352E+00 0. -1.
       -3   -1    0    0    0  501  0.00000000000E+00  0.00000000000E+00 -0.30816688262E+03  0.30816689917E+03  0.10100000352E+00 0.  1.
    10030    2    1    2    0    0  0.00000000000E+00  0.00000000000E+00  0.82919233308E+03  0.14455261193E+04  0.11840548283E+04 0.  0.
        3    1    3    3  502    0  0.31096869109E+03 -0.47424733879E+03  0.20711165474E+03  0.60374441026E+03  0.10100000352E+00 0. -1.
       -3    1    3    3    0  502 -0.31096869109E+03  0.47424733879E+03  0.62208067834E+03  0.84178170909E+03  0.10100000352E+00 0.  1.
</event>
<event>
 5   0  0.9170776E-04  0.1202236E+04  0.7818609E-02  0.9110902E-01
       -1   -1    0    0    0  501  0.00000000000E+00  0.00000000000E+00  0.67319127325E+03  0.67319127327E+03  0.50400001928E-02 0.  1.
        1   -1    0    0  501    0  0.00000000000E+00  0.00000000000E+00 -0.53676083448E+03  0.53676083451E+03  0.50400001928E-02 0. -1.
    10030    2    1    2    0    0  0.00000000000E+00  0.00000000000E+00  0.13643043876E+03  0.12099521078E+04  0.12022357666E+04 0.  0.
        5    1    3    3  502    0 -0.54208545244E+03 -0.23468866014E+03  0.18021838712E+03  0.61760518294E+03  0.46999998093E+01 0. -1.
       -5    1    3    3    0  502  0.54208545244E+03  0.23468866014E+03 -0.43787948355E+02  0.59234692483E+03  0.46999998093E+01 0.  1.
</event>
<event>
 5   0  0.8908478E-04  0.1209805E+04  0.7818609E-02  0.9104317E-01
       -1   -1    0    0    0  501  0.00000000000E+00  0.00000000000E+00  0.41319897931E+03  0.41319897934E+03  0.50400001928E-02 0.  1.
        1   -1    0    0  501    0  0.00000000000E+00  0.00000000000E+00 -0.88554703100E+03  0.88554703101E+03  0.50400001928E-02 0. -1.
    10030    2    1    2    0    0  0.00000000000E+00  0.00000000000E+00 -0.47234805169E+03  0.12987460104E+04  0.12098051568E+04 0.  0.
        4    1    3    3  502    0  0.46554682314E+03 -0.13080770067E+03 -0.62629213846E+03  0.79125719882E+03  0.12699999809E+01 0. -1.
       -4    1    3    3    0  502 -0.46554682314E+03  0.13080770067E+03  0.15394408677E+03  0.50748881154E+03  0.12699999809E+01 0.  1.
</event>
<event>
 5   0  0.6137750E-04  0.1201717E+04  0.7818609E-02  0.9111355E-01
        3   -1    0    0  501    0  0.00000000000E+00  0.00000000000E+00  0.39743577260E+03  0.39743578544E+03  0.10100000352E+00 0. -1.
       -3   -1    0    0    0  501  0.00000000000E+00  0.00000000000E+00 -0.90840007167E+03  0.90840007729E+03  0.10100000352E+00 0.  1.
    10030    2    1    2    0    0  0.00000000000E+00  0.00000000000E+00 -0.51096429907E+03  0.13058358627E+04  0.12017165995E+04 0.  0.
        2    1    3    3  502    0  0.37779167737E+03 -0.65985985529E+02 -0.75810551221E+03  0.84959088356E+03  0.25500000920E-02 0.  1.
       -2    1    3    3    0  502 -0.37779167737E+03  0.65985985529E+02  0.24714121313E+03  0.45624497917E+03  0.25500000920E-02 0. -1.
</event>
<event>
 5   0  0.1597352E-03  0.1197385E+04  0.7818609E-02  0.9115148E-01
        2   -1    0    0  501    0  0.00000000000E+00  0.00000000000E+00  0.86015090991E+03  0.86015090991E+03  0.25500000920E-02 0. -1.
       -2   -1    0    0    0  501  0.00000000000E+00  0.00000000000E+00 -0.41670929279E+03  0.41670929279E+03  0.25500000920E-02 0.  1.
    10030    2    1    2    0    0  0.00000000000E+00  0.00000000000E+00  0.44344161712E+03  0.12768602027E+04  0.11973852803E+04 0.  0.
        1    1    3    3  502    0  0.40582436682E+03 -0.28481874333E+03 -0.13613893617E+03  0.51414875593E+03  0.50400001928E-02 0.  1.
       -1    1    3    3    0  502 -0.40582436682E+03  0.28481874333E+03  0.57958055329E+03  0.76271144677E+03  0.50400001928E-02 0. -1.
</event>
<event>
 5   0  0.9169078E-04  0.1201556E+04  0.7818609E-02  0.9111496E-01
        1   -1    0    0  501    0  0.00000000000E+00  0.00000000000E+00  0.57807476071E+03  0.57807476073E+03  0.50400001928E-02 0.  1.
       -1   -1    0    0    0  501  0.00000000000E+00  0.00000000000E+00 -0.62437245088E+03  0.62437245090E+03  0.50400001928E-02 0. -1.
    10030    2    1    2    0    0  0.00000000000E+00  0.00000000000E+00 -0.46297690170E+02  0.12024472116E+04  0.12015555837E+04 0.  0.
        1    1    3    3  502    0 -0.26419708273E+03 -0.11173565447E+03 -0.55141270234E+03  0.62156328988E+03  0.50400001928E-02 0. -1.
       -1    1    3    3    0  502  0.26419708273E+03  0.11173565447E+03  0.50511501217E+03  0.58088392175E+03  0.50400001928E-02 0.  1.
</event>
<event>
 5   0  0.1551501E-03  0.1134198E+04  0.7818609E-02  0.9172487E-01
        2   -1    0    0  501    0  0.00000000000E+00  0.00000000000E+00  0.76354539605E+03  0.76354539605E+03  0.25500000920E-02 0.  1.
       -2   -1    0    0    0  501  0.00000000000E+00  0.00000000000E+00 -0.42119449062E+03  0.42119449063E+03  0.25500000920E-02 0. -1.
    10030    2    1    2    0    0  0.00000000000E+00  0.00000000000E+00  0.34235090543E+03  0.11847398867E+04  0.11341977150E+04 0.  0.
        4    1    3    3  502    0  0.83142612360E+02 -0.15211141564E+03 -0.39283865086E+03  0.42938839676E+03  0.12699999809E+01 0. -1.
       -4    1    3    3    0  502 -0.83142612360E+02  0.15211141564E+03  0.73518955629E+03  0.75535148993E+03  0.12699999809E+01 0.  1.
</event>
<event>
 5   0  0.1567019E-03  0.1202762E+04  0.7818609E-02  0.9110443E-01
        2   -1    0    0  501    0  0.00000000000E+00  0.00000000000E+00  0.12622157082E+04  0.12622157082E+04  0.25500000920E-02 0.  1.
       -2   -1    0    0    0  501  0.00000000000E+00  0.00000000000E+00 -0.28652695542E+03  0.28652695543E+03  0.25500000920E-02 0. -1.
    10030    2    1    2    0    0  0.00000000000E+00  0.00000000000E+00  0.97568875282E+03  0.15487426637E+04  0.12027615291E+04 0.  0.
        5    1    3    3  502    0  0.29849079824E+03  0.47447607271E+03  0.20746513387E+03  0.59773587142E+03  0.46999998093E+01 0. -1.
       -5    1    3    3    0  502 -0.29849079824E+03 -0.47447607271E+03  0.76822361894E+03  0.95100679225E+03  0.46999998093E+01 0.  1.
</event>
<event>
 5   0  0.6137750E-04  0.1154922E+04  0.7818609E-02  0.9153255E-01
        4   -1    0    0  501    0  0.00000000000E+00  0.00000000000E+00  0.10501040388E+04  0.10501048068E+04  0.12699999809E+01 0.  1.
       -4   -1    0    0    0  501  0.00000000000E+00  0.00000000000E+00 -0.31754824087E+03  0.31755078047E+03  0.12699999809E+01 0. -1.
    10030    2    1    2    0    0  0.00000000000E+00  0.00000000000E+00  0.73255579793E+03  0.13676555872E+04  0.11549215593E+04 0.  0.
        5    1    3    3  502    0 -0.24482844636E+03 -0.14018710267E+02 -0.25279979981E+03  0.35223191390E+03  0.46999998093E+01 0. -1.
       -5    1    3    3    0  502  0.24482844636E+03  0.14018710267E+02  0.98535559774E+03  0.10154236733E+04  0.46999998093E+01 0.  1.
</event>
<event>
 5   0  0.9169078E-04  0.1193303E+04  0.7818609E-02  0.9118739E-01
       -1   -1    0    0    0  501  0.00000000000E+00  0.00000000000E+00  0.63499326768E+03  0.63499326770E+03  0.50400001928E-02 0.  1.
        1   -1    0    0  501    0  0.00000000000E+00  0.00000000000E+00 -0.56062458014E+03  0.56062458016E+03  0.50400001928E-02 0. -1.
    10030    2    1    2    0    0  0.00000000000E+00  0.00000000000E+00  0.74368687549E+02  0.11956178479E+04  0.11933027011E+04 0.  0.
        1    1    3    3  502    0  0.34181043673E+03 -0.44863764262E+03 -0.15782812115E+03  0.58567894352E+03  0.50400001928E-02 0.  1.
       -1    1    3    3    0  502 -0.34181043673E+03  0.44863764262E+03  0.23219680870E+03  0.60993890434E+03  0.50400001928E-02 0. -1.
</event>
<event>
 5   0  0.1537557E-03  0.1203770E+04  0.7818609E-02  0.9109563E-01
       -2   -1    0    0    0  501  0.00000000000E+00  0.00000000000E+00  0.18096119527E+03  0.18096119529E+03  0.25500000920E-02 0. -1.
        2   -1    0    0  501    0  0.00000000000E+00  0.00000000000E+00 -0.20018966526E+04  0.20018966526E+04  0.25500000920E-02 0.  1.
    10030    2    1    2    0    0  0.00000000000E+00  0.00000000000E+00 -0.18209354573E+04  0.21828578479E+04  0.12037700961E+04 0.  0.
        2    1    3    3  502    0  0.44605132390E+03 -0.34966004858E+03 -0.12778299210E+04  0.13978816975E+04  0.25500000920E-02 0.  1.
       -2    1    3    3    0  502 -0.44605132390E+03  0.34966004858E+03 -0.54310553634E+03  0.78497615042E+03  0.25500000920E-02 0. -1.
</event>
<event>
 5   0  0.9208078E-04  0.1196054E+04  0.7818609E-02  0.9116318E-01
       -1   -1    0    0    0  501  0.00000000000E+00  0.00000000000E+00  0.18521152395E+04  0.18521152395E+04  0.50400001928E-02 0.  1.
        1   -1    0    0  501    0  0.00000000000E+00  0.00000000000E+00 -0.19309606082E+03  0.19309606088E+03  0.50400001928E-02 0. -1.
    10030    2    1    2    0    0  0.00000000000E+00  0.00000000000E+00  0.16590191787E+04  0.20452113004E+04  0.11960537730E+04 0.  0.
        3    1    3    3  502    0 -0.23093500361E+03 -0.62036279426E+01  0.17727332367E+04  0.17877227413E+04  0.10100000352E+00 0.  1.
       -3    1    3    3    0  502  0.23093500361E+03  0.62036279426E+01 -0.11371405802E+03  0.25748855913E+03  0.10100000352E+00 0. -1.
</event>
<event>
 5   0  0.9208078E-04  0.1199135E+04  0.7818609E-02  0.9113614E-01
        1   -1    0    0  501    0  0.00000000000E+00  0.00000000000E+00  0.10555702745E+04  0.10555702745E+04  0.50400001928E-02 0.  1.
       -1   -1    0    0    0  501  0.00000000000E+00  0.00000000000E+00 -0.34055655850E+03  0.34055655854E+03  0.50400001928E-02 0. -1.
    10030    2    1    2    0    0  0.00000000000E+00  0.00000000000E+00  0.71501371596E+03  0.13961268330E+04  0.11991353217E+04 0.  0.
        3    1    3    3  502    0  0.13979697278E+03 -0.32935963218E+01 -0.32130546673E+03  0.35041583088E+03  0.10100000352E+00 0. -1.
       -3    1    3    3    0  502 -0.13979697278E+03  0.32935963218E+01  0.10363191827E+04  0.10457110021E+04  0.10100000352E+00 0.  1.
</event>
<event>
 5   0  0.1537557E-03  0.1194403E+04  0.7818609E-02  0.9117770E-01
        2   -1    0    0  501    0  0.00000000000E+00  0.00000000000E+00  0.86613530688E+03  0.86613530689E+03  0.25500000920E-02 0.  1.
       -2   -1    0    0    0  501  0.00000000000E+00  0.00000000000E+00 -0.41177111498E+03  0.41177111499E+03  0.25500000920E-02 0. -1.
    10030    2    1    2    0    0  0.00000000000E+00  0.00000000000E+00  0.45436419190E+03  0.12779064219E+04  0.11944027814E+04 0.  0.
        2    1    3    3  502    0 -0.16285505537E+03  0.94287782418E+02  0.83358517305E+03  0.85456199056E+03  0.25500000920E-02 0.  1.
       -2    1    3    3    0  502  0.16285505537E+03 -0.94287782418E+02 -0.37922098115E+03  0.42334443131E+03  0.25500000920E-02 0. -1.
</event>
<event>
 5   0  0.9208078E-04  0.1200407E+04  0.7818609E-02  0.9112501E-01
        1   -1    0    0  501    0  0.00000000000E+00  0.00000000000E+00  0.13137541711E+04  0.13137541712E+04  0.50400001928E-02 0.  1.
       -1   -1    0    0    0  501  0.00000000000E+00  0.00000000000E+00 -0.27420956703E+03  0.27420956708E+03  0.50400001928E-02 0. -1.
    10030    2    1    2    0    0  0.00000000000E+00  0.00000000000E+00  0.10395446041E+04  0.15879637382E+04  0.12004065353E+04 0.  0.
        3    1    3    3  502    0  0.13526863934E+03  0.23826307619E+03 -0.18665832378E+03  0.33152411421E+03  0.10100000352E+00 0. -1.
       -3    1    3    3    0  502 -0.13526863934E+03 -0.23826307619E+03  0.12262029279E+04  0.12564396240E+04  0.10100000352E+00 0.  1.
</event>
<event>
 5   0  0.1647550E-03  0.1178039E+04  0.7818609E-02  0.9132299E-01
       -2   -1    0    0    0  501  0.00000000000E+00  0.00000000000E+00  0.46832341863E+03  0.46832341863E+03  0.25500000920E-02 0.  1.
        2   -1    0    0  501    0  0.00000000000E+00  0.00000000000E+00 -0.74082156518E+03  0.74082156519E+03  0.25500000920E-02 0. -1.
    10030    2    1    2    0    0  0.00000000000E+00  0.00000000000E+00 -0.27249814656E+03  0.12091449838E+04  0.11780391980E+04 0.  0.
        3    1    3    3  502    0  0.24421335625E+03 -0.51514241818E+03 -0.28825473696E+03  0.63882914614E+03  0.10100000352E+00 0. -1.
       -3    1    3    3    0  502 -0.24421335625E+03  0.51514241818E+03  0.15756590400E+02  0.57031583769E+03  0.10100000352E+00 0.  1.
</event>
<event>
 5   0  0.1647550E-03  0.1212019E+04  0.7818609E-02  0.9102401E-01
        2   -1    0    0  501    0  0.00000000000E+00  0.00000000000E+00  0.71345840089E+03  0.71345840090E+03  0.25500000920E-02 0.  1.
       -2   -1    0    0    0  501  0.00000000000E+00  0.00000000000E+00 -0.51474254828E+03  0.51474254829E+03  0.25500000920E-02 0. -1.
    10030    2    1    2    0    0  0.00000000000E+00  0.00000000000E+00  0.19871585261E+03  0.12282009492E+04  0.12120188041E+04 0.  0.
        3    1    3    3  502    0 -0.16258086941E+03 -0.41374887274E+03 -0.31799858978E+03  0.54657458969E+03  0.10100000352E+00 0. -1.
       -3    1    3    3    0  502  0.16258086941E+03  0.41374887274E+03  0.51671444239E+03  0.68162635950E+03  0.10100000352E+00 0.  1.
</event>
<event>
 5   0  0.1537557E-03  0.1160150E+04  0.7818609E-02  0.9148471E-01
        2   -1    0    0  501    0  0.00000000000E+00  0.00000000000E+00  0.62955556593E+03  0.62955556593E+03  0.25500000920E-02 0. -1.
       -2   -1    0    0    0  501  0.00000000000E+00  0.00000000000E+00 -0.53448303771E+03  0.53448303771E+03  0.25500000920E-02 0.  1.
    10030    2    1    2    0    0  0.00000000000E+00  0.00000000000E+00  0.95072528218E+02  0.11640386036E+04  0.11601495960E+04 0.  0.
        2    1    3    3  502    0 -0.15942914338E+03  0.14619742173E+03  0.58757413303E+03  0.62612674411E+03  0.25500000920E-02 0. -1.
       -2    1    3    3    0  502  0.15942914338E+03 -0.14619742173E+03 -0.49250160481E+03  0.53791185953E+03  0.25500000920E-02 0.  1.
</event>
<event>
 5   0  0.8908478E-04  0.1130276E+04  0.7818609E-02  0.9176175E-01
        1   -1    0    0  501    0  0.00000000000E+00  0.00000000000E+00  0.33080634361E+03  0.33080634365E+03  0.50400001928E-02 0. -1.
       -1   -1    0    0    0  501  0.00000000000E+00  0.00000000000E+00 -0.96546203574E+03  0.96546203575E+03  0.50400001928E-02 0.  1.
    10030    2    1    2    0    0  0.00000000000E+00  0.00000000000E+00 -0.63465569212E+03  0.12962683794E+04  0.11302760123E+04 0.  0.
        4    1    3    3  502    0 -0.16171284822E+03  0.53145200422E+03 -0.43644169702E+03  0.70645257864E+03  0.12699999809E+01 0.  1.
       -4    1    3    3    0  502  0.16171284822E+03 -0.53145200422E+03 -0.19821399511E+03  0.58981580076E+03  0.12699999809E+01 0. -1.
</event>
<event>
 5   0  0.1597352E-03  0.1204070E+04  0.7818609E-02  0.9109302E-01
       -2   -1    0    0    0  501  0.00000000000E+00  0.00000000000E+00  0.23077645313E+03  0.23077645314E+03  0.25500000920E-02 0. -1.
        2   -1    0    0  501    0  0.00000000000E+00  0.00000000000E+00 -0.15705505548E+04  0.15705505548E+04  0.25500000920E-02 0.  1.
    10030    2    1    2    0    0  0.00000000000E+00  0.00000000000E+00 -0.13397741017E+04  0.18013270079E+04  0.12040699091E+04 0.  0.
        1    1    3    3  502    0  0.32917163134E+02 -0.30997670183E+03  0.10064489499E+03  0.32756448254E+03  0.50400001928E-02 0. -1.
       -1    1    3    3    0  502 -0.32917163134E+02  0.30997670183E+03 -0.14404189967E+04  0.14737625254E+04  0.50400001928E-02 0.  1.
</event>
<event>
 5   0  0.1537557E-03  0.1178981E+04  0.7818609E-02  0.9131456E-01
        2   -1    0    0  501    0  0.00000000000E+00  0.00000000000E+00  0.75110993028E+03  0.75110993028E+03  0.25500000920E-02 0.  1.
       -2   -1    0    0    0  501  0.00000000000E+00  0.00000000000E+00 -0.46264702329E+03  0.46264702330E+03  0.25500000920E-02 0. -1.
    10030    2    1    2    0    0  0.00000000000E+00  0.00000000000E+00  0.28846290699E+03  0.12137569536E+04  0.11789805315E+04 0.  0.
        2    1    3    3  502    0 -0.12989959959E+03  0.78811776577E+02  0.73060531710E+03  0.74623677977E+03  0.25500000920E-02 0.  1.
       -2    1    3    3    0  502  0.12989959959E+03 -0.78811776577E+02 -0.44214241011E+03  0.46752017381E+03  0.25500000920E-02 0. -1.
</event>
<event>
 5   0  0.1551501E-03  0.1197003E+04  0.7818609E-02  0.9115484E-01
        2   -1    0    0  501    0  0.00000000000E+00  0.00000000000E+00  0.12365471858E+04  0.12365471858E+04  0.25500000920E-02 0. -1.
       -2   -1    0    0    0  501  0.00000000000E+00  0.00000000000E+00 -0.28968082665E+03  0.28968082666E+03  0.25500000920E-02 0.  1.
    10030    2    1    2    0    0  0.00000000000E+00  0.00000000000E+00  0.94686635911E+03  0.15262280124E+04  0.11970029423E+04 0.  0.
        4    1    3    3  502    0 -0.26318047910E+03  0.53723782954E+03  0.45084126353E+03  0.74909806292E+03  0.12699999809E+01 0.  1.
       -4    1    3    3    0  502  0.26318047910E+03 -0.53723782954E+03  0.49602509558E+03  0.77712994950E+03  0.12699999809E+01 0. -1.
</event>
<event>
 5   0  0.1647550E-03  0.1193612E+04  0.7818609E-02  0.9118466E-01
        2   -1    0    0  501    0  0.00000000000E+00  0.00000000000E+00  0.20192616462E+04  0.20192616462E+04  0.25500000920E-02 0.  1.
       -2   -1    0    0    0  501  0.00000000000E+00  0.00000000000E+00 -0.17638992827E+03  0.17638992829E+03  0.25500000920E-02 0. -1.
    10030    2    1    2    0    0  0.00000000000E+00  0.00000000000E+00  0.18428717180E+04  0.21956515745E+04  0.11936120257E+04 0.  0.
        3    1    3    3  502    0 -0.43097508506E+03  0.33717681078E+03  0.13596455225E+04  0.14656274024E+04  0.10100000352E+00 0.  1.
       -3    1    3    3    0  502  0.43097508506E+03 -0.33717681078E+03  0.48322619548E+03  0.73002417212E+03  0.10100000352E+00 0. -1.
</event>
<event>
 5   0  0.6137750E-04  0.1349544E+04  0.7818609E-02  0.8991173E-01
        4   -1    0    0  501    0  0.00000000000E+00  0.00000000000E+00  0.32394819155E+03  0.32395068098E+03  0.12699999809E+01 0.  1.
       -4   -1    0    0    0  501  0.00000000000E+00  0.00000000000E+00 -0.14055175178E+04  0.14055180916E+04  0.12699999809E+01 0. -1.
    10030    2    1    2    0    0  0.00000000000E+00  0.00000000000E+00 -0.10815693263E+04  0.17294687726E+04  0.13495443779E+04 0.  0.
        3    1    3    3  502    0  0.61829806147E+03  0.27015925481E+03 -0.54878580408E+03  0.86973811273E+03  0.10100000352E+00 0.  1.
       -3    1    3    3    0  502 -0.61829806147E+03 -0.27015925481E+03 -0.53278352220E+03  0.85973065986E+03  0.10100000352E+00 0. -1.
</event>
<event>
 5   0  0.1597352E-03  0.1204332E+04  0.7818609E-02  0.9109073E-01
       -2   -1    0    0    0  501  0.00000000000E+00  0.00000000000E+00  0.28852525961E+03  0.28852525962E+03  0.25500000920E-02 0.  1.
        2   -1    0    0  501    0  0.00000000000E+00  0.00000000000E+00 -0.12567487533E+04  0.12567487533E+04  0.25500000920E-02 0. -1.
    10030    2    1    2    0    0  0.00000000000E+00  0.00000000000E+00 -0.96822349369E+03  0.15452740129E+04  0.12043317821E+04 0.  0.
        1    1    3    3  502    0  0.27102761253E+03 -0.60969479466E+02  0.20139156139E+03  0.34312068606E+03  0.50400001928E-02 0.  1.
       -1    1    3    3    0  502 -0.27102761253E+03  0.60969479466E+02 -0.11696150551E+04  0.12021533269E+04  0.50400001928E-02 0. -1.
</event>
<event>
 5   0  0.1551501E-03  0.1199883E+04  0.7818609E-02  0.9112959E-01
       -2   -1    0    0    0  501  0.00000000000E+00  0.00000000000E+00  0.59436505075E+03  0.59436505076E+03  0.25500000920E-02 0. -1.
        2   -1    0    0  501    0  0.00000000000E+00  0.00000000000E+00 -0.60556988401E+03  0.60556988402E+03  0.25500000920E-02 0.  1.
    10030    2    1    2    0    0  0.00000000000E+00  0.00000000000E+00 -0.11204833260E+02  0.11999349348E+04  0.11998826190E+04 0.  0.
        4    1    3    3  502    0  0.34702347286E+03  0.23096178452E+03 -0.43708307558E+03  0.60399657655E+03  0.12699999809E+01 0.  1.
       -4    1    3    3    0  502 -0.34702347286E+03 -0.23096178452E+03  0.42587824232E+03  0.59593835823E+03  0.12699999809E+01 0. -1.
</event>
<event>
 5   0  0.9169078E-04  0.1204388E+04  0.7818609E-02  0.9109024E-01
        1   -1    0    0  501    0  0.00000000000E+00  0.00000000000E+00  0.14204393263E+04  0.14204393263E+04  0.50400001928E-02 0. -1.
       -1   -1    0    0    0  501  0.00000000000E+00  0.00000000000E+00 -0.25529968264E+03  0.25529968269E+03  0.50400001928E-02 0.  1.
    10030    2    1    2    0    0  0.00000000000E+00  0.00000000000E+00  0.11651396436E+04  0.16757390090E+04  0.12043881588E+04 0.  0.
        1    1    3    3  502    0 -0.21357672827E+03 -0.54789491836E+03  0.76309243584E+03  0.96338669603E+03  0.50400001928E-02 0. -1.
       -1    1    3    3    0  502  0.21357672827E+03  0.54789491836E+03  0.40204720777E+03  0.71235231292E+03  0.50400001928E-02 0.  1.
</event>
<event>
 5   0  0.9358428E-04  0.1197560E+04  0.7818609E-02  0.9114995E-01
        1   -1    0    0  501    0  0.00000000000E+00  0.00000000000E+00  0.44548796852E+03  0.44548796855E+03  0.50400001928E-02 0.  1.
       -1   -1    0    0    0  501  0.00000000000E+00  0.00000000000E+00 -0.80481914661E+03  0.80481914662E+03  0.50400001928E-02 0. -1.
    10030    2    1    2    0    0  0.00000000000E+00  0.00000000000E+00 -0.35933117808E+03  0.12503071152E+04  0.11975595963E+04 0.  0.
        2    1    3    3  502    0 -0.55346388219E+03  0.12791428515E+03 -0.37735426548E+03  0.68196816268E+03  0.25500000920E-02 0.  1.
       -2    1    3    3    0  502  0.55346388219E+03 -0.12791428515E+03  0.18023087402E+02  0.56833895249E+03  0.25500000920E-02 0. -1.
</event>
<event>
 5   0  0.9170776E-04  0.1205494E+04  0.7818609E-02  0.9108061E-01
       -1   -1    0    0    0  501  0.00000000000E+00  0.00000000000E+00  0.24498764971E+03  0.24498764976E+03  0.50400001928E-02 0.  1.
        1   -1    0    0  501    0  0.00000000000E+00  0.00000000000E+00 -0.14829477656E+04  0.14829477656E+04  0.50400001928E-02 0. -1.
    10030    2    1    2    0    0  0.00000000000E+00  0.00000000000E+00 -0.12379601158E+04  0.17279354153E+04  0.12054939034E+04 0.  0.
        5    1    3    3  502    0  0.17963558692E+03  0.56618507003E+03 -0.47247084351E+03  0.75900280999E+03  0.46999998093E+01 0. -1.
       -5    1    3    3    0  502 -0.17963558692E+03 -0.56618507003E+03 -0.76548927234E+03  0.96893260533E+03  0.46999998093E+01 0.  1.
</event>
<event>
 5   0  0.6137750E-04  0.1190175E+04  0.7818609E-02  0.9121500E-01
       -3   -1    0    0    0  501  0.00000000000E+00  0.00000000000E+00  0.33320736413E+03  0.33320737943E+03  0.10100000352E+00 0. -1.
        3   -1    0    0  501    0  0.00000000000E+00  0.00000000000E+00 -0.10627882808E+04  0.10627882856E+04  0.10100000352E+00 0.  1.
    10030    2    1    2    0    0  0.00000000000E+00  0.00000000000E+00 -0.72958091671E+03  0.13959956651E+04  0.11901746018E+04 0.  0.
        2    1    3    3  502    0  0.28098289627E+03  0.52449419906E+03 -0.35408247726E+03  0.69240158402E+03  0.25500000920E-02 0. -1.
       -2    1    3    3    0  502 -0.28098289627E+03 -0.52449419906E+03 -0.37549843944E+03  0.70359408104E+03  0.25500000920E-02 0.  1.
</event>
<event>
 5   0  0.9169078E-04  0.1202665E+04  0.7818609E-02  0.9110527E-01
       -1   -1    0    0    0  501  0.00000000000E+00  0.00000000000E+00  0.45392874563E+03  0.45392874565E+03  0.50400001928E-02 0. -1.
        1   -1    0    0  501    0  0.00000000000E+00  0.00000000000E+00 -0.79660199414E+03  0.79660199416E+03  0.50400001928E-02 0.  1.
    10030    2    1    2    0    0  0.00000000000E+00  0.00000000000E+00 -0.34267324851E+03  0.12505307398E+04  0.12026646149E+04 0.  0.
        1    1    3    3  502    0  0.20511467295E+03  0.56183173508E+03 -0.23605209909E+03  0.64299885001E+03  0.50400001928E-02 0.  1.
       -1    1    3    3    0  502 -0.20511467295E+03 -0.56183173508E+03 -0.10662114942E+03  0.60753188980E+03  0.50400001928E-02 0. -1.
</event>
<event>
 5   0  0.1551501E-03  0.1217206E+04  0.7818609E-02  0.9097928E-01
        2   -1    0    0  501    0  0.00000000000E+00  0.00000000000E+00  0.18345240812E+04  0.18345240812E+04  0.25500000920E-02 0.  1.
       -2   -1    0    0    0  501  0.00000000000E+00  0.00000000000E+00 -0.20190395079E+03  0.20190395080E+03  0.25500000920E-02 0. -1.
    10030    2    1    2    0    0  0.00000000000E+00  0.00000000000E+00  0.16326201304E+04  0.20364280320E+04  0.12172060792E+04 0.  0.
        4    1    3    3  502    0 -0.20128610960E+00  0.10634174361E+03 -0.18623767235E+03  0.21446372760E+03  0.12699999809E+01 0. -1.
       -4    1    3    3    0  502  0.20128610960E+00 -0.10634174361E+03  0.18188578028E+04  0.18219643044E+04  0.12699999809E+01 0.  1.
</event>
<event>
 5   0  0.9169078E-04  0.1187682E+04  0.7818609E-02  0.9123708E-01
        1   -1    0    0  501    0  0.00000000000E+00  0.00000000000E+00  0.15844658977E+04  0.15844658977E+04  0.50400001928E-02 0. -1.
       -1   -1    0    0    0  501  0.00000000000E+00  0.00000000000E+00 -0.22256518107E+03  0.22256518113E+03  0.50400001928E-02 0.  1.
    10030    2    1    2    0    0  0.00000000000E+00  0.00000000000E+00  0.13619007166E+04  0.18070310788E+04  0.11876816737E+04 0.  0.
        1    1    3    3  502    0  0.21784201168E+03  0.36076507029E+03  0.13175035023E+04  0.13832649987E+04  0.50400001928E-02 0. -1.
       -1    1    3    3    0  502 -0.21784201168E+03 -0.36076507029E+03  0.44397214292E+02  0.42376608012E+03  0.50400001928E-02 0.  1.
</event>
<event>
 5   0  0.1567019E-03  0.1202635E+04  0.7818609E-02  0.9110553E-01
        2   -1    0    0  501    0  0.00000000000E+00  0.00000000000E+00  0.12457738221E+04  0.12457738221E+04  0.25500000920E-02 0. -1.
       -2   -1    0    0    0  501  0.00000000000E+00  0.00000000000E+00 -0.29024766296E+03  0.29024766297E+03  0.25500000920E-02 0.  1.
    10030    2    1    2    0    0  0.00000000000E+00  0.00000000000E+00  0.95552615915E+03  0.15360214851E+04  0.12026353403E+04 0.  0.
        5    1    3    3  502    0 -0.73251736493E+02  0.59472196464E+03  0.54163418025E+03  0.80774359010E+03  0.46999998093E+01 0. -1.
       -5    1    3    3    0  502  0.73251736493E+02 -0.59472196464E+03  0.41389197890E+03  0.72827789498E+03  0.46999998093E+01 0.  1.
</event>
<event>
 5   0  0.1567019E-03  0.1211815E+04  0.7818609E-02  0.9102577E-01
        2   -1    0    0  501    0  0.00000000000E+00  0.00000000000E+00  0.10110854534E+04  0.10110854534E+04  0.25500000920E-02 0.  1.
       -2   -1    0    0    0  501  0.00000000000E+00  0.00000000000E+00 -0.36309905304E+03  0.36309905304E+03  0.25500000920E-02 0. -1.
    10030    2    1    2    0    0  0.00000000000E+00  0.00000000000E+00  0.64798640036E+03  0.13741845064E+04  0.12118154491E+04 0.  0.
        5    1    3    3  502    0 -0.61546434127E+02 -0.56255667287E+03  0.56942794571E+03  0.80282516720E+03  0.46999998093E+01 0.  1.
       -5    1    3    3    0  502  0.61546434127E+02  0.56255667287E+03  0.78558454654E+02  0.57135933924E+03  0.46999998093E+01 0. -1.
</event>
<event>
 5   0  0.1567019E-03  0.1194701E+04  0.7818609E-02  0.9117507E-01
       -2   -1    0    0    0  501  0.00000000000E+00  0.00000000000E+00  0.27159051479E+03  0.27159051480E+03  0.25500000920E-02 0. -1.
        2   -1    0    0  501    0  0.00000000000E+00  0.00000000000E+00 -0.13138445606E+04  0.13138445606E+04  0.25500000920E-02 0.  1.
    10030    2    1    2    0    0  0.00000000000E+00  0.00000000000E+00 -0.10422540458E+04  0.15854350754E+04  0.11947011686E+04 0.  0.
        5    1    3    3  502    0  0.15524346158E+03  0.42919860139E+03 -0.10325063032E+04  0.11288947374E+04  0.46999998093E+01 0.  1.
       -5    1    3    3    0  502 -0.15524346158E+03 -0.42919860139E+03 -0.97477425912E+01  0.45654033806E+03  0.46999998093E+01 0. -1.
</event>
<event>
 5   0  0.1537557E-03  0.1187973E+04  0.7818609E-02  0.9123449E-01
        2   -1    0    0  501    0  0.00000000000E+00  0.00000000000E+00  0.47590180867E+03  0.47590180867E+03  0.25500000920E-02 0. -1.
       -2   -1    0    0    0  501  0.00000000000E+00  0.00000000000E+00 -0.74137162653E+03  0.74137162654E+03  0.25500000920E-02 0.  1.
    10030    2    1    2    0    0  0.00000000000E+00  0.00000000000E+00 -0.26546981787E+03  0.12172734352E+04  0.11879732286E+04 0.  0.
        2    1    3    3  502    0  0.44636342820E+03 -0.24366542933E+03  0.18176675991E+03  0.54004842977E+03  0.25500000920E-02 0. -1.
       -2    1    3    3    0  502 -0.44636342820E+03  0.24366542933E+03 -0.44723657777E+03  0.67722500544E+03  0.25500000920E-02 0.  1.
</event>
<event>
 5   0  0.8908478E-04  0.1198832E+04  0.7818609E-02  0.9113879E-01
        1   -1    0    0  501    0  0.00000000000E+00  0.00000000000E+00  0.15688407000E+04  0.15688407000E+04  0.50400001928E-02 0.  1.
       -1   -1    0    0    0  501  0.00000000000E+00  0.00000000000E+00 -0.22902237904E+03  0.22902237909E+03  0.50400001928E-02 0. -1.
    10030    2    1    2    0    0  0.00000000000E+00  0.00000000000E+00  0.13398183210E+04  0.17978630791E+04  0.11988321476E+04 0.  0.
        4    1    3    3  502    0  0.37186885884E+02 -0.52084486086E+03  0.22849436489E+03  0.56997677256E+03  0.12699999809E+01 0. -1.
       -4    1    3    3    0  502 -0.37186885884E+02  0.52084486086E+03  0.11113239561E+04  0.12278863066E+04  0.12699999809E+01 0.  1.
</event>
<event>
 5   0  0.1597352E-03  0.1192375E+04  0.7818609E-02  0.9119557E-01
        2   -1    0    0  501    0  0.00000000000E+00  0.00000000000E+00  0.85318155584E+03  0.85318155584E+03  0.25500000920E-02 0. -1.
       -2   -1    0    0    0  501  0.00000000000E+00  0.00000000000E+00 -0.41660514542E+03  0.41660514543E+03  0.25500000920E-02 0.  1.
    10030    2    1    2    0    0  0.00000000000E+00  0.00000000000E+00  0.43657641042E+03  0.12697867013E+04  0.11923754881E+04 0.  0.
        1    1    3    3  502    0  0.31368720867E+03  0.42742862294E+03  0.50865264178E+03  0.73472607317E+03  0.50400001928E-02 0. -1.
       -1    1    3    3    0  502 -0.31368720867E+03 -0.42742862294E+03 -0.72076231363E+02  0.53506062810E+03  0.50400001928E-02 0.  1.
</event>
<event>
 5   0  0.1567019E-03  0.1221990E+04  0.7818609E-02  0.9093824E-01
       -2   -1    0    0    0  501  0.00000000000E+00  0.00000000000E+00  0.30960788082E+03  0.30960788083E+03  0.25500000920E-02 0.  1.
        2   -1    0    0  501    0  0.00000000000E+00  0.00000000000E+00 -0.12057663448E+04  0.12057663448E+04  0.25500000920E-02 0. -1.
    10030    2    1    2    0    0  0.00000000000E+00  0.00000000000E+00 -0.89615846401E+03  0.15153742257E+04  0.12219897918E+04 0.  0.
        5    1    3    3  502    0 -0.22180547953E+03 -0.56929335835E+03 -0.44774146246E+03  0.75748736347E+03  0.46999998093E+01 0.  1.
       -5    1    3    3    0  502  0.22180547953E+03  0.56929335835E+03 -0.44841700155E+03  0.75788686219E+03  0.46999998093E+01 0. -1.
</event>
<event>
 5   0  0.1551501E-03  0.1172036E+04  0.7818609E-02  0.9137692E-01
        2   -1    0    0  501    0  0.00000000000E+00  0.00000000000E+00  0.72900449822E+03  0.72900449823E+03  0.25500000920E-02 0.  1.
       -2   -1    0    0    0  501  0.00000000000E+00  0.00000000000E+00 -0.47107665181E+03  0.47107665182E+03  0.25500000920E-02 0. -1.
    10030    2    1    2    0    0  0.00000000000E+00  0.00000000000E+00  0.25792784641E+03  0.12000811500E+04  0.11720358325E+04 0.  0.
        4    1    3    3  502    0 -0.45978148567E+03 -0.36315951749E+03  0.14070725541E+03  0.60256451466E+03  0.12699999809E+01 0. -1.
       -4    1    3    3    0  502  0.45978148567E+03  0.36315951749E+03  0.11722059100E+03  0.59751663539E+03  0.12699999809E+01 0.  1.
</event>
<event>
 5   0  0.1647550E-03  0.1197787E+04  0.7818609E-02  0.9114796E-01
       -2   -1    0    0    0  501  0.00000000000E+00  0.00000000000E+00  0.39686780675E+03  0.39686780675E+03  0.25500000920E-02 0.  1.
        2   -1    0    0  501    0  0.00000000000E+00  0.00000000000E+00 -0.90376084774E+03  0.90376084775E+03  0.25500000920E-02 0. -1.
    10030    2    1    2    0    0  0.00000000000E+00  0.00000000000E+00 -0.50689304100E+03  0.13006286545E+04  0.11977872690E+04 0.  0.
        3    1    3    3  502    0  0.19501027809E+03  0.43179426709E+03 -0.65123032396E+03  0.80534231398E+03  0.10100000352E+00 0. -1.
       -3    1    3    3    0  502 -0.19501027809E+03 -0.43179426709E+03  0.14433728296E+03  0.49528634052E+03  0.10100000352E+00 0.  1.
</event>
<event>
 5   0  0.1567019E-03  0.1149430E+04  0.7818609E-02  0.9158309E-01
       -2   -1    0    0    0  501  0.00000000000E+00  0.00000000000E+00  0.85180026495E+03  0.85180026496E+03  0.25500000920E-02 0. -1.
        2   -1    0    0  501    0  0.00000000000E+00  0.00000000000E+00 -0.38776397092E+03  0.38776397093E+03  0.25500000920E-02 0.  1.
    10030    2    1    2    0    0  0.00000000000E+00  0.00000000000E+00  0.46403629403E+03  0.12395642359E+04  0.11494302122E+04 0.  0.
        5    1    3    3  502    0  0.25480189615E+03 -0.50950738858E+03  0.15021774702E+03  0.58915978038E+03  0.46999998093E+01 0.  1.
       -5    1    3    3    0  502 -0.25480189615E+03  0.50950738858E+03  0.31381854701E+03  0.65040445551E+03  0.46999998093E+01 0. -1.
</event>
<event>
 5   0  0.8908478E-04  0.1200888E+04  0.7818609E-02  0.9112079E-01
        1   -1    0    0  501    0  0.00000000000E+00  0.00000000000E+00  0.12546832031E+04  0.12546832031E+04  0.50400001928E-02 0. -1.
       -1   -1    0    0    0  501  0.00000000000E+00  0.00000000000E+00 -0.28734993131E+03  0.28734993135E+03  0.50400001928E-02 0.  1.
    10030    2    1    2    0    0  0.00000000000E+00  0.00000000000E+00  0.96733327175E+03  0.15420331344E+04  0.12008882250E+04 0.  0.
        4    1    3    3  502    0 -0.18061489031E+03 -0.56296237724E+03  0.61823854995E+03  0.85543491532E+03  0.12699999809E+01 0. -1.
       -4    1    3    3    0  502  0.18061489031E+03  0.56296237724E+03  0.34909472179E+03  0.68659821910E+03  0.12699999809E+01 0.  1.
</event>
<event>
 5   0  0.9208078E-04  0.1212549E+04  0.7818609E-02  0.9101943E-01
        1   -1    0    0  501    0  0.00000000000E+00  0.00000000000E+00  0.72565496329E+03  0.72565496331E+03  0.50400001928E-02 0.  1.
       -1   -1    0    0    0  501  0.00000000000E+00  0.00000000000E+00 -0.50653384223E+03  0.50653384225E+03  0.50400001928E-02 0. -1.
    10030    2    1    2    0    0  0.00000000000E+00  0.00000000000E+00  0.21912112107E+03  0.12321888056E+04  0.12125490451E+04 0.  0.
        3    1    3    3  502    0 -0.34608800627E+03  0.45227645397E+03 -0.10174463676E+03  0.57851783050E+03  0.10100000352E+00 0. -1.
       -3    1    3    3    0  502  0.34608800627E+03 -0.45227645397E+03  0.32086575782E+03  0.65367097506E+03  0.10100000352E+00 0.  1.
</event>
<event>
 5   0  0.9170776E-04  0.1167103E+04  0.7818609E-02  0.9142148E-01
        1   -1    0    0  501    0  0.00000000000E+00  0.00000000000E+00  0.75892728302E+03  0.75892728304E+03  0.50400001928E-02 0.  1.
       -1   -1    0    0    0  501  0.00000000000E+00  0.00000000000E+00 -0.44870259936E+03  0.44870259939E+03  0.50400001928E-02 0. -1.
    10030    2    1    2    0    0  0.00000000000E+00  0.00000000000E+00  0.31022468366E+03  0.12076298824E+04  0.11671034995E+04 0.  0.
        5    1    3    3  502    0 -0.29911974532E+03 -0.49686321041E+03  0.22188918271E+03  0.62096905825E+03  0.46999998093E+01 0. -1.
       -5    1    3    3    0  502  0.29911974532E+03  0.49686321041E+03  0.88335500949E+02  0.58666082418E+03  0.46999998093E+01 0.  1.
</event>
<event>
 5   0  0.1597352E-03  0.1215622E+04  0.7818609E-02  0.9099291E-01
        2   -1    0    0  501    0  0.00000000000E+00  0.00000000000E+00  0.60753846857E+03  0.60753846857E+03  0.25500000920E-02 0.  1.
       -2   -1    0    0    0  501  0.00000000000E+00  0.00000000000E+00 -0.60808399197E+03  0.60808399197E+03  0.25500000920E-02 0. -1.
    10030    2    1    2    0    0  0.00000000000E+00  0.00000000000E+00 -0.54552340227E+00  0.12156224605E+04  0.12156223381E+04 0.  0.
        1    1    3    3  502    0  0.51925146679E+03  0.30510215835E+03  0.81733370909E+02  0.60777442916E+03  0.50400001928E-02 0.  1.
       -1    1    3    3    0  502 -0.51925146679E+03 -0.30510215835E+03 -0.82278894312E+02  0.60784803139E+03  0.50400001928E-02 0. -1.
</event>
<event>
 5   0  0.1567019E-03  0.1220390E+04  0.7818609E-02  0.9095194E-01
        2   -1    0    0  501    0  0.00000000000E+00  0.00000000000E+00  0.13372295171E+04  0.13372295171E+04  0.25500000920E-02 0. -1.
       -2   -1    0    0    0  501  0.00000000000E+00  0.00000000000E+00 -0.27843974145E+03  0.27843974146E+03  0.25500000920E-02 0.  1.
    10030    2    1    2    0    0  0.00000000000E+00  0.00000000000E+00  0.10587897756E+04  0.16156692585E+04  0.12203898410E+04 0.  0.
        5    1    3    3  502    0 -0.42391132222E+03 -0.43886653169E+03  0.52498226904E+03  0.80494292627E+03  0.46999998093E+01 0.  1.
       -5    1    3    3    0  502  0.42391132222E+03  0.43886653169E+03  0.53380750659E+03  0.81072633227E+03  0.46999998093E+01 0. -1.
</event>
<event>
 5   0  0.9170776E-04  0.1200074E+04  0.7818609E-02  0.9112792E-01
        1   -1    0    0  501    0  0.00000000000E+00  0.00000000000E+00  0.14358582897E+04  0.14358582897E+04  0.50400001928E-02 0. -1.
       -1   -1    0    0    0  501  0.00000000000E+00  0.00000000000E+00 -0.25075186864E+03  0.25075186869E+03  0.50400001928E-02 0.  1.
    10030    2    1    2    0    0  0.00000000000E+00  0.00000000000E+00  0.11851064211E+04  0.16866101584E+04  0.12000735799E+04 0.  0.
        5    1    3    3  502    0 -0.24494106800E+03  0.54696702606E+03  0.63360032245E+03  0.87214707073E+03  0.46999998093E+01 0.  1.
       -5    1    3    3    0  502  0.24494106800E+03 -0.54696702606E+03  0.55150609865E+03  0.81446308770E+03  0.46999998093E+01 0. -1.
</event>
<event>
 5   0  0.9169078E-04  0.1194087E+04  0.7818609E-02  0.9118048E-01
       -1   -1    0    0    0  501  0.00000000000E+00  0.00000000000E+00  0.60593563048E+03  0.60593563050E+03  0.50400001928E-02 0. -1.
        1   -1    0    0  501    0  0.00000000000E+00  0.00000000000E+00 -0.58828230539E+03  0.58828230541E+03  0.50400001928E-02 0.  1.
    10030    2    1    2    0    0  0.00000000000E+00  0.00000000000E+00  0.17653325090E+02  0.11942179359E+04  0.11940874501E+04 0.  0.
        1    1    3    3  502    0  0.17909235503E+02  0.19465087670E+03  0.57302615188E+03  0.60544915169E+03  0.50400001928E-02 0. -1.
       -1    1    3    3    0  502 -0.17909235503E+02 -0.19465087670E+03 -0.55537282679E+03  0.58876878423E+03  0.50400001928E-02 0.  1.
</event>
<event>
 5   0  0.1537557E-03  0.1201304E+04  0.7818609E-02  0.9111716E-01
        2   -1    0    0  501    0  0.00000000000E+00  0.00000000000E+00  0.12246313645E+04  0.12246313645E+04  0.25500000920E-02 0.  1.
       -2   -1    0    0    0  501  0.00000000000E+00  0.00000000000E+00 -0.29460545811E+03  0.29460545812E+03  0.25500000920E-02 0. -1.
    10030    2    1    2    0    0  0.00000000000E+00  0.00000000000E+00  0.93002590635E+03  0.15192368226E+04  0.12013044313E+04 0.  0.
        2    1    3    3  502    0  0.28363729335E+01  0.18935158144E+03  0.11858901725E+04  0.12009153041E+04  0.25500000920E-02 0.  1.
       -2    1    3    3    0  502 -0.28363729335E+01 -0.18935158144E+03 -0.25586426617E+03  0.31832151846E+03  0.25500000920E-02 0. -1.
</event>
<event>
 5   0  0.8908478E-04  0.1199159E+04  0.7818609E-02  0.9113593E-01
        1   -1    0    0  501    0  0.00000000000E+00  0.00000000000E+00  0.83722493464E+03  0.83722493465E+03  0.50400001928E-02 0. -1.
       -1   -1    0    0    0  501  0.00000000000E+00  0.00000000000E+00 -0.42938940522E+03  0.42938940525E+03  0.50400001928E-02 0.  1.
    10030    2    1    2    0    0  0.00000000000E+00  0.00000000000E+00  0.40783552941E+03  0.12666143399E+04  0.11991588998E+04 0.  0.
        4    1    3    3  502    0  0.29093737867E+03  0.36603792989E+03 -0.19251551785E+03  0.50566012493E+03  0.12699999809E+01 0.  1.
       -4    1    3    3    0  502 -0.29093737867E+03 -0.36603792989E+03  0.60035104727E+03  0.76095421497E+03  0.12699999809E+01 0. -1.
</event>
<event>
 5   0  0.1551501E-03  0.1202940E+04  0.7818609E-02  0.9110287E-01
        2   -1    0    0  501    0  0.00000000000E+00  0.00000000000E+00  0.10496905868E+04  0.10496905868E+04  0.25500000920E-02 0.  1.
       -2   -1    0    0    0  501  0.00000000000E+00  0.00000000000E+00 -0.34464074377E+03  0.34464074378E+03  0.25500000920E-02 0. -1.
    10030    2    1    2    0    0  0.00000000000E+00  0.00000000000E+00  0.70504984304E+03  0.13943313306E+04  0.12029399729E+04 0.  0.
        4    1    3    3  502    0  0.47861868317E+03 -0.35772268831E+03  0.43218461623E+03  0.73744594447E+03  0.12699999809E+01 0. -1.
       -4    1    3    3    0  502 -0.47861868317E+03  0.35772268831E+03  0.27286522681E+03  0.65688538613E+03  0.12699999809E+01 0.  1.
</event>
<event>
 5   0  0.1597352E-03  0.1199401E+04  0.7818609E-02  0.9113381E-01
        2   -1    0    0  501    0  0.00000000000E+00  0.00000000000E+00  0.24469770350E+04  0.24469770350E+04  0.25500000920E-02 0. -1.
       -2   -1    0    0    0  501  0.00000000000E+00  0.00000000000E+00 -0.14697342317E+03  0.14697342319E+03  0.25500000920E-02 0.  1.
    10030    2    1    2    0    0  0.00000000000E+00  0.00000000000E+00  0.23000036118E+04  0.25939504582E+04  0.11994008359E+04 0.  0.
        1    1    3    3  502    0  0.13352841683E+03  0.58152307000E+03  0.12805129979E+04  0.14126968736E+04  0.50400001928E-02 0. -1.
       -1    1    3    3    0  502 -0.13352841683E+03 -0.58152307000E+03  0.10194906139E+04  0.11812535845E+04  0.50400001928E-02 0.  1.
</event>
<event>
 5   0  0.1567019E-03  0.1193756E+04  0.7818609E-02  0.9118339E-01
       -2   -1    0    0    0  501  0.00000000000E+00  0.00000000000E+00  0.59902399900E+03  0.59902399900E+03  0.25500000920E-02 0. -1.
        2   -1    0    0  501    0  0.00000000000E+00  0.00000000000E+00 -0.59474001825E+03  0.59474001826E+03  0.25500000920E-02 0.  1.
    10030    2    1    2    0    0  0.00000000000E+00  0.00000000000E+00  0.42839807437E+01  0.11937640173E+04  0.11937563304E+04 0.  0.
        5    1    3    3  502    0  0.36414747738E+03  0.12313245260E+03 -0.45445318349E+03  0.59524345620E+03  0.46999998093E+01 0.  1.
       -5    1    3    3    0  502 -0.36414747738E+03 -0.12313245260E+03  0.45873716423E+03  0.59852056106E+03  0.46999998093E+01 0. -1.
</event>
<event>
 5   0  0.9169078E-04  0.1202881E+04  0.7818609E-02  0.9110339E-01
       -1   -1    0    0    0  501  0.00000000000E+00  0.00000000000E+00  0.61960217033E+03  0.61960217035E+03  0.50400001928E-02 0.  1.
        1   -1    0    0  501    0  0.00000000000E+00  0.00000000000E+00 -0.58381080968E+03  0.58381080970E+03  0.50400001928E-02 0. -1.
    10030    2    1    2    0    0  0.00000000000E+00  0.00000000000E+00  0.35791360650E+02  0.12034129801E+04  0.12028806171E+04 0.  0.
        1    1    3    3  502    0 -0.75241132522E+02  0.59437313366E+03 -0.34946202891E+02  0.60013489081E+03  0.50400001928E-02 0.  1.
       -1    1    3    3    0  502  0.75241132522E+02 -0.59437313366E+03  0.70737563541E+02  0.60327808925E+03  0.50400001928E-02 0. -1.
</event>
<event>
 5   0  0.9170776E-04  0.1205704E+04  0.7818609E-02  0.9107879E-01
        1   -1    0    0  501    0  0.00000000000E+00  0.00000000000E+00  0.80455653303E+03  0.80455653304E+03  0.50400001928E-02 0. -1.
       -1   -1    0    0    0  501  0.00000000000E+00  0.00000000000E+00 -0.45171509795E+03  0.45171509798E+03  0.50400001928E-02 0.  1.
    10030    2    1    2    0    0  0.00000000000E+00  0.00000000000E+00  0.35284143507E+03  0.12562716310E+04  0.12057036670E+04 0.  0.
        5    1    3    3  502    0 -0.16595388024E+03 -0.55449675899E+03  0.35201444571E+03  0.67745376675E+03  0.46999998093E+01 0. -1.
       -5    1    3    3    0  502  0.16595388024E+03  0.55449675899E+03  0.82698936401E+00  0.57881786428E+03  0.46999998093E+01 0.  1.
</event>
<event>
 5   0  0.1551501E-03  0.1093853E+04  0.7818609E-02  0.9211204E-01
        2   -1    0    0  501    0  0.00000000000E+00  0.00000000000E+00  0.34091656019E+03  0.34091656020E+03  0.25500000920E-02 0. -1.
       -2   -1    0    0    0  501  0.00000000000E+00  0.00000000000E+00 -0.87742485517E+03  0.87742485517E+03  0.25500000920E-02 0.  1.
    10030    2    1    2    0    0  0.00000000000E+00  0.00000000000E+00 -0.53650829498E+03  0.12183414154E+04  0.10938531226E+04 0.  0.
        4    1    3    3  502    0  0.40507605209E+03 -0.30935631969E+03 -0.48916765037E+03  0.70645208159E+03  0.12699999809E+01 0.  1.
       -4    1    3    3    0  502 -0.40507605209E+03  0.30935631969E+03 -0.47340644612E+02  0.51188933379E+03  0.12699999809E+01 0. -1.
</event>
<event>
 5   0  0.8908478E-04  0.1185057E+04  0.7818609E-02  0.9126037E-01
       -1   -1    0    0    0  501  0.00000000000E+00  0.00000000000E+00  0.32407259136E+03  0.32407259140E+03  0.50400001928E-02 0.  1.
        1   -1    0    0  501    0  0.00000000000E+00  0.00000000000E+00 -0.10833690649E+04  0.10833690649E+04  0.50400001928E-02 0. -1.
    10030    2    1    2    0    0  0.00000000000E+00  0.00000000000E+00 -0.75929647350E+03  0.14074416563E+04  0.11850573324E+04 0.  0.
        4    1    3    3  502    0  0.28369759834E+03  0.50424221360E+03 -0.53148297570E+03  0.78563369559E+03  0.12699999809E+01 0. -1.
       -4    1    3    3    0  502 -0.28369759834E+03 -0.50424221360E+03 -0.22781349779E+03  0.62180796067E+03  0.12699999809E+01 0.  1.
</event>
<event>
 5   0  0.1551501E-03  0.1196369E+04  0.7818609E-02  0.9116041E-01
        2   -1    0    0  501    0  0.00000000000E+00  0.00000000000E+00  0.37710564961E+03  0.37710564962E+03  0.25500000920E-02 0.  1.
       -2   -1    0    0    0  501  0.00000000000E+00  0.00000000000E+00 -0.94887117494E+03  0.94887117495E+03  0.25500000920E-02 0. -1.
    10030    2    1    2    0    0  0.00000000000E+00  0.00000000000E+00 -0.57176552533E+03  0.13259768246E+04  0.11963689746E+04 0.  0.
        4    1    3    3  502    0  0.23748420547E+03 -0.11961885798E+03 -0.87976347874E+03  0.91907171127E+03  0.12699999809E+01 0. -1.
       -4    1    3    3    0  502 -0.23748420547E+03  0.11961885798E+03  0.30799795340E+03  0.40690511330E+03  0.12699999809E+01 0.  1.
</event>
<event>
 5   0  0.6137750E-04  0.1186792E+04  0.7818609E-02  0.9124497E-01
        4   -1    0    0  501    0  0.00000000000E+00  0.00000000000E+00  0.22413520827E+03  0.22413880630E+03  0.12699999809E+01 0.  1.
       -4   -1    0    0    0  501  0.00000000000E+00  0.00000000000E+00 -0.15709939867E+04  0.15709945001E+04  0.12699999809E+01 0. -1.
    10030    2    1    2    0    0  0.00000000000E+00  0.00000000000E+00 -0.13468587785E+04  0.17951333064E+04  0.11867919019E+04 0.  0.
        5    1    3    3  502    0 -0.39978011680E+03  0.20928231699E+03 -0.12562655760E+04  0.13348589878E+04  0.46999998093E+01 0. -1.
       -5    1    3    3    0  502  0.39978011680E+03 -0.20928231699E+03 -0.90593202513E+02  0.46027431857E+03  0.46999998093E+01 0.  1.
</event>
<event>
 5   0  0.1597352E-03  0.1206212E+04  0.7818609E-02  0.9107437E-01
       -2   -1    0    0    0  501  0.00000000000E+00  0.00000000000E+00  0.21969462410E+03  0.21969462411E+03  0.25500000920E-02 0. -1.
        2   -1    0    0  501    0  0.00000000000E+00  0.00000000000E+00 -0.16556467600E+04  0.16556467600E+04  0.25500000920E-02 0.  1.
    10030    2    1    2    0    0  0.00000000000E+00  0.00000000000E+00 -0.14359521359E+04  0.18753413841E+04  0.12062117436E+04 0.  0.
        1    1    3    3  502    0  0.15356178385E+03 -0.46944170355E+03 -0.17989357327E+03  0.52565999679E+03  0.50400001928E-02 0. -1.
       -1    1    3    3    0  502 -0.15356178385E+03  0.46944170355E+03 -0.12560585626E+04  0.13496813873E+04  0.50400001928E-02 0.  1.
</event>
<event>
 5   0  0.9169078E-04  0.1206720E+04  0.7818609E-02  0.9106994E-01
       -1   -1    0    0    0  501  0.00000000000E+00  0.00000000000E+00  0.14908268547E+04  0.14908268547E+04  0.50400001928E-02 0.  1.
        1   -1    0    0  501    0  0.00000000000E+00  0.00000000000E+00 -0.24418900204E+03  0.24418900209E+03  0.50400001928E-02 0. -1.
    10030    2    1    2    0    0  0.00000000000E+00  0.00000000000E+00  0.12466378526E+04  0.17350158568E+04  0.12067203850E+04 0.  0.
        1    1    3    3  502    0 -0.10784306399E+03  0.58840897723E+03  0.73642383658E+03  0.94877569427E+03  0.50400001928E-02 0. -1.
       -1    1    3    3    0  502  0.10784306399E+03 -0.58840897723E+03  0.51021401606E+03  0.78624016251E+03  0.50400001928E-02 0.  1.
</event>
<event>
 5   0  0.9169078E-04  0.1189298E+04  0.7818609E-02  0.9122276E-01
        1   -1    0    0  501    0  0.00000000000E+00  0.00000000000E+00  0.12177543175E+04  0.12177543175E+04  0.50400001928E-02 0. -1.
       -1   -1    0    0    0  501  0.00000000000E+00  0.00000000000E+00 -0.29037682807E+03  0.29037682811E+03  0.50400001928E-02 0.  1.
    10030    2    1    2    0    0  0.00000000000E+00  0.00000000000E+00  0.92737748945E+03  0.15081311456E+04  0.11892983413E+04 0.  0.
        1    1    3    3  502    0  0.36728324255E+03 -0.34517097626E+03  0.86382456460E+03  0.10001164240E+04  0.50400001928E-02 0. -1.
       -1    1    3    3    0  502 -0.36728324255E+03  0.34517097626E+03  0.63552924841E+02  0.50801472163E+03  0.50400001928E-02 0.  1.
</event>
<event>
 5   0  0.9208078E-04  0.1255873E+04  0.7818609E-02  0.9065309E-01
       -1   -1    0    0    0  501  0.00000000000E+00  0.00000000000E+00  0.16316111372E+04  0.16316111372E+04  0.50400001928E-02 0.  1.
        1   -1    0    0  501    0  0.00000000000E+00  0.00000000000E+00 -0.24166571042E+03  0.24166571048E+03  0.50400001928E-02 0. -1.
    10030    2    1    2    0    0  0.00000000000E+00  0.00000000000E+00  0.13899454267E+04  0.18732768476E+04  0.12558733450E+04 0.  0.
        3    1    3    3  502    0 -0.52360418602E+03 -0.34492338454E+03  0.64393056575E+03  0.89876585857E+03  0.10100000352E+00 0. -1.
       -3    1    3    3    0  502  0.52360418602E+03  0.34492338454E+03  0.74601486099E+03  0.97451098908E+03  0.10100000352E+00 0.  1.
</event>
<event>
 5   0  0.1647550E-03  0.1192435E+04  0.7818609E-02  0.9119504E-01
       -2   -1    0    0    0  501  0.00000000000E+00  0.00000000000E+00  0.35429271666E+03  0.35429271667E+03  0.25500000920E-02 0. -1.
        2   -1    0    0  501    0  0.00000000000E+00  0.00000000000E+00 -0.10033377997E+04  0.10033377997E+04  0.25500000920E-02 0.  1.
    10030    2    1    2    0    0  0.00000000000E+00  0.00000000000E+00 -0.64904508303E+03  0.13576305164E+04  0.11924349455E+04 0.  0.
        3    1    3    3  502    0  0.17926364769E+03 -0.26550917766E+03 -0.89702032750E+03  0.95251039730E+03  0.10100000352E+00 0.  1.
       -3    1    3    3    0  502 -0.17926364769E+03  0.26550917766E+03  0.24797524447E+03  0.40512011907E+03  0.10100000352E+00 0. -1.
</event>
<event>
 5   0  0.1537557E-03  0.1203133E+04  0.7818609E-02  0.9110118E-01
        2   -1    0    0  501    0  0.00000000000E+00  0.00000000000E+00  0.47640210941E+03  0.47640210941E+03  0.25500000920E-02 0. -1.
       -2   -1    0    0    0  501  0.00000000000E+00  0.00000000000E+00 -0.75961552663E+03  0.75961552663E+03  0.25500000920E-02 0.  1.
    10030    2    1    2    0    0  0.00000000000E+00  0.00000000000E+00 -0.28321341722E+03  0.12360176360E+04  0.12031333080E+04 0.  0.
        2    1    3    3  502    0 -0.59610300344E+03 -0.94029763928E+01 -0.22414716454E+03  0.63692162630E+03  0.25500000920E-02 0.  1.
       -2    1    3    3    0  502  0.59610300344E+03  0.94029763928E+01 -0.59066252679E+02  0.59909600974E+03  0.25500000920E-02 0. -1.
</event>
<event>
 5   0  0.9358428E-04  0.1193586E+04  0.7818609E-02  0.9118489E-01
       -1   -1    0    0    0  501  0.00000000000E+00  0.00000000000E+00  0.10896570571E+04  0.10896570571E+04  0.50400001928E-02 0. -1.
        1   -1    0    0  501    0  0.00000000000E+00  0.00000000000E+00 -0.32685708428E+03  0.32685708432E+03  0.50400001928E-02 0.  1.
    10030    2    1    2    0    0  0.00000000000E+00  0.00000000000E+00  0.76279997282E+03  0.14165141414E+04  0.11935864084E+04 0.  0.
        2    1    3    3  502    0  0.85415801425E+02  0.16338788111E+02  0.10820970758E+04  0.10855859693E+04  0.25500000920E-02 0. -1.
       -2    1    3    3    0  502 -0.85415801425E+02 -0.16338788111E+02 -0.31929710302E+03  0.33092817217E+03  0.25500000920E-02 0.  1.
</event>
<event>
 5   0  0.1551501E-03  0.1200916E+04  0.7818609E-02  0.9112055E-01
        2   -1    0    0  501    0  0.00000000000E+00  0.00000000000E+00  0.17851142931E+04  0.17851142931E+04  0.25500000920E-02 0.  1.
       -2   -1    0    0    0  501  0.00000000000E+00  0.00000000000E+00 -0.20197562401E+03  0.20197562403E+03  0.25500000920E-02 0. -1.
    10030    2    1    2    0    0  0.00000000000E+00  0.00000000000E+00  0.15831386691E+04  0.19870899171E+04  0.12009156062E+04 0.  0.
        4    1    3    3  502    0  0.29922098908E+03 -0.41812654291E+03  0.27840247433E+03  0.58469868891E+03  0.12699999809E+01 0. -1.
       -4    1    3    3    0  502 -0.29922098908E+03  0.41812654291E+03  0.13047361947E+04  0.14023912282E+04  0.12699999809E+01 0.  1.
</event>
<event>
 5   0  0.1567019E-03  0.1196174E+04  0.7818609E-02  0.9116212E-01
        2   -1    0    0  501    0  0.00000000000E+00  0.00000000000E+00  0.73162246383E+03  0.73162246383E+03  0.25500000920E-02 0.  1.
       -2   -1    0    0    0  501  0.00000000000E+00  0.00000000000E+00 -0.48892455036E+03  0.48892455037E+03  0.25500000920E-02 0. -1.
    10030    2    1    2    0    0  0.00000000000E+00  0.00000000000E+00  0.24269791347E+03  0.12205470142E+04  0.11961742083E+04 0.  0.
        5    1    3    3  502    0 -0.53151981490E+03  0.62740996954E+01  0.40103876851E+03  0.66588802497E+03  0.46999998093E+01 0.  1.
       -5    1    3    3    0  502  0.53151981490E+03 -0.62740996954E+01 -0.15834085504E+03  0.55465898923E+03  0.46999998093E+01 0. -1.
</event>
<event>
 5   0  0.8908478E-04  0.1196885E+04  0.7818609E-02  0.9115588E-01
        1   -1    0    0  501    0  0.00000000000E+00  0.00000000000E+00  0.71994319859E+03  0.71994319861E+03  0.50400001928E-02 0.  1.
       -1   -1    0    0    0  501  0.00000000000E+00  0.00000000000E+00 -0.49744661164E+03  0.49744661167E+03  0.50400001928E-02 0. -1.
    10030    2    1    2    0    0  0.00000000000E+00  0.00000000000E+00  0.22249658695E+03  0.12173898103E+04  0.11968847977E+04 0.  0.
        4    1    3    3  502    0 -0.95040082760E+02  0.19432905985E+03 -0.45628518801E+03  0.50496949070E+03  0.12699999809E+01 0. -1.
       -4    1    3    3    0  502  0.95040082760E+02 -0.19432905985E+03  0.67878177496E+03  0.71242031958E+03  0.12699999809E+01 0.  1.
</event>
<event>
 5   0  0.1551501E-03  0.1206240E+04  0.7818609E-02  0.9107412E-01
        2   -1    0    0  501    0  0.00000000000E+00  0.00000000000E+00  0.88909057155E+03  0.88909057155E+03  0.25500000920E-02 0.  1.
       -2   -1    0    0    0  501  0.00000000000E+00  0.00000000000E+00 -0.40913006053E+03  0.40913006053E+03  0.25500000920E-02 0. -1.
    10030    2    1    2    0    0  0.00000000000E+00  0.00000000000E+00  0.47996051102E+03  0.12982206321E+04  0.12062399087E+04 0.  0.
        4    1    3    3  502    0  0.21594530634E+03  0.28326418938E+01  0.84604765567E+03  0.87317732893E+03  0.12699999809E+01 0.  1.
       -4    1    3    3    0  502 -0.21594530634E+03 -0.28326418938E+01 -0.36608714464E+03  0.42504330316E+03  0.12699999809E+01 0. -1.
</event>
<event>
 5   0  0.9169078E-04  0.1207637E+04  0.7818609E-02  0.9106198E-01
        1   -1    0    0  501    0  0.00000000000E+00  0.00000000000E+00  0.36399571415E+03  0.36399571419E+03  0.50400001928E-02 0. -1.
       -1   -1    0    0    0  501  0.00000000000E+00  0.00000000000E+00 -0.10016514491E+04  0.10016514491E+04  0.50400001928E-02 0.  1.
    10030    2    1    2    0    0  0.00000000000E+00  0.00000000000E+00 -0.63765573491E+03  0.13656471633E+04  0.12076370888E+04 0.  0.
        1    1    3    3  502    0 -0.15349033214E+03  0.18406300328E+03  0.30790610537E+03  0.39018539310E+03  0.50400001928E-02 0. -1.
       -1    1    3    3    0  502  0.15349033214E+03 -0.18406300328E+03 -0.94556184028E+03  0.97546177017E+03  0.50400001928E-02 0.  1.
</event>
<event>
 5   0  0.1597352E-03  0.1254009E+04  0.7818609E-02  0.9066854E-01
       -2   -1    0    0    0  501  0.00000000000E+00  0.00000000000E+00  0.59457118856E+03  0.59457118856E+03  0.25500000920E-02 0.  1.
        2   -1    0    0  501    0  0.00000000000E+00  0.00000000000E+00 -0.66120657325E+03  0.66120657325E+03  0.25500000920E-02 0. -1.
    10030    2    1    2    0    0  0.00000000000E+00  0.00000000000E+00 -0.66635384692E+02  0.12557777618E+04  0.12540085776E+04 0.  0.
        1    1    3    3  502    0 -0.57478284228E+03  0.18697165266E+03  0.13365285121E+03  0.61902891640E+03  0.50400001928E-02 0.  1.
       -1    1    3    3    0  502  0.57478284228E+03 -0.18697165266E+03 -0.20028823590E+03  0.63674884542E+03  0.50400001928E-02 0. -1.
</event>
<event>
 5   0  0.8908478E-04  0.1237262E+04  0.7818609E-02  0.9080853E-01
        1   -1    0    0  501    0  0.00000000000E+00  0.00000000000E+00  0.68590888853E+03  0.68590888855E+03  0.50400001928E-02 0. -1.
       -1   -1    0    0    0  501  0.00000000000E+00  0.00000000000E+00 -0.55795170125E+03  0.55795170127E+03  0.50400001928E-02 0.  1.
    10030    2    1    2    0    0  0.00000000000E+00  0.00000000000E+00  0.12795718728E+03  0.12438605898E+04  0.12372615427E+04 0.  0.
        4    1    3    3  502    0  0.59706132296E+03  0.14147001842E+03 -0.15222483135E+02  0.61378280065E+03  0.12699999809E+01 0. -1.
       -4    1    3    3    0  502 -0.59706132296E+03 -0.14147001842E+03  0.14317967042E+03  0.63007778917E+03  0.12699999809E+01 0.  1.
</event>
<event>
 5   0  0.1537557E-03  0.1194856E+04  0.7818609E-02  0.9117371E-01
        2   -1    0    0  501    0  0.00000000000E+00  0.00000000000E+00  0.81213462501E+03  0.81213462502E+03  0.25500000920E-02 0. -1.
       -2   -1    0    0    0  501  0.00000000000E+00  0.00000000000E+00 -0.43948410613E+03  0.43948410614E+03  0.25500000920E-02 0.  1.
    10030    2    1    2    0    0  0.00000000000E+00  0.00000000000E+00  0.37265051888E+03  0.12516187312E+04  0.11948560746E+04 0.  0.
        2    1    3    3  502    0 -0.27449993238E+03  0.34217866826E+03 -0.23850753210E+03  0.49932183686E+03  0.25500000920E-02 0.  1.
       -2    1    3    3    0  502  0.27449993238E+03 -0.34217866826E+03  0.61115805098E+03  0.75229689430E+03  0.25500000920E-02 0. -1.
</event>
<event>
 5   0  0.1537557E-03  0.1194783E+04  0.7818609E-02  0.9117435E-01
        2   -1    0    0  501    0  0.00000000000E+00  0.00000000000E+00  0.19536035912E+04  0.19536035912E+04  0.25500000920E-02 0. -1.
       -2   -1    0    0    0  501  0.00000000000E+00  0.00000000000E+00 -0.18267600338E+03  0.18267600339E+03  0.25500000920E-02 0.  1.
    10030    2    1    2    0    0  0.00000000000E+00  0.00000000000E+00  0.17709275878E+04  0.21362795946E+04  0.11947828192E+04 0.  0.
        2    1    3    3  502    0 -0.22850349016E+03 -0.16975038692E+03 -0.53618421658E+02  0.28966182700E+03  0.25500000920E-02 0.  1.
       -2    1    3    3    0  502  0.22850349016E+03  0.16975038692E+03  0.18245460095E+04  0.18466177676E+04  0.25500000920E-02 0. -1.
</event>
<event>
 5   0  0.8908478E-04  0.1195377E+04  0.7818609E-02  0.9116912E-01
        1   -1    0    0  501    0  0.00000000000E+00  0.00000000000E+00  0.58050621208E+03  0.58050621211E+03  0.50400001928E-02 0. -1.
       -1   -1    0    0    0  501  0.00000000000E+00  0.00000000000E+00 -0.61537979760E+03  0.61537979762E+03  0.50400001928E-02 0.  1.
    10030    2    1    2    0    0  0.00000000000E+00  0.00000000000E+00 -0.34873585515E+02  0.11958860097E+04  0.11953774221E+04 0.  0.
        4    1    3    3  502    0 -0.37475816318E+03 -0.64860954568E+02  0.44382287992E+03  0.58449207517E+03  0.12699999809E+01 0. -1.
       -4    1    3    3    0  502  0.37475816318E+03  0.64860954568E+02 -0.47869646543E+03  0.61139393456E+03  0.12699999809E+01 0.  1.
</event>
<event>
 5   0  0.9170776E-04  0.1204148E+04  0.7818609E-02  0.9109233E-01
        1   -1    0    0  501    0  0.00000000000E+00  0.00000000000E+00  0.34827671511E+03  0.34827671515E+03  0.50400001928E-02 0.  1.
       -1   -1    0    0    0  501  0.00000000000E+00  0.00000000000E+00 -0.10408196290E+04  0.10408196290E+04  0.50400001928E-02 0. -1.
    10030    2    1    2    0    0  0.00000000000E+00  0.00000000000E+00 -0.69254291389E+03  0.13890963442E+04  0.12041482325E+04 0.  0.
        5    1    3    3  502    0 -0.36304436838E+03 -0.43347651137E+03 -0.58483943577E+03  0.81348777185E+03  0.46999998093E+01 0. -1.
       -5    1    3    3    0  502  0.36304436838E+03  0.43347651137E+03 -0.10770347812E+03  0.57560857231E+03  0.46999998093E+01 0.  1.
</event>
<event>
 5   0  0.6137750E-04  0.1201355E+04  0.7818609E-02  0.9111671E-01
        4   -1    0    0  501    0  0.00000000000E+00  0.00000000000E+00  0.22804273284E+03  0.22804626921E+03  0.12699999809E+01 0. -1.
       -4   -1    0    0    0  501  0.00000000000E+00  0.00000000000E+00 -0.15822024498E+04  0.15822029595E+04  0.12699999809E+01 0.  1.
    10030    2    1    2    0    0  0.00000000000E+00  0.00000000000E+00 -0.13541597170E+04  0.18102492288E+04  0.12013549563E+04 0.  0.
        3    1    3    3  502    0  0.26465043701E+02 -0.38396001692E+03 -0.13720053520E+04  0.14249646975E+04  0.10100000352E+00 0.  1.
       -3    1    3    3    0  502 -0.26465043701E+02  0.38396001692E+03  0.17845634962E+02  0.38528453125E+03  0.10100000352E+00 0. -1.
</event>
<event>
 5   0  0.1647550E-03  0.1199348E+04  0.7818609E-02  0.9113427E-01
        2   -1    0    0  501    0  0.00000000000E+00  0.00000000000E+00  0.13609233455E+04  0.13609233455E+04  0.25500000920E-02 0.  1.
       -2   -1    0    0    0  501  0.00000000000E+00  0.00000000000E+00 -0.26423902366E+03  0.26423902367E+03  0.25500000920E-02 0. -1.
    10030    2    1    2    0    0  0.00000000000E+00  0.00000000000E+00  0.10966843219E+04  0.16251623692E+04  0.11993482498E+04 0.  0.
        3    1    3    3  502    0  0.54338918422E+03 -0.24997901064E+03  0.49009547116E+03  0.77327543110E+03  0.10100000352E+00 0.  1.
       -3    1    3    3    0  502 -0.54338918422E+03  0.24997901064E+03  0.60658885070E+03  0.85188693809E+03  0.10100000352E+00 0. -1.
</event>
<event>
 5   0  0.9358428E-04  0.1200429E+04  0.7818609E-02  0.9112481E-01
        1   -1    0    0  501    0  0.00000000000E+00  0.00000000000E+00  0.14677254374E+04  0.14677254374E+04  0.50400001928E-02 0. -1.
       -1   -1    0    0    0  501  0.00000000000E+00  0.00000000000E+00 -0.24545305937E+03  0.24545305943E+03  0.50400001928E-02 0.  1.
    10030    2    1    2    0    0  0.00000000000E+00  0.00000000000E+00  0.12222723781E+04  0.17131784969E+04  0.12004294215E+04 0.  0.
        2    1    3    3  502    0 -0.50436115092E+02  0.34204944849E+03  0.13113304191E+04  0.13561449388E+04  0.25500000920E-02 0. -1.
       -2    1    3    3    0  502  0.50436115092E+02 -0.34204944849E+03 -0.89058041038E+02  0.35703355809E+03  0.25500000920E-02 0.  1.
</event>
<event>
 5   0  0.9169078E-04  0.1178349E+04  0.7818609E-02  0.9132022E-01
        1   -1    0    0  501    0  0.00000000000E+00  0.00000000000E+00  0.64745287847E+03  0.64745287849E+03  0.50400001928E-02 0. -1.
       -1   -1    0    0    0  501  0.00000000000E+00  0.00000000000E+00 -0.53614166578E+03  0.53614166581E+03  0.50400001928E-02 0.  1.
    10030    2    1    2    0    0  0.00000000000E+00  0.00000000000E+00  0.11131121268E+03  0.11835945443E+04  0.11783487850E+04 0.  0.
        1    1    3    3  502    0  0.40909286978E+03 -0.84481975478E+02  0.47299569612E+03  0.63104604338E+03  0.50400001928E-02 0. -1.
       -1    1    3    3    0  502 -0.40909286978E+03  0.84481975478E+02 -0.36168448344E+03  0.55254850092E+03  0.50400001928E-02 0.  1.
</event>
<event>
 5   0  0.1597352E-03  0.1203938E+04  0.7818609E-02  0.9109416E-01
       -2   -1    0    0    0  501  0.00000000000E+00  0.00000000000E+00  0.39735097694E+03  0.39735097695E+03  0.25500000920E-02 0.  1.
        2   -1    0    0  501    0  0.00000000000E+00  0.00000000000E+00 -0.91195646234E+03  0.91195646235E+03  0.25500000920E-02 0. -1.
    10030    2    1    2    0    0  0.00000000000E+00  0.00000000000E+00 -0.51460548540E+03  0.13093074393E+04  0.12039381899E+04 0.  0.
        1    1    3    3  502    0  0.37149854325E+03  0.11966732955E+03  0.24110369813E+03  0.45876184527E+03  0.50400001928E-02 0.  1.
       -1    1    3    3    0  502 -0.37149854325E+03 -0.11966732955E+03 -0.75570918353E+03  0.85054559402E+03  0.50400001928E-02 0. -1.
</event>
<event>
 5   0  0.9170776E-04  0.1201410E+04  0.7818609E-02  0.9111623E-01
        1   -1    0    0  501    0  0.00000000000E+00  0.00000000000E+00  0.98975756280E+03  0.98975756281E+03  0.50400001928E-02 0.  1.
       -1   -1    0    0    0  501  0.00000000000E+00  0.00000000000E+00 -0.36458075668E+03  0.36458075671E+03  0.50400001928E-02 0. -1.
    10030    2    1    2    0    0  0.00000000000E+00  0.00000000000E+00  0.62517680612E+03  0.13543383195E+04  0.12014101068E+04 0.  0.
        5    1    3    3  502    0 -0.47314396843E+02  0.22706289626E+03  0.93722159940E+03  0.96550640981E+03  0.46999998093E+01 0.  1.
       -5    1    3    3    0  502  0.47314396843E+02 -0.22706289626E+03 -0.31204479327E+03  0.38883190972E+03  0.46999998093E+01 0. -1.
</event>
<event>
 5   0  0.9170776E-04  0.1169291E+04  0.7818609E-02  0.9140169E-01
       -1   -1    0    0    0  501  0.00000000000E+00  0.00000000000E+00  0.45337641937E+03  0.45337641940E+03  0.50400001928E-02 0. -1.
        1   -1    0    0  501    0  0.00000000000E+00  0.00000000000E+00 -0.75392222152E+03  0.75392222153E+03  0.50400001928E-02 0.  1.
    10030    2    1    2    0    0  0.00000000000E+00  0.00000000000E+00 -0.30054580214E+03  0.12072986409E+04  0.11692913363E+04 0.  0.
        5    1    3    3  502    0  0.31875268461E+02 -0.36747971230E+03  0.31804628397E+03  0.48706560178E+03  0.46999998093E+01 0. -1.
       -5    1    3    3    0  502 -0.31875268461E+02  0.36747971230E+03 -0.61859208612E+03  0.72023303916E+03  0.46999998093E+01 0.  1.
</event>
<event>
 5   0  0.1537557E-03  0.1205846E+04  0.7818609E-02  0.9107755E-01
       -2   -1    0    0    0  501  0.00000000000E+00  0.00000000000E+00  0.30702594807E+03  0.30702594808E+03  0.25500000920E-02 0.  1.
        2   -1    0    0  501    0  0.00000000000E+00  0.00000000000E+00 -0.11839920043E+04  0.11839920043E+04  0.25500000920E-02 0. -1.
    10030    2    1    2    0    0  0.00000000000E+00  0.00000000000E+00 -0.87696605620E+03  0.14910179524E+04  0.12058462052E+04 0.  0.
        2    1    3    3  502    0 -0.10674693657E+03 -0.37387410436E+03  0.13129586907E+03  0.41038440470E+03  0.25500000920E-02 0.  1.
       -2    1    3    3    0  502  0.10674693657E+03  0.37387410436E+03 -0.10082619253E+04  0.10806335477E+04  0.25500000920E-02 0. -1.
</event>
<event>
 5   0  0.1537557E-03  0.1198775E+04  0.7818609E-02  0.9113929E-01
        2   -1    0    0  501    0  0.00000000000E+00  0.00000000000E+00  0.16710258019E+04  0.16710258019E+04  0.25500000920E-02 0. -1.
       -2   -1    0    0    0  501  0.00000000000E+00  0.00000000000E+00 -0.21499704564E+03  0.21499704566E+03  0.25500000920E-02 0.  1.
    10030    2    1    2    0    0  0.00000000000E+00  0.00000000000E+00  0.14560287563E+04  0.18860228476E+04  0.11987753928E+04 0.  0.
        2    1    3    3  502    0 -0.41479553944E+03 -0.40199344928E+02  0.14057985582E+04  0.14662676812E+04  0.25500000920E-02 0. -1.
       -2    1    3    3    0  502  0.41479553944E+03  0.40199344928E+02  0.50230198117E+02  0.41975516635E+03  0.25500000920E-02 0.  1.
</event>
<event>
 5   0  0.9208078E-04  0.1215454E+04  0.7818609E-02  0.9099436E-01
       -1   -1    0    0    0  501  0.00000000000E+00  0.00000000000E+00  0.88567599962E+03  0.88567599964E+03  0.50400001928E-02 0. -1.
        1   -1    0    0  501    0  0.00000000000E+00  0.00000000000E+00 -0.41700593590E+03  0.41700593593E+03  0.50400001928E-02 0.  1.
    10030    2    1    2    0    0  0.00000000000E+00  0.00000000000E+00  0.46867006372E+03  0.13026819356E+04  0.12154540701E+04 0.  0.
        3    1    3    3  502    0  0.12491440187E+03  0.38422947312E+03  0.72089332147E+03  0.82639160629E+03  0.10100000352E+00 0. -1.
       -3    1    3    3    0  502 -0.12491440187E+03 -0.38422947312E+03 -0.25222325775E+03  0.47629032927E+03  0.10100000352E+00 0.  1.
</event>
<event>
 5   0  0.1567019E-03  0.1193866E+04  0.7818609E-02  0.9118242E-01
        2   -1    0    0  501    0  0.00000000000E+00  0.00000000000E+00  0.15869383826E+04  0.15869383826E+04  0.25500000920E-02 0.  1.
       -2   -1    0    0    0  501  0.00000000000E+00  0.00000000000E+00 -0.22453881823E+03  0.22453881824E+03  0.25500000920E-02 0. -1.
    10030    2    1    2    0    0  0.00000000000E+00  0.00000000000E+00  0.13623995644E+04  0.18114772008E+04  0.11938664398E+04 0.  0.
        5    1    3    3  502    0 -0.53761284116E+03  0.22073371382E+03  0.47450852131E+03  0.75028752235E+03  0.46999998093E+01 0. -1.
       -5    1    3    3    0  502  0.53761284116E+03 -0.22073371382E+03  0.88789104304E+03  0.10611896785E+04  0.46999998093E+01 0.  1.
</event>
<event>
 5   0  0.8908478E-04  0.1211670E+04  0.7818609E-02  0.9102702E-01
        1   -1    0    0  501    0  0.00000000000E+00  0.00000000000E+00  0.57805392929E+03  0.57805392931E+03  0.50400001928E-02 0.  1.
       -1   -1    0    0    0  501  0.00000000000E+00  0.00000000000E+00 -0.63495157459E+03  0.63495157461E+03  0.50400001928E-02 0. -1.
    10030    2    1    2    0    0  0.00000000000E+00  0.00000000000E+00 -0.56897645297E+02  0.12130055039E+04  0.12116703390E+04 0.  0.
        4    1    3    3  502    0 -0.26183080657E+03  0.15096933178E+03 -0.55408694510E+03  0.63115851102E+03  0.12699999809E+01 0. -1.
       -4    1    3    3    0  502  0.26183080657E+03 -0.15096933178E+03  0.49718929980E+03  0.58184699290E+03  0.12699999809E+01 0.  1.
</event>
<event>
 5   0  0.1537557E-03  0.1194403E+04  0.7818609E-02  0.9117769E-01
       -2   -1    0    0    0  501  0.00000000000E+00  0.00000000000E+00  0.21689804783E+03  0.21689804785E+03  0.25500000920E-02 0. -1.
        2   -1    0    0  501    0  0.00000000000E+00  0.00000000000E+00 -0.16443199257E+04  0.16443199257E+04  0.25500000920E-02 0.  1.
    10030    2    1    2    0    0  0.00000000000E+00  0.00000000000E+00 -0.14274218779E+04  0.18612179736E+04  0.11944032517E+04 0.  0.
        2    1    3    3  502    0  0.33535437723E+03  0.18153693913E+02 -0.14832212934E+04  0.15207687267E+04  0.25500000920E-02 0.  1.
       -2    1    3    3    0  502 -0.33535437723E+03 -0.18153693913E+02  0.55799415488E+02  0.34044924688E+03  0.25500000920E-02 0. -1.
</event>
<event>
 5   0  0.9208078E-04  0.1186255E+04  0.7818609E-02  0.9124973E-01
        1   -1    0    0  501    0  0.00000000000E+00  0.00000000000E+00  0.82034091251E+03  0.82034091253E+03  0.50400001928E-02 0.  1.
       -1   -1    0    0    0  501  0.00000000000E+00  0.00000000000E+00 -0.42884642674E+03  0.42884642677E+03  0.50400001928E-02 0. -1.
    10030    2    1    2    0    0  0.00000000000E+00  0.00000000000E+00  0.39149448577E+03  0.12491873393E+04  0.11862550637E+04 0.  0.
        3    1    3    3  502    0  0.38972010114E+03  0.18902622822E+02 -0.27467466597E+03  0.47716375461E+03  0.10100000352E+00 0. -1.
       -3    1    3    3    0  502 -0.38972010114E+03 -0.18902622822E+02  0.66616915175E+03  0.77202358469E+03  0.10100000352E+00 0.  1.
</event>
<event>
 5   0  0.9170776E-04  0.1199565E+04  0.7818609E-02  0.9113237E-01
        1   -1    0    0  501    0  0.00000000000E+00  0.00000000000E+00  0.69066134596E+03  0.69066134598E+03  0.50400001928E-02 0. -1.
       -1   -1    0    0    0  501  0.00000000000E+00  0.00000000000E+00 -0.52086170464E+03  0.52086170467E+03  0.50400001928E-02 0.  1.
    10030    2    1    2    0    0  0.00000000000E+00  0.00000000000E+00  0.16979964132E+03  0.12115230506E+04  0.11995649978E+04 0.  0.
        5    1    3    3  502    0 -0.45173289932E+03 -0.34443513905E+03 -0.10942082273E+03  0.57852673558E+03  0.46999998093E+01 0.  1.
       -5    1    3    3    0  502  0.45173289932E+03  0.34443513905E+03  0.27922046405E+03  0.63299631506E+03  0.46999998093E+01 0. -1.
</event>
<event>
 5   0  0.9358428E-04  0.1198911E+04  0.7818609E-02  0.9113810E-01
       -1   -1    0    0    0  501  0.00000000000E+00  0.00000000000E+00  0.29033713631E+03  0.29033713636E+03  0.50400001928E-02 0. -1.
        1   -1    0    0  501    0  0.00000000000E+00  0.00000000000E+00 -0.12376882877E+04  0.12376882877E+04  0.50400001928E-02 0.  1.
    10030    2    1    2    0    0  0.00000000000E+00  0.00000000000E+00 -0.94735115141E+03  0.15280254241E+04  0.11989109611E+04 0.  0.
        2    1    3    3  502    0  0.75096280522E+02 -0.46995713838E+03 -0.91381749021E+01  0.47600700573E+03  0.25500000920E-02 0. -1.
       -2    1    3    3    0  502 -0.75096280522E+02  0.46995713838E+03 -0.93821297650E+03  0.10520184183E+04  0.25500000920E-02 0.  1.
</event>
<event>
 5   0  0.9170776E-04  0.1204613E+04  0.7818609E-02  0.9108828E-01
       -1   -1    0    0    0  501  0.00000000000E+00  0.00000000000E+00  0.30242125840E+03  0.30242125844E+03  0.50400001928E-02 0.  1.
        1   -1    0    0  501    0  0.00000000000E+00  0.00000000000E+00 -0.11995627648E+04  0.11995627649E+04  0.50400001928E-02 0. -1.
    10030    2    1    2    0    0  0.00000000000E+00  0.00000000000E+00 -0.89714150644E+03  0.15019840233E+04  0.12046132673E+04 0.  0.
        5    1    3    3  502    0  0.58214415261E+02  0.26299020346E+03 -0.11202550530E+04  0.11521919280E+04  0.46999998093E+01 0. -1.
       -5    1    3    3    0  502 -0.58214415261E+02 -0.26299020346E+03  0.22311354654E+03  0.34979209527E+03  0.46999998093E+01 0.  1.
</event>
<event>
 5   0  0.1537557E-03  0.1202991E+04  0.7818609E-02  0.9110243E-01
       -2   -1    0    0    0  501  0.00000000000E+00  0.00000000000E+00  0.22546023439E+03  0.22546023440E+03  0.25500000920E-02 0.  1.
        2   -1    0    0  501    0  0.00000000000E+00  0.00000000000E+00 -0.16047024038E+04  0.16047024038E+04  0.25500000920E-02 0. -1.
    10030    2    1    2    0    0  0.00000000000E+00  0.00000000000E+00 -0.13792421694E+04  0.18301626382E+04  0.12029905737E+04 0.  0.
        2    1    3    3  502    0  0.23632979159E+03  0.18304808177E+03 -0.14836959864E+04  0.15135098780E+04  0.25500000920E-02 0. -1.
       -2    1    3    3    0  502 -0.23632979159E+03 -0.18304808177E+03  0.10445381704E+03  0.31665276019E+03  0.25500000920E-02 0.  1.
</event>
<event>
 5   0  0.1537557E-03  0.1226294E+04  0.7818609E-02  0.9090147E-01
       -2   -1    0    0    0  501  0.00000000000E+00  0.00000000000E+00  0.40337944902E+03  0.40337944903E+03  0.25500000920E-02 0.  1.
        2   -1    0    0  501    0  0.00000000000E+00  0.00000000000E+00 -0.93199958292E+03  0.93199958293E+03  0.25500000920E-02 0. -1.
    10030    2    1    2    0    0  0.00000000000E+00  0.00000000000E+00 -0.52862013390E+03  0.13353790320E+04  0.12262943827E+04 0.  0.
        2    1    3    3  502    0 -0.49249892193E+03  0.21170046959E+03 -0.58840391768E+03  0.79598457728E+03  0.25500000920E-02 0. -1.
       -2    1    3    3    0  502  0.49249892193E+03 -0.21170046959E+03  0.59783783780E+02  0.53939445468E+03  0.25500000920E-02 0.  1.
</event>
<event>
 5   0  0.9358428E-04  0.1202315E+04  0.7818609E-02  0.9110833E-01
        1   -1    0    0  501    0  0.00000000000E+00  0.00000000000E+00  0.10476796782E+04  0.10476796782E+04  0.50400001928E-02 0.  1.
       -1   -1    0    0    0  501  0.00000000000E+00  0.00000000000E+00 -0.34494327457E+03  0.34494327460E+03  0.50400001928E-02 0. -1.
    10030    2    1    2    0    0  0.00000000000E+00  0.00000000000E+00  0.70273640359E+03  0.13926229528E+04  0.12023145327E+04 0.  0.
        2    1    3    3  502    0 -0.12821797406E+03  0.42883684475E+03 -0.11346238579E+03  0.46175166625E+03  0.25500000920E-02 0. -1.
       -2    1    3    3    0  502  0.12821797406E+03 -0.42883684475E+03  0.81619878937E+03  0.93087128652E+03  0.25500000920E-02 0.  1.
</event>
<event>
 5   0  0.1551501E-03  0.1190664E+04  0.7818609E-02  0.9121068E-01
        2   -1    0    0  501    0  0.00000000000E+00  0.00000000000E+00  0.20375636478E+04  0.20375636478E+04  0.25500000920E-02 0.  1.
       -2   -1    0    0    0  501  0.00000000000E+00  0.00000000000E+00 -0.17394312836E+03  0.17394312838E+03  0.25500000920E-02 0. -1.
    10030    2    1    2    0    0  0.00000000000E+00  0.00000000000E+00  0.18636205195E+04  0.22115067762E+04  0.11906640083E+04 0.  0.
        4    1    3    3  502    0 -0.22862822045E+03  0.38599450684E+03  0.16586957490E+04  0.17182944518E+04  0.12699999809E+01 0.  1.
       -4    1    3    3    0  502  0.22862822045E+03 -0.38599450684E+03  0.20492477050E+03  0.49321232442E+03  0.12699999809E+01 0. -1.
</event>
<event>
 5   0  0.9170776E-04  0.1195377E+04  0.7818609E-02  0.9116913E-01
        1   -1    0    0  501    0  0.00000000000E+00  0.00000000000E+00  0.58642273380E+03  0.58642273382E+03  0.50400001928E-02 0. -1.
       -1   -1    0    0    0  501  0.00000000000E+00  0.00000000000E+00 -0.60917061529E+03  0.60917061531E+03  0.50400001928E-02 0.  1.
    10030    2    1    2    0    0  0.00000000000E+00  0.00000000000E+00 -0.22747881493E+02  0.11955933491E+04  0.11953769240E+04 0.  0.
        5    1    3    3  502    0  0.35013545442E+03  0.48316578655E+03 -0.45517986944E+02  0.59844631411E+03  0.46999998093E+01 0.  1.
       -5    1    3    3    0  502 -0.35013545442E+03 -0.48316578655E+03  0.22770105451E+02  0.59714703502E+03  0.46999998093E+01 0. -1.
</event>
<event>
 5   0  0.9170776E-04  0.1205742E+04  0.7818609E-02  0.9107845E-01
       -1   -1    0    0    0  501  0.00000000000E+00  0.00000000000E+00  0.14287327770E+03  0.14287327779E+03  0.50400001928E-02 0.  1.
        1   -1    0    0  501    0  0.00000000000E+00  0.00000000000E+00 -0.25438879820E+04  0.25438879820E+04  0.50400001928E-02 0. -1.
    10030    2    1    2    0    0  0.00000000000E+00  0.00000000000E+00 -0.24010147043E+04  0.26867612598E+04  0.12057422846E+04 0.  0.
        5    1    3    3  502    0 -0.39884497778E+03  0.45188525570E+03 -0.12281530251E+04  0.13680860878E+04  0.46999998093E+01 0.  1.
       -5    1    3    3    0  502  0.39884497778E+03 -0.45188525570E+03 -0.11728616791E+04  0.13186751719E+04  0.46999998093E+01 0. -1.
</event>
<event>
 5   0  0.9208078E-04  0.1195726E+04  0.7818609E-02  0.9116606E-01
       -1   -1    0    0    0  501  0.00000000000E+00  0.00000000000E+00  0.39430950043E+03  0.39430950047E+03  0.50400001928E-02 0. -1.
        1   -1    0    0  501    0  0.00000000000E+00  0.00000000000E+00 -0.90649588082E+03  0.90649588084E+03  0.50400001928E-02 0.  1.
    10030    2    1    2    0    0  0.00000000000E+00  0.00000000000E+00 -0.51218638039E+03  0.13008053813E+04  0.11957256173E+04 0.  0.
        3    1    3    3  502    0 -0.48494495290E+03 -0.32498279564E+03 -0.39648656987E+03  0.70568196455E+03  0.10100000352E+00 0.  1.
       -3    1    3    3    0  502  0.48494495290E+03  0.32498279564E+03 -0.11569981052E+03  0.59512341675E+03  0.10100000352E+00 0. -1.
</event>
<event>
 5   0  0.1537557E-03  0.1188211E+04  0.7818609E-02  0.9123239E-01
        2   -1    0    0  501    0  0.00000000000E+00  0.00000000000E+00  0.16619810097E+04  0.16619810097E+04  0.25500000920E-02 0.  1.
       -2   -1    0    0    0  501  0.00000000000E+00  0.00000000000E+00 -0.21237380834E+03  0.21237380836E+03  0.25500000920E-02 0. -1.
    10030    2    1    2    0    0  0.00000000000E+00  0.00000000000E+00  0.14496072014E+04  0.18743548181E+04  0.11882108171E+04 0.  0.
        2    1    3    3  502    0 -0.51145503139E+03  0.10465990476E+03  0.11721498775E+04  0.12831505291E+04  0.25500000920E-02 0.  1.
       -2    1    3    3    0  502  0.51145503139E+03 -0.10465990476E+03  0.27745732385E+03  0.59120428903E+03  0.25500000920E-02 0. -1.
</event>
<event>
 5   0  0.9169078E-04  0.1195620E+04  0.7818609E-02  0.9116699E-01
       -1   -1    0    0    0  501  0.00000000000E+00  0.00000000000E+00  0.10733190108E+04  0.10733190108E+04  0.50400001928E-02 0. -1.
        1   -1    0    0  501    0  0.00000000000E+00  0.00000000000E+00 -0.33296397769E+03  0.33296397772E+03  0.50400001928E-02 0.  1.
    10030    2    1    2    0    0  0.00000000000E+00  0.00000000000E+00  0.74035503314E+03  0.14062829886E+04  0.11956196171E+04 0.  0.
        1    1    3    3  502    0 -0.34321334585E+03  0.12438311164E+03 -0.18663670192E+03  0.40999977776E+03  0.50400001928E-02 0.  1.
       -1    1    3    3    0  502  0.34321334585E+03 -0.12438311164E+03  0.92699173506E+03  0.99628321081E+03  0.50400001928E-02 0. -1.
</event>
<event>
 5   0  0.1537557E-03  0.1174360E+04  0.7818609E-02  0.9135600E-01
        2   -1    0    0  501    0  0.00000000000E+00  0.00000000000E+00  0.10942843988E+04  0.10942843988E+04  0.25500000920E-02 0.  1.
       -2   -1    0    0    0  501  0.00000000000E+00  0.00000000000E+00 -0.31507378687E+03  0.31507378688E+03  0.25500000920E-02 0. -1.
    10030    2    1    2    0    0  0.00000000000E+00  0.00000000000E+00  0.77921061189E+03  0.14093581856E+04  0.11743599609E+04 0.  0.
        2    1    3    3  502    0  0.54352461064E+02  0.42600653540E+03  0.87016492726E+03  0.97037248460E+03  0.25500000920E-02 0.  1.
       -2    1    3    3    0  502 -0.54352461064E+02 -0.42600653540E+03 -0.90954315376E+02  0.43898570104E+03  0.25500000920E-02 0. -1.
</event>
<event>
 5   0  0.1537557E-03  0.1199293E+04  0.7818609E-02  0.9113476E-01
        2   -1    0    0  501    0  0.00000000000E+00  0.00000000000E+00  0.95708187121E+03  0.95708187122E+03  0.25500000920E-02 0. -1.
       -2   -1    0    0    0  501  0.00000000000E+00  0.00000000000E+00 -0.37570026530E+03  0.37570026531E+03  0.25500000920E-02 0.  1.
    10030    2    1    2    0    0  0.00000000000E+00  0.00000000000E+00  0.58138160591E+03  0.13327821365E+04  0.11992929800E+04 0.  0.
        2    1    3    3  502    0 -0.15995790006E+02 -0.88614962966E+02 -0.36814382629E+03  0.37899650896E+03  0.25500000920E-02 0.  1.
       -2    1    3    3    0  502  0.15995790006E+02  0.88614962966E+02  0.94952543220E+03  0.95378562757E+03  0.25500000920E-02 0. -1.
</event>
<event>
 5   0  0.9208078E-04  0.1202137E+04  0.7818609E-02  0.9110988E-01
        1   -1    0    0  501    0  0.00000000000E+00  0.00000000000E+00  0.57663293566E+03  0.57663293568E+03  0.50400001928E-02 0. -1.
       -1   -1    0    0    0  501  0.00000000000E+00  0.00000000000E+00 -0.62653949967E+03  0.62653949969E+03  0.50400001928E-02 0.  1.
    10030    2    1    2    0    0  0.00000000000E+00  0.00000000000E+00 -0.49906564012E+02  0.12031724354E+04  0.12021369490E+04 0.  0.
        3    1    3    3  502    0 -0.53569851587E+03  0.86754385432E+02  0.23369547378E+03  0.59085768842E+03  0.10100000352E+00 0. -1.
       -3    1    3    3    0  502  0.53569851587E+03 -0.86754385432E+02 -0.28360203780E+03  0.61231474696E+03  0.10100000352E+00 0.  1.
</event>
<event>
 5   0  0.9169078E-04  0.1213638E+04  0.7818609E-02  0.9101003E-01
       -1   -1    0    0    0  501  0.00000000000E+00  0.00000000000E+00  0.25299153886E+03  0.25299153891E+03  0.50400001928E-02 0. -1.
        1   -1    0    0  501    0  0.00000000000E+00  0.00000000000E+00 -0.14554998311E+04  0.14554998311E+04  0.50400001928E-02 0.  1.
    10030    2    1    2    0    0  0.00000000000E+00  0.00000000000E+00 -0.12025082923E+04  0.17084913701E+04  0.12136377419E+04 0.  0.
        1    1    3    3  502    0 -0.14730958038E+03 -0.38506291684E+03  0.25556588020E+02  0.41306985077E+03  0.50400001928E-02 0. -1.
       -1    1    3    3    0  502  0.14730958038E+03  0.38506291684E+03 -0.12280648803E+04  0.12954215193E+04  0.50400001928E-02 0.  1.
</event>
<event>
 5   0  0.9208078E-04  0.1190754E+04  0.7818609E-02  0.9120989E-01
       -1   -1    0    0    0  501  0.00000000000E+00  0.00000000000E+00  0.41779894825E+03  0.41779894828E+03  0.50400001928E-02 0.  1.
        1   -1    0    0  501    0  0.00000000000E+00  0.00000000000E+00 -0.84843076236E+03  0.84843076237E+03  0.50400001928E-02 0. -1.
    10030    2    1    2    0    0  0.00000000000E+00  0.00000000000E+00 -0.43063181411E+03  0.12662297107E+04  0.11907535097E+04 0.  0.
        3    1    3    3  502    0 -0.31880722392E+03  0.76242502576E+02 -0.74383282027E+03  0.81285806875E+03  0.10100000352E+00 0. -1.
       -3    1    3    3    0  502  0.31880722392E+03 -0.76242502576E+02  0.31320100616E+03  0.45337164190E+03  0.10100000352E+00 0.  1.
</event>
<event>
 5   0  0.9170776E-04  0.1197766E+04  0.7818609E-02  0.9114814E-01
       -1   -1    0    0    0  501  0.00000000000E+00  0.00000000000E+00  0.22976496101E+04  0.22976496101E+04  0.50400001928E-02 0. -1.
        1   -1    0    0  501    0  0.00000000000E+00  0.00000000000E+00 -0.15609911384E+03  0.15609911393E+03  0.50400001928E-02 0.  1.
    10030    2    1    2    0    0  0.00000000000E+00  0.00000000000E+00  0.21415504963E+04  0.24537487240E+04  0.11977663682E+04 0.  0.
        5    1    3    3  502    0  0.59370531695E+03  0.53546692059E+02  0.95334670254E+03  0.11243866225E+04  0.46999998093E+01 0.  1.
       -5    1    3    3    0  502 -0.59370531695E+03 -0.53546692059E+02  0.11882037937E+04  0.13293621015E+04  0.46999998093E+01 0. -1.
</event>
<event>
 5   0  0.8908478E-04  0.1187224E+04  0.7818609E-02  0.9124113E-01
       -1   -1    0    0    0  501  0.00000000000E+00  0.00000000000E+00  0.29052668585E+03  0.29052668589E+03  0.50400001928E-02 0.  1.
        1   -1    0    0  501    0  0.00000000000E+00  0.00000000000E+00 -0.12128846223E+04  0.12128846223E+04  0.50400001928E-02 0. -1.
    10030    2    1    2    0    0  0.00000000000E+00  0.00000000000E+00 -0.92235793648E+03  0.15034113082E+04  0.11872242411E+04 0.  0.
        4    1    3    3  502    0 -0.15929005523E+03  0.27952987997E+03  0.17054248469E+03  0.36413819832E+03  0.12699999809E+01 0.  1.
       -4    1    3    3    0  502  0.15929005523E+03 -0.27952987997E+03 -0.10929004212E+04  0.11392731099E+04  0.12699999809E+01 0. -1.
</event>
<event>
 5   0  0.8908478E-04  0.1215527E+04  0.7818609E-02  0.9099373E-01
       -1   -1    0    0    0  501  0.00000000000E+00  0.00000000000E+00  0.45566483788E+03  0.45566483791E+03  0.50400001928E-02 0. -1.
        1   -1    0    0  501    0  0.00000000000E+00  0.00000000000E+00 -0.81063229862E+03  0.81063229863E+03  0.50400001928E-02 0.  1.
    10030    2    1    2    0    0  0.00000000000E+00  0.00000000000E+00 -0.35496746074E+03  0.12662971365E+04  0.12155272682E+04 0.  0.
        4    1    3    3  502    0  0.25083846579E+02 -0.44770247943E+03  0.24990562550E+03  0.51334310554E+03  0.12699999809E+01 0. -1.
       -4    1    3    3    0  502 -0.25083846579E+02  0.44770247943E+03 -0.60487308624E+03  0.75295403100E+03  0.12699999809E+01 0.  1.
</event>
<event>
 5   0  0.1597352E-03  0.1245881E+04  0.7818609E-02  0.9073619E-01
       -2   -1    0    0    0  501  0.00000000000E+00  0.00000000000E+00  0.98364731959E+03  0.98364731959E+03  0.25500000920E-02 0. -1.
        2   -1    0    0  501    0  0.00000000000E+00  0.00000000000E+00 -0.39450600711E+03  0.39450600712E+03  0.25500000920E-02 0.  1.
    10030    2    1    2    0    0  0.00000000000E+00  0.00000000000E+00  0.58914131248E+03  0.13781533267E+04  0.12458808554E+04 0.  0.
        1    1    3    3  502    0 -0.23777737937E+03  0.19945138678E+03 -0.30289908760E+03  0.43366668666E+03  0.50400001928E-02 0.  1.
       -1    1    3    3    0  502  0.23777737937E+03 -0.19945138678E+03  0.89204040008E+03  0.94448664004E+03  0.50400001928E-02 0. -1.
</event>
<event>
 5   0  0.1647550E-03  0.1181675E+04  0.7818609E-02  0.9129049E-01
        2   -1    0    0  501    0  0.00000000000E+00  0.00000000000E+00  0.23714243158E+04  0.23714243158E+04  0.25500000920E-02 0.  1.
       -2   -1    0    0    0  501  0.00000000000E+00  0.00000000000E+00 -0.14720647840E+03  0.14720647842E+03  0.25500000920E-02 0. -1.
    10030    2    1    2    0    0  0.00000000000E+00  0.00000000000E+00  0.22242178374E+04  0.25186307942E+04  0.11816751201E+04 0.  0.
        3    1    3    3  502    0 -0.28841893784E+03 -0.36951184335E+03  0.34549973396E+03  0.58231826560E+03  0.10100000352E+00 0. -1.
       -3    1    3    3    0  502  0.28841893784E+03  0.36951184335E+03  0.18787181035E+04  0.19363125286E+04  0.10100000352E+00 0.  1.
</event>
<event>
 5   0  0.9170776E-04  0.1195979E+04  0.7818609E-02  0.9116383E-01
        1   -1    0    0  501    0  0.00000000000E+00  0.00000000000E+00  0.15492551108E+04  0.15492551108E+04  0.50400001928E-02 0.  1.
       -1   -1    0    0    0  501  0.00000000000E+00  0.00000000000E+00 -0.23081505057E+03  0.23081505063E+03  0.50400001928E-02 0. -1.
    10030    2    1    2    0    0  0.00000000000E+00  0.00000000000E+00  0.13184400602E+04  0.17800701614E+04  0.11959789242E+04 0.  0.
        5    1    3    3  502    0 -0.13394473395E+03  0.10111543399E+03 -0.19501600111E+03  0.25733024197E+03  0.46999998093E+01 0. -1.
       -5    1    3    3    0  502  0.13394473395E+03 -0.10111543399E+03  0.15134560613E+04  0.15227399194E+04  0.46999998093E+01 0.  1.
</event>
<event>
 5   0  0.1537557E-03  0.1195718E+04  0.7818609E-02  0.9116613E-01
        2   -1    0    0  501    0  0.00000000000E+00  0.00000000000E+00  0.10852153838E+04  0.10852153838E+04  0.25500000920E-02 0. -1.
       -2   -1    0    0    0  501  0.00000000000E+00  0.00000000000E+00 -0.32936811277E+03  0.32936811278E+03  0.25500000920E-02 0.  1.
    10030    2    1    2    0    0  0.00000000000E+00  0.00000000000E+00  0.75584727100E+03  0.14145834965E+04  0.11957179315E+04 0.  0.
        2    1    3    3  502    0  0.28155366082E+03 -0.29354014706E+03  0.89630232008E+03  0.98427441847E+03  0.25500000920E-02 0. -1.
       -2    1    3    3    0  502 -0.28155366082E+03  0.29354014706E+03 -0.14045504909E+03  0.43030907808E+03  0.25500000920E-02 0.  1.
</event>
<event>
 5   0  0.1551501E-03  0.1203625E+04  0.7818609E-02  0.9109690E-01
        2   -1    0    0  501    0  0.00000000000E+00  0.00000000000E+00  0.16425891939E+04  0.16425891939E+04  0.25500000920E-02 0. -1.
       -2   -1    0    0    0  501  0.00000000000E+00  0.00000000000E+00 -0.22049220009E+03  0.22049220011E+03  0.25500000920E-02 0.  1.
    10030    2    1    2    0    0  0.00000000000E+00  0.00000000000E+00  0.14220969938E+04  0.18630813940E+04  0.12036247010E+04 0.  0.
        4    1    3    3  502    0  0.92321403919E+02 -0.48970366927E+02 -0.20633746359E+03  0.23129656340E+03  0.12699999809E+01 0.  1.
       -4    1    3    3    0  502 -0.92321403919E+02  0.48970366927E+02  0.16284344574E+04  0.16317848306E+04  0.12699999809E+01 0. -1.
</event>
<event>
 5   0  0.8908478E-04  0.1222496E+04  0.7818609E-02  0.9093390E-01
       -1   -1    0    0    0  501  0.00000000000E+00  0.00000000000E+00  0.61900144231E+03  0.61900144233E+03  0.50400001928E-02 0.  1.
        1   -1    0    0  501    0  0.00000000000E+00  0.00000000000E+00 -0.60359205404E+03  0.60359205407E+03  0.50400001928E-02 0. -1.
    10030    2    1    2    0    0  0.00000000000E+00  0.00000000000E+00  0.15409388262E+02  0.12225934964E+04  0.12224963837E+04 0.  0.
        4    1    3    3  502    0  0.58580951319E+03  0.19849784334E+02 -0.16567556662E+03  0.60911148894E+03  0.12699999809E+01 0. -1.
       -4    1    3    3    0  502 -0.58580951319E+03 -0.19849784334E+02  0.18108495488E+03  0.61348200745E+03  0.12699999809E+01 0.  1.
</event>
<event>
 5   0  0.1567019E-03  0.1197850E+04  0.7818609E-02  0.9114741E-01
        2   -1    0    0  501    0  0.00000000000E+00  0.00000000000E+00  0.13020477749E+04  0.13020477749E+04  0.25500000920E-02 0. -1.
       -2   -1    0    0    0  501  0.00000000000E+00  0.00000000000E+00 -0.27549761122E+03  0.27549761124E+03  0.25500000920E-02 0.  1.
    10030    2    1    2    0    0  0.00000000000E+00  0.00000000000E+00  0.10265501637E+04  0.15775453862E+04  0.11978498265E+04 0.  0.
        5    1    3    3  502    0 -0.49623601127E+03  0.27180584502E+03  0.77188790723E+03  0.95705884228E+03  0.46999998093E+01 0. -1.
       -5    1    3    3    0  502  0.49623601127E+03 -0.27180584502E+03  0.25466225647E+03  0.62048654388E+03  0.46999998093E+01 0.  1.
</event>
<event>
 5   0  0.1597352E-03  0.1186654E+04  0.7818609E-02  0.9124619E-01
       -2   -1    0    0    0  501  0.00000000000E+00  0.00000000000E+00  0.63004234688E+03  0.63004234688E+03  0.25500000920E-02 0. -1.
        2   -1    0    0  501    0  0.00000000000E+00  0.00000000000E+00 -0.55875125141E+03  0.55875125142E+03  0.25500000920E-02 0.  1.
    10030    2    1    2    0    0  0.00000000000E+00  0.00000000000E+00  0.71291095463E+02  0.11887935983E+04  0.11866540351E+04 0.  0.
        1    1    3    3  502    0 -0.23568558312E+03  0.19407378419E+03 -0.47401982902E+03  0.56383253377E+03  0.50400001928E-02 0.  1.
       -1    1    3    3    0  502  0.23568558312E+03 -0.19407378419E+03  0.54531092448E+03  0.62496106454E+03  0.50400001928E-02 0. -1.
</event>
<event>
 5   0  0.8908478E-04  0.1201691E+04  0.7818609E-02  0.9111378E-01
        1   -1    0    0  501    0  0.00000000000E+00  0.00000000000E+00  0.85779995427E+03  0.85779995428E+03  0.50400001928E-02 0. -1.
       -1   -1    0    0    0  501  0.00000000000E+00  0.00000000000E+00 -0.42086169229E+03  0.42086169232E+03  0.50400001928E-02 0.  1.
    10030    2    1    2    0    0  0.00000000000E+00  0.00000000000E+00  0.43693826198E+03  0.12786616466E+04  0.12016907097E+04 0.  0.
        4    1    3    3  502    0  0.27045658624E+03  0.50125372060E+03  0.14872063262E+02  0.56975858802E+03  0.12699999809E+01 0.  1.
       -4    1    3    3    0  502 -0.27045658624E+03 -0.50125372060E+03  0.42206619871E+03  0.70890305858E+03  0.12699999809E+01 0. -1.
</event>
<event>
 5   0  0.6137750E-04  0.1198931E+04  0.7818609E-02  0.9113793E-01
        3   -1    0    0  501    0  0.00000000000E+00  0.00000000000E+00  0.60931507510E+03  0.60931508347E+03  0.10100000352E+00 0. -1.
       -3   -1    0    0    0  501  0.00000000000E+00  0.00000000000E+00 -0.58977503930E+03  0.58977504795E+03  0.10100000352E+00 0.  1.
    10030    2    1    2    0    0  0.00000000000E+00  0.00000000000E+00  0.19540035798E+02  0.11990901314E+04  0.11989309114E+04 0.  0.
        5    1    3    3  502    0 -0.12592619252E+03  0.24342280830E+03  0.54296807589E+03  0.60823391142E+03  0.46999998093E+01 0. -1.
       -5    1    3    3    0  502  0.12592619252E+03 -0.24342280830E+03 -0.52342804010E+03  0.59085622001E+03  0.46999998093E+01 0.  1.
</event>
<event>
 5   0  0.9169078E-04  0.1206016E+04  0.7818609E-02  0.9107607E-01
        1   -1    0    0  501    0  0.00000000000E+00  0.00000000000E+00  0.11790828502E+04  0.11790828502E+04  0.50400001928E-02 0. -1.
       -1   -1    0    0    0  501  0.00000000000E+00  0.00000000000E+00 -0.30839087131E+03  0.30839087135E+03  0.50400001928E-02 0.  1.
    10030    2    1    2    0    0  0.00000000000E+00  0.00000000000E+00  0.87069197890E+03  0.14874737216E+04  0.12060155680E+04 0.  0.
        1    1    3    3  502    0 -0.12653022146E+03  0.11237005766E+03 -0.27850369857E+03  0.32588531256E+03  0.50400001928E-02 0.  1.
       -1    1    3    3    0  502  0.12653022146E+03 -0.11237005766E+03  0.11491956775E+04  0.11615884090E+04  0.50400001928E-02 0. -1.
</event>
<event>
 5   0  0.1551501E-03  0.1211506E+04  0.7818609E-02  0.9102844E-01
       -2   -1    0    0    0  501  0.00000000000E+00  0.00000000000E+00  0.50623171176E+03  0.50623171177E+03  0.25500000920E-02 0.  1.
        2   -1    0    0  501    0  0.00000000000E+00  0.00000000000E+00 -0.72483975032E+03  0.72483975033E+03  0.25500000920E-02 0. -1.
    10030    2    1    2    0    0  0.00000000000E+00  0.00000000000E+00 -0.21860803857E+03  0.12310714621E+04  0.12115062816E+04 0.  0.
        4    1    3    3  502    0  0.53648741885E+03 -0.21694492152E+03  0.72616266795E+02  0.58323115886E+03  0.12699999809E+01 0. -1.
       -4    1    3    3    0  502 -0.53648741885E+03  0.21694492152E+03 -0.29122430536E+03  0.64784030323E+03  0.12699999809E+01 0.  1.
</event>
<event>
 5   0  0.1647550E-03  0.1199919E+04  0.7818609E-02  0.9112928E-01
       -2   -1    0    0    0  501  0.00000000000E+00  0.00000000000E+00  0.23665932754E+03  0.23665932755E+03  0.25500000920E-02 0.  1.
        2   -1    0    0  501    0  0.00000000000E+00  0.00000000000E+00 -0.15209676494E+04  0.15209676494E+04  0.25500000920E-02 0. -1.
    10030    2    1    2    0    0  0.00000000000E+00  0.00000000000E+00 -0.12843083219E+04  0.17576269770E+04  0.11999186325E+04 0.  0.
        3    1    3    3  502    0 -0.16756330467E+03  0.52426220108E+03 -0.99193771730E+03  0.11344023809E+04  0.10100000352E+00 0. -1.
       -3    1    3    3    0  502  0.16756330467E+03 -0.52426220108E+03 -0.29237060459E+03  0.62322459610E+03  0.10100000352E+00 0.  1.
</event>
<event>
 5   0  0.1537557E-03  0.1199736E+04  0.7818609E-02  0.9113088E-01
        2   -1    0    0  501    0  0.00000000000E+00  0.00000000000E+00  0.10550839231E+04  0.10550839231E+04  0.25500000920E-02 0. -1.
       -2   -1    0    0    0  501  0.00000000000E+00  0.00000000000E+00 -0.34105475745E+03  0.34105475746E+03  0.25500000920E-02 0.  1.
    10030    2    1    2    0    0  0.00000000000E+00  0.00000000000E+00  0.71402916561E+03  0.13961386805E+04  0.11997356233E+04 0.  0.
        2    1    3    3  502    0  0.23202201811E+03 -0.44265190721E+03 -0.29059378485E+02  0.50061899218E+03  0.25500000920E-02 0. -1.
       -2    1    3    3    0  502 -0.23202201811E+03  0.44265190721E+03  0.74308854410E+03  0.89551968835E+03  0.25500000920E-02 0.  1.
</event>
<event>
 5   0  0.1537557E-03  0.1202631E+04  0.7818609E-02  0.9110557E-01
        2   -1    0    0  501    0  0.00000000000E+00  0.00000000000E+00  0.14033014059E+04  0.14033014059E+04  0.25500000920E-02 0. -1.
       -2   -1    0    0    0  501  0.00000000000E+00  0.00000000000E+00 -0.25766395033E+03  0.25766395035E+03  0.25500000920E-02 0.  1.
    10030    2    1    2    0    0  0.00000000000E+00  0.00000000000E+00  0.11456374556E+04  0.16609653563E+04  0.12026307559E+04 0.  0.
        2    1    3    3  502    0 -0.53196475963E+03  0.10473731018E+03  0.93197046434E+03  0.10782046912E+04  0.25500000920E-02 0. -1.
       -2    1    3    3    0  502  0.53196475963E+03 -0.10473731018E+03  0.21366699124E+03  0.58276066510E+03  0.25500000920E-02 0.  1.
</event>
<event>
 5   0  0.1551501E-03  0.1203731E+04  0.7818609E-02  0.9109597E-01
       -2   -1    0    0    0  501  0.00000000000E+00  0.00000000000E+00  0.21931834690E+03  0.21931834691E+03  0.25500000920E-02 0.  1.
        2   -1    0    0  501    0  0.00000000000E+00  0.00000000000E+00 -0.16516737347E+04  0.16516737347E+04  0.25500000920E-02 0. -1.
    10030    2    1    2    0    0  0.00000000000E+00  0.00000000000E+00 -0.14323553878E+04  0.18709920816E+04  0.12037314537E+04 0.  0.
        4    1    3    3  502    0  0.14122519929E+03 -0.58498539389E+03 -0.70157427870E+03  0.92431626049E+03  0.12699999809E+01 0. -1.
       -4    1    3    3    0  502 -0.14122519929E+03  0.58498539389E+03 -0.73078110913E+03  0.94667582115E+03  0.12699999809E+01 0.  1.
</event>
<event>
 5   0  0.1567019E-03  0.1200389E+04  0.7818609E-02  0.9112516E-01
        2   -1    0    0  501    0  0.00000000000E+00  0.00000000000E+00  0.82323137811E+03  0.82323137811E+03  0.25500000920E-02 0.  1.
       -2   -1    0    0    0  501  0.00000000000E+00  0.00000000000E+00 -0.43758502867E+03  0.43758502868E+03  0.25500000920E-02 0. -1.
    10030    2    1    2    0    0  0.00000000000E+00  0.00000000000E+00  0.38564634944E+03  0.12608164068E+04  0.12003894805E+04 0.  0.
        5    1    3    3  502    0  0.25336830576E+03 -0.34415460483E+03  0.63543096001E+03  0.76578879942E+03  0.46999998093E+01 0.  1.
       -5    1    3    3    0  502 -0.25336830576E+03  0.34415460483E+03 -0.24978461056E+03  0.49502760737E+03  0.46999998093E+01 0. -1.
</event>
<event>
 5   0  0.1567019E-03  0.1195223E+04  0.7818609E-02  0.9117048E-01
        2   -1    0    0  501    0  0.00000000000E+00  0.00000000000E+00  0.89131487702E+03  0.89131487703E+03  0.25500000920E-02 0.  1.
       -2   -1    0    0    0  501  0.00000000000E+00  0.00000000000E+00 -0.40068811100E+03  0.40068811101E+03  0.25500000920E-02 0. -1.
    10030    2    1    2    0    0  0.00000000000E+00  0.00000000000E+00  0.49062676602E+03  0.12920029880E+04  0.11952226142E+04 0.  0.
        5    1    3    3  502    0  0.43780189477E+03 -0.29001461392E+03  0.55360521552E+03  0.76307260467E+03  0.46999998093E+01 0.  1.
       -5    1    3    3    0  502 -0.43780189477E+03  0.29001461392E+03 -0.62978449502E+02  0.52893038337E+03  0.46999998093E+01 0. -1.
</event>
<event>
 5   0  0.1647550E-03  0.1240008E+04  0.7818609E-02  0.9078540E-01
       -2   -1    0    0    0  501  0.00000000000E+00  0.00000000000E+00  0.53900286364E+03  0.53900286365E+03  0.25500000920E-02 0. -1.
        2   -1    0    0  501    0  0.00000000000E+00  0.00000000000E+00 -0.71317848519E+03  0.71317848520E+03  0.25500000920E-02 0.  1.
    10030    2    1    2    0    0  0.00000000000E+00  0.00000000000E+00 -0.17417562155E+03  0.12521813488E+04  0.12400084610E+04 0.  0.
        3    1    3    3  502    0 -0.45668599960E+03  0.23732192249E+02  0.33568656887E+03  0.56728370495E+03  0.10100000352E+00 0. -1.
       -3    1    3    3    0  502  0.45668599960E+03 -0.23732192249E+02 -0.50986219042E+03  0.68489764389E+03  0.10100000352E+00 0.  1.
</event>
<event>
 5   0  0.8908478E-04  0.1199758E+04  0.7818609E-02  0.9113068E-01
        1   -1    0    0  501    0  0.00000000000E+00  0.00000000000E+00  0.46121621115E+03  0.46121621118E+03  0.50400001928E-02 0.  1.
       -1   -1    0    0    0  501  0.00000000000E+00  0.00000000000E+00 -0.78023044630E+03  0.78023044631E+03  0.50400001928E-02 0. -1.
    10030    2    1    2    0    0  0.00000000000E+00  0.00000000000E+00 -0.31901423515E+03  0.12414466575E+04  0.11997581928E+04 0.  0.
        4    1    3    3  502    0 -0.27660742676E+03  0.15300568829E+03 -0.68705672154E+03  0.75628761771E+03  0.12699999809E+01 0. -1.
       -4    1    3    3    0  502  0.27660742676E+03 -0.15300568829E+03  0.36804248639E+03  0.48515903978E+03  0.12699999809E+01 0.  1.
</event>
<event>
 5   0  0.9169078E-04  0.1206811E+04  0.7818609E-02  0.9106916E-01
        1   -1    0    0  501    0  0.00000000000E+00  0.00000000000E+00  0.58350353886E+03  0.58350353888E+03  0.50400001928E-02 0.  1.
       -1   -1    0    0    0  501  0.00000000000E+00  0.00000000000E+00 -0.62398618361E+03  0.62398618363E+03  0.50400001928E-02 0. -1.
    10030    2    1    2    0    0  0.00000000000E+00  0.00000000000E+00 -0.40482644749E+02  0.12074897225E+04  0.12068109154E+04 0.  0.
        1    1    3    3  502    0  0.31224230936E+03  0.27815953292E+02 -0.53611755817E+03  0.62104027504E+03  0.50400001928E-02 0. -1.
       -1    1    3    3    0  502 -0.31224230936E+03 -0.27815953292E+02  0.49563491342E+03  0.58644944748E+03  0.50400001928E-02 0.  1.
</event>
<event>
 5   0  0.1537557E-03  0.1197559E+04  0.7818609E-02  0.9114996E-01
        2   -1    0    0  501    0  0.00000000000E+00  0.00000000000E+00  0.63598361790E+03  0.63598361790E+03  0.25500000920E-02 0. -1.
       -2   -1    0    0    0  501  0.00000000000E+00  0.00000000000E+00 -0.56375135295E+03  0.56375135295E+03  0.25500000920E-02 0.  1.
    10030    2    1    2    0    0  0.00000000000E+00  0.00000000000E+00  0.72232264948E+02  0.11997349709E+04  0.11975585581E+04 0.  0.
        2    1    3    3  502    0 -0.19302072555E+03  0.53138258193E+03  0.23373632552E+03  0.61176557500E+03  0.25500000920E-02 0. -1.
       -2    1    3    3    0  502  0.19302072555E+03 -0.53138258193E+03 -0.16150406057E+03  0.58796939586E+03  0.25500000920E-02 0.  1.
</event>
<event>
 5   0  0.1551501E-03  0.1190540E+04  0.7818609E-02  0.9121178E-01
       -2   -1    0    0    0  501  0.00000000000E+00  0.00000000000E+00  0.23531696286E+03  0.23531696288E+03  0.25500000920E-02 0. -1.
        2   -1    0    0  501    0  0.00000000000E+00  0.00000000000E+00 -0.15058253783E+04  0.15058253783E+04  0.25500000920E-02 0.  1.
    10030    2    1    2    0    0  0.00000000000E+00  0.00000000000E+00 -0.12705084155E+04  0.17411423412E+04  0.11905398013E+04 0.  0.
        4    1    3    3  502    0 -0.99950651554E+02 -0.35398371676E+03 -0.13197361946E+04  0.13700364377E+04  0.12699999809E+01 0.  1.
       -4    1    3    3    0  502  0.99950651554E+02  0.35398371676E+03  0.49227779107E+02  0.37110590350E+03  0.12699999809E+01 0. -1.
</event>
<event>
 5   0  0.9170776E-04  0.1198223E+04  0.7818609E-02  0.9114414E-01
       -1   -1    0    0    0  501  0.00000000000E+00  0.00000000000E+00  0.55734815744E+03  0.55734815746E+03  0.50400001928E-02 0. -1.
        1   -1    0    0  501    0  0.00000000000E+00  0.00000000000E+00 -0.64400405585E+03  0.64400405587E+03  0.50400001928E-02 0.  1.
    10030    2    1    2    0    0  0.00000000000E+00  0.00000000000E+00 -0.86655898412E+02  0.12013522133E+04  0.11982228072E+04 0.  0.
        5    1    3    3  502    0  0.21381964500E+03  0.18412374382E+03 -0.57318901845E+03  0.63889602792E+03  0.46999998093E+01 0.  1.
       -5    1    3    3    0  502 -0.21381964500E+03 -0.18412374382E+03  0.48653312004E+03  0.56245618542E+03  0.46999998093E+01 0. -1.
</event>
<event>
 5   0  0.6137750E-04  0.1199264E+04  0.7818609E-02  0.9113501E-01
       -3   -1    0    0    0  501  0.00000000000E+00  0.00000000000E+00  0.87619509014E+03  0.87619509596E+03  0.10100000352E+00 0.  1.
        3   -1    0    0  501    0  0.00000000000E+00  0.00000000000E+00 -0.41036357806E+03  0.41036359049E+03  0.10100000352E+00 0. -1.
    10030    2    1    2    0    0  0.00000000000E+00  0.00000000000E+00  0.46583151208E+03  0.12865586864E+04  0.11992640477E+04 0.  0.
        4    1    3    3  502    0 -0.35619707458E+03 -0.32112724844E+02  0.74924930803E+03  0.83023112536E+03  0.12699999809E+01 0.  1.
       -4    1    3    3    0  502  0.35619707458E+03  0.32112724844E+02 -0.28341779596E+03  0.45632756108E+03  0.12699999809E+01 0. -1.
</event>
<event>
 5   0  0.1551501E-03  0.1165287E+04  0.7818609E-02  0.9143795E-01
       -2   -1    0    0    0  501  0.00000000000E+00  0.00000000000E+00  0.20960363793E+03  0.20960363795E+03  0.25500000920E-02 0.  1.
        2   -1    0    0  501    0  0.00000000000E+00  0.00000000000E+00 -0.16195982184E+04  0.16195982184E+04  0.25500000920E-02 0. -1.
    10030    2    1    2    0    0  0.00000000000E+00  0.00000000000E+00 -0.14099945805E+04  0.18292018563E+04  0.11652873956E+04 0.  0.
        4    1    3    3  502    0  0.15567758062E+03 -0.98671090291E+02  0.16263278686E+03  0.24580994575E+03  0.12699999809E+01 0.  1.
       -4    1    3    3    0  502 -0.15567758062E+03  0.98671090291E+02 -0.15726273673E+04  0.15833919106E+04  0.12699999809E+01 0. -1.
</event>
<event>
 5   0  0.9170776E-04  0.1192161E+04  0.7818609E-02  0.9119746E-01
       -1   -1    0    0    0  501  0.00000000000E+00  0.00000000000E+00  0.56708294620E+03  0.56708294622E+03  0.50400001928E-02 0. -1.
        1   -1    0    0  501    0  0.00000000000E+00  0.00000000000E+00 -0.62656043760E+03  0.62656043762E+03  0.50400001928E-02 0.  1.
    10030    2    1    2    0    0  0.00000000000E+00  0.00000000000E+00 -0.59477491401E+02  0.11936433838E+04  0.11921606250E+04 0.  0.
        5    1    3    3  502    0 -0.19734196917E+03  0.46297684889E+03  0.29003009814E+03  0.58088808150E+03  0.46999998093E+01 0. -1.
       -5    1    3    3    0  502  0.19734196917E+03 -0.46297684889E+03 -0.34950758954E+03  0.61275530234E+03  0.46999998093E+01 0.  1.
</event>
<event>
 5   0  0.8908478E-04  0.1199271E+04  0.7818609E-02  0.9113494E-01
       -1   -1    0    0    0  501  0.00000000000E+00  0.00000000000E+00  0.55282300061E+03  0.55282300063E+03  0.50400001928E-02 0.  1.
        1   -1    0    0  501    0  0.00000000000E+00  0.00000000000E+00 -0.65041256579E+03  0.65041256581E+03  0.50400001928E-02 0. -1.
    10030    2    1    2    0    0  0.00000000000E+00  0.00000000000E+00 -0.97589565182E+02  0.12032355664E+04  0.11992714893E+04 0.  0.
        4    1    3    3  502    0  0.11796700246E+03 -0.73377092445E+02 -0.63404184148E+03  0.64908480264E+03  0.12699999809E+01 0. -1.
       -4    1    3    3    0  502 -0.11796700246E+03  0.73377092445E+02  0.53645227630E+03  0.55415076380E+03  0.12699999809E+01 0.  1.
</event>
<event>
 5   0  0.8908478E-04  0.1224411E+04  0.7818609E-02  0.9091754E-01
        1   -1    0    0  501    0  0.00000000000E+00  0.00000000000E+00  0.22911658022E+04  0.22911658022E+04  0.50400001928E-02 0.  1.
       -1   -1    0    0    0  501  0.00000000000E+00  0.00000000000E+00 -0.16358282476E+03  0.16358282484E+03  0.50400001928E-02 0. -1.
    10030    2    1    2    0    0  0.00000000000E+00  0.00000000000E+00  0.21275829774E+04  0.24547486271E+04  0.12244106730E+04 0.  0.
        4    1    3    3  502    0  0.32331907959E+03 -0.43444594252E+03  0.49139182484E+03  0.73126331961E+03  0.12699999809E+01 0. -1.
       -4    1    3    3    0  502 -0.32331907959E+03  0.43444594252E+03  0.16361911526E+04  0.17234853074E+04  0.12699999809E+01 0.  1.
</event>
<event>
 5   0  0.9169078E-04  0.1182404E+04  0.7818609E-02  0.9128400E-01
        1   -1    0    0  501    0  0.00000000000E+00  0.00000000000E+00  0.56790374786E+03  0.56790374789E+03  0.50400001928E-02 0.  1.
       -1   -1    0    0    0  501  0.00000000000E+00  0.00000000000E+00 -0.61545554567E+03  0.61545554570E+03  0.50400001928E-02 0. -1.
    10030    2    1    2    0    0  0.00000000000E+00  0.00000000000E+00 -0.47551797811E+02  0.11833592936E+04  0.11824035031E+04 0.  0.
        1    1    3    3  502    0 -0.17744521508E+03 -0.25341850075E+03  0.48042869366E+03  0.57141882240E+03  0.50400001928E-02 0.  1.
       -1    1    3    3    0  502  0.17744521508E+03  0.25341850075E+03 -0.52798049147E+03  0.61194047118E+03  0.50400001928E-02 0. -1.
</event>
<event>
 5   0  0.9169078E-04  0.1215150E+04  0.7818609E-02  0.9099698E-01
       -1   -1    0    0    0  501  0.00000000000E+00  0.00000000000E+00  0.10087234119E+04  0.10087234119E+04  0.50400001928E-02 0. -1.
        1   -1    0    0  501    0  0.00000000000E+00  0.00000000000E+00 -0.36595483429E+03  0.36595483432E+03  0.50400001928E-02 0.  1.
    10030    2    1    2    0    0  0.00000000000E+00  0.00000000000E+00  0.64276857764E+03  0.13746782463E+04  0.12151497177E+04 0.  0.
        1    1    3    3  502    0 -0.39381426686E+03 -0.11217742189E+03  0.82917004430E+03  0.92476830242E+03  0.50400001928E-02 0. -1.
       -1    1    3    3    0  502  0.39381426686E+03  0.11217742189E+03 -0.18640146666E+03  0.44990994384E+03  0.50400001928E-02 0.  1.
</event>
<event>
 5   0  0.6137750E-04  0.1204541E+04  0.7818609E-02  0.9108891E-01
       -4   -1    0    0    0  501  0.00000000000E+00  0.00000000000E+00  0.10792675120E+04  0.10792682592E+04  0.12699999809E+01 0. -1.
        4   -1    0    0  501    0  0.00000000000E+00  0.00000000000E+00 -0.33608670560E+03  0.33608910512E+03  0.12699999809E+01 0.  1.
    10030    2    1    2    0    0  0.00000000000E+00  0.00000000000E+00  0.74318080638E+03  0.14153573643E+04  0.12045408909E+04 0.  0.
        1    1    3    3  502    0  0.14232832059E+03 -0.51725408710E+03  0.49968932306E+02  0.53880055279E+03  0.50400001928E-02 0.  1.
       -1    1    3    3    0  502 -0.14232832059E+03  0.51725408710E+03  0.69321187407E+03  0.87655681153E+03  0.50400001928E-02 0. -1.
</event>
<event>
 5   0  0.9170776E-04  0.1197156E+04  0.7818609E-02  0.9115350E-01
       -1   -1    0    0    0  501  0.00000000000E+00  0.00000000000E+00  0.30532792879E+03  0.30532792883E+03  0.50400001928E-02 0.  1.
        1   -1    0    0  501    0  0.00000000000E+00  0.00000000000E+00 -0.11734773045E+04  0.11734773045E+04  0.50400001928E-02 0. -1.
    10030    2    1    2    0    0  0.00000000000E+00  0.00000000000E+00 -0.86814937568E+03  0.14788052333E+04  0.11971556204E+04 0.  0.
        5    1    3    3  502    0  0.38010504860E+02 -0.38707996264E+03 -0.99608338249E+03  0.10693361917E+04  0.46999998093E+01 0. -1.
       -5    1    3    3    0  502 -0.38010504860E+02  0.38707996264E+03  0.12793400681E+03  0.40946904163E+03  0.46999998093E+01 0.  1.
</event>
<event>
 5   0  0.1647550E-03  0.1205316E+04  0.7818609E-02  0.9108216E-01
       -2   -1    0    0    0  501  0.00000000000E+00  0.00000000000E+00  0.35370888352E+03  0.35370888353E+03  0.25500000920E-02 0.  1.
        2   -1    0    0  501    0  0.00000000000E+00  0.00000000000E+00 -0.10268245343E+04  0.10268245343E+04  0.25500000920E-02 0. -1.
    10030    2    1    2    0    0  0.00000000000E+00  0.00000000000E+00 -0.67311565080E+03  0.13805334179E+04  0.12053164889E+04 0.  0.
        3    1    3    3  502    0  0.29091131901E+03  0.50519423054E+03 -0.16155088997E+03  0.60493744003E+03  0.10100000352E+00 0.  1.
       -3    1    3    3    0  502 -0.29091131901E+03 -0.50519423054E+03 -0.51156476082E+03  0.77559597782E+03  0.10100000352E+00 0. -1.
</event>
<event>
 5   0  0.9208078E-04  0.1202736E+04  0.7818609E-02  0.9110465E-01
       -1   -1    0    0    0  501  0.00000000000E+00  0.00000000000E+00  0.31978198821E+03  0.31978198825E+03  0.50400001928E-02 0. -1.
        1   -1    0    0  501    0  0.00000000000E+00  0.00000000000E+00 -0.11309066366E+04  0.11309066366E+04  0.50400001928E-02 0.  1.
    10030    2    1    2    0    0  0.00000000000E+00  0.00000000000E+00 -0.81112464842E+03  0.14506886249E+04  0.12027361685E+04 0.  0.
        3    1    3    3  502    0  0.29945105163E+03  0.74672781766E+02  0.21697898994E+03  0.37726230787E+03  0.10100000352E+00 0. -1.
       -3    1    3    3    0  502 -0.29945105163E+03 -0.74672781766E+02 -0.10281036384E+04  0.10734263170E+04  0.10100000352E+00 0.  1.
</event>
<event>
 5   0  0.9358428E-04  0.1198331E+04  0.7818609E-02  0.9114318E-01
       -1   -1    0    0    0  501  0.00000000000E+00  0.00000000000E+00  0.93622703096E+03  0.93622703098E+03  0.50400001928E-02 0. -1.
        1   -1    0    0  501    0  0.00000000000E+00  0.00000000000E+00 -0.38345338215E+03  0.38345338218E+03  0.50400001928E-02 0.  1.
    10030    2    1    2    0    0  0.00000000000E+00  0.00000000000E+00  0.55277364882E+03  0.13196804132E+04  0.11983312088E+04 0.  0.
        2    1    3    3  502    0 -0.11083083351E+01  0.84392950288E+02  0.92964783486E+03  0.93347120752E+03  0.25500000920E-02 0. -1.
       -2    1    3    3    0  502  0.11083083351E+01 -0.84392950288E+02 -0.37687418604E+03  0.38620920563E+03  0.25500000920E-02 0.  1.
</event>
<event>
 5   0  0.1567019E-03  0.1207892E+04  0.7818609E-02  0.9105977E-01
       -2   -1    0    0    0  501  0.00000000000E+00  0.00000000000E+00  0.26598947595E+03  0.26598947596E+03  0.25500000920E-02 0.  1.
        2   -1    0    0  501    0  0.00000000000E+00  0.00000000000E+00 -0.13712967367E+04  0.13712967367E+04  0.25500000920E-02 0. -1.
    10030    2    1    2    0    0  0.00000000000E+00  0.00000000000E+00 -0.11053072607E+04  0.16372862127E+04  0.12078915521E+04 0.  0.
        5    1    3    3  502    0 -0.30000426866E+03 -0.30748160785E+03  0.22721450393E+02  0.43021605582E+03  0.46999998093E+01 0.  1.
       -5    1    3    3    0  502  0.30000426866E+03  0.30748160785E+03 -0.11280287111E+04  0.12070701568E+04  0.46999998093E+01 0. -1.
</event>
<event>
 5   0  0.1647550E-03  0.1163984E+04  0.7818609E-02  0.9144978E-01
        2   -1    0    0  501    0  0.00000000000E+00  0.00000000000E+00  0.42165536343E+03  0.42165536344E+03  0.25500000920E-02 0. -1.
       -2   -1    0    0    0  501  0.00000000000E+00  0.00000000000E+00 -0.80329792431E+03  0.80329792431E+03  0.25500000920E-02 0.  1.
    10030    2    1    2    0    0  0.00000000000E+00  0.00000000000E+00 -0.38164256088E+03  0.12249532878E+04  0.11639843267E+04 0.  0.
        3    1    3    3  502    0  0.37619018444E+03  0.44405561785E+03 -0.18742396588E+03  0.61141818733E+03  0.10100000352E+00 0. -1.
       -3    1    3    3    0  502 -0.37619018444E+03 -0.44405561785E+03 -0.19421859500E+03  0.61353510042E+03  0.10100000352E+00 0.  1.
</event>
<event>
 5   0  0.9169078E-04  0.1194039E+04  0.7818609E-02  0.9118090E-01
       -1   -1    0    0    0  501  0.00000000000E+00  0.00000000000E+00  0.16601653282E+03  0.16601653289E+03  0.50400001928E-02 0. -1.
        1   -1    0    0  501    0  0.00000000000E+00  0.00000000000E+00 -0.21469679408E+04  0.21469679408E+04  0.50400001928E-02 0.  1.
    10030    2    1    2    0    0  0.00000000000E+00  0.00000000000E+00 -0.19809514080E+04  0.23129844737E+04  0.11940388163E+04 0.  0.
        1    1    3    3  502    0  0.53363756262E+02 -0.59449593903E+03 -0.10149064670E+04  0.11774159201E+04  0.50400001928E-02 0. -1.
       -1    1    3    3    0  502 -0.53363756262E+02  0.59449593903E+03 -0.96604494094E+03  0.11355685536E+04  0.50400001928E-02 0.  1.
</event>
<event>
 5   0  0.1551501E-03  0.1216055E+04  0.7818609E-02  0.9098918E-01
       -2   -1    0    0    0  501  0.00000000000E+00  0.00000000000E+00  0.49275551898E+03  0.49275551899E+03  0.25500000920E-02 0. -1.
        2   -1    0    0  501    0  0.00000000000E+00  0.00000000000E+00 -0.75026557240E+03  0.75026557240E+03  0.25500000920E-02 0.  1.
    10030    2    1    2    0    0  0.00000000000E+00  0.00000000000E+00 -0.25751005342E+03  0.12430210914E+04  0.12160550999E+04 0.  0.
        4    1    3    3  502    0  0.20284076258E+03 -0.32234100091E+03 -0.61323554966E+03  0.72187779305E+03  0.12699999809E+01 0.  1.
       -4    1    3    3    0  502 -0.20284076258E+03  0.32234100091E+03  0.35572549624E+03  0.52114329834E+03  0.12699999809E+01 0. -1.
</event>
<event>
 5   0  0.1597352E-03  0.1184928E+04  0.7818609E-02  0.9126152E-01
       -2   -1    0    0    0  501  0.00000000000E+00  0.00000000000E+00  0.45209055561E+03  0.45209055562E+03  0.25500000920E-02 0. -1.
        2   -1    0    0  501    0  0.00000000000E+00  0.00000000000E+00 -0.77642381397E+03  0.77642381397E+03  0.25500000920E-02 0.  1.
    10030    2    1    2    0    0  0.00000000000E+00  0.00000000000E+00 -0.32433325836E+03  0.12285143696E+04  0.11849284762E+04 0.  0.
        1    1    3    3  502    0 -0.11386854486E+03 -0.73570105437E+02 -0.76012679092E+03  0.77212132739E+03  0.50400001928E-02 0.  1.
       -1    1    3    3    0  502  0.11386854486E+03  0.73570105437E+02  0.43579353256E+03  0.45639304220E+03  0.50400001928E-02 0. -1.
</event>
<event>
 5   0  0.1647550E-03  0.1198686E+04  0.7818609E-02  0.9114008E-01
       -2   -1    0    0    0  501  0.00000000000E+00  0.00000000000E+00  0.27594021193E+03  0.27594021194E+03  0.25500000920E-02 0.  1.
        2   -1    0    0  501    0  0.00000000000E+00  0.00000000000E+00 -0.13017738497E+04  0.13017738497E+04  0.25500000920E-02 0. -1.
    10030    2    1    2    0    0  0.00000000000E+00  0.00000000000E+00 -0.10258336378E+04  0.15777140617E+04  0.11986855334E+04 0.  0.
        3    1    3    3  502    0 -0.11152288610E+03  0.17068030773E+03  0.22889272618E+03  0.30653060511E+03  0.10100000352E+00 0.  1.
       -3    1    3    3    0  502  0.11152288610E+03 -0.17068030773E+03 -0.12547263640E+04  0.12711834566E+04  0.10100000352E+00 0. -1.
</event>
<event>
 5   0  0.9170776E-04  0.1195479E+04  0.7818609E-02  0.9116823E-01
        1   -1    0    0  501    0  0.00000000000E+00  0.00000000000E+00  0.40317272336E+03  0.40317272339E+03  0.50400001928E-02 0. -1.
       -1   -1    0    0    0  501  0.00000000000E+00  0.00000000000E+00 -0.88620234088E+03  0.88620234089E+03  0.50400001928E-02 0.  1.
    10030    2    1    2    0    0  0.00000000000E+00  0.00000000000E+00 -0.48302961752E+03  0.12893750643E+04  0.11954791696E+04 0.  0.
        5    1    3    3  502    0 -0.37453957449E+03 -0.14919993368E+03 -0.71745644001E+03  0.82298623705E+03  0.46999998093E+01 0.  1.
       -5    1    3    3    0  502  0.37453957449E+03  0.14919993368E+03  0.23442682248E+03  0.46638882723E+03  0.46999998093E+01 0. -1.
</event>
<event>
 5   0  0.9358428E-04  0.1208304E+04  0.7818609E-02  0.9105619E-01
       -1   -1    0    0    0  501  0.00000000000E+00  0.00000000000E+00  0.69844740296E+03  0.69844740298E+03  0.50400001928E-02 0.  1.
        1   -1    0    0  501    0  0.00000000000E+00  0.00000000000E+00 -0.52258749963E+03  0.52258749965E+03  0.50400001928E-02 0. -1.
    10030    2    1    2    0    0  0.00000000000E+00  0.00000000000E+00  0.17585990334E+03  0.12210349026E+04  0.12083044020E+04 0.  0.
        2    1    3    3  502    0  0.52434710650E+03 -0.17444673664E+03  0.33469181639E+03  0.64605739991E+03  0.25500000920E-02 0.  1.
       -2    1    3    3    0  502 -0.52434710650E+03  0.17444673664E+03 -0.15883191305E+03  0.57497750272E+03  0.25500000920E-02 0. -1.
</event>
<event>
 5   0  0.9169078E-04  0.1198749E+04  0.7818609E-02  0.9113952E-01
        1   -1    0    0  501    0  0.00000000000E+00  0.00000000000E+00  0.75560700124E+03  0.75560700126E+03  0.50400001928E-02 0.  1.
       -1   -1    0    0    0  501  0.00000000000E+00  0.00000000000E+00 -0.47544517025E+03  0.47544517027E+03  0.50400001928E-02 0. -1.
    10030    2    1    2    0    0  0.00000000000E+00  0.00000000000E+00  0.28016183100E+03  0.12310521715E+04  0.11987488467E+04 0.  0.
        1    1    3    3  502    0 -0.50147450809E+03  0.83844325882E+02 -0.18587285628E+03  0.54134579704E+03  0.50400001928E-02 0. -1.
       -1    1    3    3    0  502  0.50147450809E+03 -0.83844325882E+02  0.46603468727E+03  0.68970637449E+03  0.50400001928E-02 0.  1.
</event>
<event>
 5   0  0.1537557E-03  0.1196851E+04  0.7818609E-02  0.9115618E-01
        2   -1    0    0  501    0  0.00000000000E+00  0.00000000000E+00  0.25437089539E+04  0.25437089539E+04  0.25500000920E-02 0.  1.
       -2   -1    0    0    0  501  0.00000000000E+00  0.00000000000E+00 -0.14078371235E+03  0.14078371237E+03  0.25500000920E-02 0. -1.
    10030    2    1    2    0    0  0.00000000000E+00  0.00000000000E+00  0.24029252416E+04  0.26844926663E+04  0.11968505165E+04 0.  0.
        2    1    3    3  502    0 -0.44145374821E+03 -0.36983278022E+03  0.15662812044E+04  0.16688003201E+04  0.25500000920E-02 0.  1.
       -2    1    3    3    0  502  0.44145374821E+03  0.36983278022E+03  0.83664403715E+03  0.10156923462E+04  0.25500000920E-02 0. -1.
</event>
<event>
 5   0  0.1551501E-03  0.1200221E+04  0.7818609E-02  0.9112663E-01
       -2   -1    0    0    0  501  0.00000000000E+00  0.00000000000E+00  0.61168723309E+03  0.61168723310E+03  0.25500000920E-02 0. -1.
        2   -1    0    0  501    0  0.00000000000E+00  0.00000000000E+00 -0.58875301763E+03  0.58875301764E+03  0.25500000920E-02 0.  1.
    10030    2    1    2    0    0  0.00000000000E+00  0.00000000000E+00  0.22934215460E+02  0.12004402507E+04  0.12002211535E+04 0.  0.
        4    1    3    3  502    0 -0.12496686708E+03 -0.41015886556E+03 -0.40847151259E+03  0.59219726642E+03  0.12699999809E+01 0.  1.
       -4    1    3    3    0  502  0.12496686708E+03  0.41015886556E+03  0.43140572805E+03  0.60824298431E+03  0.12699999809E+01 0. -1.
</event>
<event>
 5   0  0.9358428E-04  0.1183862E+04  0.7818609E-02  0.9127101E-01
       -1   -1    0    0    0  501  0.00000000000E+00  0.00000000000E+00  0.21700171648E+03  0.21700171654E+03  0.50400001928E-02 0. -1.
        1   -1    0    0  501    0  0.00000000000E+00  0.00000000000E+00 -0.16146522662E+04  0.16146522663E+04  0.50400001928E-02 0.  1.
    10030    2    1    2    0    0  0.00000000000E+00  0.00000000000E+00 -0.13976505498E+04  0.18316539828E+04  0.11838620078E+04 0.  0.
        2    1    3    3  502    0 -0.23162343419E+03  0.78631784479E+02 -0.15327997268E+04  0.15521943742E+04  0.25500000920E-02 0.  1.
       -2    1    3    3    0  502  0.23162343419E+03 -0.78631784479E+02  0.13514917701E+03  0.27945960862E+03  0.25500000920E-02 0. -1.
</event>
<event>
 5   0  0.9170776E-04  0.1164198E+04  0.7818609E-02  0.9144784E-01
       -1   -1    0    0    0  501  0.00000000000E+00  0.00000000000E+00  0.35940880484E+03  0.35940880487E+03  0.50400001928E-02 0. -1.
        1   -1    0    0  501    0  0.00000000000E+00  0.00000000000E+00 -0.94276907543E+03  0.94276907544E+03  0.50400001928E-02 0.  1.
    10030    2    1    2    0    0  0.00000000000E+00  0.00000000000E+00 -0.58336027059E+03  0.13021778803E+04  0.11641984482E+04 0.  0.
        5    1    3    3  502    0 -0.20215957922E+03 -0.45843389118E+03 -0.62308518047E+03  0.79955447605E+03  0.46999998093E+01 0.  1.
       -5    1    3    3    0  502  0.20215957922E+03  0.45843389118E+03  0.39724909877E+02  0.50262340427E+03  0.46999998093E+01 0. -1.
</event>
<event>
 5   0  0.9358428E-04  0.1211182E+04  0.7818609E-02  0.9103125E-01
       -1   -1    0    0    0  501  0.00000000000E+00  0.00000000000E+00  0.68285408501E+03  0.68285408503E+03  0.50400001928E-02 0. -1.
        1   -1    0    0  501    0  0.00000000000E+00  0.00000000000E+00 -0.53707012584E+03  0.53707012586E+03  0.50400001928E-02 0.  1.
    10030    2    1    2    0    0  0.00000000000E+00  0.00000000000E+00  0.14578395917E+03  0.12199242109E+04  0.12111821158E+04 0.  0.
        2    1    3    3  502    0  0.44371268780E+02 -0.20479060417E+02 -0.53508085618E+03  0.53730784850E+03  0.25500000920E-02 0.  1.
       -2    1    3    3    0  502 -0.44371268780E+02  0.20479060417E+02  0.68086481535E+03  0.68261636239E+03  0.25500000920E-02 0. -1.
</event>
<event>
 5   0  0.6137750E-04  0.1204393E+04  0.7818609E-02  0.9109020E-01
       -3   -1    0    0    0  501  0.00000000000E+00  0.00000000000E+00  0.43329475427E+03  0.43329476605E+03  0.10100000352E+00 0.  1.
        3   -1    0    0  501    0  0.00000000000E+00  0.00000000000E+00 -0.83693708207E+03  0.83693708816E+03  0.10100000352E+00 0. -1.
    10030    2    1    2    0    0  0.00000000000E+00  0.00000000000E+00 -0.40364232779E+03  0.12702318542E+04  0.12043927244E+04 0.  0.
        4    1    3    3  502    0 -0.19422027289E+03 -0.60280901324E+02  0.39598324994E+03  0.44515126485E+03  0.12699999809E+01 0.  1.
       -4    1    3    3    0  502  0.19422027289E+03  0.60280901324E+02 -0.79962557773E+03  0.82508058936E+03  0.12699999809E+01 0. -1.
</event>
<event>
 5   0  0.1537557E-03  0.1184899E+04  0.7818609E-02  0.9126178E-01
       -2   -1    0    0    0  501  0.00000000000E+00  0.00000000000E+00  0.59541441300E+03  0.59541441301E+03  0.25500000920E-02 0. -1.
        2   -1    0    0  501    0  0.00000000000E+00  0.00000000000E+00 -0.58949972687E+03  0.58949972688E+03  0.25500000920E-02 0.  1.
    10030    2    1    2    0    0  0.00000000000E+00  0.00000000000E+00  0.59146861281E+01  0.11849141399E+04  0.11848993778E+04 0.  0.
        2    1    3    3  502    0 -0.24143277248E+03  0.11477252424E+03 -0.52575910563E+03  0.58981789826E+03  0.25500000920E-02 0.  1.
       -2    1    3    3    0  502  0.24143277248E+03 -0.11477252424E+03  0.53167379176E+03  0.59509624163E+03  0.25500000920E-02 0. -1.
</event>
<event>
 5   0  0.1647550E-03  0.1202271E+04  0.7818609E-02  0.9110871E-01
        2   -1    0    0  501    0  0.00000000000E+00  0.00000000000E+00  0.65683905692E+03  0.65683905693E+03  0.25500000920E-02 0.  1.
       -2   -1    0    0    0  501  0.00000000000E+00  0.00000000000E+00 -0.55015577095E+03  0.55015577095E+03  0.25500000920E-02 0. -1.
    10030    2    1    2    0    0  0.00000000000E+00  0.00000000000E+00  0.10668328597E+03  0.12069948279E+04  0.12022708476E+04 0.  0.
        3    1    3    3  502    0 -0.14042132677E+03 -0.58643489009E+02 -0.53049872367E+03  0.55189320872E+03  0.10100000352E+00 0. -1.
       -3    1    3    3    0  502  0.14042132677E+03  0.58643489009E+02  0.63718200964E+03  0.65510161916E+03  0.10100000352E+00 0.  1.
</event>
<event>
 5   0  0.1537557E-03  0.1202739E+04  0.7818609E-02  0.9110462E-01
        2   -1    0    0  501    0  0.00000000000E+00  0.00000000000E+00  0.16202125802E+04  0.16202125802E+04  0.25500000920E-02 0. -1.
       -2   -1    0    0    0  501  0.00000000000E+00  0.00000000000E+00 -0.22320859825E+03  0.22320859827E+03  0.25500000920E-02 0.  1.
    10030    2    1    2    0    0  0.00000000000E+00  0.00000000000E+00  0.13970039820E+04  0.18434211785E+04  0.12027391719E+04 0.  0.
        2    1    3    3  502    0 -0.30938517646E+03 -0.15686626443E+02  0.14885120977E+04  0.15204057099E+04  0.25500000920E-02 0. -1.
       -2    1    3    3    0  502  0.30938517646E+03  0.15686626443E+02 -0.91508115785E+02  0.32301546855E+03  0.25500000920E-02 0.  1.
</event>
<event>
 5   0  0.9208078E-04  0.1203855E+04  0.7818609E-02  0.9109489E-01
       -1   -1    0    0    0  501  0.00000000000E+00  0.00000000000E+00  0.39922184415E+03  0.39922184418E+03  0.50400001928E-02 0.  1.
        1   -1    0    0  501    0  0.00000000000E+00  0.00000000000E+00 -0.90755796528E+03  0.90755796529E+03  0.50400001928E-02 0. -1.
    10030    2    1    2    0    0  0.00000000000E+00  0.00000000000E+00 -0.50833612113E+03  0.13067798095E+04  0.12038554142E+04 0.  0.
        3    1    3    3  502    0 -0.46002693882E+03 -0.32045340140E+03 -0.16343452112E+02  0.56087635494E+03  0.10100000352E+00 0.  1.
       -3    1    3    3    0  502  0.46002693882E+03  0.32045340140E+03 -0.49199266902E+03  0.74590345453E+03  0.10100000352E+00 0. -1.
</event>
<event>
 5   0  0.9170776E-04  0.1170783E+04  0.7818609E-02  0.9138822E-01
       -1   -1    0    0    0  501  0.00000000000E+00  0.00000000000E+00  0.48925721351E+03  0.48925721353E+03  0.50400001928E-02 0.  1.
        1   -1    0    0  501    0  0.00000000000E+00  0.00000000000E+00 -0.70041476190E+03  0.70041476192E+03  0.50400001928E-02 0. -1.
    10030    2    1    2    0    0  0.00000000000E+00  0.00000000000E+00 -0.21115754839E+03  0.11896719754E+04  0.11707826011E+04 0.  0.
        5    1    3    3  502    0  0.14118146945E+03  0.25026202670E+03 -0.62380470473E+03  0.68681707097E+03  0.46999998093E+01 0. -1.
       -5    1    3    3    0  502 -0.14118146945E+03 -0.25026202670E+03  0.41264715634E+03  0.50285490448E+03  0.46999998093E+01 0.  1.
</event>
<event>
 5   0  0.1567019E-03  0.1188986E+04  0.7818609E-02  0.9122552E-01
       -2   -1    0    0    0  501  0.00000000000E+00  0.00000000000E+00  0.21295775290E+03  0.21295775291E+03  0.25500000920E-02 0.  1.
        2   -1    0    0  501    0  0.00000000000E+00  0.00000000000E+00 -0.16595879261E+04  0.16595879261E+04  0.25500000920E-02 0. -1.
    10030    2    1    2    0    0  0.00000000000E+00  0.00000000000E+00 -0.14466301732E+04  0.18725456790E+04  0.11889863170E+04 0.  0.
        5    1    3    3  502    0  0.32019796642E+03 -0.38967072416E+02  0.63122892042E+02  0.32871227529E+03  0.46999998093E+01 0.  1.
       -5    1    3    3    0  502 -0.32019796642E+03  0.38967072416E+02 -0.15097530652E+04  0.15438334037E+04  0.46999998093E+01 0. -1.
</event>
<event>
 5   0  0.9170776E-04  0.1146493E+04  0.7818609E-02  0.9161025E-01
       -1   -1    0    0    0  501  0.00000000000E+00  0.00000000000E+00  0.38676121260E+03  0.38676121264E+03  0.50400001928E-02 0. -1.
        1   -1    0    0  501    0  0.00000000000E+00  0.00000000000E+00 -0.84964932167E+03  0.84964932169E+03  0.50400001928E-02 0.  1.
    10030    2    1    2    0    0  0.00000000000E+00  0.00000000000E+00 -0.46288810907E+03  0.12364105343E+04  0.11464927422E+04 0.  0.
        5    1    3    3  502    0 -0.41583382208E+03  0.32083620417E+03 -0.47909708077E+03  0.71092175399E+03  0.46999998093E+01 0.  1.
       -5    1    3    3    0  502  0.41583382208E+03 -0.32083620417E+03  0.16208971697E+02  0.52548878034E+03  0.46999998093E+01 0. -1.
</event>
<event>
 5   0  0.9358428E-04  0.1191155E+04  0.7818609E-02  0.9120634E-01
       -1   -1    0    0    0  501  0.00000000000E+00  0.00000000000E+00  0.44025113327E+03  0.44025113330E+03  0.50400001928E-02 0.  1.
        1   -1    0    0  501    0  0.00000000000E+00  0.00000000000E+00 -0.80570523193E+03  0.80570523195E+03  0.50400001928E-02 0. -1.
    10030    2    1    2    0    0  0.00000000000E+00  0.00000000000E+00 -0.36545409866E+03  0.12459563652E+04  0.11911551393E+04 0.  0.
        2    1    3    3  502    0 -0.54920940822E+02 -0.26989816843E+02  0.43695396622E+03  0.44121823235E+03  0.25500000920E-02 0.  1.
       -2    1    3    3    0  502  0.54920940822E+02  0.26989816843E+02 -0.80240806488E+03  0.80473813290E+03  0.25500000920E-02 0. -1.
</event>
<event>
 5   0  0.1567019E-03  0.1200825E+04  0.7818609E-02  0.9112135E-01
       -2   -1    0    0    0  501  0.00000000000E+00  0.00000000000E+00  0.22033796976E+03  0.22033796977E+03  0.25500000920E-02 0. -1.
        2   -1    0    0  501    0  0.00000000000E+00  0.00000000000E+00 -0.16361014366E+04  0.16361014366E+04  0.25500000920E-02 0.  1.
    10030    2    1    2    0    0  0.00000000000E+00  0.00000000000E+00 -0.14157634668E+04  0.18564394064E+04  0.12008251644E+04 0.  0.
        5    1    3    3  502    0  0.37418251929E+03 -0.20055311102E+03 -0.51546878796E+02  0.42768361997E+03  0.46999998093E+01 0. -1.
       -5    1    3    3    0  502 -0.37418251929E+03  0.20055311102E+03 -0.13642165880E+04  0.14287557864E+04  0.46999998093E+01 0.  1.
</event>
<event>
 5   0  0.9169078E-04  0.1201495E+04  0.7818609E-02  0.9111549E-01
       -1   -1    0    0    0  501  0.00000000000E+00  0.00000000000E+00  0.36603366355E+03  0.36603366358E+03  0.50400001928E-02 0. -1.
        1   -1    0    0  501    0  0.00000000000E+00  0.00000000000E+00 -0.98596804440E+03  0.98596804441E+03  0.50400001928E-02 0.  1.
    10030    2    1    2    0    0  0.00000000000E+00  0.00000000000E+00 -0.61993438085E+03  0.13520017080E+04  0.12014948946E+04 0.  0.
        1    1    3    3  502    0  0.20053102188E+03 -0.55101514959E+03 -0.16296110956E+03  0.60859404291E+03  0.50400001928E-02 0.  1.
       -1    1    3    3    0  502 -0.20053102188E+03  0.55101514959E+03 -0.45697327129E+03  0.74340766508E+03  0.50400001928E-02 0. -1.
</event>
<event>
 5   0  0.1647550E-03  0.1201175E+04  0.7818609E-02  0.9111829E-01
        2   -1    0    0  501    0  0.00000000000E+00  0.00000000000E+00  0.16894178884E+04  0.16894178884E+04  0.25500000920E-02 0. -1.
       -2   -1    0    0    0  501  0.00000000000E+00  0.00000000000E+00 -0.21350870458E+03  0.21350870459E+03  0.25500000920E-02 0.  1.
    10030    2    1    2    0    0  0.00000000000E+00  0.00000000000E+00  0.14759091838E+04  0.19029265930E+04  0.12011751327E+04 0.  0.
        3    1    3    3  502    0  0.56067376353E+03 -0.11138788873E+03  0.10298258639E+04  0.11778385505E+04  0.10100000352E+00 0.  1.
       -3    1    3    3    0  502 -0.56067376353E+03  0.11138788873E+03  0.44608331992E+03  0.72508804250E+03  0.10100000352E+00 0. -1.
</event>
<event>
 5   0  0.1551501E-03  0.1196788E+04  0.7818609E-02  0.9115672E-01
       -2   -1    0    0    0  501  0.00000000000E+00  0.00000000000E+00  0.11095453044E+03  0.11095453047E+03  0.25500000920E-02 0. -1.
        2   -1    0    0  501    0  0.00000000000E+00  0.00000000000E+00 -0.32272275919E+04  0.32272275920E+04  0.25500000920E-02 0.  1.
    10030    2    1    2    0    0  0.00000000000E+00  0.00000000000E+00 -0.31162730615E+04  0.33381821224E+04  0.11967882388E+04 0.  0.
        4    1    3    3  502    0 -0.40811148073E+02 -0.34293899026E+03 -0.19508908146E+03  0.39665358117E+03  0.12699999809E+01 0. -1.
       -4    1    3    3    0  502  0.40811148073E+02  0.34293899026E+03 -0.29211839800E+04  0.29415285413E+04  0.12699999809E+01 0.  1.
</event>
<event>
 5   0  0.1647550E-03  0.1200074E+04  0.7818609E-02  0.9112792E-01
        2   -1    0    0  501    0  0.00000000000E+00  0.00000000000E+00  0.14202900006E+04  0.14202900006E+04  0.25500000920E-02 0. -1.
       -2   -1    0    0    0  501  0.00000000000E+00  0.00000000000E+00 -0.25350050820E+03  0.25350050821E+03  0.25500000920E-02 0.  1.
    10030    2    1    2    0    0  0.00000000000E+00  0.00000000000E+00  0.11667894924E+04  0.16737905088E+04  0.12000737260E+04 0.  0.
        3    1    3    3  502    0 -0.17177162019E+03 -0.55949188146E+03  0.76794138167E+03  0.96554162562E+03  0.10100000352E+00 0.  1.
       -3    1    3    3    0  502  0.17177162019E+03  0.55949188146E+03  0.39884811076E+03  0.70824888322E+03  0.10100000352E+00 0. -1.
</event>
<event>
 5   0  0.6137750E-04  0.1195611E+04  0.7818609E-02  0.9116707E-01
        4   -1    0    0  501    0  0.00000000000E+00  0.00000000000E+00  0.40343512735E+03  0.40343712631E+03  0.12699999809E+01 0. -1.
       -4   -1    0    0    0  501  0.00000000000E+00  0.00000000000E+00 -0.88581619055E+03  0.88581710096E+03  0.12699999809E+01 0.  1.
    10030    2    1    2    0    0  0.00000000000E+00  0.00000000000E+00 -0.48238106320E+03  0.12892542273E+04  0.11956107110E+04 0.  0.
        1    1    3    3  502    0 -0.26630442676E+03 -0.50732515995E+03 -0.42505761157E+03  0.71342192201E+03  0.50400001928E-02 0.  1.
       -1    1    3    3    0  502  0.26630442676E+03  0.50732515995E+03 -0.57323451637E+02  0.57583230525E+03  0.50400001928E-02 0. -1.
</event>
<event>
 5   0  0.1551501E-03  0.1197151E+04  0.7818609E-02  0.9115354E-01
        2   -1    0    0  501    0  0.00000000000E+00  0.00000000000E+00  0.88336212381E+03  0.88336212381E+03  0.25500000920E-02 0.  1.
       -2   -1    0    0    0  501  0.00000000000E+00  0.00000000000E+00 -0.40560120077E+03  0.40560120078E+03  0.25500000920E-02 0. -1.
    10030    2    1    2    0    0  0.00000000000E+00  0.00000000000E+00  0.47776092304E+03  0.12889633246E+04  0.11971511820E+04 0.  0.
        4    1    3    3  502    0 -0.67322044909E+01 -0.23583764305E+02 -0.40505853060E+03  0.40580234428E+03  0.12699999809E+01 0. -1.
       -4    1    3    3    0  502  0.67322044909E+01  0.23583764305E+02  0.88281945364E+03  0.88316098031E+03  0.12699999809E+01 0.  1.
</event>
<event>
 5   0  0.9170776E-04  0.1180135E+04  0.7818609E-02  0.9130424E-01
       -1   -1    0    0    0  501  0.00000000000E+00  0.00000000000E+00  0.34043233066E+03  0.34043233070E+03  0.50400001928E-02 0.  1.
        1   -1    0    0  501    0  0.00000000000E+00  0.00000000000E+00 -0.10227573126E+04  0.10227573126E+04  0.50400001928E-02 0. -1.
    10030    2    1    2    0    0  0.00000000000E+00  0.00000000000E+00 -0.68232498193E+03  0.13631896433E+04  0.11801350019E+04 0.  0.
        5    1    3    3  502    0  0.28003392322E+03 -0.51117666419E+03 -0.44726318822E+03  0.73470200061E+03  0.46999998093E+01 0.  1.
       -5    1    3    3    0  502 -0.28003392322E+03  0.51117666419E+03 -0.23506179371E+03  0.62848764270E+03  0.46999998093E+01 0. -1.
</event>
<event>
 5   0  0.6137750E-04  0.1205504E+04  0.7818609E-02  0.9108053E-01
        4   -1    0    0  501    0  0.00000000000E+00  0.00000000000E+00  0.48598599327E+03  0.48598765267E+03  0.12699999809E+01 0. -1.
       -4   -1    0    0    0  501  0.00000000000E+00  0.00000000000E+00 -0.74756933038E+03  0.74757040914E+03  0.12699999809E+01 0.  1.
    10030    2    1    2    0    0  0.00000000000E+00  0.00000000000E+00 -0.26158333711E+03  0.12335580618E+04  0.12055038986E+04 0.  0.
        2    1    3    3  502    0  0.15195359012E+03  0.13971589872E+03 -0.71027388017E+03  0.73966168670E+03  0.25500000920E-02 0.  1.
       -2    1    3    3    0  502 -0.15195359012E+03 -0.13971589872E+03  0.44869054306E+03  0.49389637511E+03  0.25500000920E-02 0. -1.
</event>
<event>
 5   0  0.6137750E-04  0.1205867E+04  0.7818609E-02  0.9107737E-01
       -3   -1    0    0    0  501  0.00000000000E+00  0.00000000000E+00  0.51657292928E+03  0.51657293915E+03  0.10100000352E+00 0. -1.
        3   -1    0    0  501    0  0.00000000000E+00  0.00000000000E+00 -0.70373131459E+03  0.70373132184E+03  0.10100000352E+00 0.  1.
    10030    2    1    2    0    0  0.00000000000E+00  0.00000000000E+00 -0.18715838531E+03  0.12203042610E+04  0.12058665881E+04 0.  0.
        3    1    3    3  502    0  0.26881698360E+03  0.53599076143E+03 -0.15742080484E+03  0.61994353534E+03  0.10100000352E+00 0. -1.
       -3    1    3    3    0  502 -0.26881698360E+03 -0.53599076143E+03 -0.29737580473E+02  0.60036072565E+03  0.10100000352E+00 0.  1.
</event>
<event>
 5   0  0.6137750E-04  0.1209519E+04  0.7818609E-02  0.9104565E-01
        3   -1    0    0  501    0  0.00000000000E+00  0.00000000000E+00  0.57242523413E+03  0.57242524304E+03  0.10100000352E+00 0.  1.
       -3   -1    0    0    0  501  0.00000000000E+00  0.00000000000E+00 -0.63892023729E+03  0.63892024527E+03  0.10100000352E+00 0. -1.
    10030    2    1    2    0    0  0.00000000000E+00  0.00000000000E+00 -0.66495003159E+02  0.12113454883E+04  0.12095190394E+04 0.  0.
        5    1    3    3  502    0  0.32591146065E+03  0.49728701014E+02 -0.54098521291E+03  0.63354424824E+03  0.46999998093E+01 0. -1.
       -5    1    3    3    0  502 -0.32591146065E+03 -0.49728701014E+02  0.47449020975E+03  0.57780124008E+03  0.46999998093E+01 0.  1.
</event>
<event>
 5   0  0.6137750E-04  0.1194693E+04  0.7818609E-02  0.9117515E-01
        3   -1    0    0  501    0  0.00000000000E+00  0.00000000000E+00  0.10141216333E+04  0.10141216383E+04  0.10100000352E+00 0.  1.
       -3   -1    0    0    0  501  0.00000000000E+00  0.00000000000E+00 -0.35185395540E+03  0.35185396989E+03  0.10100000352E+00 0. -1.
    10030    2    1    2    0    0  0.00000000000E+00  0.00000000000E+00  0.66226767789E+03  0.13659756082E+04  0.11946927994E+04 0.  0.
        2    1    3    3  502    0 -0.27860544134E+03  0.48294090168E+03  0.85988818928E+02  0.56413383470E+03  0.25500000920E-02 0. -1.
       -2    1    3    3    0  502  0.27860544134E+03 -0.48294090168E+03  0.57627885896E+03  0.80184177352E+03  0.25500000920E-02 0.  1.
</event>
<event>
 5   0  0.9358428E-04  0.1201087E+04  0.7818609E-02  0.9111905E-01
        1   -1    0    0  501    0  0.00000000000E+00  0.00000000000E+00  0.55997671233E+03  0.55997671236E+03  0.50400001928E-02 0. -1.
       -1   -1    0    0    0  501  0.00000000000E+00  0.00000000000E+00 -0.64404957719E+03  0.64404957720E+03  0.50400001928E-02 0.  1.
    10030    2    1    2    0    0  0.00000000000E+00  0.00000000000E+00 -0.84072864851E+02  0.12040262896E+04  0.12010874487E+04 0.  0.
        2    1    3    3  502    0 -0.41261719853E+03 -0.36165084500E+03  0.20270943075E+03  0.58492341339E+03  0.25500000920E-02 0. -1.
       -2    1    3    3    0  502  0.41261719853E+03  0.36165084500E+03 -0.28678229560E+03  0.61910287617E+03  0.25500000920E-02 0.  1.
</event>
<event>
 5   0  0.9208078E-04  0.1188379E+04  0.7818609E-02  0.9123090E-01
       -1   -1    0    0    0  501  0.00000000000E+00  0.00000000000E+00  0.35786327176E+03  0.35786327180E+03  0.50400001928E-02 0.  1.
        1   -1    0    0  501    0  0.00000000000E+00  0.00000000000E+00 -0.98658049169E+03  0.98658049170E+03  0.50400001928E-02 0. -1.
    10030    2    1    2    0    0  0.00000000000E+00  0.00000000000E+00 -0.62871721993E+03  0.13444437635E+04  0.11883785973E+04 0.  0.
        3    1    3    3  502    0  0.71667478794E+01 -0.49863046660E+03  0.51144146928E+02  0.50129775429E+03  0.10100000352E+00 0.  1.
       -3    1    3    3    0  502 -0.71667478794E+01  0.49863046660E+03 -0.67986136686E+03  0.84314600921E+03  0.10100000352E+00 0. -1.
</event>
<event>
 5   0  0.9170776E-04  0.1193262E+04  0.7818609E-02  0.9118774E-01
        1   -1    0    0  501    0  0.00000000000E+00  0.00000000000E+00  0.17730363718E+04  0.17730363718E+04  0.50400001928E-02 0. -1.
       -1   -1    0    0    0  501  0.00000000000E+00  0.00000000000E+00 -0.20076790069E+03  0.20076790076E+03  0.50400001928E-02 0.  1.
    10030    2    1    2    0    0  0.00000000000E+00  0.00000000000E+00  0.15722684711E+04  0.19738042726E+04  0.11932624025E+04 0.  0.
        5    1    3    3  502    0 -0.43642382468E+02 -0.59185742160E+03  0.88738549321E+03  0.10675556045E+04  0.46999998093E+01 0. -1.
       -5    1    3    3    0  502  0.43642382468E+02  0.59185742160E+03  0.68488297791E+03  0.90624866812E+03  0.46999998093E+01 0.  1.
</event>
<event>
 5   0  0.1567019E-03  0.1202757E+04  0.7818609E-02  0.9110447E-01
        2   -1    0    0  501    0  0.00000000000E+00  0.00000000000E+00  0.18450609763E+04  0.18450609763E+04  0.25500000920E-02 0. -1.
       -2   -1    0    0    0  501  0.00000000000E+00  0.00000000000E+00 -0.19601306459E+03  0.19601306461E+03  0.25500000920E-02 0.  1.
    10030    2    1    2    0    0  0.00000000000E+00  0.00000000000E+00  0.16490479117E+04  0.20410740410E+04  0.12027569270E+04 0.  0.
        5    1    3    3  502    0  0.50462216245E+02 -0.58712458778E+03  0.62108071453E+03  0.85616882728E+03  0.46999998093E+01 0.  1.
       -5    1    3    3    0  502 -0.50462216245E+02  0.58712458778E+03  0.10279671972E+04  0.11849052137E+04  0.46999998093E+01 0. -1.
</event>
<event>
 5   0  0.9169078E-04  0.1206107E+04  0.7818609E-02  0.9107528E-01
       -1   -1    0    0    0  501  0.00000000000E+00  0.00000000000E+00  0.47763011335E+03  0.47763011337E+03  0.50400001928E-02 0.  1.
        1   -1    0    0  501    0  0.00000000000E+00  0.00000000000E+00 -0.76141290694E+03  0.76141290696E+03  0.50400001928E-02 0. -1.
    10030    2    1    2    0    0  0.00000000000E+00  0.00000000000E+00 -0.28378279359E+03  0.12390430203E+04  0.12061073469E+04 0.  0.
        1    1    3    3  502    0  0.34422020929E+03 -0.43130965546E+03  0.10797494450E+03  0.56229365997E+03  0.50400001928E-02 0.  1.
       -1    1    3    3    0  502 -0.34422020929E+03  0.43130965546E+03 -0.39175773810E+03  0.67674936037E+03  0.50400001928E-02 0. -1.
</event>
<event>
 5   0  0.9170776E-04  0.1181046E+04  0.7818609E-02  0.9129611E-01
        1   -1    0    0  501    0  0.00000000000E+00  0.00000000000E+00  0.78093762751E+03  0.78093762753E+03  0.50400001928E-02 0. -1.
       -1   -1    0    0    0  501  0.00000000000E+00  0.00000000000E+00 -0.44653660085E+03  0.44653660088E+03  0.50400001928E-02 0.  1.
    10030    2    1    2    0    0  0.00000000000E+00  0.00000000000E+00  0.33440102667E+03  0.12274742284E+04  0.11810456955E+04 0.  0.
        5    1    3    3  502    0 -0.23562221548E+03  0.20075036562E+03 -0.35543631360E+03  0.47135506865E+03  0.46999998093E+01 0.  1.
       -5    1    3    3    0  502  0.23562221548E+03 -0.20075036562E+03  0.68983734026E+03  0.75611915975E+03  0.46999998093E+01 0. -1.
</event>
<event>
 5   0  0.8908478E-04  0.1200905E+04  0.7818609E-02  0.9112065E-01
        1   -1    0    0  501    0  0.00000000000E+00  0.00000000000E+00  0.23907738131E+04  0.23907738131E+04  0.50400001928E-02 0.  1.
       -1   -1    0    0    0  501  0.00000000000E+00  0.00000000000E+00 -0.15080610894E+03  0.15080610902E+03  0.50400001928E-02 0. -1.
    10030    2    1    2    0    0  0.00000000000E+00  0.00000000000E+00  0.22399677041E+04  0.25415799221E+04  0.12009051523E+04 0.  0.
        4    1    3    3  502    0 -0.30847913977E+03 -0.21780602008E+03  0.21080052881E+04  0.21415617547E+04  0.12699999809E+01 0.  1.
       -4    1    3    3    0  502  0.30847913977E+03  0.21780602008E+03  0.13196241608E+03  0.40001816736E+03  0.12699999809E+01 0. -1.
</event>
<event>
 5   0  0.9358428E-04  0.1198052E+04  0.7818609E-02  0.9114563E-01
        1   -1    0    0  501    0  0.00000000000E+00  0.00000000000E+00  0.83359425923E+03  0.83359425924E+03  0.50400001928E-02 0. -1.
       -1   -1    0    0    0  501  0.00000000000E+00  0.00000000000E+00 -0.43046381912E+03  0.43046381914E+03  0.50400001928E-02 0.  1.
    10030    2    1    2    0    0  0.00000000000E+00  0.00000000000E+00  0.40313044011E+03  0.12640580784E+04  0.11980520330E+04 0.  0.
        2    1    3    3  502    0 -0.23901627774E+03  0.28078452818E+03 -0.29652814786E+03  0.47317826955E+03  0.25500000920E-02 0.  1.
       -2    1    3    3    0  502  0.23901627774E+03 -0.28078452818E+03  0.69965858798E+03  0.79087980884E+03  0.25500000920E-02 0. -1.
</event>
<event>
 5   0  0.1537557E-03  0.1238448E+04  0.7818609E-02  0.9079853E-01
       -2   -1    0    0    0  501  0.00000000000E+00  0.00000000000E+00  0.34559574464E+03  0.34559574465E+03  0.25500000920E-02 0.  1.
        2   -1    0    0  501    0  0.00000000000E+00  0.00000000000E+00 -0.11094998781E+04  0.11094998781E+04  0.25500000920E-02 0. -1.
    10030    2    1    2    0    0  0.00000000000E+00  0.00000000000E+00 -0.76390413349E+03  0.14550956228E+04  0.12384481201E+04 0.  0.
        2    1    3    3  502    0  0.25074464317E+03  0.34118205438E+03 -0.91283581919E+03  0.10062540947E+04  0.25500000920E-02 0. -1.
       -2    1    3    3    0  502 -0.25074464317E+03 -0.34118205438E+03  0.14893168571E+03  0.44884152808E+03  0.25500000920E-02 0.  1.
</event>
<event>
 5   0  0.1647550E-03  0.1197524E+04  0.7818609E-02  0.9115027E-01
       -2   -1    0    0    0  501  0.00000000000E+00  0.00000000000E+00  0.75674825795E+03  0.75674825795E+03  0.25500000920E-02 0.  1.
        2   -1    0    0  501    0  0.00000000000E+00  0.00000000000E+00 -0.47375823544E+03  0.47375823545E+03  0.25500000920E-02 0. -1.
    10030    2    1    2    0    0  0.00000000000E+00  0.00000000000E+00  0.28299002251E+03  0.12305064934E+04  0.11975236438E+04 0.  0.
        3    1    3    3  502    0 -0.41869608940E+03  0.94850541060E+02 -0.28738882595E+03  0.51661919041E+03  0.10100000352E+00 0. -1.
       -3    1    3    3    0  502  0.41869608940E+03 -0.94850541060E+02  0.57037884846E+03  0.71388730300E+03  0.10100000352E+00 0.  1.
</event>
<event>
 5   0  0.1551501E-03  0.1194389E+04  0.7818609E-02  0.9117782E-01
       -2   -1    0    0    0  501  0.00000000000E+00  0.00000000000E+00  0.12939789936E+03  0.12939789939E+03  0.25500000920E-02 0.  1.
        2   -1    0    0  501    0  0.00000000000E+00  0.00000000000E+00 -0.27561611674E+04  0.27561611674E+04  0.25500000920E-02 0. -1.
    10030    2    1    2    0    0  0.00000000000E+00  0.00000000000E+00 -0.26267632680E+04  0.28855590668E+04  0.11943893258E+04 0.  0.
        4    1    3    3  502    0 -0.57350237867E+03  0.16482632102E+03 -0.12558461049E+04  0.13904041666E+04  0.12699999809E+01 0. -1.
       -4    1    3    3    0  502  0.57350237867E+03 -0.16482632102E+03 -0.13709171632E+04  0.14951549002E+04  0.12699999809E+01 0.  1.
</event>
<event>
 5   0  0.9208078E-04  0.1192348E+04  0.7818609E-02  0.9119580E-01
       -1   -1    0    0    0  501  0.00000000000E+00  0.00000000000E+00  0.73097776007E+03  0.73097776009E+03  0.50400001928E-02 0.  1.
        1   -1    0    0  501    0  0.00000000000E+00  0.00000000000E+00 -0.48623046113E+03  0.48623046116E+03  0.50400001928E-02 0. -1.
    10030    2    1    2    0    0  0.00000000000E+00  0.00000000000E+00  0.24474729894E+03  0.12172082212E+04  0.11923483608E+04 0.  0.
        3    1    3    3  502    0 -0.20841619188E+02 -0.18973543825E+03  0.69894103336E+03  0.72453605012E+03  0.10100000352E+00 0.  1.
       -3    1    3    3    0  502  0.20841619188E+02  0.18973543825E+03 -0.45419373442E+03  0.49267217113E+03  0.10100000352E+00 0. -1.
</event>
<event>
 5   0  0.1597352E-03  0.1202841E+04  0.7818609E-02  0.9110374E-01
        2   -1    0    0  501    0  0.00000000000E+00  0.00000000000E+00  0.11640215406E+04  0.11640215406E+04  0.25500000920E-02 0. -1.
       -2   -1    0    0    0  501  0.00000000000E+00  0.00000000000E+00 -0.31073868555E+03  0.31073868556E+03  0.25500000920E-02 0.  1.
    10030    2    1    2    0    0  0.00000000000E+00  0.00000000000E+00  0.85328285506E+03  0.14747602262E+04  0.12028408431E+04 0.  0.
        1    1    3    3  502    0 -0.38041844914E+03 -0.27122195932E+02 -0.14351501064E+03  0.40749278308E+03  0.50400001928E-02 0.  1.
       -1    1    3    3    0  502  0.38041844914E+03  0.27122195932E+02  0.99679786570E+03  0.10672674431E+04  0.50400001928E-02 0. -1.
</event>
<event>
 5   0  0.1567019E-03  0.1204114E+04  0.7818609E-02  0.9109263E-01
       -2   -1    0    0    0  501  0.00000000000E+00  0.00000000000E+00  0.28341705424E+03  0.28341705426E+03  0.25500000920E-02 0.  1.
        2   -1    0    0  501    0  0.00000000000E+00  0.00000000000E+00 -0.12789373343E+04  0.12789373343E+04  0.25500000920E-02 0. -1.
    10030    2    1    2    0    0  0.00000000000E+00  0.00000000000E+00 -0.99552028002E+03  0.15623543885E+04  0.12041140342E+04 0.  0.
        5    1    3    3  502    0 -0.44955123432E+02  0.65746686867E+02  0.27652722361E+03  0.28780720170E+03  0.46999998093E+01 0.  1.
       -5    1    3    3    0  502  0.44955123432E+02 -0.65746686867E+02 -0.12720475036E+04  0.12745471868E+04  0.46999998093E+01 0. -1.
</event>
<event>
 5   0  0.8908478E-04  0.1207612E+04  0.7818609E-02  0.9106219E-01
       -1   -1    0    0    0  501  0.00000000000E+00  0.00000000000E+00  0.28432255198E+03  0.28432255203E+03  0.50400001928E-02 0. -1.
        1   -1    0    0  501    0  0.00000000000E+00  0.00000000000E+00 -0.12822827125E+04  0.12822827125E+04  0.50400001928E-02 0.  1.
    10030    2    1    2    0    0  0.00000000000E+00  0.00000000000E+00 -0.99796016049E+03  0.15666052645E+04  0.12076123438E+04 0.  0.
        4    1    3    3  502    0  0.60794592519E+02 -0.27114858086E+03  0.19644006887E+03  0.34030552294E+03  0.12699999809E+01 0. -1.
       -4    1    3    3    0  502 -0.60794592519E+02  0.27114858086E+03 -0.11944002294E+04  0.12262997416E+04  0.12699999809E+01 0.  1.
</event>
<event>
 5   0  0.9358428E-04  0.1205272E+04  0.7818609E-02  0.9108254E-01
       -1   -1    0    0    0  501  0.00000000000E+00  0.00000000000E+00  0.14455759015E+04  0.14455759015E+04  0.50400001928E-02 0.  1.
        1   -1    0    0  501    0  0.00000000000E+00  0.00000000000E+00 -0.25122878184E+03  0.25122878189E+03  0.50400001928E-02 0. -1.
    10030    2    1    2    0    0  0.00000000000E+00  0.00000000000E+00  0.11943471196E+04  0.16968046834E+04  0.12052722063E+04 0.  0.
        2    1    3    3  502    0 -0.44776764498E+03 -0.19914864084E+03  0.10340391817E+03  0.50084769675E+03  0.25500000920E-02 0. -1.
       -2    1    3    3    0  502  0.44776764498E+03  0.19914864084E+03  0.10909432015E+04  0.11959569866E+04  0.25500000920E-02 0.  1.
</event>
<event>
 5   0  0.9358428E-04  0.1210587E+04  0.7818609E-02  0.9103640E-01
        1   -1    0    0  501    0  0.00000000000E+00  0.00000000000E+00  0.14217436324E+04  0.14217436324E+04  0.50400001928E-02 0.  1.
       -1   -1    0    0    0  501  0.00000000000E+00  0.00000000000E+00 -0.25769759850E+03  0.25769759855E+03  0.50400001928E-02 0. -1.
    10030    2    1    2    0    0  0.00000000000E+00  0.00000000000E+00  0.11640460339E+04  0.16794412309E+04  0.12105865022E+04 0.  0.
        2    1    3    3  502    0  0.19273617228E+02 -0.35142751653E+03  0.12651969008E+04  0.13132387329E+04  0.25500000920E-02 0.  1.
       -2    1    3    3    0  502 -0.19273617228E+02  0.35142751653E+03 -0.10115086694E+03  0.36620249806E+03  0.25500000920E-02 0. -1.
</event>
<event>
 5   0  0.9208078E-04  0.1194498E+04  0.7818609E-02  0.9117687E-01
        1   -1    0    0  501    0  0.00000000000E+00  0.00000000000E+00  0.79428540499E+03  0.79428540500E+03  0.50400001928E-02 0. -1.
       -1   -1    0    0    0  501  0.00000000000E+00  0.00000000000E+00 -0.44909055308E+03  0.44909055310E+03  0.50400001928E-02 0.  1.
    10030    2    1    2    0    0  0.00000000000E+00  0.00000000000E+00  0.34519485191E+03  0.12433759581E+04  0.11944975041E+04 0.  0.
        3    1    3    3  502    0 -0.12798842268E+03 -0.12737685277E+03  0.76519087133E+03  0.78620797422E+03  0.10100000352E+00 0. -1.
       -3    1    3    3    0  502  0.12798842268E+03  0.12737685277E+03 -0.41999601942E+03  0.45716798389E+03  0.10100000352E+00 0.  1.
</event>
<event>
 5   0  0.9358428E-04  0.1188179E+04  0.7818609E-02  0.9123267E-01
       -1   -1    0    0    0  501  0.00000000000E+00  0.00000000000E+00  0.28649382572E+03  0.28649382576E+03  0.50400001928E-02 0.  1.
        1   -1    0    0  501    0  0.00000000000E+00  0.00000000000E+00 -0.12319375174E+04  0.12319375174E+04  0.50400001928E-02 0. -1.
    10030    2    1    2    0    0  0.00000000000E+00  0.00000000000E+00 -0.94544369164E+03  0.15184313431E+04  0.11881792667E+04 0.  0.
        2    1    3    3  502    0  0.53359652886E+02 -0.58470242325E+03 -0.35686955896E+03  0.68708082380E+03  0.25500000920E-02 0. -1.
       -2    1    3    3    0  502 -0.53359652886E+02  0.58470242325E+03 -0.58857413267E+03  0.83135051932E+03  0.25500000920E-02 0.  1.
</event>
<event>
 5   0  0.1537557E-03  0.1225854E+04  0.7818609E-02  0.9090522E-01
        2   -1    0    0  501    0  0.00000000000E+00  0.00000000000E+00  0.77566918692E+03  0.77566918692E+03  0.25500000920E-02 0.  1.
       -2   -1    0    0    0  501  0.00000000000E+00  0.00000000000E+00 -0.48432994058E+03  0.48432994059E+03  0.25500000920E-02 0. -1.
    10030    2    1    2    0    0  0.00000000000E+00  0.00000000000E+00  0.29133924633E+03  0.12599991275E+04  0.12258544958E+04 0.  0.
        2    1    3    3  502    0 -0.99412887575E+02  0.11500761181E+03 -0.46464543196E+03  0.48888142779E+03  0.25500000920E-02 0. -1.
       -2    1    3    3    0  502  0.99412887575E+02 -0.11500761181E+03  0.75598467830E+03  0.77111769972E+03  0.25500000920E-02 0.  1.
</event>
<event>
 5   0  0.1537557E-03  0.1218059E+04  0.7818609E-02  0.9097195E-01
       -2   -1    0    0    0  501  0.00000000000E+00  0.00000000000E+00  0.95781346903E+03  0.95781346903E+03  0.25500000920E-02 0. -1.
        2   -1    0    0  501    0  0.00000000000E+00  0.00000000000E+00 -0.38725368143E+03  0.38725368144E+03  0.25500000920E-02 0.  1.
    10030    2    1    2    0    0  0.00000000000E+00  0.00000000000E+00  0.57055978760E+03  0.13450671505E+04  0.12180587704E+04 0.  0.
        2    1    3    3  502    0  0.36674297156E+03  0.19215829719E+03 -0.20793706536E+03  0.46331743063E+03  0.25500000920E-02 0.  1.
       -2    1    3    3    0  502 -0.36674297156E+03 -0.19215829719E+03  0.77849685296E+03  0.88174971984E+03  0.25500000920E-02 0. -1.
</event>
<event>
 5   0  0.1647550E-03  0.1188153E+04  0.7818609E-02  0.9123290E-01
        2   -1    0    0  501    0  0.00000000000E+00  0.00000000000E+00  0.56731214804E+03  0.56731214804E+03  0.25500000920E-02 0.  1.
       -2   -1    0    0    0  501  0.00000000000E+00  0.00000000000E+00 -0.62210383624E+03  0.62210383625E+03  0.25500000920E-02 0. -1.
    10030    2    1    2    0    0  0.00000000000E+00  0.00000000000E+00 -0.54791688203E+02  0.11894159843E+04  0.11881532959E+04 0.  0.
        3    1    3    3  502    0  0.28046806076E+03  0.18689996405E+03  0.46234090963E+03  0.57214775765E+03  0.10100000352E+00 0.  1.
       -3    1    3    3    0  502 -0.28046806076E+03 -0.18689996405E+03 -0.51713259784E+03  0.61726822663E+03  0.10100000352E+00 0. -1.
</event>
<event>
 5   0  0.6137750E-04  0.1297593E+04  0.7818609E-02  0.9031476E-01
       -3   -1    0    0    0  501  0.00000000000E+00  0.00000000000E+00  0.80520092484E+03  0.80520093118E+03  0.10100000352E+00 0. -1.
        3   -1    0    0  501    0  0.00000000000E+00  0.00000000000E+00 -0.52277249983E+03  0.52277250959E+03  0.10100000352E+00 0.  1.
    10030    2    1    2    0    0  0.00000000000E+00  0.00000000000E+00  0.28242842501E+03  0.13279734408E+04  0.12975930194E+04 0.  0.
        5    1    3    3  502    0  0.96430073327E+02  0.15846580808E+03 -0.49503645386E+03  0.52867130812E+03  0.46999998093E+01 0.  1.
       -5    1    3    3    0  502 -0.96430073327E+02 -0.15846580808E+03  0.77746487887E+03  0.79930213265E+03  0.46999998093E+01 0. -1.
</event>
<event>
 5   0  0.8908478E-04  0.1198158E+04  0.7818609E-02  0.9114470E-01
       -1   -1    0    0    0  501  0.00000000000E+00  0.00000000000E+00  0.75091162104E+03  0.75091162106E+03  0.50400001928E-02 0.  1.
        1   -1    0    0  501    0  0.00000000000E+00  0.00000000000E+00 -0.47794662610E+03  0.47794662612E+03  0.50400001928E-02 0. -1.
    10030    2    1    2    0    0  0.00000000000E+00  0.00000000000E+00  0.27296499494E+03  0.12288582472E+04  0.11981580460E+04 0.  0.
        4    1    3    3  502    0 -0.18983053033E+03  0.21910427597E+01  0.71924354888E+03  0.74387722537E+03  0.12699999809E+01 0.  1.
       -4    1    3    3    0  502  0.18983053033E+03 -0.21910427597E+01 -0.44627855394E+03  0.48498102181E+03  0.12699999809E+01 0. -1.
</event>
<event>
 5   0  0.9358428E-04  0.1213099E+04  0.7818609E-02  0.9101468E-01
       -1   -1    0    0    0  501  0.00000000000E+00  0.00000000000E+00  0.11835953050E+04  0.11835953051E+04  0.50400001928E-02 0.  1.
        1   -1    0    0  501    0  0.00000000000E+00  0.00000000000E+00 -0.31083450205E+03  0.31083450209E+03  0.50400001928E-02 0. -1.
    10030    2    1    2    0    0  0.00000000000E+00  0.00000000000E+00  0.87276080299E+03  0.14944298071E+04  0.12130989363E+04 0.  0.
        2    1    3    3  502    0  0.54534798046E+03  0.23461053658E+03  0.58953290892E+03  0.83665738172E+03  0.25500000920E-02 0.  1.
       -2    1    3    3    0  502 -0.54534798046E+03 -0.23461053658E+03  0.28322789407E+03  0.65777242543E+03  0.25500000920E-02 0. -1.
</event>
<event>
 5   0  0.9358428E-04  0.1206606E+04  0.7818609E-02  0.9107094E-01
        1   -1    0    0  501    0  0.00000000000E+00  0.00000000000E+00  0.12792605971E+04  0.12792605971E+04  0.50400001928E-02 0. -1.
       -1   -1    0    0    0  501  0.00000000000E+00  0.00000000000E+00 -0.28451946962E+03  0.28451946967E+03  0.50400001928E-02 0.  1.
    10030    2    1    2    0    0  0.00000000000E+00  0.00000000000E+00  0.99474112744E+03  0.15637800667E+04  0.12066060610E+04 0.  0.
        2    1    3    3  502    0  0.32043392457E+03  0.39207010115E+03  0.92245114160E+03  0.10522893960E+04  0.25500000920E-02 0.  1.
       -2    1    3    3    0  502 -0.32043392457E+03 -0.39207010115E+03  0.72289985845E+02  0.51149067077E+03  0.25500000920E-02 0. -1.
</event>
<event>
 5   0  0.1647550E-03  0.1192049E+04  0.7818609E-02  0.9119845E-01
        2   -1    0    0  501    0  0.00000000000E+00  0.00000000000E+00  0.15808999426E+04  0.15808999426E+04  0.25500000920E-02 0. -1.
       -2   -1    0    0    0  501  0.00000000000E+00  0.00000000000E+00 -0.22471075644E+03  0.22471075645E+03  0.25500000920E-02 0.  1.
    10030    2    1    2    0    0  0.00000000000E+00  0.00000000000E+00  0.13561891862E+04  0.18056106991E+04  0.11920490291E+04 0.  0.
        3    1    3    3  502    0 -0.10872004687E+03 -0.51021187890E+03  0.11147652748E+04  0.12307874870E+04  0.10100000352E+00 0. -1.
       -3    1    3    3    0  502  0.10872004687E+03  0.51021187890E+03  0.24142391132E+03  0.57482321206E+03  0.10100000352E+00 0.  1.
</event>
<event>
 5   0  0.1537557E-03  0.1203689E+04  0.7818609E-02  0.9109634E-01
       -2   -1    0    0    0  501  0.00000000000E+00  0.00000000000E+00  0.12250576040E+04  0.12250576040E+04  0.25500000920E-02 0. -1.
        2   -1    0    0  501    0  0.00000000000E+00  0.00000000000E+00 -0.29567316879E+03  0.29567316880E+03  0.25500000920E-02 0.  1.
    10030    2    1    2    0    0  0.00000000000E+00  0.00000000000E+00  0.92938443519E+03  0.15207307728E+04  0.12036887699E+04 0.  0.
        2    1    3    3  502    0 -0.84275713382E+02 -0.29057410041E+02  0.12166704586E+04  0.12199318562E+04  0.25500000920E-02 0. -1.
       -2    1    3    3    0  502  0.84275713382E+02  0.29057410041E+02 -0.28728602342E+03  0.30079891656E+03  0.25500000920E-02 0.  1.
</event>
<event>
 5   0  0.1537557E-03  0.1188651E+04  0.7818609E-02  0.9122848E-01
       -2   -1    0    0    0  501  0.00000000000E+00  0.00000000000E+00  0.19422072455E+03  0.19422072457E+03  0.25500000920E-02 0. -1.
        2   -1    0    0  501    0  0.00000000000E+00  0.00000000000E+00 -0.18186682965E+04  0.18186682965E+04  0.25500000920E-02 0.  1.
    10030    2    1    2    0    0  0.00000000000E+00  0.00000000000E+00 -0.16244475720E+04  0.20128890211E+04  0.11886514616E+04 0.  0.
        2    1    3    3  502    0 -0.17629051894E+03  0.49050178044E+03 -0.32862571946E+03  0.61616978762E+03  0.25500000920E-02 0. -1.
       -2    1    3    3    0  502  0.17629051894E+03 -0.49050178044E+03 -0.12958218525E+04  0.13967192335E+04  0.25500000920E-02 0.  1.
</event>
<event>
 5   0  0.8908478E-04  0.1206501E+04  0.7818609E-02  0.9107185E-01
        1   -1    0    0  501    0  0.00000000000E+00  0.00000000000E+00  0.78542479533E+03  0.78542479534E+03  0.50400001928E-02 0.  1.
       -1   -1    0    0    0  501  0.00000000000E+00  0.00000000000E+00 -0.46333020275E+03  0.46333020277E+03  0.50400001928E-02 0. -1.
    10030    2    1    2    0    0  0.00000000000E+00  0.00000000000E+00  0.32209459258E+03  0.12487549981E+04  0.12065007745E+04 0.  0.
        4    1    3    3  502    0 -0.18166133147E+03  0.52247083721E+02 -0.43188473016E+03  0.47144101450E+03  0.12699999809E+01 0. -1.
       -4    1    3    3    0  502  0.18166133147E+03 -0.52247083721E+02  0.75397932274E+03  0.77731398362E+03  0.12699999809E+01 0.  1.
</event>
<event>
 5   0  0.9170776E-04  0.1202830E+04  0.7818609E-02  0.9110383E-01
        1   -1    0    0  501    0  0.00000000000E+00  0.00000000000E+00  0.27698552997E+03  0.27698553002E+03  0.50400001928E-02 0. -1.
       -1   -1    0    0    0  501  0.00000000000E+00  0.00000000000E+00 -0.13058434896E+04  0.13058434896E+04  0.50400001928E-02 0.  1.
    10030    2    1    2    0    0  0.00000000000E+00  0.00000000000E+00 -0.10288579597E+04  0.15828290197E+04  0.12028295824E+04 0.  0.
        5    1    3    3  502    0 -0.15365803260E+03 -0.49690136356E+02  0.24789473526E+03  0.29589489756E+03  0.46999998093E+01 0. -1.
       -5    1    3    3    0  502  0.15365803260E+03  0.49690136356E+02 -0.12767526949E+04  0.12869341221E+04  0.46999998093E+01 0.  1.
</event>
<event>
 5   0  0.1597352E-03  0.1201980E+04  0.7818609E-02  0.9111125E-01
       -2   -1    0    0    0  501  0.00000000000E+00  0.00000000000E+00  0.13324882292E+03  0.13324882294E+03  0.25500000920E-02 0. -1.
        2   -1    0    0  501    0  0.00000000000E+00  0.00000000000E+00 -0.27106374419E+04  0.27106374419E+04  0.25500000920E-02 0.  1.
    10030    2    1    2    0    0  0.00000000000E+00  0.00000000000E+00 -0.25773886190E+04  0.28438862648E+04  0.12019804466E+04 0.  0.
        1    1    3    3  502    0  0.49399407958E+03  0.32861619377E+03 -0.15152689038E+04  0.16272856554E+04  0.50400001928E-02 0. -1.
       -1    1    3    3    0  502 -0.49399407958E+03 -0.32861619377E+03 -0.10621197152E+04  0.12166006095E+04  0.50400001928E-02 0.  1.
</event>
<event>
 5   0  0.1647550E-03  0.1192061E+04  0.7818609E-02  0.9119834E-01
        2   -1    0    0  501    0  0.00000000000E+00  0.00000000000E+00  0.83166790505E+03  0.83166790505E+03  0.25500000920E-02 0.  1.
       -2   -1    0    0    0  501  0.00000000000E+00  0.00000000000E+00 -0.42715680535E+03  0.42715680536E+03  0.25500000920E-02 0. -1.
    10030    2    1    2    0    0  0.00000000000E+00  0.00000000000E+00  0.40451109970E+03  0.12588247104E+04  0.11920614169E+04 0.  0.
        3    1    3    3  502    0  0.41506141651E+02 -0.53809678399E+03 -0.64857108563E+02  0.54357829562E+03  0.10100000352E+00 0. -1.
       -3    1    3    3    0  502 -0.41506141651E+02  0.53809678399E+03  0.46936820826E+03  0.71524641479E+03  0.10100000352E+00 0.  1.
</event>
<event>
 5   0  0.6137750E-04  0.1195119E+04  0.7818609E-02  0.9117140E-01
       -4   -1    0    0    0  501  0.00000000000E+00  0.00000000000E+00  0.95313271638E+03  0.95313356248E+03  0.12699999809E+01 0.  1.
        4   -1    0    0  501    0  0.00000000000E+00  0.00000000000E+00 -0.37463310972E+03  0.37463526236E+03  0.12699999809E+01 0. -1.
    10030    2    1    2    0    0  0.00000000000E+00  0.00000000000E+00  0.57849960666E+03  0.13277688248E+04  0.11951185118E+04 0.  0.
        4    1    3    3  502    0  0.25627818801E+03  0.58823171688E+02 -0.30690639397E+03  0.40414331955E+03  0.12699999809E+01 0. -1.
       -4    1    3    3    0  502 -0.25627818801E+03 -0.58823171688E+02  0.88540600062E+03  0.92362550529E+03  0.12699999809E+01 0.  1.
</event>
<event>
 5   0  0.1647550E-03  0.1190847E+04  0.7818609E-02  0.9120906E-01
        2   -1    0    0  501    0  0.00000000000E+00  0.00000000000E+00  0.17824408721E+04  0.17824408721E+04  0.25500000920E-02 0.  1.
       -2   -1    0    0    0  501  0.00000000000E+00  0.00000000000E+00 -0.19890108343E+03  0.19890108345E+03  0.25500000920E-02 0. -1.
    10030    2    1    2    0    0  0.00000000000E+00  0.00000000000E+00  0.15835397887E+04  0.19813419556E+04  0.11908474640E+04 0.  0.
        3    1    3    3  502    0 -0.16242746589E+03  0.56959868478E+03  0.89303101286E+03  0.10716014854E+04  0.10100000352E+00 0.  1.
       -3    1    3    3    0  502  0.16242746589E+03 -0.56959868478E+03  0.69050877584E+03  0.90974047018E+03  0.10100000352E+00 0. -1.
</event>
<event>
 5   0  0.1537557E-03  0.1200212E+04  0.7818609E-02  0.9112671E-01
        2   -1    0    0  501    0  0.00000000000E+00  0.00000000000E+00  0.53505356147E+03  0.53505356148E+03  0.25500000920E-02 0. -1.
       -2   -1    0    0    0  501  0.00000000000E+00  0.00000000000E+00 -0.67306761712E+03  0.67306761712E+03  0.25500000920E-02 0.  1.
    10030    2    1    2    0    0  0.00000000000E+00  0.00000000000E+00 -0.13801405565E+03  0.12081211786E+04  0.12002120240E+04 0.  0.
        2    1    3    3  502    0 -0.62745742521E+02  0.46617282625E+03  0.30610550909E+03  0.56120826334E+03  0.25500000920E-02 0. -1.
       -2    1    3    3    0  502  0.62745742521E+02 -0.46617282625E+03 -0.44411956474E+03  0.64691291526E+03  0.25500000920E-02 0.  1.
</event>
<event>
 5   0  0.1647550E-03  0.1194504E+04  0.7818609E-02  0.9117681E-01
       -2   -1    0    0    0  501  0.00000000000E+00  0.00000000000E+00  0.14082206302E+04  0.14082206302E+04  0.25500000920E-02 0.  1.
        2   -1    0    0  501    0  0.00000000000E+00  0.00000000000E+00 -0.25330545348E+03  0.25330545349E+03  0.25500000920E-02 0. -1.
    10030    2    1    2    0    0  0.00000000000E+00  0.00000000000E+00  0.11549151767E+04  0.16615260837E+04  0.11945040232E+04 0.  0.
        3    1    3    3  502    0 -0.30805851009E+03 -0.51078245093E+03  0.61944564409E+03  0.85994864614E+03  0.10100000352E+00 0. -1.
       -3    1    3    3    0  502  0.30805851009E+03  0.51078245093E+03  0.53546953266E+03  0.80157743757E+03  0.10100000352E+00 0.  1.
</event>
<event>
 5   0  0.9208078E-04  0.1208146E+04  0.7818609E-02  0.9105756E-01
        1   -1    0    0  501    0  0.00000000000E+00  0.00000000000E+00  0.44772751613E+03  0.44772751615E+03  0.50400001928E-02 0.  1.
       -1   -1    0    0    0  501  0.00000000000E+00  0.00000000000E+00 -0.81501395460E+03  0.81501395461E+03  0.50400001928E-02 0. -1.
    10030    2    1    2    0    0  0.00000000000E+00  0.00000000000E+00 -0.36728643847E+03  0.12627414708E+04  0.12081459738E+04 0.  0.
        3    1    3    3  502    0  0.55072144424E+03  0.20261924144E+03 -0.33792433122E+02  0.58778448847E+03  0.10100000352E+00 0.  1.
       -3    1    3    3    0  502 -0.55072144424E+03 -0.20261924144E+03 -0.33349400535E+03  0.67495698230E+03  0.10100000352E+00 0. -1.
</event>
<event>
 5   0  0.9170776E-04  0.1189960E+04  0.7818609E-02  0.9121691E-01
       -1   -1    0    0    0  501  0.00000000000E+00  0.00000000000E+00  0.52828327732E+03  0.52828327734E+03  0.50400001928E-02 0.  1.
        1   -1    0    0  501    0  0.00000000000E+00  0.00000000000E+00 -0.67009681856E+03  0.67009681858E+03  0.50400001928E-02 0. -1.
    10030    2    1    2    0    0  0.00000000000E+00  0.00000000000E+00 -0.14181354124E+03  0.11983800959E+04  0.11899595681E+04 0.  0.
        5    1    3    3  502    0 -0.78939964587E+02  0.73772310883E+02 -0.66011525448E+03  0.66891562327E+03  0.46999998093E+01 0. -1.
       -5    1    3    3    0  502  0.78939964587E+02 -0.73772310883E+02  0.51830171323E+03  0.52946447265E+03  0.46999998093E+01 0.  1.
</event>
<event>
 5   0  0.1597352E-03  0.1176895E+04  0.7818609E-02  0.9133325E-01
       -2   -1    0    0    0  501  0.00000000000E+00  0.00000000000E+00  0.58868959215E+03  0.58868959215E+03  0.25500000920E-02 0. -1.
        2   -1    0    0  501    0  0.00000000000E+00  0.00000000000E+00 -0.58820504777E+03  0.58820504777E+03  0.25500000920E-02 0.  1.
    10030    2    1    2    0    0  0.00000000000E+00  0.00000000000E+00  0.48454438013E+00  0.11768946399E+04  0.11768945402E+04 0.  0.
        1    1    3    3  502    0  0.21595332872E+03 -0.42637165385E+03  0.34352288951E+03  0.58858865351E+03  0.50400001928E-02 0. -1.
       -1    1    3    3    0  502 -0.21595332872E+03  0.42637165385E+03 -0.34303834513E+03  0.58830598641E+03  0.50400001928E-02 0.  1.
</event>
<event>
 5   0  0.9358428E-04  0.1194256E+04  0.7818609E-02  0.9117899E-01
       -1   -1    0    0    0  501  0.00000000000E+00  0.00000000000E+00  0.43470960477E+03  0.43470960480E+03  0.50400001928E-02 0. -1.
        1   -1    0    0  501    0  0.00000000000E+00  0.00000000000E+00 -0.82023009333E+03  0.82023009335E+03  0.50400001928E-02 0.  1.
    10030    2    1    2    0    0  0.00000000000E+00  0.00000000000E+00 -0.38552048857E+03  0.12549396981E+04  0.11942560860E+04 0.  0.
        2    1    3    3  502    0  0.18238718756E+03 -0.56799723356E+03 -0.16543999416E+03  0.61907700264E+03  0.25500000920E-02 0.  1.
       -2    1    3    3    0  502 -0.18238718756E+03  0.56799723356E+03 -0.22008049441E+03  0.63586269551E+03  0.25500000920E-02 0. -1.
</event>
<event>
 5   0  0.1537557E-03  0.1192389E+04  0.7818609E-02  0.9119545E-01
       -2   -1    0    0    0  501  0.00000000000E+00  0.00000000000E+00  0.21580755611E+03  0.21580755612E+03  0.25500000920E-02 0.  1.
        2   -1    0    0  501    0  0.00000000000E+00  0.00000000000E+00 -0.16470592626E+04  0.16470592626E+04  0.25500000920E-02 0. -1.
    10030    2    1    2    0    0  0.00000000000E+00  0.00000000000E+00 -0.14312517065E+04  0.18628668187E+04  0.11923889202E+04 0.  0.
        2    1    3    3  502    0  0.52937138043E+03  0.18427613509E+03 -0.39829823997E+03  0.68762870821E+03  0.25500000920E-02 0.  1.
       -2    1    3    3    0  502 -0.52937138043E+03 -0.18427613509E+03 -0.10329534665E+04  0.11752381105E+04  0.25500000920E-02 0. -1.
</event>
<event>
 5   0  0.9169078E-04  0.1214146E+04  0.7818609E-02  0.9100563E-01
       -1   -1    0    0    0  501  0.00000000000E+00  0.00000000000E+00  0.15421977490E+03  0.15421977498E+03  0.50400001928E-02 0. -1.
        1   -1    0    0  501    0  0.00000000000E+00  0.00000000000E+00 -0.23896930897E+04  0.23896930897E+04  0.50400001928E-02 0.  1.
    10030    2    1    2    0    0  0.00000000000E+00  0.00000000000E+00 -0.22354733148E+04  0.25439128647E+04  0.12141464994E+04 0.  0.
        1    1    3    3  502    0  0.44781324707E+03 -0.38819075370E+03 -0.13933937668E+04  0.15141911884E+04  0.50400001928E-02 0.  1.
       -1    1    3    3    0  502 -0.44781324707E+03  0.38819075370E+03 -0.84207954796E+03  0.10297216763E+04  0.50400001928E-02 0. -1.
</event>
<event>
 5   0  0.1551501E-03  0.1198881E+04  0.7818609E-02  0.9113837E-01
       -2   -1    0    0    0  501  0.00000000000E+00  0.00000000000E+00  0.87026274533E+03  0.87026274533E+03  0.25500000920E-02 0.  1.
        2   -1    0    0  501    0  0.00000000000E+00  0.00000000000E+00 -0.41289671633E+03  0.41289671634E+03  0.25500000920E-02 0. -1.
    10030    2    1    2    0    0  0.00000000000E+00  0.00000000000E+00  0.45736602900E+03  0.12831594617E+04  0.11988805277E+04 0.  0.
        4    1    3    3  502    0 -0.23098979572E+03 -0.53331268855E+03  0.38579571971E+03  0.69758057581E+03  0.12699999809E+01 0.  1.
       -4    1    3    3    0  502  0.23098979572E+03  0.53331268855E+03  0.71570309291E+02  0.58557888586E+03  0.12699999809E+01 0. -1.
</event>
<event>
 5   0  0.8908478E-04  0.1208459E+04  0.7818609E-02  0.9105485E-01
       -1   -1    0    0    0  501  0.00000000000E+00  0.00000000000E+00  0.12957439479E+03  0.12957439489E+03  0.50400001928E-02 0.  1.
        1   -1    0    0  501    0  0.00000000000E+00  0.00000000000E+00 -0.28176325481E+04  0.28176325481E+04  0.50400001928E-02 0. -1.
    10030    2    1    2    0    0  0.00000000000E+00  0.00000000000E+00 -0.26880581533E+04  0.29472069430E+04  0.12084585758E+04 0.  0.
        4    1    3    3  502    0 -0.49446047836E+03 -0.34645975260E+03 -0.12860132295E+04  0.14206889752E+04  0.12699999809E+01 0. -1.
       -4    1    3    3    0  502  0.49446047836E+03  0.34645975260E+03 -0.14020449238E+04  0.15265179678E+04  0.12699999809E+01 0.  1.
</event>
<event>
 5   0  0.1567019E-03  0.1130550E+04  0.7818609E-02  0.9175917E-01
        2   -1    0    0  501    0  0.00000000000E+00  0.00000000000E+00  0.19901252074E+03  0.19901252075E+03  0.25500000920E-02 0. -1.
       -2   -1    0    0    0  501  0.00000000000E+00  0.00000000000E+00 -0.16056067647E+04  0.16056067647E+04  0.25500000920E-02 0.  1.
    10030    2    1    2    0    0  0.00000000000E+00  0.00000000000E+00 -0.14065942439E+04  0.18046192854E+04  0.11305500424E+04 0.  0.
        5    1    3    3  502    0 -0.20758919796E+03  0.45517941250E+03 -0.11232976426E+04  0.12296752647E+04  0.46999998093E+01 0. -1.
       -5    1    3    3    0  502  0.20758919796E+03 -0.45517941250E+03 -0.28329660131E+03  0.57494402074E+03  0.46999998093E+01 0.  1.
</event>
<event>
 5   0  0.9358428E-04  0.1195441E+04  0.7818609E-02  0.9116856E-01
        1   -1    0    0  501    0  0.00000000000E+00  0.00000000000E+00  0.77980244103E+03  0.77980244104E+03  0.50400001928E-02 0.  1.
       -1   -1    0    0    0  501  0.00000000000E+00  0.00000000000E+00 -0.45815438741E+03  0.45815438744E+03  0.50400001928E-02 0. -1.
    10030    2    1    2    0    0  0.00000000000E+00  0.00000000000E+00  0.32164805361E+03  0.12379568285E+04  0.11954411900E+04 0.  0.
        2    1    3    3  502    0  0.19171631226E+03 -0.36358111116E+02  0.74588868318E+03  0.77099091066E+03  0.25500000920E-02 0.  1.
       -2    1    3    3    0  502 -0.19171631226E+03  0.36358111116E+02 -0.42424062956E+03  0.46696591782E+03  0.25500000920E-02 0. -1.
</event>
<event>
 5   0  0.9208078E-04  0.1192712E+04  0.7818609E-02  0.9119260E-01
       -1   -1    0    0    0  501  0.00000000000E+00  0.00000000000E+00  0.69893194919E+03  0.69893194921E+03  0.50400001928E-02 0.  1.
        1   -1    0    0  501    0  0.00000000000E+00  0.00000000000E+00 -0.50883386663E+03  0.50883386665E+03  0.50400001928E-02 0. -1.
    10030    2    1    2    0    0  0.00000000000E+00  0.00000000000E+00  0.19009808256E+03  0.12077658159E+04  0.11927116101E+04 0.  0.
        3    1    3    3  502    0  0.42699677194E+03  0.37186494923E+03  0.28457563580E+03  0.63371372591E+03  0.10100000352E+00 0.  1.
       -3    1    3    3    0  502 -0.42699677194E+03 -0.37186494923E+03 -0.94477553234E+02  0.57405208995E+03  0.10100000352E+00 0. -1.
</event>
<event>
 5   0  0.1597352E-03  0.1204749E+04  0.7818609E-02  0.9108710E-01
       -2   -1    0    0    0  501  0.00000000000E+00  0.00000000000E+00  0.20318417488E+03  0.20318417490E+03  0.25500000920E-02 0. -1.
        2   -1    0    0  501    0  0.00000000000E+00  0.00000000000E+00 -0.17858420110E+04  0.17858420110E+04  0.25500000920E-02 0.  1.
    10030    2    1    2    0    0  0.00000000000E+00  0.00000000000E+00 -0.15826578362E+04  0.19890261859E+04  0.12047486634E+04 0.  0.
        1    1    3    3  502    0 -0.37957565041E+03  0.18169638844E+03 -0.79747927375E+02  0.42831178352E+03  0.50400001928E-02 0. -1.
       -1    1    3    3    0  502  0.37957565041E+03 -0.18169638844E+03 -0.15029099088E+04  0.15607144024E+04  0.50400001928E-02 0.  1.
</event>
<event>
 5   0  0.9208078E-04  0.1204402E+04  0.7818609E-02  0.9109012E-01
       -1   -1    0    0    0  501  0.00000000000E+00  0.00000000000E+00  0.36329978273E+03  0.36329978277E+03  0.50400001928E-02 0.  1.
        1   -1    0    0  501    0  0.00000000000E+00  0.00000000000E+00 -0.99820084358E+03  0.99820084360E+03  0.50400001928E-02 0. -1.
    10030    2    1    2    0    0  0.00000000000E+00  0.00000000000E+00 -0.63490106085E+03  0.13615006264E+04  0.12044021747E+04 0.  0.
        3    1    3    3  502    0  0.41331885382E+03 -0.20188493925E+03  0.12190439537E+03  0.47586835935E+03  0.10100000352E+00 0.  1.
       -3    1    3    3    0  502 -0.41331885382E+03  0.20188493925E+03 -0.75680545622E+03  0.88563226702E+03  0.10100000352E+00 0. -1.
</event>
<event>
 5   0  0.1597352E-03  0.1199759E+04  0.7818609E-02  0.9113068E-01
       -2   -1    0    0    0  501  0.00000000000E+00  0.00000000000E+00  0.26823385098E+03  0.26823385099E+03  0.25500000920E-02 0.  1.
        2   -1    0    0  501    0  0.00000000000E+00  0.00000000000E+00 -0.13415734362E+04  0.13415734362E+04  0.25500000920E-02 0. -1.
    10030    2    1    2    0    0  0.00000000000E+00  0.00000000000E+00 -0.10733395852E+04  0.16098072872E+04  0.11997589911E+04 0.  0.
        1    1    3    3  502    0  0.43119977345E+03  0.41197377657E+03 -0.44971515895E+03  0.74692661046E+03  0.50400001928E-02 0.  1.
       -1    1    3    3    0  502 -0.43119977345E+03 -0.41197377657E+03 -0.62362442630E+03  0.86288067675E+03  0.50400001928E-02 0. -1.
</event>
<event>
 5   0  0.9208078E-04  0.1202765E+04  0.7818609E-02  0.9110440E-01
       -1   -1    0    0    0  501  0.00000000000E+00  0.00000000000E+00  0.44608900609E+03  0.44608900612E+03  0.50400001928E-02 0. -1.
        1   -1    0    0  501    0  0.00000000000E+00  0.00000000000E+00 -0.81073671251E+03  0.81073671252E+03  0.50400001928E-02 0.  1.
    10030    2    1    2    0    0  0.00000000000E+00  0.00000000000E+00 -0.36464770642E+03  0.12568257186E+04  0.12027647057E+04 0.  0.
        3    1    3    3  502    0 -0.38114605492E+03  0.21499439701E+03 -0.61337672888E+03  0.75347589720E+03  0.10100000352E+00 0.  1.
       -3    1    3    3    0  502  0.38114605492E+03 -0.21499439701E+03  0.24872902247E+03  0.50334982144E+03  0.10100000352E+00 0. -1.
</event>
<event>
 5   0  0.9170776E-04  0.1189745E+04  0.7818609E-02  0.9121881E-01
        1   -1    0    0  501    0  0.00000000000E+00  0.00000000000E+00  0.82143295922E+03  0.82143295924E+03  0.50400001928E-02 0. -1.
       -1   -1    0    0    0  501  0.00000000000E+00  0.00000000000E+00 -0.43079972158E+03  0.43079972161E+03  0.50400001928E-02 0.  1.
    10030    2    1    2    0    0  0.00000000000E+00  0.00000000000E+00  0.39063323764E+03  0.12522326809E+04  0.11897446620E+04 0.  0.
        5    1    3    3  502    0  0.12622886186E+03  0.45015210241E+03  0.58243932313E+03  0.74687903706E+03  0.46999998093E+01 0. -1.
       -5    1    3    3    0  502 -0.12622886186E+03 -0.45015210241E+03 -0.19180608549E+03  0.50535364380E+03  0.46999998093E+01 0.  1.
</event>
<event>
 5   0  0.1551501E-03  0.1198281E+04  0.7818609E-02  0.9114363E-01
       -2   -1    0    0    0  501  0.00000000000E+00  0.00000000000E+00  0.69980673087E+03  0.69980673088E+03  0.25500000920E-02 0.  1.
        2   -1    0    0  501    0  0.00000000000E+00  0.00000000000E+00 -0.51295465412E+03  0.51295465413E+03  0.25500000920E-02 0. -1.
    10030    2    1    2    0    0  0.00000000000E+00  0.00000000000E+00  0.18685207675E+03  0.12127613850E+04  0.11982806342E+04 0.  0.
        4    1    3    3  502    0 -0.89297785295E+02 -0.16298932982E+03  0.66989497644E+03  0.69519817927E+03  0.12699999809E+01 0.  1.
       -4    1    3    3    0  502  0.89297785295E+02  0.16298932982E+03 -0.48304289969E+03  0.51756320574E+03  0.12699999809E+01 0. -1.
</event>
<event>
 5   0  0.1537557E-03  0.1203277E+04  0.7818609E-02  0.9109993E-01
        2   -1    0    0  501    0  0.00000000000E+00  0.00000000000E+00  0.21553876009E+04  0.21553876009E+04  0.25500000920E-02 0.  1.
       -2   -1    0    0    0  501  0.00000000000E+00  0.00000000000E+00 -0.16793679878E+03  0.16793679880E+03  0.25500000920E-02 0. -1.
    10030    2    1    2    0    0  0.00000000000E+00  0.00000000000E+00  0.19874508021E+04  0.23233243997E+04  0.12032770152E+04 0.  0.
        2    1    3    3  502    0  0.16047275936E+03  0.10392996235E+03  0.20951725180E+04  0.21038775686E+04  0.25500000920E-02 0.  1.
       -2    1    3    3    0  502 -0.16047275936E+03 -0.10392996235E+03 -0.10772171591E+03  0.21944683104E+03  0.25500000920E-02 0. -1.
</event>
<event>
 5   0  0.8908478E-04  0.1291144E+04  0.7818609E-02  0.9036617E-01
        1   -1    0    0  501    0  0.00000000000E+00  0.00000000000E+00  0.52299498090E+03  0.52299498092E+03  0.50400001928E-02 0. -1.
       -1   -1    0    0    0  501  0.00000000000E+00  0.00000000000E+00 -0.79687844007E+03  0.79687844009E+03  0.50400001928E-02 0.  1.
    10030    2    1    2    0    0  0.00000000000E+00  0.00000000000E+00 -0.27388345917E+03  0.13198734210E+04  0.12911443367E+04 0.  0.
        4    1    3    3  502    0 -0.43550415923E+03 -0.41220747946E+02 -0.62226741635E+03  0.76064536620E+03  0.12699999809E+01 0.  1.
       -4    1    3    3    0  502  0.43550415923E+03  0.41220747946E+02  0.34838395718E+03  0.55922805481E+03  0.12699999809E+01 0. -1.
</event>
<event>
 5   0  0.6137750E-04  0.1195384E+04  0.7818609E-02  0.9116906E-01
       -3   -1    0    0    0  501  0.00000000000E+00  0.00000000000E+00  0.54879514464E+03  0.54879515393E+03  0.10100000352E+00 0. -1.
        3   -1    0    0  501    0  0.00000000000E+00  0.00000000000E+00 -0.65094575647E+03  0.65094576431E+03  0.10100000352E+00 0.  1.
    10030    2    1    2    0    0  0.00000000000E+00  0.00000000000E+00 -0.10215061183E+03  0.11997409182E+04  0.11953842576E+04 0.  0.
        3    1    3    3  502    0  0.56647673019E+03 -0.87765454299E+02  0.11876677016E+03  0.58540944364E+03  0.10100000352E+00 0. -1.
       -3    1    3    3    0  502 -0.56647673019E+03  0.87765454299E+02 -0.22091738199E+03  0.61433147459E+03  0.10100000352E+00 0.  1.
</event>
<event>
 5   0  0.1567019E-03  0.1202361E+04  0.7818609E-02  0.9110792E-01
        2   -1    0    0  501    0  0.00000000000E+00  0.00000000000E+00  0.70807000504E+03  0.70807000504E+03  0.25500000920E-02 0.  1.
       -2   -1    0    0    0  501  0.00000000000E+00  0.00000000000E+00 -0.51042697509E+03  0.51042697510E+03  0.25500000920E-02 0. -1.
    10030    2    1    2    0    0  0.00000000000E+00  0.00000000000E+00  0.19764302995E+03  0.12184969801E+04  0.12023610620E+04 0.  0.
        5    1    3    3  502    0 -0.46558529514E+03  0.48187969066E+02 -0.28347329570E+03  0.54723938710E+03  0.46999998093E+01 0. -1.
       -5    1    3    3    0  502  0.46558529514E+03 -0.48187969066E+02  0.48111632565E+03  0.67125759304E+03  0.46999998093E+01 0.  1.
</event>
<event>
 5   0  0.8908478E-04  0.1206624E+04  0.7818609E-02  0.9107079E-01
       -1   -1    0    0    0  501  0.00000000000E+00  0.00000000000E+00  0.31784040411E+03  0.31784040415E+03  0.50400001928E-02 0.  1.
        1   -1    0    0  501    0  0.00000000000E+00  0.00000000000E+00 -0.11451820317E+04  0.11451820318E+04  0.50400001928E-02 0. -1.
    10030    2    1    2    0    0  0.00000000000E+00  0.00000000000E+00 -0.82734162763E+03  0.14630224359E+04  0.12066235864E+04 0.  0.
        4    1    3    3  502    0  0.31493516502E+03 -0.32795624703E+03 -0.89447283495E+03  0.10034055628E+04  0.12699999809E+01 0. -1.
       -4    1    3    3    0  502 -0.31493516502E+03  0.32795624703E+03  0.67131207316E+02  0.45961687309E+03  0.12699999809E+01 0.  1.
</event>
<event>
 5   0  0.1551501E-03  0.1212233E+04  0.7818609E-02  0.9102216E-01
       -2   -1    0    0    0  501  0.00000000000E+00  0.00000000000E+00  0.35150089760E+03  0.35150089761E+03  0.25500000920E-02 0.  1.
        2   -1    0    0  501    0  0.00000000000E+00  0.00000000000E+00 -0.10451673466E+04  0.10451673466E+04  0.25500000920E-02 0. -1.
    10030    2    1    2    0    0  0.00000000000E+00  0.00000000000E+00 -0.69366644897E+03  0.13966682442E+04  0.12122330807E+04 0.  0.
        4    1    3    3  502    0  0.38598863289E+03 -0.46703242454E+03 -0.32793182112E+03  0.68894658901E+03  0.12699999809E+01 0. -1.
       -4    1    3    3    0  502 -0.38598863289E+03  0.46703242454E+03 -0.36573462785E+03  0.70772165518E+03  0.12699999809E+01 0.  1.
</event>
<event>
 5   0  0.9358428E-04  0.1211246E+04  0.7818609E-02  0.9103069E-01
        1   -1    0    0  501    0  0.00000000000E+00  0.00000000000E+00  0.66282637723E+03  0.66282637725E+03  0.50400001928E-02 0.  1.
       -1   -1    0    0    0  501  0.00000000000E+00  0.00000000000E+00 -0.55335660613E+03  0.55335660616E+03  0.50400001928E-02 0. -1.
    10030    2    1    2    0    0  0.00000000000E+00  0.00000000000E+00  0.10946977110E+03  0.12161829834E+04  0.12112462253E+04 0.  0.
        2    1    3    3  502    0 -0.21198295568E+03 -0.38751108931E+03  0.47076376164E+03  0.64553864107E+03  0.25500000920E-02 0.  1.
       -2    1    3    3    0  502  0.21198295568E+03  0.38751108931E+03 -0.36129399054E+03  0.57064434234E+03  0.25500000920E-02 0. -1.
</event>
<event>
 5   0  0.9358428E-04  0.1200445E+04  0.7818609E-02  0.9112467E-01
       -1   -1    0    0    0  501  0.00000000000E+00  0.00000000000E+00  0.30020852285E+03  0.30020852290E+03  0.50400001928E-02 0. -1.
        1   -1    0    0  501    0  0.00000000000E+00  0.00000000000E+00 -0.12000561039E+04  0.12000561039E+04  0.50400001928E-02 0.  1.
    10030    2    1    2    0    0  0.00000000000E+00  0.00000000000E+00 -0.89984758100E+03  0.15002646268E+04  0.12004450347E+04 0.  0.
        2    1    3    3  502    0 -0.34902126742E+03  0.30918783207E+03 -0.92228253482E+03  0.10334495801E+04  0.25500000920E-02 0.  1.
       -2    1    3    3    0  502  0.34902126742E+03 -0.30918783207E+03  0.22434953818E+02  0.46681504664E+03  0.25500000920E-02 0. -1.
</event>
<event>
 5   0  0.1537557E-03  0.1199003E+04  0.7818609E-02  0.9113729E-01
       -2   -1    0    0    0  501  0.00000000000E+00  0.00000000000E+00  0.19616080058E+03  0.19616080060E+03  0.25500000920E-02 0.  1.
        2   -1    0    0  501    0  0.00000000000E+00  0.00000000000E+00 -0.18321815498E+04  0.18321815498E+04  0.25500000920E-02 0. -1.
    10030    2    1    2    0    0  0.00000000000E+00  0.00000000000E+00 -0.16360207493E+04  0.20283423504E+04  0.11990032521E+04 0.  0.
        2    1    3    3  502    0  0.16488586139E+03 -0.55208303535E+03 -0.10981329334E+04  0.12401124806E+04  0.25500000920E-02 0.  1.
       -2    1    3    3    0  502 -0.16488586139E+03  0.55208303535E+03 -0.53788781589E+03  0.78822986983E+03  0.25500000920E-02 0. -1.
</event>
<event>
 5   0  0.9170776E-04  0.1197593E+04  0.7818609E-02  0.9114966E-01
        1   -1    0    0  501    0  0.00000000000E+00  0.00000000000E+00  0.23025143340E+04  0.23025143341E+04  0.50400001928E-02 0. -1.
       -1   -1    0    0    0  501  0.00000000000E+00  0.00000000000E+00 -0.15572419870E+03  0.15572419878E+03  0.50400001928E-02 0.  1.
    10030    2    1    2    0    0  0.00000000000E+00  0.00000000000E+00  0.21467901353E+04  0.24582385328E+04  0.11975929188E+04 0.  0.
        5    1    3    3  502    0 -0.57021475512E+03 -0.17855085009E+03  0.99363604942E+03  0.11594653775E+04  0.46999998093E+01 0.  1.
       -5    1    3    3    0  502  0.57021475512E+03  0.17855085009E+03  0.11531540859E+04  0.12987731553E+04  0.46999998093E+01 0. -1.
</event>
<event>
 5   0  0.8908478E-04  0.1125387E+04  0.7818609E-02  0.9180795E-01
        1   -1    0    0  501    0  0.00000000000E+00  0.00000000000E+00  0.44885663272E+03  0.44885663275E+03  0.50400001928E-02 0.  1.
       -1   -1    0    0    0  501  0.00000000000E+00  0.00000000000E+00 -0.70540149178E+03  0.70540149179E+03  0.50400001928E-02 0. -1.
    10030    2    1    2    0    0  0.00000000000E+00  0.00000000000E+00 -0.25654485906E+03  0.11542581245E+04  0.11253872904E+04 0.  0.
        4    1    3    3  502    0 -0.20248353087E+03  0.51847659882E+03 -0.43663972532E+02  0.55832402706E+03  0.12699999809E+01 0.  1.
       -4    1    3    3    0  502  0.20248353087E+03 -0.51847659882E+03 -0.21288088653E+03  0.59593409748E+03  0.12699999809E+01 0. -1.
</event>
<event>
 5   0  0.9170776E-04  0.1200772E+04  0.7818609E-02  0.9112181E-01
       -1   -1    0    0    0  501  0.00000000000E+00  0.00000000000E+00  0.35747624848E+03  0.35747624852E+03  0.50400001928E-02 0.  1.
        1   -1    0    0  501    0  0.00000000000E+00  0.00000000000E+00 -0.10083565966E+04  0.10083565966E+04  0.50400001928E-02 0. -1.
    10030    2    1    2    0    0  0.00000000000E+00  0.00000000000E+00 -0.65088034810E+03  0.13658328451E+04  0.12007723070E+04 0.  0.
        5    1    3    3  502    0 -0.65834066166E+02  0.56391958657E+03 -0.10341057067E+03  0.57710940082E+03  0.46999998093E+01 0.  1.
       -5    1    3    3    0  502  0.65834066166E+02 -0.56391958657E+03 -0.54746977744E+03  0.78872344430E+03  0.46999998093E+01 0. -1.
</event>
<event>
 5   0  0.1537557E-03  0.1203551E+04  0.7818609E-02  0.9109754E-01
       -2   -1    0    0    0  501  0.00000000000E+00  0.00000000000E+00  0.92136756828E+03  0.92136756828E+03  0.25500000920E-02 0.  1.
        2   -1    0    0  501    0  0.00000000000E+00  0.00000000000E+00 -0.39303969335E+03  0.39303969336E+03  0.25500000920E-02 0. -1.
    10030    2    1    2    0    0  0.00000000000E+00  0.00000000000E+00  0.52832787493E+03  0.13144072616E+04  0.12035514555E+04 0.  0.
        2    1    3    3  502    0 -0.82621922250E+02  0.54712718086E+03  0.52251019262E+03  0.76104627683E+03  0.25500000920E-02 0.  1.
       -2    1    3    3    0  502  0.82621922250E+02 -0.54712718086E+03  0.58176823078E+01  0.55336098481E+03  0.25500000920E-02 0. -1.
</event>
<event>
 5   0  0.1537557E-03  0.1200544E+04  0.7818609E-02  0.9112380E-01
        2   -1    0    0  501    0  0.00000000000E+00  0.00000000000E+00  0.43234293933E+03  0.43234293934E+03  0.25500000920E-02 0. -1.
       -2   -1    0    0    0  501  0.00000000000E+00  0.00000000000E+00 -0.83342750291E+03  0.83342750291E+03  0.25500000920E-02 0.  1.
    10030    2    1    2    0    0  0.00000000000E+00  0.00000000000E+00 -0.40108456358E+03  0.12657704423E+04  0.12005440372E+04 0.  0.
        2    1    3    3  502    0  0.34225030958E+03  0.12380755254E+03 -0.70382692207E+03  0.79236097879E+03  0.25500000920E-02 0.  1.
       -2    1    3    3    0  502 -0.34225030958E+03 -0.12380755254E+03  0.30274235848E+03  0.47340946347E+03  0.25500000920E-02 0. -1.
</event>
<event>
 5   0  0.8908478E-04  0.1219784E+04  0.7818609E-02  0.9095714E-01
        1   -1    0    0  501    0  0.00000000000E+00  0.00000000000E+00  0.14070175912E+04  0.14070175912E+04  0.50400001928E-02 0. -1.
       -1   -1    0    0    0  501  0.00000000000E+00  0.00000000000E+00 -0.26436658106E+03  0.26436658110E+03  0.50400001928E-02 0.  1.
    10030    2    1    2    0    0  0.00000000000E+00  0.00000000000E+00  0.11426510101E+04  0.16713841723E+04  0.12197842926E+04 0.  0.
        4    1    3    3  502    0  0.79502239397E+02  0.20973425328E+03  0.13484493972E+04  0.13669771223E+04  0.12699999809E+01 0. -1.
       -4    1    3    3    0  502 -0.79502239397E+02 -0.20973425328E+03 -0.20579838710E+03  0.30440705002E+03  0.12699999809E+01 0.  1.
</event>
<event>
 5   0  0.1647550E-03  0.1197738E+04  0.7818609E-02  0.9114838E-01
       -2   -1    0    0    0  501  0.00000000000E+00  0.00000000000E+00  0.25222310815E+03  0.25222310816E+03  0.25500000920E-02 0. -1.
        2   -1    0    0  501    0  0.00000000000E+00  0.00000000000E+00 -0.14219329231E+04  0.14219329231E+04  0.25500000920E-02 0.  1.
    10030    2    1    2    0    0  0.00000000000E+00  0.00000000000E+00 -0.11697098149E+04  0.16741560312E+04  0.11977384380E+04 0.  0.
        3    1    3    3  502    0 -0.25127912395E+03 -0.43315294096E+03 -0.10439554019E+04  0.11578452227E+04  0.10100000352E+00 0.  1.
       -3    1    3    3    0  502  0.25127912395E+03  0.43315294096E+03 -0.12575441301E+03  0.51631080851E+03  0.10100000352E+00 0. -1.
</event>
<event>
 5   0  0.1647550E-03  0.1203300E+04  0.7818609E-02  0.9109973E-01
        2   -1    0    0  501    0  0.00000000000E+00  0.00000000000E+00  0.26626203359E+04  0.26626203359E+04  0.25500000920E-02 0. -1.
       -2   -1    0    0    0  501  0.00000000000E+00  0.00000000000E+00 -0.13594974628E+03  0.13594974631E+03  0.25500000920E-02 0.  1.
    10030    2    1    2    0    0  0.00000000000E+00  0.00000000000E+00  0.25266705897E+04  0.27985700823E+04  0.12032997285E+04 0.  0.
        3    1    3    3  502    0 -0.31310600947E+03 -0.50579300692E+03  0.10537519856E+04  0.12100641290E+04  0.10100000352E+00 0.  1.
       -3    1    3    3    0  502  0.31310600947E+03  0.50579300692E+03  0.14729186041E+04  0.15885059532E+04  0.10100000352E+00 0. -1.
</event>
<event>
 5   0  0.1551501E-03  0.1219408E+04  0.7818609E-02  0.9096037E-01
        2   -1    0    0  501    0  0.00000000000E+00  0.00000000000E+00  0.16242356884E+04  0.16242356884E+04  0.25500000920E-02 0. -1.
       -2   -1    0    0    0  501  0.00000000000E+00  0.00000000000E+00 -0.22886998340E+03  0.22886998342E+03  0.25500000920E-02 0.  1.
    10030    2    1    2    0    0  0.00000000000E+00  0.00000000000E+00  0.13953657050E+04  0.18531056719E+04  0.12194077170E+04 0.  0.
        4    1    3    3  502    0  0.24277093747E+03  0.54648420796E+03  0.51688304301E+03  0.79041281030E+03  0.12699999809E+01 0.  1.
       -4    1    3    3    0  502 -0.24277093747E+03 -0.54648420796E+03  0.87848266202E+03  0.10626928616E+04  0.12699999809E+01 0. -1.
</event>
<event>
 5   0  0.8908478E-04  0.1198651E+04  0.7818609E-02  0.9114038E-01
        1   -1    0    0  501    0  0.00000000000E+00  0.00000000000E+00  0.82019692275E+03  0.82019692277E+03  0.50400001928E-02 0. -1.
       -1   -1    0    0    0  501  0.00000000000E+00  0.00000000000E+00 -0.43793287993E+03  0.43793287996E+03  0.50400001928E-02 0.  1.
    10030    2    1    2    0    0  0.00000000000E+00  0.00000000000E+00  0.38226404282E+03  0.12581298027E+04  0.11986512429E+04 0.  0.
        4    1    3    3  502    0 -0.11837918366E+02 -0.81931681079E+02 -0.43190165371E+03  0.43976537842E+03  0.12699999809E+01 0.  1.
       -4    1    3    3    0  502  0.11837918366E+02  0.81931681079E+02  0.81416569653E+03  0.81836442431E+03  0.12699999809E+01 0. -1.
</event>
<event>
 5   0  0.8908478E-04  0.1200437E+04  0.7818609E-02  0.9112475E-01
       -1   -1    0    0    0  501  0.00000000000E+00  0.00000000000E+00  0.23778675609E+03  0.23778675614E+03  0.50400001928E-02 0.  1.
        1   -1    0    0  501    0  0.00000000000E+00  0.00000000000E+00 -0.15150632621E+04  0.15150632622E+04  0.50400001928E-02 0. -1.
    10030    2    1    2    0    0  0.00000000000E+00  0.00000000000E+00 -0.12772765061E+04  0.17528500183E+04  0.12004365513E+04 0.  0.
        4    1    3    3  502    0 -0.29523325320E+03 -0.22963697760E+03  0.46812744389E+02  0.37694676177E+03  0.12699999809E+01 0.  1.
       -4    1    3    3    0  502  0.29523325320E+03  0.22963697760E+03 -0.13240892504E+04  0.13759032565E+04  0.12699999809E+01 0. -1.
</event>
<event>
 5   0  0.1567019E-03  0.1203357E+04  0.7818609E-02  0.9109923E-01
       -2   -1    0    0    0  501  0.00000000000E+00  0.00000000000E+00  0.18758696642E+04  0.18758696642E+04  0.25500000920E-02 0.  1.
        2   -1    0    0  501    0  0.00000000000E+00  0.00000000000E+00 -0.19298637919E+03  0.19298637920E+03  0.25500000920E-02 0. -1.
    10030    2    1    2    0    0  0.00000000000E+00  0.00000000000E+00  0.16828832850E+04  0.20688560434E+04  0.12033574603E+04 0.  0.
        5    1    3    3  502    0 -0.51225062658E+03 -0.20087599921E+03  0.12599029993E+04  0.13748198170E+04  0.46999998093E+01 0.  1.
       -5    1    3    3    0  502  0.51225062658E+03  0.20087599921E+03  0.42298028570E+03  0.69403622642E+03  0.46999998093E+01 0. -1.
</event>
<event>
 5   0  0.8908478E-04  0.1206128E+04  0.7818609E-02  0.9107510E-01
       -1   -1    0    0    0  501  0.00000000000E+00  0.00000000000E+00  0.29814725496E+03  0.29814725501E+03  0.50400001928E-02 0. -1.
        1   -1    0    0  501    0  0.00000000000E+00  0.00000000000E+00 -0.12198201575E+04  0.12198201575E+04  0.50400001928E-02 0.  1.
    10030    2    1    2    0    0  0.00000000000E+00  0.00000000000E+00 -0.92167290250E+03  0.15179674125E+04  0.12061277404E+04 0.  0.
        4    1    3    3  502    0 -0.42855940310E+03  0.40987752588E+03 -0.32284520049E+03  0.67519877413E+03  0.12699999809E+01 0. -1.
       -4    1    3    3    0  502  0.42855940310E+03 -0.40987752588E+03 -0.59882770201E+03  0.84276863836E+03  0.12699999809E+01 0.  1.
</event>
<event>
 5   0  0.1647550E-03  0.1202102E+04  0.7818609E-02  0.9111019E-01
       -2   -1    0    0    0  501  0.00000000000E+00  0.00000000000E+00  0.91308103253E+03  0.91308103253E+03  0.25500000920E-02 0. -1.
        2   -1    0    0  501    0  0.00000000000E+00  0.00000000000E+00 -0.39565188309E+03  0.39565188309E+03  0.25500000920E-02 0.  1.
    10030    2    1    2    0    0  0.00000000000E+00  0.00000000000E+00  0.51742914945E+03  0.13087329156E+04  0.12021018758E+04 0.  0.
        3    1    3    3  502    0 -0.28130492484E+03  0.14829846229E+03 -0.29656421607E+03  0.43482782698E+03  0.10100000352E+00 0.  1.
       -3    1    3    3    0  502  0.28130492484E+03 -0.14829846229E+03  0.81399336552E+03  0.87390508865E+03  0.10100000352E+00 0. -1.
</event>
<event>
 5   0  0.1647550E-03  0.1280494E+04  0.7818609E-02  0.9045178E-01
        2   -1    0    0  501    0  0.00000000000E+00  0.00000000000E+00  0.25056081981E+04  0.25056081981E+04  0.25500000920E-02 0.  1.
       -2   -1    0    0    0  501  0.00000000000E+00  0.00000000000E+00 -0.16359945079E+03  0.16359945081E+03  0.25500000920E-02 0. -1.
    10030    2    1    2    0    0  0.00000000000E+00  0.00000000000E+00  0.23420087473E+04  0.26692076489E+04  0.12804938502E+04 0.  0.
        3    1    3    3  502    0 -0.26138132068E+03 -0.45522066813E+03  0.19351147983E+04  0.20050474668E+04  0.10100000352E+00 0.  1.
       -3    1    3    3    0  502  0.26138132068E+03  0.45522066813E+03  0.40689394896E+03  0.66416018203E+03  0.10100000352E+00 0. -1.
</event>
<event>
 5   0  0.8908478E-04  0.1213398E+04  0.7818609E-02  0.9101210E-01
        1   -1    0    0  501    0  0.00000000000E+00  0.00000000000E+00  0.22522726347E+04  0.22522726347E+04  0.50400001928E-02 0.  1.
       -1   -1    0    0    0  501  0.00000000000E+00  0.00000000000E+00 -0.16342756666E+03  0.16342756674E+03  0.50400001928E-02 0. -1.
    10030    2    1    2    0    0  0.00000000000E+00  0.00000000000E+00  0.20888450680E+04  0.24157002014E+04  0.12133976038E+04 0.  0.
        4    1    3    3  502    0 -0.58572029501E+03 -0.35995073281E+02  0.73781829993E+03  0.94273080245E+03  0.12699999809E+01 0. -1.
       -4    1    3    3    0  502  0.58572029501E+03  0.35995073281E+02  0.13510267681E+04  0.14729693990E+04  0.12699999809E+01 0.  1.
</event>
<event>
 5   0  0.9208078E-04  0.1198154E+04  0.7818609E-02  0.9114473E-01
        1   -1    0    0  501    0  0.00000000000E+00  0.00000000000E+00  0.31245871888E+03  0.31245871892E+03  0.50400001928E-02 0.  1.
       -1   -1    0    0    0  501  0.00000000000E+00  0.00000000000E+00 -0.11486109736E+04  0.11486109736E+04  0.50400001928E-02 0. -1.
    10030    2    1    2    0    0  0.00000000000E+00  0.00000000000E+00 -0.83615225470E+03  0.14610696925E+04  0.11981544363E+04 0.  0.
        3    1    3    3  502    0  0.33721377910E+03  0.37709144036E+03 -0.26749256679E+02  0.50658328055E+03  0.10100000352E+00 0.  1.
       -3    1    3    3    0  502 -0.33721377910E+03 -0.37709144036E+03 -0.80940299802E+03  0.95448641196E+03  0.10100000352E+00 0. -1.
</event>
<event>
 5   0  0.8908478E-04  0.1194684E+04  0.7818609E-02  0.9117522E-01
        1   -1    0    0  501    0  0.00000000000E+00  0.00000000000E+00  0.35448235490E+03  0.35448235494E+03  0.50400001928E-02 0.  1.
       -1   -1    0    0    0  501  0.00000000000E+00  0.00000000000E+00 -0.10065881878E+04  0.10065881879E+04  0.50400001928E-02 0. -1.
    10030    2    1    2    0    0  0.00000000000E+00  0.00000000000E+00 -0.65210583295E+03  0.13610705428E+04  0.11946844793E+04 0.  0.
        4    1    3    3  502    0 -0.27782649696E+03  0.40441938203E+03 -0.71419794407E+03  0.86650038383E+03  0.12699999809E+01 0. -1.
       -4    1    3    3    0  502  0.27782649696E+03 -0.40441938203E+03  0.62092111120E+02  0.49457015896E+03  0.12699999809E+01 0.  1.
</event>
<event>
 5   0  0.1567019E-03  0.1152384E+04  0.7818609E-02  0.9155587E-01
       -2   -1    0    0    0  501  0.00000000000E+00  0.00000000000E+00  0.35044070823E+03  0.35044070823E+03  0.25500000920E-02 0.  1.
        2   -1    0    0  501    0  0.00000000000E+00  0.00000000000E+00 -0.94737137596E+03  0.94737137597E+03  0.25500000920E-02 0. -1.
    10030    2    1    2    0    0  0.00000000000E+00  0.00000000000E+00 -0.59693066774E+03  0.12978120842E+04  0.11523844774E+04 0.  0.
        5    1    3    3  502    0  0.62795248136E+02 -0.56441772676E+03 -0.18890080835E+03  0.59851166978E+03  0.46999998093E+01 0.  1.
       -5    1    3    3    0  502 -0.62795248136E+02  0.56441772676E+03 -0.40802985939E+03  0.69930041442E+03  0.46999998093E+01 0. -1.
</event>
<event>
 5   0  0.8908478E-04  0.1206193E+04  0.7818609E-02  0.9107453E-01
       -1   -1    0    0    0  501  0.00000000000E+00  0.00000000000E+00  0.33042397584E+03  0.33042397588E+03  0.50400001928E-02 0. -1.
        1   -1    0    0  501    0  0.00000000000E+00  0.00000000000E+00 -0.11007833039E+04  0.11007833039E+04  0.50400001928E-02 0.  1.
    10030    2    1    2    0    0  0.00000000000E+00  0.00000000000E+00 -0.77035932810E+03  0.14312072798E+04  0.12061926809E+04 0.  0.
        4    1    3    3  502    0  0.48659480054E+03 -0.30232898223E+03 -0.16147096993E+03  0.59519055809E+03  0.12699999809E+01 0. -1.
       -4    1    3    3    0  502 -0.48659480054E+03  0.30232898223E+03 -0.60888835817E+03  0.83601672174E+03  0.12699999809E+01 0.  1.
</event>
<event>
 5   0  0.6137750E-04  0.1219725E+04  0.7818609E-02  0.9095765E-01
        3   -1    0    0  501    0  0.00000000000E+00  0.00000000000E+00  0.21409083341E+04  0.21409083365E+04  0.10100000352E+00 0.  1.
       -3   -1    0    0    0  501  0.00000000000E+00  0.00000000000E+00 -0.17372624515E+03  0.17372627451E+03  0.10100000352E+00 0. -1.
    10030    2    1    2    0    0  0.00000000000E+00  0.00000000000E+00  0.19671820890E+04  0.23146346110E+04  0.12197245637E+04 0.  0.
        4    1    3    3  502    0 -0.22315499095E+03  0.48015240142E+03  0.15578860092E+04  0.16454041781E+04  0.12699999809E+01 0.  1.
       -4    1    3    3    0  502  0.22315499095E+03 -0.48015240142E+03  0.40929607976E+03  0.66923043295E+03  0.12699999809E+01 0. -1.
</event>
<event>
 5   0  0.9358428E-04  0.1208919E+04  0.7818609E-02  0.9105085E-01
        1   -1    0    0  501    0  0.00000000000E+00  0.00000000000E+00  0.14519119341E+04  0.14519119341E+04  0.50400001928E-02 0. -1.
       -1   -1    0    0    0  501  0.00000000000E+00  0.00000000000E+00 -0.25164854465E+03  0.25164854470E+03  0.50400001928E-02 0.  1.
    10030    2    1    2    0    0  0.00000000000E+00  0.00000000000E+00  0.12002633894E+04  0.17035604788E+04  0.12089193939E+04 0.  0.
        2    1    3    3  502    0 -0.39895374789E+03  0.37253275347E+03  0.96604349991E+03  0.11095876662E+04  0.25500000920E-02 0. -1.
       -2    1    3    3    0  502  0.39895374789E+03 -0.37253275347E+03  0.23421988950E+03  0.59397281252E+03  0.25500000920E-02 0.  1.
</event>
<event>
 5   0  0.9170776E-04  0.1197621E+04  0.7818609E-02  0.9114942E-01
       -1   -1    0    0    0  501  0.00000000000E+00  0.00000000000E+00  0.27365748168E+03  0.27365748173E+03  0.50400001928E-02 0. -1.
        1   -1    0    0  501    0  0.00000000000E+00  0.00000000000E+00 -0.13103013404E+04  0.13103013405E+04  0.50400001928E-02 0.  1.
    10030    2    1    2    0    0  0.00000000000E+00  0.00000000000E+00 -0.10366438588E+04  0.15839588222E+04  0.11976205828E+04 0.  0.
        5    1    3    3  502    0  0.52760412505E+03 -0.10704818390E+03 -0.17159629189E+03  0.56506000021E+03  0.46999998093E+01 0. -1.
       -5    1    3    3    0  502 -0.52760412505E+03  0.10704818390E+03 -0.86504756687E+03  0.10188988220E+04  0.46999998093E+01 0.  1.
</event>
<event>
 5   0  0.1537557E-03  0.1198781E+04  0.7818609E-02  0.9113924E-01
       -2   -1    0    0    0  501  0.00000000000E+00  0.00000000000E+00  0.32105627984E+03  0.32105627985E+03  0.25500000920E-02 0.  1.
        2   -1    0    0  501    0  0.00000000000E+00  0.00000000000E+00 -0.11190216579E+04  0.11190216579E+04  0.25500000920E-02 0. -1.
    10030    2    1    2    0    0  0.00000000000E+00  0.00000000000E+00 -0.79796537809E+03  0.14400779378E+04  0.11987809317E+04 0.  0.
        2    1    3    3  502    0  0.22616152790E+03 -0.31701190037E+03 -0.94635681734E+03  0.10233458885E+04  0.25500000920E-02 0. -1.
       -2    1    3    3    0  502 -0.22616152790E+03  0.31701190037E+03  0.14839143926E+03  0.41673204932E+03  0.25500000920E-02 0.  1.
</event>
<event>
 5   0  0.1551501E-03  0.1209189E+04  0.7818609E-02  0.9104851E-01
        2   -1    0    0  501    0  0.00000000000E+00  0.00000000000E+00  0.52937297979E+03  0.52937297980E+03  0.25500000920E-02 0. -1.
       -2   -1    0    0    0  501  0.00000000000E+00  0.00000000000E+00 -0.69050489441E+03  0.69050489441E+03  0.25500000920E-02 0.  1.
    10030    2    1    2    0    0  0.00000000000E+00  0.00000000000E+00 -0.16113191462E+03  0.12198778742E+04  0.12091892052E+04 0.  0.
        4    1    3    3  502    0 -0.49821067814E+03  0.33779340807E+03 -0.23365963290E+02  0.60238347213E+03  0.12699999809E+01 0. -1.
       -4    1    3    3    0  502  0.49821067814E+03 -0.33779340807E+03 -0.13776595133E+03  0.61749440208E+03  0.12699999809E+01 0.  1.
</event>
<event>
 5   0  0.1647550E-03  0.1198142E+04  0.7818609E-02  0.9114484E-01
       -2   -1    0    0    0  501  0.00000000000E+00  0.00000000000E+00  0.47555097579E+03  0.47555097580E+03  0.25500000920E-02 0.  1.
        2   -1    0    0  501    0  0.00000000000E+00  0.00000000000E+00 -0.75467468651E+03  0.75467468651E+03  0.25500000920E-02 0. -1.
    10030    2    1    2    0    0  0.00000000000E+00  0.00000000000E+00 -0.27912371072E+03  0.12302256623E+04  0.11981423681E+04 0.  0.
        3    1    3    3  502    0  0.32801939347E+03  0.26278274547E+03  0.29875885297E+03  0.51566302585E+03  0.10100000352E+00 0.  1.
       -3    1    3    3    0  502 -0.32801939347E+03 -0.26278274547E+03 -0.57788256369E+03  0.71456263646E+03  0.10100000352E+00 0. -1.
</event>
<event>
 5   0  0.8908478E-04  0.1194244E+04  0.7818609E-02  0.9117910E-01
        1   -1    0    0  501    0  0.00000000000E+00  0.00000000000E+00  0.22192349205E+03  0.22192349211E+03  0.50400001928E-02 0.  1.
       -1   -1    0    0    0  501  0.00000000000E+00  0.00000000000E+00 -0.16066546271E+04  0.16066546271E+04  0.50400001928E-02 0. -1.
    10030    2    1    2    0    0  0.00000000000E+00  0.00000000000E+00 -0.13847311350E+04  0.18285781192E+04  0.11942435353E+04 0.  0.
        4    1    3    3  502    0  0.41321861664E+03  0.25039458443E+03 -0.12295949223E+04  0.13211178445E+04  0.12699999809E+01 0. -1.
       -4    1    3    3    0  502 -0.41321861664E+03 -0.25039458443E+03 -0.15513621272E+03  0.50746027474E+03  0.12699999809E+01 0.  1.
</event>
<event>
 5   0  0.9208078E-04  0.1195820E+04  0.7818609E-02  0.9116523E-01
       -1   -1    0    0    0  501  0.00000000000E+00  0.00000000000E+00  0.20153518687E+03  0.20153518693E+03  0.50400001928E-02 0. -1.
        1   -1    0    0  501    0  0.00000000000E+00  0.00000000000E+00 -0.17738671941E+04  0.17738671941E+04  0.50400001928E-02 0.  1.
    10030    2    1    2    0    0  0.00000000000E+00  0.00000000000E+00 -0.15723320072E+04  0.19754023810E+04  0.11958204824E+04 0.  0.
        3    1    3    3  502    0  0.25106180446E+03 -0.53924289363E+03 -0.88639995791E+03  0.10674829383E+04  0.10100000352E+00 0.  1.
       -3    1    3    3    0  502 -0.25106180446E+03  0.53924289363E+03 -0.68593204929E+03  0.90791944270E+03  0.10100000352E+00 0. -1.
</event>
<event>
 5   0  0.9170776E-04  0.1204105E+04  0.7818609E-02  0.9109271E-01
        1   -1    0    0  501    0  0.00000000000E+00  0.00000000000E+00  0.47017537926E+03  0.47017537928E+03  0.50400001928E-02 0. -1.
       -1   -1    0    0    0  501  0.00000000000E+00  0.00000000000E+00 -0.77091956632E+03  0.77091956634E+03  0.50400001928E-02 0.  1.
    10030    2    1    2    0    0  0.00000000000E+00  0.00000000000E+00 -0.30074418707E+03  0.12410949456E+04  0.12041053102E+04 0.  0.
        5    1    3    3  502    0 -0.39137952175E+03 -0.32068622752E+03 -0.48662645058E+03  0.70202918669E+03  0.46999998093E+01 0. -1.
       -5    1    3    3    0  502  0.39137952175E+03  0.32068622752E+03  0.18588226351E+03  0.53906575893E+03  0.46999998093E+01 0.  1.
</event>
<event>
 5   0  0.9170776E-04  0.1196432E+04  0.7818609E-02  0.9115986E-01
        1   -1    0    0  501    0  0.00000000000E+00  0.00000000000E+00  0.12171843861E+04  0.12171843861E+04  0.50400001928E-02 0. -1.
       -1   -1    0    0    0  501  0.00000000000E+00  0.00000000000E+00 -0.29400825886E+03  0.29400825890E+03  0.50400001928E-02 0.  1.
    10030    2    1    2    0    0  0.00000000000E+00  0.00000000000E+00  0.92317612722E+03  0.15111926450E+04  0.11964317985E+04 0.  0.
        5    1    3    3  502    0 -0.51610979384E+03 -0.28042640453E+03  0.60466746159E+03  0.84300244173E+03  0.46999998093E+01 0. -1.
       -5    1    3    3    0  502  0.51610979384E+03  0.28042640453E+03  0.31850866562E+03  0.66819020326E+03  0.46999998093E+01 0.  1.
</event>
<event>
 5   0  0.1537557E-03  0.1218872E+04  0.7818609E-02  0.9096496E-01
       -2   -1    0    0    0  501  0.00000000000E+00  0.00000000000E+00  0.34025773121E+03  0.34025773122E+03  0.25500000920E-02 0. -1.
        2   -1    0    0  501    0  0.00000000000E+00  0.00000000000E+00 -0.10915623251E+04  0.10915623251E+04  0.25500000920E-02 0.  1.
    10030    2    1    2    0    0  0.00000000000E+00  0.00000000000E+00 -0.75130459389E+03  0.14318200563E+04  0.12188724629E+04 0.  0.
        2    1    3    3  502    0  0.30865413670E+03 -0.33614011317E+03 -0.85014586289E+03  0.96488628345E+03  0.25500000920E-02 0.  1.
       -2    1    3    3    0  502 -0.30865413670E+03  0.33614011317E+03  0.98841269001E+02  0.46693377287E+03  0.25500000920E-02 0. -1.
</event>
<event>
 5   0  0.1537557E-03  0.1199000E+04  0.7818609E-02  0.9113733E-01
       -2   -1    0    0    0  501  0.00000000000E+00  0.00000000000E+00  0.28537922573E+03  0.28537922574E+03  0.25500000920E-02 0.  1.
        2   -1    0    0  501    0  0.00000000000E+00  0.00000000000E+00 -0.12593769448E+04  0.12593769449E+04  0.25500000920E-02 0. -1.
    10030    2    1    2    0    0  0.00000000000E+00  0.00000000000E+00 -0.97399771912E+03  0.15447561706E+04  0.11989996121E+04 0.  0.
        2    1    3    3  502    0  0.65728048573E+02 -0.36411451309E+03 -0.10947228139E+04  0.11555594292E+04  0.25500000920E-02 0. -1.
       -2    1    3    3    0  502 -0.65728048573E+02  0.36411451309E+03  0.12072509481E+03  0.38919674142E+03  0.25500000920E-02 0.  1.
</event>
<event>
 5   0  0.9208078E-04  0.1200256E+04  0.7818609E-02  0.9112633E-01
       -1   -1    0    0    0  501  0.00000000000E+00  0.00000000000E+00  0.43256809750E+03  0.43256809753E+03  0.50400001928E-02 0. -1.
        1   -1    0    0  501    0  0.00000000000E+00  0.00000000000E+00 -0.83259335117E+03  0.83259335119E+03  0.50400001928E-02 0.  1.
    10030    2    1    2    0    0  0.00000000000E+00  0.00000000000E+00 -0.40002525368E+03  0.12651614487E+04  0.12002555094E+04 0.  0.
        3    1    3    3  502    0  0.52963739561E+03 -0.94685622992E+02 -0.48023090904E+03  0.72118158201E+03  0.10100000352E+00 0.  1.
       -3    1    3    3    0  502 -0.52963739561E+03  0.94685622992E+02  0.80205655365E+02  0.54397986671E+03  0.10100000352E+00 0. -1.
</event>
<event>
 5   0  0.9169078E-04  0.1205034E+04  0.7818609E-02  0.9108461E-01
       -1   -1    0    0    0  501  0.00000000000E+00  0.00000000000E+00  0.39071814077E+03  0.39071814080E+03  0.50400001928E-02 0.  1.
        1   -1    0    0  501    0  0.00000000000E+00  0.00000000000E+00 -0.92912764966E+03  0.92912764967E+03  0.50400001928E-02 0. -1.
    10030    2    1    2    0    0  0.00000000000E+00  0.00000000000E+00 -0.53840950888E+03  0.13198457905E+04  0.12050344856E+04 0.  0.
        1    1    3    3  502    0  0.58739782177E+03  0.12579468513E+03 -0.21822409279E+03  0.63912616792E+03  0.50400001928E-02 0. -1.
       -1    1    3    3    0  502 -0.58739782177E+03 -0.12579468513E+03 -0.32018541609E+03  0.68071962255E+03  0.50400001928E-02 0.  1.
</event>
<event>
 5   0  0.1597352E-03  0.1187502E+04  0.7818609E-02  0.9123867E-01
        2   -1    0    0  501    0  0.00000000000E+00  0.00000000000E+00  0.15560471253E+04  0.15560471253E+04  0.25500000920E-02 0. -1.
       -2   -1    0    0    0  501  0.00000000000E+00  0.00000000000E+00 -0.22656135606E+03  0.22656135607E+03  0.25500000920E-02 0.  1.
    10030    2    1    2    0    0  0.00000000000E+00  0.00000000000E+00  0.13294857693E+04  0.17826084814E+04  0.11875018262E+04 0.  0.
        1    1    3    3  502    0  0.95173628007E+02  0.14027627900E+03 -0.18946436244E+03  0.25422863445E+03  0.50400001928E-02 0.  1.
       -1    1    3    3    0  502 -0.95173628007E+02 -0.14027627900E+03  0.15189501317E+04  0.15283798470E+04  0.50400001928E-02 0. -1.
</event>
<event>
 5   0  0.1567019E-03  0.1189277E+04  0.7818609E-02  0.9122294E-01
        2   -1    0    0  501    0  0.00000000000E+00  0.00000000000E+00  0.58544008948E+03  0.58544008949E+03  0.25500000920E-02 0.  1.
       -2   -1    0    0    0  501  0.00000000000E+00  0.00000000000E+00 -0.60398152777E+03  0.60398152778E+03  0.25500000920E-02 0. -1.
    10030    2    1    2    0    0  0.00000000000E+00  0.00000000000E+00 -0.18541438291E+02  0.11894216173E+04  0.11892770908E+04 0.  0.
        5    1    3    3  502    0 -0.36531371883E+03  0.41490403457E+03 -0.22832573330E+03  0.59812557340E+03  0.46999998093E+01 0. -1.
       -5    1    3    3    0  502  0.36531371883E+03 -0.41490403457E+03  0.20978429501E+03  0.59129604387E+03  0.46999998093E+01 0.  1.
</event>
<event>
 5   0  0.9358428E-04  0.1202124E+04  0.7818609E-02  0.9110999E-01
       -1   -1    0    0    0  501  0.00000000000E+00  0.00000000000E+00  0.91969186369E+03  0.91969186370E+03  0.50400001928E-02 0. -1.
        1   -1    0    0  501    0  0.00000000000E+00  0.00000000000E+00 -0.39282250610E+03  0.39282250614E+03  0.50400001928E-02 0.  1.
    10030    2    1    2    0    0  0.00000000000E+00  0.00000000000E+00  0.52686935758E+03  0.13125143698E+04  0.12021242245E+04 0.  0.
        2    1    3    3  502    0  0.71515923701E+02  0.24633483616E+02 -0.38760536555E+03  0.39491677006E+03  0.25500000920E-02 0.  1.
       -2    1    3    3    0  502 -0.71515923701E+02 -0.24633483616E+02  0.91447472314E+03  0.91759759978E+03  0.25500000920E-02 0. -1.
</event>
<event>
 5   0  0.9358428E-04  0.1201185E+04  0.7818609E-02  0.9111820E-01
       -1   -1    0    0    0  501  0.00000000000E+00  0.00000000000E+00  0.22370031396E+03  0.22370031402E+03  0.50400001928E-02 0. -1.
        1   -1    0    0  501    0  0.00000000000E+00  0.00000000000E+00 -0.16124756743E+04  0.16124756743E+04  0.50400001928E-02 0.  1.
    10030    2    1    2    0    0  0.00000000000E+00  0.00000000000E+00 -0.13887753604E+04  0.18361759884E+04  0.12011849394E+04 0.  0.
        2    1    3    3  502    0 -0.22127180725E+03 -0.30686052269E+03 -0.14074387238E+04  0.14573978023E+04  0.25500000920E-02 0.  1.
       -2    1    3    3    0  502  0.22127180725E+03  0.30686052269E+03  0.18663363396E+02  0.37877818603E+03  0.25500000920E-02 0. -1.
</event>
<event>
 5   0  0.9208078E-04  0.1209499E+04  0.7818609E-02  0.9104583E-01
        1   -1    0    0  501    0  0.00000000000E+00  0.00000000000E+00  0.78842845070E+03  0.78842845072E+03  0.50400001928E-02 0. -1.
       -1   -1    0    0    0  501  0.00000000000E+00  0.00000000000E+00 -0.46386186757E+03  0.46386186760E+03  0.50400001928E-02 0.  1.
    10030    2    1    2    0    0  0.00000000000E+00  0.00000000000E+00  0.32456658313E+03  0.12522903183E+04  0.12094988940E+04 0.  0.
        3    1    3    3  502    0  0.36374748773E+03  0.47870613698E+03  0.94784149398E+02  0.60865084046E+03  0.10100000352E+00 0. -1.
       -3    1    3    3    0  502 -0.36374748773E+03 -0.47870613698E+03  0.22978243373E+03  0.64363947786E+03  0.10100000352E+00 0.  1.
</event>
<event>
 5   0  0.1647550E-03  0.1197945E+04  0.7818609E-02  0.9114657E-01
       -2   -1    0    0    0  501  0.00000000000E+00  0.00000000000E+00  0.17451618144E+03  0.17451618146E+03  0.25500000920E-02 0. -1.
        2   -1    0    0  501    0  0.00000000000E+00  0.00000000000E+00 -0.20557868863E+04  0.20557868863E+04  0.25500000920E-02 0.  1.
    10030    2    1    2    0    0  0.00000000000E+00  0.00000000000E+00 -0.18812707048E+04  0.22303030677E+04  0.11979450359E+04 0.  0.
        3    1    3    3  502    0 -0.40544029164E+03 -0.34514525662E+03 -0.14513895559E+04  0.15459750099E+04  0.10100000352E+00 0.  1.
       -3    1    3    3    0  502  0.40544029164E+03  0.34514525662E+03 -0.42988114897E+03  0.68432805781E+03  0.10100000352E+00 0. -1.
</event>
<event>
 5   0  0.9170776E-04  0.1194850E+04  0.7818609E-02  0.9117376E-01
        1   -1    0    0  501    0  0.00000000000E+00  0.00000000000E+00  0.90972165151E+03  0.90972165153E+03  0.50400001928E-02 0.  1.
       -1   -1    0    0    0  501  0.00000000000E+00  0.00000000000E+00 -0.39233609419E+03  0.39233609423E+03  0.50400001928E-02 0. -1.
    10030    2    1    2    0    0  0.00000000000E+00  0.00000000000E+00  0.51738555732E+03  0.13020577458E+04  0.11948500150E+04 0.  0.
        5    1    3    3  502    0  0.59091798344E+01 -0.44542000696E+03  0.69248081147E+03  0.82339884943E+03  0.46999998093E+01 0.  1.
       -5    1    3    3    0  502 -0.59091798344E+01  0.44542000696E+03 -0.17509525415E+03  0.47865889632E+03  0.46999998093E+01 0. -1.
</event>
<event>
 5   0  0.9358428E-04  0.1194514E+04  0.7818609E-02  0.9117672E-01
       -1   -1    0    0    0  501  0.00000000000E+00  0.00000000000E+00  0.35568392442E+03  0.35568392446E+03  0.50400001928E-02 0.  1.
        1   -1    0    0  501    0  0.00000000000E+00  0.00000000000E+00 -0.10029015052E+04  0.10029015052E+04  0.50400001928E-02 0. -1.
    10030    2    1    2    0    0  0.00000000000E+00  0.00000000000E+00 -0.64721758078E+03  0.13585854297E+04  0.11945140321E+04 0.  0.
        2    1    3    3  502    0  0.58368032933E+03  0.11249876401E+03 -0.25751252130E+03  0.64780506125E+03  0.25500000920E-02 0.  1.
       -2    1    3    3    0  502 -0.58368032933E+03 -0.11249876401E+03 -0.38970505948E+03  0.71078036842E+03  0.25500000920E-02 0. -1.
</event>
<event>
 5   0  0.1597352E-03  0.1193963E+04  0.7818609E-02  0.9118158E-01
       -2   -1    0    0    0  501  0.00000000000E+00  0.00000000000E+00  0.23062310949E+03  0.23062310951E+03  0.25500000920E-02 0. -1.
        2   -1    0    0  501    0  0.00000000000E+00  0.00000000000E+00 -0.15453207468E+04  0.15453207468E+04  0.25500000920E-02 0.  1.
    10030    2    1    2    0    0  0.00000000000E+00  0.00000000000E+00 -0.13146976373E+04  0.17759438563E+04  0.11939626055E+04 0.  0.
        1    1    3    3  502    0  0.33201546768E+03 -0.21163878851E+03 -0.13248109771E+04  0.13820815362E+04  0.50400001928E-02 0.  1.
       -1    1    3    3    0  502 -0.33201546768E+03  0.21163878851E+03  0.10113339759E+02  0.39386232017E+03  0.50400001928E-02 0. -1.
</event>
<event>
 5   0  0.1567019E-03  0.1229989E+04  0.7818609E-02  0.9087005E-01
        2   -1    0    0  501    0  0.00000000000E+00  0.00000000000E+00  0.49402718909E+03  0.49402718909E+03  0.25500000920E-02 0. -1.
       -2   -1    0    0    0  501  0.00000000000E+00  0.00000000000E+00 -0.76558158364E+03  0.76558158364E+03  0.25500000920E-02 0.  1.
    10030    2    1    2    0    0  0.00000000000E+00  0.00000000000E+00 -0.27155439455E+03  0.12596087727E+04  0.12299888094E+04 0.  0.
        5    1    3    3  502    0  0.25350205069E+03  0.12051698869E+03 -0.69613639139E+03  0.75061015160E+03  0.46999998093E+01 0.  1.
       -5    1    3    3    0  502 -0.25350205069E+03 -0.12051698869E+03  0.42458199685E+03  0.50899862113E+03  0.46999998093E+01 0. -1.
</event>
<event>
 5   0  0.1567019E-03  0.1197401E+04  0.7818609E-02  0.9115134E-01
       -2   -1    0    0    0  501  0.00000000000E+00  0.00000000000E+00  0.61258377814E+03  0.61258377814E+03  0.25500000920E-02 0.  1.
        2   -1    0    0  501    0  0.00000000000E+00  0.00000000000E+00 -0.58513207452E+03  0.58513207452E+03  0.25500000920E-02 0. -1.
    10030    2    1    2    0    0  0.00000000000E+00  0.00000000000E+00  0.27451703621E+02  0.11977158527E+04  0.11974012142E+04 0.  0.
        5    1    3    3  502    0  0.30654988448E+03  0.26819070489E+03  0.45261357222E+03  0.60891725351E+03  0.46999998093E+01 0.  1.
       -5    1    3    3    0  502 -0.30654988448E+03 -0.26819070489E+03 -0.42516186860E+03  0.58879859916E+03  0.46999998093E+01 0. -1.
</event>
<event>
 5   0  0.1567019E-03  0.1193488E+04  0.7818609E-02  0.9118576E-01
        2   -1    0    0  501    0  0.00000000000E+00  0.00000000000E+00  0.13370227324E+04  0.13370227324E+04  0.25500000920E-02 0. -1.
       -2   -1    0    0    0  501  0.00000000000E+00  0.00000000000E+00 -0.26634051404E+03  0.26634051405E+03  0.25500000920E-02 0.  1.
    10030    2    1    2    0    0  0.00000000000E+00  0.00000000000E+00  0.10706822184E+04  0.16033632465E+04  0.11934878665E+04 0.  0.
        5    1    3    3  502    0  0.29825138602E+03 -0.24129581559E+03 -0.78685162030E+02  0.39165163680E+03  0.46999998093E+01 0.  1.
       -5    1    3    3    0  502 -0.29825138602E+03  0.24129581559E+03  0.11493673804E+04  0.12117116097E+04  0.46999998093E+01 0. -1.
</event>
<event>
 5   0  0.1537557E-03  0.1200461E+04  0.7818609E-02  0.9112453E-01
       -2   -1    0    0    0  501  0.00000000000E+00  0.00000000000E+00  0.48643711839E+03  0.48643711840E+03  0.25500000920E-02 0.  1.
        2   -1    0    0  501    0  0.00000000000E+00  0.00000000000E+00 -0.74064353301E+03  0.74064353302E+03  0.25500000920E-02 0. -1.
    10030    2    1    2    0    0  0.00000000000E+00  0.00000000000E+00 -0.25420641462E+03  0.12270806514E+04  0.12004607548E+04 0.  0.
        2    1    3    3  502    0 -0.47227207962E+03  0.36446254745E+03 -0.19492694856E+03  0.62759093442E+03  0.25500000920E-02 0. -1.
       -2    1    3    3    0  502  0.47227207962E+03 -0.36446254745E+03 -0.59279466062E+02  0.59948971700E+03  0.25500000920E-02 0.  1.
</event>
<event>
 5   0  0.1551501E-03  0.1207095E+04  0.7818609E-02  0.9106669E-01
       -2   -1    0    0    0  501  0.00000000000E+00  0.00000000000E+00  0.21340169517E+03  0.21340169518E+03  0.25500000920E-02 0.  1.
        2   -1    0    0  501    0  0.00000000000E+00  0.00000000000E+00 -0.17069658276E+04  0.17069658276E+04  0.25500000920E-02 0. -1.
    10030    2    1    2    0    0  0.00000000000E+00  0.00000000000E+00 -0.14935641324E+04  0.19203675228E+04  0.12070946959E+04 0.  0.
        4    1    3    3  502    0  0.51495379849E+03  0.29375107732E+03 -0.92677667726E+03  0.11001744100E+04  0.12699999809E+01 0. -1.
       -4    1    3    3    0  502 -0.51495379849E+03 -0.29375107732E+03 -0.56678745515E+03  0.82019311276E+03  0.12699999809E+01 0.  1.
</event>
<event>
 5   0  0.1647550E-03  0.1198476E+04  0.7818609E-02  0.9114192E-01
        2   -1    0    0  501    0  0.00000000000E+00  0.00000000000E+00  0.12391336087E+04  0.12391336087E+04  0.25500000920E-02 0.  1.
       -2   -1    0    0    0  501  0.00000000000E+00  0.00000000000E+00 -0.28978808764E+03  0.28978808765E+03  0.25500000920E-02 0. -1.
    10030    2    1    2    0    0  0.00000000000E+00  0.00000000000E+00  0.94934552103E+03  0.15289216963E+04  0.11984759635E+04 0.  0.
        3    1    3    3  502    0  0.21972374836E+02  0.58656205362E+03  0.62854573409E+03  0.86000440583E+03  0.10100000352E+00 0.  1.
       -3    1    3    3    0  502 -0.21972374836E+02 -0.58656205362E+03  0.32079978695E+03  0.66891729049E+03  0.10100000352E+00 0. -1.
</event>
<event>
 5   0  0.1567019E-03  0.1163586E+04  0.7818609E-02  0.9145341E-01
       -2   -1    0    0    0  501  0.00000000000E+00  0.00000000000E+00  0.11791897269E+04  0.11791897269E+04  0.25500000920E-02 0.  1.
        2   -1    0    0  501    0  0.00000000000E+00  0.00000000000E+00 -0.28704703004E+03  0.28704703006E+03  0.25500000920E-02 0. -1.
    10030    2    1    2    0    0  0.00000000000E+00  0.00000000000E+00  0.89214269681E+03  0.14662367569E+04  0.11635856805E+04 0.  0.
        5    1    3    3  502    0 -0.47124741431E+03  0.35077142553E+01  0.87593868071E+03  0.99467436476E+03  0.46999998093E+01 0.  1.
       -5    1    3    3    0  502  0.47124741431E+03 -0.35077142553E+01  0.16204016105E+02  0.47156239215E+03  0.46999998093E+01 0. -1.
</event>
<event>
 5   0  0.1551501E-03  0.1195553E+04  0.7818609E-02  0.9116758E-01
       -2   -1    0    0    0  501  0.00000000000E+00  0.00000000000E+00  0.75206599168E+03  0.75206599169E+03  0.25500000920E-02 0.  1.
        2   -1    0    0  501    0  0.00000000000E+00  0.00000000000E+00 -0.47513996318E+03  0.47513996318E+03  0.25500000920E-02 0. -1.
    10030    2    1    2    0    0  0.00000000000E+00  0.00000000000E+00  0.27692602850E+03  0.12272059549E+04  0.11955527719E+04 0.  0.
        4    1    3    3  502    0 -0.18045354315E+03  0.32274260803E+03  0.62058844852E+03  0.72239733361E+03  0.12699999809E+01 0.  1.
       -4    1    3    3    0  502  0.18045354315E+03 -0.32274260803E+03 -0.34366242001E+03  0.50480862126E+03  0.12699999809E+01 0. -1.
</event>
<event>
 5   0  0.6137750E-04  0.1192264E+04  0.7818609E-02  0.9119655E-01
        3   -1    0    0  501    0  0.00000000000E+00  0.00000000000E+00  0.10409159579E+04  0.10409159628E+04  0.10100000352E+00 0. -1.
       -3   -1    0    0    0  501  0.00000000000E+00  0.00000000000E+00 -0.34140457070E+03  0.34140458564E+03  0.10100000352E+00 0.  1.
    10030    2    1    2    0    0  0.00000000000E+00  0.00000000000E+00  0.69951138724E+03  0.13823205485E+04  0.11922641980E+04 0.  0.
        2    1    3    3  502    0  0.19281974718E+03  0.54864104580E+03  0.19775812323E+03  0.61424321515E+03  0.25500000920E-02 0.  1.
       -2    1    3    3    0  502 -0.19281974718E+03 -0.54864104580E+03  0.50175326400E+03  0.76807733334E+03  0.25500000920E-02 0. -1.
</event>
<event>
 5   0  0.1597352E-03  0.1209749E+04  0.7818609E-02  0.9104366E-01
       -2   -1    0    0    0  501  0.00000000000E+00  0.00000000000E+00  0.34767895420E+03  0.34767895421E+03  0.25500000920E-02 0. -1.
        2   -1    0    0  501    0  0.00000000000E+00  0.00000000000E+00 -0.10523305763E+04  0.10523305763E+04  0.25500000920E-02 0.  1.
    10030    2    1    2    0    0  0.00000000000E+00  0.00000000000E+00 -0.70465162215E+03  0.14000095306E+04  0.12097490554E+04 0.  0.
        1    1    3    3  502    0  0.20276320273E+03  0.52951080562E+03 -0.59611948033E+03  0.82271079032E+03  0.50400001928E-02 0.  1.
       -1    1    3    3    0  502 -0.20276320273E+03 -0.52951080562E+03 -0.10853214182E+03  0.57729874024E+03  0.50400001928E-02 0. -1.
</event>
<event>
 5   0  0.9358428E-04  0.1199451E+04  0.7818609E-02  0.9113337E-01
        1   -1    0    0  501    0  0.00000000000E+00  0.00000000000E+00  0.93631088082E+03  0.93631088083E+03  0.50400001928E-02 0. -1.
       -1   -1    0    0    0  501  0.00000000000E+00  0.00000000000E+00 -0.38413602653E+03  0.38413602656E+03  0.50400001928E-02 0.  1.
    10030    2    1    2    0    0  0.00000000000E+00  0.00000000000E+00  0.55217485429E+03  0.13204469074E+04  0.11994511101E+04 0.  0.
        2    1    3    3  502    0  0.58295602515E+03 -0.41321177171E+02  0.42429973935E+03  0.72220179712E+03  0.25500000920E-02 0. -1.
       -2    1    3    3    0  502 -0.58295602515E+03  0.41321177171E+02  0.12787511494E+03  0.59824511027E+03  0.25500000920E-02 0.  1.
</event>
<event>
 5   0  0.1647550E-03  0.1197147E+04  0.7818609E-02  0.9115357E-01
       -2   -1    0    0    0  501  0.00000000000E+00  0.00000000000E+00  0.45328146500E+03  0.45328146500E+03  0.25500000920E-02 0.  1.
        2   -1    0    0  501    0  0.00000000000E+00  0.00000000000E+00 -0.79043687582E+03  0.79043687582E+03  0.25500000920E-02 0. -1.
    10030    2    1    2    0    0  0.00000000000E+00  0.00000000000E+00 -0.33715541082E+03  0.12437183408E+04  0.11971472509E+04 0.  0.
        3    1    3    3  502    0  0.76321817494E+02 -0.46111945208E+03 -0.55706889723E+03  0.72717393749E+03  0.10100000352E+00 0. -1.
       -3    1    3    3    0  502 -0.76321817494E+02  0.46111945208E+03  0.21991348640E+03  0.51654440333E+03  0.10100000352E+00 0.  1.
</event>
<event>
 5   0  0.8908478E-04  0.1210314E+04  0.7818609E-02  0.9103876E-01
        1   -1    0    0  501    0  0.00000000000E+00  0.00000000000E+00  0.23469843475E+03  0.23469843480E+03  0.50400001928E-02 0.  1.
       -1   -1    0    0    0  501  0.00000000000E+00  0.00000000000E+00 -0.15603640395E+04  0.15603640395E+04  0.50400001928E-02 0. -1.
    10030    2    1    2    0    0  0.00000000000E+00  0.00000000000E+00 -0.13256656048E+04  0.17950624743E+04  0.12103140052E+04 0.  0.
        4    1    3    3  502    0 -0.29237111233E+03  0.22018175979E+03  0.51929629260E+02  0.36967441616E+03  0.12699999809E+01 0.  1.
       -4    1    3    3    0  502  0.29237111233E+03 -0.22018175979E+03 -0.13775952340E+04  0.14253880582E+04  0.12699999809E+01 0. -1.
</event>
<event>
 5   0  0.9169078E-04  0.1202193E+04  0.7818609E-02  0.9110939E-01
        1   -1    0    0  501    0  0.00000000000E+00  0.00000000000E+00  0.13415090661E+04  0.13415090661E+04  0.50400001928E-02 0.  1.
       -1   -1    0    0    0  501  0.00000000000E+00  0.00000000000E+00 -0.26933626968E+03  0.26933626973E+03  0.50400001928E-02 0. -1.
    10030    2    1    2    0    0  0.00000000000E+00  0.00000000000E+00  0.10721727964E+04  0.16108453358E+04  0.12021930754E+04 0.  0.
        1    1    3    3  502    0 -0.13364446054E+03 -0.45855371325E+03  0.10250840648E+04  0.11308977362E+04  0.50400001928E-02 0.  1.
       -1    1    3    3    0  502  0.13364446054E+03  0.45855371325E+03  0.47088731637E+02  0.47994759968E+03  0.50400001928E-02 0. -1.
</event>
<event>
 5   0  0.9170776E-04  0.1195610E+04  0.7818609E-02  0.9116708E-01
       -1   -1    0    0    0  501  0.00000000000E+00  0.00000000000E+00  0.42632548235E+03  0.42632548238E+03  0.50400001928E-02 0. -1.
        1   -1    0    0  501    0  0.00000000000E+00  0.00000000000E+00 -0.83825791739E+03  0.83825791741E+03  0.50400001928E-02 0.  1.
    10030    2    1    2    0    0  0.00000000000E+00  0.00000000000E+00 -0.41193243504E+03  0.12645833998E+04  0.11956098210E+04 0.  0.
        5    1    3    3  502    0  0.65661360216E+02 -0.11400708760E+03 -0.82273551300E+03  0.83320156300E+03  0.46999998093E+01 0.  1.
       -5    1    3    3    0  502 -0.65661360216E+02  0.11400708760E+03  0.41080307796E+03  0.43138183679E+03  0.46999998093E+01 0. -1.
</event>
<event>
 5   0  0.1551501E-03  0.1181319E+04  0.7818609E-02  0.9129367E-01
       -2   -1    0    0    0  501  0.00000000000E+00  0.00000000000E+00  0.20058438091E+03  0.20058438092E+03  0.25500000920E-02 0.  1.
        2   -1    0    0  501    0  0.00000000000E+00  0.00000000000E+00 -0.17393114312E+04  0.17393114312E+04  0.25500000920E-02 0. -1.
    10030    2    1    2    0    0  0.00000000000E+00  0.00000000000E+00 -0.15387270503E+04  0.19398958121E+04  0.11813191045E+04 0.  0.
        4    1    3    3  502    0  0.44445927780E+03 -0.30204300544E+03 -0.11719502916E+04  0.12892800804E+04  0.12699999809E+01 0. -1.
       -4    1    3    3    0  502 -0.44445927780E+03  0.30204300544E+03 -0.36677675866E+03  0.65061573171E+03  0.12699999809E+01 0.  1.
</event>
<event>
 5   0  0.9358428E-04  0.1201490E+04  0.7818609E-02  0.9111553E-01
       -1   -1    0    0    0  501  0.00000000000E+00  0.00000000000E+00  0.17754627123E+03  0.17754627130E+03  0.50400001928E-02 0.  1.
        1   -1    0    0  501    0  0.00000000000E+00  0.00000000000E+00 -0.20326801869E+04  0.20326801869E+04  0.50400001928E-02 0. -1.
    10030    2    1    2    0    0  0.00000000000E+00  0.00000000000E+00 -0.18551339157E+04  0.22102264582E+04  0.12014903876E+04 0.  0.
        2    1    3    3  502    0  0.26982758925E+03  0.21647672673E+03 -0.18310671486E+04  0.18634580767E+04  0.25500000920E-02 0. -1.
       -2    1    3    3    0  502 -0.26982758925E+03 -0.21647672673E+03 -0.24066767144E+02  0.34676838152E+03  0.25500000920E-02 0.  1.
</event>
<event>
 5   0  0.1537557E-03  0.1206661E+04  0.7818609E-02  0.9107046E-01
       -2   -1    0    0    0  501  0.00000000000E+00  0.00000000000E+00  0.24116154092E+03  0.24116154093E+03  0.25500000920E-02 0.  1.
        2   -1    0    0  501    0  0.00000000000E+00  0.00000000000E+00 -0.15093942971E+04  0.15093942971E+04  0.25500000920E-02 0. -1.
    10030    2    1    2    0    0  0.00000000000E+00  0.00000000000E+00 -0.12682327562E+04  0.17505558380E+04  0.12066612690E+04 0.  0.
        2    1    3    3  502    0 -0.48182183169E+02  0.13588614055E+03 -0.14840357024E+04  0.14910226464E+04  0.25500000920E-02 0. -1.
       -2    1    3    3    0  502  0.48182183169E+02 -0.13588614055E+03  0.21580294622E+03  0.25953319166E+03  0.25500000920E-02 0.  1.
</event>
<event>
 5   0  0.1597352E-03  0.1207731E+04  0.7818609E-02  0.9106116E-01
       -2   -1    0    0    0  501  0.00000000000E+00  0.00000000000E+00  0.47903635893E+03  0.47903635894E+03  0.25500000920E-02 0.  1.
        2   -1    0    0  501    0  0.00000000000E+00  0.00000000000E+00 -0.76122300264E+03  0.76122300265E+03  0.25500000920E-02 0. -1.
    10030    2    1    2    0    0  0.00000000000E+00  0.00000000000E+00 -0.28218664371E+03  0.12402593616E+04  0.12077309229E+04 0.  0.
        1    1    3    3  502    0  0.16327776639E+03  0.48903315775E+03  0.18176326882E+03  0.54667261162E+03  0.50400001928E-02 0.  1.
       -1    1    3    3    0  502 -0.16327776639E+03 -0.48903315775E+03 -0.46394991253E+03  0.69358674997E+03  0.50400001928E-02 0. -1.
</event>
<event>
 5   0  0.1567019E-03  0.1194951E+04  0.7818609E-02  0.9117287E-01
       -2   -1    0    0    0  501  0.00000000000E+00  0.00000000000E+00  0.11246713713E+04  0.11246713713E+04  0.25500000920E-02 0. -1.
        2   -1    0    0  501    0  0.00000000000E+00  0.00000000000E+00 -0.31740577687E+03  0.31740577688E+03  0.25500000920E-02 0.  1.
    10030    2    1    2    0    0  0.00000000000E+00  0.00000000000E+00  0.80726559439E+03  0.14420771481E+04  0.11949513636E+04 0.  0.
        5    1    3    3  502    0 -0.11773844988E+03 -0.28854375195E+03  0.10187916935E+04  0.10654006026E+04  0.46999998093E+01 0. -1.
       -5    1    3    3    0  502  0.11773844988E+03  0.28854375195E+03 -0.21152609908E+03  0.37667654554E+03  0.46999998093E+01 0.  1.
</event>
<event>
 5   0  0.9358428E-04  0.1169522E+04  0.7818609E-02  0.9139961E-01
        1   -1    0    0  501    0  0.00000000000E+00  0.00000000000E+00  0.94223992412E+03  0.94223992413E+03  0.50400001928E-02 0.  1.
       -1   -1    0    0    0  501  0.00000000000E+00  0.00000000000E+00 -0.36290669179E+03  0.36290669183E+03  0.50400001928E-02 0. -1.
    10030    2    1    2    0    0  0.00000000000E+00  0.00000000000E+00  0.57933323233E+03  0.13051466160E+04  0.11695215667E+04 0.  0.
        2    1    3    3  502    0  0.13261685792E+03 -0.56952266373E+03  0.28813719276E+03  0.65189442195E+03  0.25500000920E-02 0. -1.
       -2    1    3    3    0  502 -0.13261685792E+03  0.56952266373E+03  0.29119603957E+03  0.65325219401E+03  0.25500000920E-02 0.  1.
</event>
<event>
 5   0  0.8908478E-04  0.1213520E+04  0.7818609E-02  0.9101104E-01
       -1   -1    0    0    0  501  0.00000000000E+00  0.00000000000E+00  0.54796943253E+03  0.54796943256E+03  0.50400001928E-02 0. -1.
        1   -1    0    0  501    0  0.00000000000E+00  0.00000000000E+00 -0.67185792916E+03  0.67185792918E+03  0.50400001928E-02 0.  1.
    10030    2    1    2    0    0  0.00000000000E+00  0.00000000000E+00 -0.12388849663E+03  0.12198273617E+04  0.12135198527E+04 0.  0.
        4    1    3    3  502    0  0.30250088773E+03  0.52568999634E+03 -0.44555897659E+02  0.60814767964E+03  0.12699999809E+01 0. -1.
       -4    1    3    3    0  502 -0.30250088773E+03 -0.52568999634E+03 -0.79332598968E+02  0.61167968210E+03  0.12699999809E+01 0.  1.
</event>
<event>
 5   0  0.1551501E-03  0.1214777E+04  0.7818609E-02  0.9100019E-01
       -2   -1    0    0    0  501  0.00000000000E+00  0.00000000000E+00  0.11290949068E+04  0.11290949068E+04  0.25500000920E-02 0.  1.
        2   -1    0    0  501    0  0.00000000000E+00  0.00000000000E+00 -0.32674046026E+03  0.32674046027E+03  0.25500000920E-02 0. -1.
    10030    2    1    2    0    0  0.00000000000E+00  0.00000000000E+00  0.80235444654E+03  0.14558353671E+04  0.12147773286E+04 0.  0.
        4    1    3    3  502    0 -0.81172904191E+02  0.81365924288E+02  0.11159427160E+04  0.11218463408E+04  0.12699999809E+01 0.  1.
       -4    1    3    3    0  502  0.81172904191E+02 -0.81365924288E+02 -0.31358826949E+03  0.33398902628E+03  0.12699999809E+01 0. -1.
</event>
<event>
 5   0  0.1647550E-03  0.1191941E+04  0.7818609E-02  0.9119940E-01
       -2   -1    0    0    0  501  0.00000000000E+00  0.00000000000E+00  0.43588732880E+03  0.43588732881E+03  0.25500000920E-02 0.  1.
        2   -1    0    0  501    0  0.00000000000E+00  0.00000000000E+00 -0.81484530139E+03  0.81484530139E+03  0.25500000920E-02 0. -1.
    10030    2    1    2    0    0  0.00000000000E+00  0.00000000000E+00 -0.37895797258E+03  0.12507326302E+04  0.11919408405E+04 0.  0.
        3    1    3    3  502    0 -0.11581119402E+03 -0.39053841742E+03 -0.64596314221E+03  0.76367589947E+03  0.10100000352E+00 0. -1.
       -3    1    3    3    0  502  0.11581119402E+03  0.39053841742E+03  0.26700516963E+03  0.48705673073E+03  0.10100000352E+00 0.  1.
</event>
<event>
 5   0  0.9169078E-04  0.1199322E+04  0.7818609E-02  0.9113450E-01
        1   -1    0    0  501    0  0.00000000000E+00  0.00000000000E+00  0.56481145822E+03  0.56481145824E+03  0.50400001928E-02 0. -1.
       -1   -1    0    0    0  501  0.00000000000E+00  0.00000000000E+00 -0.63666051543E+03  0.63666051545E+03  0.50400001928E-02 0.  1.
    10030    2    1    2    0    0  0.00000000000E+00  0.00000000000E+00 -0.71849057216E+02  0.12014719737E+04  0.11993217319E+04 0.  0.
        1    1    3    3  502    0 -0.45024545743E+03  0.85699575854E+02 -0.42330601586E+03  0.62390173291E+03  0.50400001928E-02 0.  1.
       -1    1    3    3    0  502  0.45024545743E+03 -0.85699575854E+02  0.35145695865E+03  0.57757024079E+03  0.50400001928E-02 0. -1.
</event>
<event>
 5   0  0.9169078E-04  0.1186101E+04  0.7818609E-02  0.9125110E-01
       -1   -1    0    0    0  501  0.00000000000E+00  0.00000000000E+00  0.58412840068E+03  0.58412840070E+03  0.50400001928E-02 0. -1.
        1   -1    0    0  501    0  0.00000000000E+00  0.00000000000E+00 -0.60210871201E+03  0.60210871203E+03  0.50400001928E-02 0.  1.
    10030    2    1    2    0    0  0.00000000000E+00  0.00000000000E+00 -0.17980311328E+02  0.11862371127E+04  0.11861008372E+04 0.  0.
        1    1    3    3  502    0 -0.46973666475E+03  0.35701945181E+03  0.50961504480E+02  0.59220984300E+03  0.50400001928E-02 0. -1.
       -1    1    3    3    0  502  0.46973666475E+03 -0.35701945181E+03 -0.68941815808E+02  0.59402726972E+03  0.50400001928E-02 0.  1.
</event>
<event>
 5   0  0.9358428E-04  0.1202499E+04  0.7818609E-02  0.9110672E-01
       -1   -1    0    0    0  501  0.00000000000E+00  0.00000000000E+00  0.26379436359E+03  0.26379436364E+03  0.50400001928E-02 0. -1.
        1   -1    0    0  501    0  0.00000000000E+00  0.00000000000E+00 -0.13703895125E+04  0.13703895125E+04  0.50400001928E-02 0.  1.
    10030    2    1    2    0    0  0.00000000000E+00  0.00000000000E+00 -0.11065951489E+04  0.16341838761E+04  0.12024991133E+04 0.  0.
        2    1    3    3  502    0  0.43481709276E+03 -0.41352331973E+03 -0.60475268588E+03  0.85193500410E+03  0.25500000920E-02 0. -1.
       -2    1    3    3    0  502 -0.43481709276E+03  0.41352331973E+03 -0.50184246301E+03  0.78224887204E+03  0.25500000920E-02 0.  1.
</event>
<event>
 5   0  0.9358428E-04  0.1208344E+04  0.7818609E-02  0.9105584E-01
       -1   -1    0    0    0  501  0.00000000000E+00  0.00000000000E+00  0.91567200033E+03  0.91567200034E+03  0.50400001928E-02 0. -1.
        1   -1    0    0  501    0  0.00000000000E+00  0.00000000000E+00 -0.39864064903E+03  0.39864064907E+03  0.50400001928E-02 0.  1.
    10030    2    1    2    0    0  0.00000000000E+00  0.00000000000E+00  0.51703135129E+03  0.13143126494E+04  0.12083444551E+04 0.  0.
        2    1    3    3  502    0  0.32506939337E+02  0.13074163937E+03  0.89912581820E+03  0.90916297457E+03  0.25500000920E-02 0. -1.
       -2    1    3    3    0  502 -0.32506939337E+02 -0.13074163937E+03 -0.38209446691E+03  0.40514967484E+03  0.25500000920E-02 0.  1.
</event>
<event>
 5   0  0.1567019E-03  0.1201489E+04  0.7818609E-02  0.9111554E-01
        2   -1    0    0  501    0  0.00000000000E+00  0.00000000000E+00  0.11971235030E+04  0.11971235030E+04  0.25500000920E-02 0.  1.
       -2   -1    0    0    0  501  0.00000000000E+00  0.00000000000E+00 -0.30146771758E+03  0.30146771759E+03  0.25500000920E-02 0. -1.
    10030    2    1    2    0    0  0.00000000000E+00  0.00000000000E+00  0.89565578544E+03  0.14985912206E+04  0.12014892261E+04 0.  0.
        5    1    3    3  502    0  0.51797342325E+02  0.43906389135E+03 -0.59450920239E+02  0.44611272934E+03  0.46999998093E+01 0. -1.
       -5    1    3    3    0  502 -0.51797342325E+02 -0.43906389135E+03  0.95510670568E+03  0.10524784913E+04  0.46999998093E+01 0.  1.
</event>
<event>
 5   0  0.9170776E-04  0.1195181E+04  0.7818609E-02  0.9117085E-01
        1   -1    0    0  501    0  0.00000000000E+00  0.00000000000E+00  0.12218484639E+04  0.12218484639E+04  0.50400001928E-02 0.  1.
       -1   -1    0    0    0  501  0.00000000000E+00  0.00000000000E+00 -0.29227398894E+03  0.29227398898E+03  0.50400001928E-02 0. -1.
    10030    2    1    2    0    0  0.00000000000E+00  0.00000000000E+00  0.92957447491E+03  0.15141224528E+04  0.11951811987E+04 0.  0.
        5    1    3    3  502    0  0.30674520526E+03 -0.45213372119E+03  0.15817952986E+03  0.56882367783E+03  0.46999998093E+01 0. -1.
       -5    1    3    3    0  502 -0.30674520526E+03  0.45213372119E+03  0.77139494506E+03  0.94529877502E+03  0.46999998093E+01 0.  1.
</event>
<event>
 5   0  0.9208078E-04  0.1211453E+04  0.7818609E-02  0.9102890E-01
       -1   -1    0    0    0  501  0.00000000000E+00  0.00000000000E+00  0.41322048771E+03  0.41322048774E+03  0.50400001928E-02 0.  1.
        1   -1    0    0  501    0  0.00000000000E+00  0.00000000000E+00 -0.88791525752E+03  0.88791525754E+03  0.50400001928E-02 0. -1.
    10030    2    1    2    0    0  0.00000000000E+00  0.00000000000E+00 -0.47469476981E+03  0.13011357453E+04  0.12114533021E+04 0.  0.
        3    1    3    3  502    0 -0.14205228301E+03 -0.58332023770E+03 -0.32369432331E+03  0.68206992014E+03  0.10100000352E+00 0.  1.
       -3    1    3    3    0  502  0.14205228301E+03  0.58332023770E+03 -0.15100044650E+03  0.61906582514E+03  0.10100000352E+00 0. -1.
</event>
<event>
 5   0  0.9208078E-04  0.1175297E+04  0.7818609E-02  0.9134758E-01
       -1   -1    0    0    0  501  0.00000000000E+00  0.00000000000E+00  0.50863840802E+03  0.50863840805E+03  0.50400001928E-02 0. -1.
        1   -1    0    0  501    0  0.00000000000E+00  0.00000000000E+00 -0.67893153089E+03  0.67893153090E+03  0.50400001928E-02 0.  1.
    10030    2    1    2    0    0  0.00000000000E+00  0.00000000000E+00 -0.17029312286E+03  0.11875699390E+04  0.11752968188E+04 0.  0.
        3    1    3    3  502    0 -0.84624011395E+02 -0.83591075231E+02  0.49634707405E+03  0.51040093974E+03  0.10100000352E+00 0. -1.
       -3    1    3    3    0  502  0.84624011395E+02  0.83591075231E+02 -0.66664019691E+03  0.67716899922E+03  0.10100000352E+00 0.  1.
</event>
<event>
 5   0  0.8908478E-04  0.1199119E+04  0.7818609E-02  0.9113628E-01
        1   -1    0    0  501    0  0.00000000000E+00  0.00000000000E+00  0.54408539162E+03  0.54408539164E+03  0.50400001928E-02 0.  1.
       -1   -1    0    0    0  501  0.00000000000E+00  0.00000000000E+00 -0.66068944792E+03  0.66068944794E+03  0.50400001928E-02 0. -1.
    10030    2    1    2    0    0  0.00000000000E+00  0.00000000000E+00 -0.11660405630E+03  0.12047748396E+04  0.11991188048E+04 0.  0.
        4    1    3    3  502    0  0.11647157522E+03 -0.57366816197E+03  0.71959329093E+02  0.58978008260E+03  0.12699999809E+01 0.  1.
       -4    1    3    3    0  502 -0.11647157522E+03  0.57366816197E+03 -0.18856338540E+03  0.61499475697E+03  0.12699999809E+01 0. -1.
</event>
<event>
 5   0  0.1537557E-03  0.1197898E+04  0.7818609E-02  0.9114699E-01
        2   -1    0    0  501    0  0.00000000000E+00  0.00000000000E+00  0.18207950785E+04  0.18207950785E+04  0.25500000920E-02 0. -1.
       -2   -1    0    0    0  501  0.00000000000E+00  0.00000000000E+00 -0.19702366377E+03  0.19702366379E+03  0.25500000920E-02 0.  1.
    10030    2    1    2    0    0  0.00000000000E+00  0.00000000000E+00  0.16237714147E+04  0.20178187422E+04  0.11978976874E+04 0.  0.
        2    1    3    3  502    0  0.73587148168E+02 -0.53638408203E+03  0.12433748125E+04  0.13561356407E+04  0.25500000920E-02 0. -1.
       -2    1    3    3    0  502 -0.73587148168E+02  0.53638408203E+03  0.38039660223E+03  0.66168310151E+03  0.25500000920E-02 0.  1.
</event>
<event>
 5   0  0.1597352E-03  0.1181071E+04  0.7818609E-02  0.9129589E-01
       -2   -1    0    0    0  501  0.00000000000E+00  0.00000000000E+00  0.27328235619E+03  0.27328235620E+03  0.25500000920E-02 0. -1.
        2   -1    0    0  501    0  0.00000000000E+00  0.00000000000E+00 -0.12760866240E+04  0.12760866240E+04  0.25500000920E-02 0.  1.
    10030    2    1    2    0    0  0.00000000000E+00  0.00000000000E+00 -0.10028042678E+04  0.15493689802E+04  0.11810706318E+04 0.  0.
        1    1    3    3  502    0  0.85512310413E+02 -0.44455687875E+03 -0.39612297512E+01  0.45272382867E+03  0.50400001928E-02 0. -1.
       -1    1    3    3    0  502 -0.85512310413E+02  0.44455687875E+03 -0.99884303806E+03  0.10966451515E+04  0.50400001928E-02 0.  1.
</event>
<event>
 5   0  0.9170776E-04  0.1199612E+04  0.7818609E-02  0.9113197E-01
       -1   -1    0    0    0  501  0.00000000000E+00  0.00000000000E+00  0.46558545591E+03  0.46558545594E+03  0.50400001928E-02 0. -1.
        1   -1    0    0  501    0  0.00000000000E+00  0.00000000000E+00 -0.77271964314E+03  0.77271964316E+03  0.50400001928E-02 0.  1.
    10030    2    1    2    0    0  0.00000000000E+00  0.00000000000E+00 -0.30713418723E+03  0.12383050991E+04  0.11996116494E+04 0.  0.
        5    1    3    3  502    0 -0.32919881023E+03  0.68358474011E+02 -0.66627703363E+03  0.74631890849E+03  0.46999998093E+01 0.  1.
       -5    1    3    3    0  502  0.32919881023E+03 -0.68358474011E+02  0.35914284641E+03  0.49198619061E+03  0.46999998093E+01 0. -1.
</event>
<event>
 5   0  0.9358428E-04  0.1200479E+04  0.7818609E-02  0.9112437E-01
       -1   -1    0    0    0  501  0.00000000000E+00  0.00000000000E+00  0.38029874841E+03  0.38029874844E+03  0.50400001928E-02 0. -1.
        1   -1    0    0  501    0  0.00000000000E+00  0.00000000000E+00 -0.94738077257E+03  0.94738077259E+03  0.50400001928E-02 0.  1.
    10030    2    1    2    0    0  0.00000000000E+00  0.00000000000E+00 -0.56708202417E+03  0.13276795210E+04  0.12004794411E+04 0.  0.
        2    1    3    3  502    0 -0.10097577714E+03 -0.58043241592E+03 -0.15652512443E+03  0.60958839523E+03  0.25500000920E-02 0. -1.
       -2    1    3    3    0  502  0.10097577714E+03  0.58043241592E+03 -0.41055689974E+03  0.71809112580E+03  0.25500000920E-02 0.  1.
</event>
<event>
 5   0  0.9208078E-04  0.1204905E+04  0.7818609E-02  0.9108574E-01
        1   -1    0    0  501    0  0.00000000000E+00  0.00000000000E+00  0.13284180781E+04  0.13284180781E+04  0.50400001928E-02 0. -1.
       -1   -1    0    0    0  501  0.00000000000E+00  0.00000000000E+00 -0.27321876350E+03  0.27321876355E+03  0.50400001928E-02 0.  1.
    10030    2    1    2    0    0  0.00000000000E+00  0.00000000000E+00  0.10551993146E+04  0.16016368417E+04  0.12049045518E+04 0.  0.
        3    1    3    3  502    0  0.44853673280E+03 -0.37325505556E+03  0.32845739121E+03  0.66961840269E+03  0.10100000352E+00 0.  1.
       -3    1    3    3    0  502 -0.44853673280E+03  0.37325505556E+03  0.72674192338E+03  0.93201843896E+03  0.10100000352E+00 0. -1.
</event>
<event>
 5   0  0.1537557E-03  0.1198865E+04  0.7818609E-02  0.9113851E-01
       -2   -1    0    0    0  501  0.00000000000E+00  0.00000000000E+00  0.70972038758E+03  0.70972038759E+03  0.25500000920E-02 0.  1.
        2   -1    0    0  501    0  0.00000000000E+00  0.00000000000E+00 -0.50628293894E+03  0.50628293895E+03  0.25500000920E-02 0. -1.
    10030    2    1    2    0    0  0.00000000000E+00  0.00000000000E+00  0.20343744864E+03  0.12160033265E+04  0.11988650027E+04 0.  0.
        2    1    3    3  502    0 -0.33130597850E+03  0.24932609646E+03 -0.33735778270E+03  0.53454413038E+03  0.25500000920E-02 0. -1.
       -2    1    3    3    0  502  0.33130597850E+03 -0.24932609646E+03  0.54079523135E+03  0.68145919615E+03  0.25500000920E-02 0.  1.
</event>
<event>
 5   0  0.1597352E-03  0.1163703E+04  0.7818609E-02  0.9145234E-01
        2   -1    0    0  501    0  0.00000000000E+00  0.00000000000E+00  0.12160036862E+04  0.12160036862E+04  0.25500000920E-02 0. -1.
       -2   -1    0    0    0  501  0.00000000000E+00  0.00000000000E+00 -0.27841308512E+03  0.27841308513E+03  0.25500000920E-02 0.  1.
    10030    2    1    2    0    0  0.00000000000E+00  0.00000000000E+00  0.93759060104E+03  0.14944167713E+04  0.11637032917E+04 0.  0.
        1    1    3    3  502    0 -0.12839992376E+03  0.75249752517E+01  0.11975190386E+04  0.12044064985E+04  0.50400001928E-02 0. -1.
       -1    1    3    3    0  502  0.12839992376E+03 -0.75249752517E+01 -0.25992843756E+03  0.29001027284E+03  0.50400001928E-02 0.  1.
</event>
<event>
 5   0  0.9169078E-04  0.1153148E+04  0.7818609E-02  0.9154885E-01
       -1   -1    0    0    0  501  0.00000000000E+00  0.00000000000E+00  0.40870056410E+03  0.40870056413E+03  0.50400001928E-02 0. -1.
        1   -1    0    0  501    0  0.00000000000E+00  0.00000000000E+00 -0.81340093918E+03  0.81340093920E+03  0.50400001928E-02 0.  1.
    10030    2    1    2    0    0  0.00000000000E+00  0.00000000000E+00 -0.40470037508E+03  0.12221015033E+04  0.11531477316E+04 0.  0.
        1    1    3    3  502    0  0.27494851904E+03 -0.36835070942E+03  0.16654182722E+03  0.48889171960E+03  0.50400001928E-02 0. -1.
       -1    1    3    3    0  502 -0.27494851904E+03  0.36835070942E+03 -0.57124220230E+03  0.73320978374E+03  0.50400001928E-02 0.  1.
</event>
<event>
 5   0  0.1537557E-03  0.1201744E+04  0.7818609E-02  0.9111331E-01
       -2   -1    0    0    0  501  0.00000000000E+00  0.00000000000E+00  0.42857077587E+03  0.42857077588E+03  0.25500000920E-02 0. -1.
        2   -1    0    0  501    0  0.00000000000E+00  0.00000000000E+00 -0.84244524655E+03  0.84244524655E+03  0.25500000920E-02 0.  1.
    10030    2    1    2    0    0  0.00000000000E+00  0.00000000000E+00 -0.41387447068E+03  0.12710160224E+04  0.12017444203E+04 0.  0.
        2    1    3    3  502    0 -0.12549490381E+03 -0.16012415011E+03 -0.80491106079E+03  0.83022318091E+03  0.25500000920E-02 0.  1.
       -2    1    3    3    0  502  0.12549490381E+03  0.16012415011E+03  0.39103659011E+03  0.44079284153E+03  0.25500000920E-02 0. -1.
</event>
<event>
 5   0  0.8908478E-04  0.1175830E+04  0.7818609E-02  0.9134280E-01
        1   -1    0    0  501    0  0.00000000000E+00  0.00000000000E+00  0.18139145906E+04  0.18139145906E+04  0.50400001928E-02 0.  1.
       -1   -1    0    0    0  501  0.00000000000E+00  0.00000000000E+00 -0.19055129786E+03  0.19055129793E+03  0.50400001928E-02 0. -1.
    10030    2    1    2    0    0  0.00000000000E+00  0.00000000000E+00  0.16233632927E+04  0.20044658885E+04  0.11758295447E+04 0.  0.
        4    1    3    3  502    0  0.40893212237E+03  0.30316183597E+03  0.13130840612E+04  0.14083053448E+04  0.12699999809E+01 0.  1.
       -4    1    3    3    0  502 -0.40893212237E+03 -0.30316183597E+03  0.31027923155E+03  0.59616054376E+03  0.12699999809E+01 0. -1.
</event>
<event>
 5   0  0.6137750E-04  0.1197825E+04  0.7818609E-02  0.9114763E-01
        3   -1    0    0  501    0  0.00000000000E+00  0.00000000000E+00  0.33993760752E+03  0.33993762252E+03  0.10100000352E+00 0. -1.
       -3   -1    0    0    0  501  0.00000000000E+00  0.00000000000E+00 -0.10551815154E+04  0.10551815203E+04  0.10100000352E+00 0.  1.
    10030    2    1    2    0    0  0.00000000000E+00  0.00000000000E+00 -0.71524390791E+03  0.13951191428E+04  0.11978245175E+04 0.  0.
        1    1    3    3  502    0 -0.36064014947E+03  0.33200535387E+03  0.43158771982E+02  0.49208896760E+03  0.50400001928E-02 0. -1.
       -1    1    3    3    0  502  0.36064014947E+03 -0.33200535387E+03 -0.75840267990E+03  0.90303017519E+03  0.50400001928E-02 0.  1.
</event>
<event>
 5   0  0.9208078E-04  0.1131586E+04  0.7818609E-02  0.9174942E-01
        1   -1    0    0  501    0  0.00000000000E+00  0.00000000000E+00  0.18012625225E+04  0.18012625225E+04  0.50400001928E-02 0. -1.
       -1   -1    0    0    0  501  0.00000000000E+00  0.00000000000E+00 -0.17772060172E+03  0.17772060179E+03  0.50400001928E-02 0.  1.
    10030    2    1    2    0    0  0.00000000000E+00  0.00000000000E+00  0.16235419208E+04  0.19789831243E+04  0.11315855415E+04 0.  0.
        3    1    3    3  502    0  0.34856297873E+03 -0.44316659765E+03  0.89433238484E+03  0.10572242942E+04  0.10100000352E+00 0. -1.
       -3    1    3    3    0  502 -0.34856297873E+03  0.44316659765E+03  0.72920953594E+03  0.92175883013E+03  0.10100000352E+00 0.  1.
</event>
<event>
 5   0  0.1567019E-03  0.1201067E+04  0.7818609E-02  0.9111923E-01
       -2   -1    0    0    0  501  0.00000000000E+00  0.00000000000E+00  0.33152951452E+03  0.33152951452E+03  0.25500000920E-02 0. -1.
        2   -1    0    0  501    0  0.00000000000E+00  0.00000000000E+00 -0.10878084503E+04  0.10878084503E+04  0.25500000920E-02 0.  1.
    10030    2    1    2    0    0  0.00000000000E+00  0.00000000000E+00 -0.75627893578E+03  0.14193379648E+04  0.12010672045E+04 0.  0.
        5    1    3    3  502    0 -0.17831996700E+03 -0.54533657810E+03 -0.16864116973E+03  0.59804007238E+03  0.46999998093E+01 0. -1.
       -5    1    3    3    0  502  0.17831996700E+03  0.54533657810E+03 -0.58763776605E+03  0.82129789244E+03  0.46999998093E+01 0.  1.
</event>
<event>
 5   0  0.1537557E-03  0.1192966E+04  0.7818609E-02  0.9119035E-01
        2   -1    0    0  501    0  0.00000000000E+00  0.00000000000E+00  0.96514160952E+03  0.96514160952E+03  0.25500000920E-02 0. -1.
       -2   -1    0    0    0  501  0.00000000000E+00  0.00000000000E+00 -0.36864252466E+03  0.36864252467E+03  0.25500000920E-02 0.  1.
    10030    2    1    2    0    0  0.00000000000E+00  0.00000000000E+00  0.59649908486E+03  0.13337841342E+04  0.11929664532E+04 0.  0.
        2    1    3    3  502    0  0.44446410547E+03 -0.91219265484E+02  0.73115331136E+03  0.86049663577E+03  0.25500000920E-02 0. -1.
       -2    1    3    3    0  502 -0.44446410547E+03  0.91219265484E+02 -0.13465422651E+03  0.47328749843E+03  0.25500000920E-02 0.  1.
</event>
<event>
 5   0  0.9170776E-04  0.1174093E+04  0.7818609E-02  0.9135840E-01
       -1   -1    0    0    0  501  0.00000000000E+00  0.00000000000E+00  0.44389022075E+03  0.44389022078E+03  0.50400001928E-02 0. -1.
        1   -1    0    0  501    0  0.00000000000E+00  0.00000000000E+00 -0.77637104886E+03  0.77637104888E+03  0.50400001928E-02 0.  1.
    10030    2    1    2    0    0  0.00000000000E+00  0.00000000000E+00 -0.33248082811E+03  0.12202612697E+04  0.11740928691E+04 0.  0.
        5    1    3    3  502    0  0.31815253794E+03 -0.33787711543E+03  0.20736598879E+03  0.50833524945E+03  0.46999998093E+01 0.  1.
       -5    1    3    3    0  502 -0.31815253794E+03  0.33787711543E+03 -0.53984681690E+03  0.71192602020E+03  0.46999998093E+01 0. -1.
</event>
<event>
 5   0  0.9170776E-04  0.1203547E+04  0.7818609E-02  0.9109757E-01
        1   -1    0    0  501    0  0.00000000000E+00  0.00000000000E+00  0.92894935132E+03  0.92894935133E+03  0.50400001928E-02 0.  1.
       -1   -1    0    0    0  501  0.00000000000E+00  0.00000000000E+00 -0.38982925692E+03  0.38982925696E+03  0.50400001928E-02 0. -1.
    10030    2    1    2    0    0  0.00000000000E+00  0.00000000000E+00  0.53912009440E+03  0.13187786083E+04  0.12035474820E+04 0.  0.
        5    1    3    3  502    0 -0.21728054591E+03  0.71791241192E+02  0.87939263265E+03  0.90869043700E+03  0.46999998093E+01 0.  1.
       -5    1    3    3    0  502  0.21728054591E+03 -0.71791241192E+02 -0.34027253825E+03  0.41008817129E+03  0.46999998093E+01 0. -1.
</event>
<event>
 5   0  0.9358428E-04  0.1200988E+04  0.7818609E-02  0.9111992E-01
        1   -1    0    0  501    0  0.00000000000E+00  0.00000000000E+00  0.16284034676E+04  0.16284034676E+04  0.50400001928E-02 0.  1.
       -1   -1    0    0    0  501  0.00000000000E+00  0.00000000000E+00 -0.22143963833E+03  0.22143963839E+03  0.50400001928E-02 0. -1.
    10030    2    1    2    0    0  0.00000000000E+00  0.00000000000E+00  0.14069638293E+04  0.18498431060E+04  0.12009880515E+04 0.  0.
        2    1    3    3  502    0 -0.36392480917E+03  0.10439221423E+03  0.14214087269E+04  0.14709662709E+04  0.25500000920E-02 0.  1.
       -2    1    3    3    0  502  0.36392480917E+03 -0.10439221423E+03 -0.14444897642E+02  0.37887683512E+03  0.25500000920E-02 0. -1.
</event>
<event>
 5   0  0.9169078E-04  0.1194638E+04  0.7818609E-02  0.9117563E-01
       -1   -1    0    0    0  501  0.00000000000E+00  0.00000000000E+00  0.48320189778E+03  0.48320189781E+03  0.50400001928E-02 0. -1.
        1   -1    0    0  501    0  0.00000000000E+00  0.00000000000E+00 -0.73838642011E+03  0.73838642013E+03  0.50400001928E-02 0.  1.
    10030    2    1    2    0    0  0.00000000000E+00  0.00000000000E+00 -0.25518452233E+03  0.12215883179E+04  0.11946375509E+04 0.  0.
        1    1    3    3  502    0  0.34375670374E+03  0.45994784110E+03 -0.29583063762E+03  0.64593842901E+03  0.50400001928E-02 0.  1.
       -1    1    3    3    0  502 -0.34375670374E+03 -0.45994784110E+03  0.40646115288E+02  0.57564988892E+03  0.50400001928E-02 0. -1.
</event>
<event>
 5   0  0.1537557E-03  0.1199813E+04  0.7818609E-02  0.9113020E-01
       -2   -1    0    0    0  501  0.00000000000E+00  0.00000000000E+00  0.28741067982E+03  0.28741067983E+03  0.25500000920E-02 0.  1.
        2   -1    0    0  501    0  0.00000000000E+00  0.00000000000E+00 -0.12521732832E+04  0.12521732832E+04  0.25500000920E-02 0. -1.
    10030    2    1    2    0    0  0.00000000000E+00  0.00000000000E+00 -0.96476260342E+03  0.15395839631E+04  0.11998132765E+04 0.  0.
        2    1    3    3  502    0 -0.49466051043E+03  0.17725651794E+03 -0.11096795068E+03  0.53705007198E+03  0.25500000920E-02 0.  1.
       -2    1    3    3    0  502  0.49466051043E+03 -0.17725651794E+03 -0.85379465275E+03  0.10025338911E+04  0.25500000920E-02 0. -1.
</event>
<event>
 5   0  0.9169078E-04  0.1195547E+04  0.7818609E-02  0.9116763E-01
        1   -1    0    0  501    0  0.00000000000E+00  0.00000000000E+00  0.45102197727E+03  0.45102197730E+03  0.50400001928E-02 0.  1.
       -1   -1    0    0    0  501  0.00000000000E+00  0.00000000000E+00 -0.79227454943E+03  0.79227454944E+03  0.50400001928E-02 0. -1.
    10030    2    1    2    0    0  0.00000000000E+00  0.00000000000E+00 -0.34125257216E+03  0.12432965267E+04  0.11955471281E+04 0.  0.
        1    1    3    3  502    0  0.43421058454E+03  0.38784661275E+03 -0.31157320577E+03  0.66033452835E+03  0.50400001928E-02 0. -1.
       -1    1    3    3    0  502 -0.43421058454E+03 -0.38784661275E+03 -0.29679366386E+02  0.58296199839E+03  0.50400001928E-02 0.  1.
</event>
<event>
 5   0  0.1567019E-03  0.1195289E+04  0.7818609E-02  0.9116990E-01
        2   -1    0    0  501    0  0.00000000000E+00  0.00000000000E+00  0.82906325623E+03  0.82906325624E+03  0.25500000920E-02 0.  1.
       -2   -1    0    0    0  501  0.00000000000E+00  0.00000000000E+00 -0.43082223194E+03  0.43082223194E+03  0.25500000920E-02 0. -1.
    10030    2    1    2    0    0  0.00000000000E+00  0.00000000000E+00  0.39824102430E+03  0.12598854882E+04  0.11952888897E+04 0.  0.
        5    1    3    3  502    0  0.30144581978E+03  0.12931171827E+03  0.72568386470E+03  0.79638575089E+03  0.46999998093E+01 0.  1.
       -5    1    3    3    0  502 -0.30144581978E+03 -0.12931171827E+03 -0.32744284040E+03  0.46349973729E+03  0.46999998093E+01 0. -1.
</event>
<event>
 5   0  0.9208078E-04  0.1191082E+04  0.7818609E-02  0.9120699E-01
        1   -1    0    0  501    0  0.00000000000E+00  0.00000000000E+00  0.65093034725E+03  0.65093034727E+03  0.50400001928E-02 0.  1.
       -1   -1    0    0    0  501  0.00000000000E+00  0.00000000000E+00 -0.54486476590E+03  0.54486476593E+03  0.50400001928E-02 0. -1.
    10030    2    1    2    0    0  0.00000000000E+00  0.00000000000E+00  0.10606558135E+03  0.11957951132E+04  0.11910818801E+04 0.  0.
        3    1    3    3  502    0 -0.51677991856E+03  0.21899780746E+03 -0.14687187731E+03  0.58016625415E+03  0.10100000352E+00 0. -1.
       -3    1    3    3    0  502  0.51677991856E+03 -0.21899780746E+03  0.25293745866E+03  0.61562885905E+03  0.10100000352E+00 0.  1.
</event>
<event>
 5   0  0.9170776E-04  0.1198270E+04  0.7818609E-02  0.9114372E-01
       -1   -1    0    0    0  501  0.00000000000E+00  0.00000000000E+00  0.88224387894E+03  0.88224387895E+03  0.50400001928E-02 0.  1.
        1   -1    0    0  501    0  0.00000000000E+00  0.00000000000E+00 -0.40687449269E+03  0.40687449272E+03  0.50400001928E-02 0. -1.
    10030    2    1    2    0    0  0.00000000000E+00  0.00000000000E+00  0.47536938625E+03  0.12891183717E+04  0.11982696369E+04 0.  0.
        5    1    3    3  502    0  0.20490306824E+03  0.14085344895E+03  0.82409403749E+03  0.86080080976E+03  0.46999998093E+01 0.  1.
       -5    1    3    3    0  502 -0.20490306824E+03 -0.14085344895E+03 -0.34872465124E+03  0.42831756191E+03  0.46999998093E+01 0. -1.
</event>
<event>
 5   0  0.9170776E-04  0.1205824E+04  0.7818609E-02  0.9107774E-01
        1   -1    0    0  501    0  0.00000000000E+00  0.00000000000E+00  0.40897589618E+03  0.40897589621E+03  0.50400001928E-02 0. -1.
       -1   -1    0    0    0  501  0.00000000000E+00  0.00000000000E+00 -0.88881289935E+03  0.88881289936E+03  0.50400001928E-02 0.  1.
    10030    2    1    2    0    0  0.00000000000E+00  0.00000000000E+00 -0.47983700317E+03  0.12977887956E+04  0.12058242858E+04 0.  0.
        5    1    3    3  502    0  0.33053093333E+03 -0.14036079988E+03  0.28129825772E+03  0.45618269567E+03  0.46999998093E+01 0. -1.
       -5    1    3    3    0  502 -0.33053093333E+03  0.14036079988E+03 -0.76113526089E+03  0.84160609990E+03  0.46999998093E+01 0.  1.
</event>
<event>
 5   0  0.1537557E-03  0.1204956E+04  0.7818609E-02  0.9108530E-01
       -2   -1    0    0    0  501  0.00000000000E+00  0.00000000000E+00  0.33854561130E+03  0.33854561131E+03  0.25500000920E-02 0. -1.
        2   -1    0    0  501    0  0.00000000000E+00  0.00000000000E+00 -0.10721734624E+04  0.10721734624E+04  0.25500000920E-02 0.  1.
    10030    2    1    2    0    0  0.00000000000E+00  0.00000000000E+00 -0.73362785108E+03  0.14107190737E+04  0.12049558004E+04 0.  0.
        2    1    3    3  502    0 -0.32798316063E+03 -0.50134252676E+03 -0.44143429934E+03  0.74416498402E+03  0.25500000920E-02 0.  1.
       -2    1    3    3    0  502  0.32798316063E+03  0.50134252676E+03 -0.29219355173E+03  0.66655408968E+03  0.25500000920E-02 0. -1.
</event>
<event>
 5   0  0.9170776E-04  0.1201109E+04  0.7818609E-02  0.9111886E-01
        1   -1    0    0  501    0  0.00000000000E+00  0.00000000000E+00  0.81866247932E+03  0.81866247933E+03  0.50400001928E-02 0.  1.
       -1   -1    0    0    0  501  0.00000000000E+00  0.00000000000E+00 -0.44055486265E+03  0.44055486268E+03  0.50400001928E-02 0. -1.
    10030    2    1    2    0    0  0.00000000000E+00  0.00000000000E+00  0.37810761667E+03  0.12592173420E+04  0.12011090478E+04 0.  0.
        5    1    3    3  502    0  0.51376634942E+03 -0.29359709613E+03  0.81685636123E+02  0.59736902313E+03  0.46999998093E+01 0. -1.
       -5    1    3    3    0  502 -0.51376634942E+03  0.29359709613E+03  0.29642198055E+03  0.66184831888E+03  0.46999998093E+01 0.  1.
</event>
<event>
 5   0  0.9169078E-04  0.1202802E+04  0.7818609E-02  0.9110407E-01
       -1   -1    0    0    0  501  0.00000000000E+00  0.00000000000E+00  0.23695440908E+03  0.23695440913E+03  0.50400001928E-02 0.  1.
        1   -1    0    0  501    0  0.00000000000E+00  0.00000000000E+00 -0.15263836736E+04  0.15263836737E+04  0.50400001928E-02 0. -1.
    10030    2    1    2    0    0  0.00000000000E+00  0.00000000000E+00 -0.12894292646E+04  0.17633380828E+04  0.12028022971E+04 0.  0.
        1    1    3    3  502    0  0.33239596127E+03  0.16630526772E+03  0.48420352166E+02  0.37481868639E+03  0.50400001928E-02 0.  1.
       -1    1    3    3    0  502 -0.33239596127E+03 -0.16630526772E+03 -0.13378496167E+04  0.13885193964E+04  0.50400001928E-02 0. -1.
</event>
<event>
 5   0  0.1537557E-03  0.1201657E+04  0.7818609E-02  0.9111408E-01
       -2   -1    0    0    0  501  0.00000000000E+00  0.00000000000E+00  0.47139523679E+03  0.47139523679E+03  0.25500000920E-02 0.  1.
        2   -1    0    0  501    0  0.00000000000E+00  0.00000000000E+00 -0.76580031583E+03  0.76580031584E+03  0.25500000920E-02 0. -1.
    10030    2    1    2    0    0  0.00000000000E+00  0.00000000000E+00 -0.29440507904E+03  0.12371955526E+04  0.12016565586E+04 0.  0.
        2    1    3    3  502    0 -0.26006859512E+03  0.40681341361E+03 -0.51535557449E+03  0.70620407520E+03  0.25500000920E-02 0. -1.
       -2    1    3    3    0  502  0.26006859512E+03 -0.40681341361E+03  0.22095049545E+03  0.53099147743E+03  0.25500000920E-02 0.  1.
</event>
<event>
 5   0  0.6137750E-04  0.1199190E+04  0.7818609E-02  0.9113566E-01
       -4   -1    0    0    0  501  0.00000000000E+00  0.00000000000E+00  0.11442620442E+04  0.11442627490E+04  0.12699999809E+01 0.  1.
        4   -1    0    0  501    0  0.00000000000E+00  0.00000000000E+00 -0.31418657751E+03  0.31418914429E+03  0.12699999809E+01 0. -1.
    10030    2    1    2    0    0  0.00000000000E+00  0.00000000000E+00  0.83007546667E+03  0.14584518933E+04  0.11991899952E+04 0.  0.
        3    1    3    3  502    0  0.26146940207E+03  0.24150224663E+03 -0.17180065345E+03  0.39522785590E+03  0.10100000352E+00 0. -1.
       -3    1    3    3    0  502 -0.26146940207E+03 -0.24150224663E+03  0.10018761201E+04  0.10632240374E+04  0.10100000352E+00 0.  1.
</event>
<event>
 5   0  0.9358428E-04  0.1204033E+04  0.7818609E-02  0.9109334E-01
       -1   -1    0    0    0  501  0.00000000000E+00  0.00000000000E+00  0.32187823110E+03  0.32187823114E+03  0.50400001928E-02 0. -1.
        1   -1    0    0  501    0  0.00000000000E+00  0.00000000000E+00 -0.11259661158E+04  0.11259661158E+04  0.50400001928E-02 0.  1.
    10030    2    1    2    0    0  0.00000000000E+00  0.00000000000E+00 -0.80408788471E+03  0.14478443470E+04  0.12040331917E+04 0.  0.
        2    1    3    3  502    0  0.53592565204E+03 -0.94214206356E+02 -0.71174512795E+03  0.89592061498E+03  0.25500000920E-02 0.  1.
       -2    1    3    3    0  502 -0.53592565204E+03  0.94214206356E+02 -0.92342756764E+02  0.55192373198E+03  0.25500000920E-02 0. -1.
</event>
<event>
 5   0  0.8908478E-04  0.1190926E+04  0.7818609E-02  0.9120836E-01
        1   -1    0    0  501    0  0.00000000000E+00  0.00000000000E+00  0.87851728132E+03  0.87851728133E+03  0.50400001928E-02 0.  1.
       -1   -1    0    0    0  501  0.00000000000E+00  0.00000000000E+00 -0.40360738865E+03  0.40360738868E+03  0.50400001928E-02 0. -1.
    10030    2    1    2    0    0  0.00000000000E+00  0.00000000000E+00  0.47490989267E+03  0.12821246700E+04  0.11909258009E+04 0.  0.
        4    1    3    3  502    0  0.46980829538E+03  0.21184838259E+03 -0.83673857221E+02  0.52211349235E+03  0.12699999809E+01 0. -1.
       -4    1    3    3    0  502 -0.46980829538E+03 -0.21184838259E+03  0.55858374989E+03  0.76001117766E+03  0.12699999809E+01 0.  1.
</event>
<event>
 5   0  0.8908478E-04  0.1202519E+04  0.7818609E-02  0.9110655E-01
        1   -1    0    0  501    0  0.00000000000E+00  0.00000000000E+00  0.57861346484E+03  0.57861346486E+03  0.50400001928E-02 0. -1.
       -1   -1    0    0    0  501  0.00000000000E+00  0.00000000000E+00 -0.62479137862E+03  0.62479137864E+03  0.50400001928E-02 0.  1.
    10030    2    1    2    0    0  0.00000000000E+00  0.00000000000E+00 -0.46177913779E+02  0.12034048435E+04  0.12025185311E+04 0.  0.
        4    1    3    3  502    0 -0.27156441064E+03  0.46706134486E+03  0.24095691627E+03  0.59157026412E+03  0.12699999809E+01 0. -1.
       -4    1    3    3    0  502  0.27156441064E+03 -0.46706134486E+03 -0.28713483005E+03  0.61183457938E+03  0.12699999809E+01 0.  1.
</event>
<event>
 5   0  0.9170776E-04  0.1224028E+04  0.7818609E-02  0.9092081E-01
       -1   -1    0    0    0  501  0.00000000000E+00  0.00000000000E+00  0.92584442592E+03  0.92584442593E+03  0.50400001928E-02 0.  1.
        1   -1    0    0  501    0  0.00000000000E+00  0.00000000000E+00 -0.40456164269E+03  0.40456164272E+03  0.50400001928E-02 0. -1.
    10030    2    1    2    0    0  0.00000000000E+00  0.00000000000E+00  0.52128278323E+03  0.13304060686E+04  0.12240280092E+04 0.  0.
        5    1    3    3  502    0  0.16826069251E+03  0.23974927010E+03  0.84469419414E+03  0.89404795440E+03  0.46999998093E+01 0.  1.
       -5    1    3    3    0  502 -0.16826069251E+03 -0.23974927010E+03 -0.32341141091E+03  0.43635811424E+03  0.46999998093E+01 0. -1.
</event>
<event>
 5   0  0.9208078E-04  0.1169649E+04  0.7818609E-02  0.9139845E-01
       -1   -1    0    0    0  501  0.00000000000E+00  0.00000000000E+00  0.53130078485E+03  0.53130078488E+03  0.50400001928E-02 0.  1.
        1   -1    0    0  501    0  0.00000000000E+00  0.00000000000E+00 -0.64374037414E+03  0.64374037416E+03  0.50400001928E-02 0. -1.
    10030    2    1    2    0    0  0.00000000000E+00  0.00000000000E+00 -0.11243958928E+03  0.11750411590E+04  0.11696491201E+04 0.  0.
        3    1    3    3  502    0  0.15933988945E+03  0.31304033119E+03  0.41352137176E+03  0.54257108697E+03  0.10100000352E+00 0.  1.
       -3    1    3    3    0  502 -0.15933988945E+03 -0.31304033119E+03 -0.52596096104E+03  0.63247007206E+03  0.10100000352E+00 0. -1.
</event>
<event>
 5   0  0.1567019E-03  0.1153693E+04  0.7818609E-02  0.9154384E-01
       -2   -1    0    0    0  501  0.00000000000E+00  0.00000000000E+00  0.35131864525E+03  0.35131864526E+03  0.25500000920E-02 0. -1.
        2   -1    0    0  501    0  0.00000000000E+00  0.00000000000E+00 -0.94715052277E+03  0.94715052277E+03  0.25500000920E-02 0.  1.
    10030    2    1    2    0    0  0.00000000000E+00  0.00000000000E+00 -0.59583187752E+03  0.12984691680E+04  0.11536925735E+04 0.  0.
        5    1    3    3  502    0 -0.79298959663E+02  0.16231545881E+03  0.31863769735E+03  0.36631503565E+03  0.46999998093E+01 0. -1.
       -5    1    3    3    0  502  0.79298959663E+02 -0.16231545881E+03 -0.91446957486E+03  0.93215413238E+03  0.46999998093E+01 0.  1.
</event>
<event>
 5   0  0.9170776E-04  0.1184094E+04  0.7818609E-02  0.9126894E-01
        1   -1    0    0  501    0  0.00000000000E+00  0.00000000000E+00  0.15920875939E+04  0.15920875939E+04  0.50400001928E-02 0. -1.
       -1   -1    0    0    0  501  0.00000000000E+00  0.00000000000E+00 -0.22016343446E+03  0.22016343452E+03  0.50400001928E-02 0.  1.
    10030    2    1    2    0    0  0.00000000000E+00  0.00000000000E+00  0.13719241594E+04  0.18122510284E+04  0.11840937002E+04 0.  0.
        5    1    3    3  502    0  0.10235899169E+03  0.13547306156E+03  0.15539937791E+04  0.15632495224E+04  0.46999998093E+01 0. -1.
       -5    1    3    3    0  502 -0.10235899169E+03 -0.13547306156E+03 -0.18206961972E+03  0.24900150604E+03  0.46999998093E+01 0.  1.
</event>
<event>
 5   0  0.1551501E-03  0.1199415E+04  0.7818609E-02  0.9113368E-01
       -2   -1    0    0    0  501  0.00000000000E+00  0.00000000000E+00  0.54348783232E+03  0.54348783233E+03  0.25500000920E-02 0. -1.
        2   -1    0    0  501    0  0.00000000000E+00  0.00000000000E+00 -0.66174313065E+03  0.66174313065E+03  0.25500000920E-02 0.  1.
    10030    2    1    2    0    0  0.00000000000E+00  0.00000000000E+00 -0.11825529833E+03  0.12052309630E+04  0.11994154237E+04 0.  0.
        4    1    3    3  502    0  0.48387711526E+03 -0.12048799643E+03 -0.39389958704E+03  0.63546275857E+03  0.12699999809E+01 0.  1.
       -4    1    3    3    0  502 -0.48387711526E+03  0.12048799643E+03  0.27564428871E+03  0.56976820441E+03  0.12699999809E+01 0. -1.
</event>
<event>
 5   0  0.9208078E-04  0.1198302E+04  0.7818609E-02  0.9114344E-01
        1   -1    0    0  501    0  0.00000000000E+00  0.00000000000E+00  0.16326438094E+04  0.16326438094E+04  0.50400001928E-02 0. -1.
       -1   -1    0    0    0  501  0.00000000000E+00  0.00000000000E+00 -0.21987758026E+03  0.21987758032E+03  0.50400001928E-02 0.  1.
    10030    2    1    2    0    0  0.00000000000E+00  0.00000000000E+00  0.14127662292E+04  0.18525213898E+04  0.11983017488E+04 0.  0.
        3    1    3    3  502    0  0.20975701220E+03  0.55282631706E+03  0.55676192456E+03  0.81215687637E+03  0.10100000352E+00 0.  1.
       -3    1    3    3    0  502 -0.20975701220E+03 -0.55282631706E+03  0.85600430460E+03  0.10403645134E+04  0.10100000352E+00 0. -1.
</event>
<event>
 5   0  0.9358428E-04  0.1205323E+04  0.7818609E-02  0.9108210E-01
       -1   -1    0    0    0  501  0.00000000000E+00  0.00000000000E+00  0.44457944089E+03  0.44457944092E+03  0.50400001928E-02 0.  1.
        1   -1    0    0  501    0  0.00000000000E+00  0.00000000000E+00 -0.81695317174E+03  0.81695317175E+03  0.50400001928E-02 0. -1.
    10030    2    1    2    0    0  0.00000000000E+00  0.00000000000E+00 -0.37237373085E+03  0.12615326127E+04  0.12053225035E+04 0.  0.
        2    1    3    3  502    0 -0.29117144667E+03 -0.27651225020E+03  0.28417131652E+03  0.49192801608E+03  0.25500000920E-02 0.  1.
       -2    1    3    3    0  502  0.29117144667E+03  0.27651225020E+03 -0.65654504737E+03  0.76960459659E+03  0.25500000920E-02 0. -1.
</event>
<event>
 5   0  0.6137750E-04  0.1208716E+04  0.7818609E-02  0.9105262E-01
       -3   -1    0    0    0  501  0.00000000000E+00  0.00000000000E+00  0.22751987550E+03  0.22751989791E+03  0.10100000352E+00 0. -1.
        3   -1    0    0  501    0  0.00000000000E+00  0.00000000000E+00 -0.16053467087E+04  0.16053467119E+04  0.10100000352E+00 0.  1.
    10030    2    1    2    0    0  0.00000000000E+00  0.00000000000E+00 -0.13778268332E+04  0.18328666098E+04  0.12087155277E+04 0.  0.
        1    1    3    3  502    0 -0.48497076756E+01 -0.89739789078E+02  0.21733068290E+03  0.23517945311E+03  0.50400001928E-02 0. -1.
       -1    1    3    3    0  502  0.48497076756E+01  0.89739789078E+02 -0.15951575161E+04  0.15976871567E+04  0.50400001928E-02 0.  1.
</event>
<event>
 5   0  0.1597352E-03  0.1200338E+04  0.7818609E-02  0.9112561E-01
       -2   -1    0    0    0  501  0.00000000000E+00  0.00000000000E+00  0.68094289462E+03  0.68094289463E+03  0.25500000920E-02 0.  1.
        2   -1    0    0  501    0  0.00000000000E+00  0.00000000000E+00 -0.52897633912E+03  0.52897633913E+03  0.25500000920E-02 0. -1.
    10030    2    1    2    0    0  0.00000000000E+00  0.00000000000E+00  0.15196655550E+03  0.12099192338E+04  0.12003377517E+04 0.  0.
        1    1    3    3  502    0  0.82924955328E+02  0.32755858504E+03  0.57595826352E+03  0.66775676424E+03  0.50400001928E-02 0.  1.
       -1    1    3    3    0  502 -0.82924955328E+02 -0.32755858504E+03 -0.42399170802E+03  0.54216246951E+03  0.50400001928E-02 0. -1.
</event>
<event>
 5   0  0.1647550E-03  0.1199296E+04  0.7818609E-02  0.9113473E-01
        2   -1    0    0  501    0  0.00000000000E+00  0.00000000000E+00  0.46424678094E+03  0.46424678095E+03  0.25500000920E-02 0.  1.
       -2   -1    0    0    0  501  0.00000000000E+00  0.00000000000E+00 -0.77454066837E+03  0.77454066838E+03  0.25500000920E-02 0. -1.
    10030    2    1    2    0    0  0.00000000000E+00  0.00000000000E+00 -0.31029388743E+03  0.12387874493E+04  0.11992964805E+04 0.  0.
        3    1    3    3  502    0 -0.20268801544E+03  0.36726495493E+03 -0.59775650914E+03  0.73025942866E+03  0.10100000352E+00 0.  1.
       -3    1    3    3    0  502  0.20268801544E+03 -0.36726495493E+03  0.28746262171E+03  0.50852802067E+03  0.10100000352E+00 0. -1.
</event>
<event>
 5   0  0.1597352E-03  0.1200573E+04  0.7818609E-02  0.9112355E-01
        2   -1    0    0  501    0  0.00000000000E+00  0.00000000000E+00  0.72882973159E+03  0.72882973159E+03  0.25500000920E-02 0.  1.
       -2   -1    0    0    0  501  0.00000000000E+00  0.00000000000E+00 -0.49441402225E+03  0.49441402225E+03  0.25500000920E-02 0. -1.
    10030    2    1    2    0    0  0.00000000000E+00  0.00000000000E+00  0.23441570934E+03  0.12232437538E+04  0.12005725953E+04 0.  0.
        1    1    3    3  502    0 -0.58918546169E+03  0.10065197973E+03  0.60723554383E+02  0.60079753609E+03  0.50400001928E-02 0. -1.
       -1    1    3    3    0  502  0.58918546169E+03 -0.10065197973E+03  0.17369215495E+03  0.62244621776E+03  0.50400001928E-02 0.  1.
</event>
<event>
 5   0  0.1647550E-03  0.1204607E+04  0.7818609E-02  0.9108833E-01
        2   -1    0    0  501    0  0.00000000000E+00  0.00000000000E+00  0.16194922209E+04  0.16194922209E+04  0.25500000920E-02 0.  1.
       -2   -1    0    0    0  501  0.00000000000E+00  0.00000000000E+00 -0.22400204620E+03  0.22400204621E+03  0.25500000920E-02 0. -1.
    10030    2    1    2    0    0  0.00000000000E+00  0.00000000000E+00  0.13954901747E+04  0.18434942671E+04  0.12046071082E+04 0.  0.
        3    1    3    3  502    0 -0.57081948583E+03 -0.18679735718E+03  0.76689042069E+03  0.97408883866E+03  0.10100000352E+00 0.  1.
       -3    1    3    3    0  502  0.57081948583E+03  0.18679735718E+03  0.62859975397E+03  0.86940542841E+03  0.10100000352E+00 0. -1.
</event>
<event>
 5   0  0.1537557E-03  0.1211624E+04  0.7818609E-02  0.9102742E-01
        2   -1    0    0  501    0  0.00000000000E+00  0.00000000000E+00  0.67587848284E+03  0.67587848285E+03  0.25500000920E-02 0. -1.
       -2   -1    0    0    0  501  0.00000000000E+00  0.00000000000E+00 -0.54300928504E+03  0.54300928505E+03  0.25500000920E-02 0.  1.
    10030    2    1    2    0    0  0.00000000000E+00  0.00000000000E+00  0.13286919780E+03  0.12188877679E+04  0.12116241855E+04 0.  0.
        2    1    3    3  502    0  0.29650478092E+03 -0.51417046286E+03  0.18849599488E+03  0.62274962070E+03  0.25500000920E-02 0.  1.
       -2    1    3    3    0  502 -0.29650478092E+03  0.51417046286E+03 -0.55626797087E+02  0.59613814720E+03  0.25500000920E-02 0. -1.
</event>
<event>
 5   0  0.1597352E-03  0.1205926E+04  0.7818609E-02  0.9107685E-01
        2   -1    0    0  501    0  0.00000000000E+00  0.00000000000E+00  0.34951629769E+04  0.34951629769E+04  0.25500000920E-02 0.  1.
       -2   -1    0    0    0  501  0.00000000000E+00  0.00000000000E+00 -0.10401924974E+03  0.10401924977E+03  0.25500000920E-02 0. -1.
    10030    2    1    2    0    0  0.00000000000E+00  0.00000000000E+00  0.33911437271E+04  0.35991822266E+04  0.12059257533E+04 0.  0.
        1    1    3    3  502    0  0.28404109881E+03  0.12442145523E+03  0.32389323127E+04  0.32537428556E+04  0.50400001928E-02 0.  1.
       -1    1    3    3    0  502 -0.28404109881E+03 -0.12442145523E+03  0.15221141444E+03  0.34543937101E+03  0.50400001928E-02 0. -1.
</event>
<event>
 5   0  0.9170776E-04  0.1201522E+04  0.7818609E-02  0.9111525E-01
        1   -1    0    0  501    0  0.00000000000E+00  0.00000000000E+00  0.61287803798E+03  0.61287803800E+03  0.50400001928E-02 0.  1.
       -1   -1    0    0    0  501  0.00000000000E+00  0.00000000000E+00 -0.58888379072E+03  0.58888379074E+03  0.50400001928E-02 0. -1.
    10030    2    1    2    0    0  0.00000000000E+00  0.00000000000E+00  0.23994247261E+02  0.12017618287E+04  0.12015222716E+04 0.  0.
        5    1    3    3  502    0  0.23067082598E+03 -0.77000106122E+02  0.56142786916E+03  0.61185078947E+03  0.46999998093E+01 0.  1.
       -5    1    3    3    0  502 -0.23067082598E+03  0.77000106122E+02 -0.53743362190E+03  0.58991103927E+03  0.46999998093E+01 0. -1.
</event>
<event>
 5   0  0.9170776E-04  0.1166040E+04  0.7818609E-02  0.9143112E-01
       -1   -1    0    0    0  501  0.00000000000E+00  0.00000000000E+00  0.63318364164E+03  0.63318364166E+03  0.50400001928E-02 0.  1.
        1   -1    0    0  501    0  0.00000000000E+00  0.00000000000E+00 -0.53683087238E+03  0.53683087241E+03  0.50400001928E-02 0. -1.
    10030    2    1    2    0    0  0.00000000000E+00  0.00000000000E+00  0.96352769260E+02  0.11700145141E+04  0.11660403539E+04 0.  0.
        5    1    3    3  502    0  0.43383420324E+03  0.28720736446E+03 -0.21576052086E+03  0.56327158500E+03  0.46999998093E+01 0. -1.
       -5    1    3    3    0  502 -0.43383420324E+03 -0.28720736446E+03  0.31211329012E+03  0.60674292907E+03  0.46999998093E+01 0.  1.
</event>
<event>
 5   0  0.1537557E-03  0.1186829E+04  0.7818609E-02  0.9124464E-01
       -2   -1    0    0    0  501  0.00000000000E+00  0.00000000000E+00  0.27452145563E+03  0.27452145564E+03  0.25500000920E-02 0. -1.
        2   -1    0    0  501    0  0.00000000000E+00  0.00000000000E+00 -0.12827436672E+04  0.12827436672E+04  0.25500000920E-02 0.  1.
    10030    2    1    2    0    0  0.00000000000E+00  0.00000000000E+00 -0.10082222116E+04  0.15572651228E+04  0.11868288145E+04 0.  0.
        2    1    3    3  502    0  0.34427487821E+03 -0.24898032583E+03 -0.10476915442E+04  0.11305635613E+04  0.25500000920E-02 0.  1.
       -2    1    3    3    0  502 -0.34427487821E+03  0.24898032583E+03  0.39469332571E+02  0.42670156156E+03  0.25500000920E-02 0. -1.
</event>
<event>
 5   0  0.9208078E-04  0.1183286E+04  0.7818609E-02  0.9127614E-01
       -1   -1    0    0    0  501  0.00000000000E+00  0.00000000000E+00  0.27001334783E+03  0.27001334788E+03  0.50400001928E-02 0.  1.
        1   -1    0    0  501    0  0.00000000000E+00  0.00000000000E+00 -0.12963848540E+04  0.12963848540E+04  0.50400001928E-02 0. -1.
    10030    2    1    2    0    0  0.00000000000E+00  0.00000000000E+00 -0.10263715062E+04  0.15663982019E+04  0.11832856199E+04 0.  0.
        3    1    3    3  502    0  0.55653447329E+03 -0.11783446180E+03 -0.72837730366E+03  0.92420186488E+03  0.10100000352E+00 0. -1.
       -3    1    3    3    0  502 -0.55653447329E+03  0.11783446180E+03 -0.29799420252E+03  0.64219633702E+03  0.10100000352E+00 0.  1.
</event>
<event>
 5   0  0.9170776E-04  0.1196115E+04  0.7818609E-02  0.9116263E-01
       -1   -1    0    0    0  501  0.00000000000E+00  0.00000000000E+00  0.37927682653E+03  0.37927682656E+03  0.50400001928E-02 0.  1.
        1   -1    0    0  501    0  0.00000000000E+00  0.00000000000E+00 -0.94303959651E+03  0.94303959652E+03  0.50400001928E-02 0. -1.
    10030    2    1    2    0    0  0.00000000000E+00  0.00000000000E+00 -0.56376276998E+03  0.13223164231E+04  0.11961154886E+04 0.  0.
        5    1    3    3  502    0 -0.35372093093E+03  0.10544472715E+02  0.25108551000E+03  0.43393053156E+03  0.46999998093E+01 0.  1.
       -5    1    3    3    0  502  0.35372093093E+03 -0.10544472715E+02 -0.81484827998E+03  0.88838589153E+03  0.46999998093E+01 0. -1.
</event>
<event>
 5   0  0.1567019E-03  0.1202160E+04  0.7818609E-02  0.9110968E-01
        2   -1    0    0  501    0  0.00000000000E+00  0.00000000000E+00  0.64525022526E+03  0.64525022527E+03  0.25500000920E-02 0.  1.
       -2   -1    0    0    0  501  0.00000000000E+00  0.00000000000E+00 -0.55993379856E+03  0.55993379856E+03  0.25500000920E-02 0. -1.
    10030    2    1    2    0    0  0.00000000000E+00  0.00000000000E+00  0.85316426705E+02  0.12051840238E+04  0.12021604047E+04 0.  0.
        5    1    3    3  502    0 -0.15151223607E+03  0.50602047211E+03 -0.24487782038E+03  0.58223699022E+03  0.46999998093E+01 0.  1.
       -5    1    3    3    0  502  0.15151223607E+03 -0.50602047211E+03  0.33019424708E+03  0.62294703361E+03  0.46999998093E+01 0. -1.
</event>
<event>
 5   0  0.1647550E-03  0.1215047E+04  0.7818609E-02  0.9099787E-01
       -2   -1    0    0    0  501  0.00000000000E+00  0.00000000000E+00  0.90931168131E+03  0.90931168132E+03  0.25500000920E-02 0. -1.
        2   -1    0    0  501    0  0.00000000000E+00  0.00000000000E+00 -0.40589459002E+03  0.40589459003E+03  0.25500000920E-02 0.  1.
    10030    2    1    2    0    0  0.00000000000E+00  0.00000000000E+00  0.50341709129E+03  0.13152062713E+04  0.12150468174E+04 0.  0.
        3    1    3    3  502    0 -0.26282377864E+03  0.52052077452E+03  0.67165799440E+02  0.58696632794E+03  0.10100000352E+00 0.  1.
       -3    1    3    3    0  502  0.26282377864E+03 -0.52052077452E+03  0.43625129185E+03  0.72823994340E+03  0.10100000352E+00 0. -1.
</event>
<event>
 5   0  0.9170776E-04  0.1201289E+04  0.7818609E-02  0.9111729E-01
        1   -1    0    0  501    0  0.00000000000E+00  0.00000000000E+00  0.83315385765E+03  0.83315385767E+03  0.50400001928E-02 0.  1.
       -1   -1    0    0    0  501  0.00000000000E+00  0.00000000000E+00 -0.43302175632E+03  0.43302175635E+03  0.50400001928E-02 0. -1.
    10030    2    1    2    0    0  0.00000000000E+00  0.00000000000E+00  0.40013210133E+03  0.12661756140E+04  0.12012888857E+04 0.  0.
        5    1    3    3  502    0  0.16061057679E+03  0.87975587326E+02  0.80299186869E+03  0.82362217826E+03  0.46999998093E+01 0.  1.
       -5    1    3    3    0  502 -0.16061057679E+03 -0.87975587326E+02 -0.40285976736E+03  0.44255343575E+03  0.46999998093E+01 0. -1.
</event>
<event>
 5   0  0.1537557E-03  0.1201615E+04  0.7818609E-02  0.9111444E-01
        2   -1    0    0  501    0  0.00000000000E+00  0.00000000000E+00  0.76744846828E+03  0.76744846828E+03  0.25500000920E-02 0.  1.
       -2   -1    0    0    0  501  0.00000000000E+00  0.00000000000E+00 -0.47035001103E+03  0.47035001104E+03  0.25500000920E-02 0. -1.
    10030    2    1    2    0    0  0.00000000000E+00  0.00000000000E+00  0.29709845725E+03  0.12377984793E+04  0.12016145730E+04 0.  0.
        2    1    3    3  502    0 -0.55322588523E+02 -0.46562030220E+03  0.53550232916E+03  0.71177636879E+03  0.25500000920E-02 0.  1.
       -2    1    3    3    0  502  0.55322588523E+02  0.46562030220E+03 -0.23840387191E+03  0.52602211053E+03  0.25500000920E-02 0. -1.
</event>
<event>
 5   0  0.9169078E-04  0.1194975E+04  0.7818609E-02  0.9117266E-01
       -1   -1    0    0    0  501  0.00000000000E+00  0.00000000000E+00  0.25709984016E+03  0.25709984021E+03  0.50400001928E-02 0. -1.
        1   -1    0    0  501    0  0.00000000000E+00  0.00000000000E+00 -0.13885314314E+04  0.13885314314E+04  0.50400001928E-02 0.  1.
    10030    2    1    2    0    0  0.00000000000E+00  0.00000000000E+00 -0.11314315913E+04  0.16456312717E+04  0.11949748267E+04 0.  0.
        1    1    3    3  502    0 -0.96328979918E+02 -0.16104712094E+03  0.21546298597E+03  0.28572669788E+03  0.50400001928E-02 0. -1.
       -1    1    3    3    0  502  0.96328979918E+02  0.16104712094E+03 -0.13468945772E+04  0.13599045738E+04  0.50400001928E-02 0.  1.
</event>
<event>
 5   0  0.6137750E-04  0.1197078E+04  0.7818609E-02  0.9115418E-01
        3   -1    0    0  501    0  0.00000000000E+00  0.00000000000E+00  0.75163377937E+03  0.75163378615E+03  0.10100000352E+00 0. -1.
       -3   -1    0    0    0  501  0.00000000000E+00  0.00000000000E+00 -0.47662658642E+03  0.47662659712E+03  0.10100000352E+00 0.  1.
    10030    2    1    2    0    0  0.00000000000E+00  0.00000000000E+00  0.27500719295E+03  0.12282603833E+04  0.11970775300E+04 0.  0.
        4    1    3    3  502    0 -0.26954330872E+03  0.37772791903E+03 -0.25038514092E+03  0.52728200025E+03  0.12699999809E+01 0.  1.
       -4    1    3    3    0  502  0.26954330872E+03 -0.37772791903E+03  0.52539233387E+03  0.70097838303E+03  0.12699999809E+01 0. -1.
</event>
<event>
 5   0  0.1597352E-03  0.1201334E+04  0.7818609E-02  0.9111690E-01
       -2   -1    0    0    0  501  0.00000000000E+00  0.00000000000E+00  0.34754408450E+03  0.34754408451E+03  0.25500000920E-02 0. -1.
        2   -1    0    0  501    0  0.00000000000E+00  0.00000000000E+00 -0.10381439616E+04  0.10381439616E+04  0.25500000920E-02 0.  1.
    10030    2    1    2    0    0  0.00000000000E+00  0.00000000000E+00 -0.69059987713E+03  0.13856880461E+04  0.12013339132E+04 0.  0.
        1    1    3    3  502    0  0.31708174726E+03 -0.39159607836E+03  0.31851626455E+02  0.50487904409E+03  0.50400001928E-02 0. -1.
       -1    1    3    3    0  502 -0.31708174726E+03  0.39159607836E+03 -0.72245150358E+03  0.88080900204E+03  0.50400001928E-02 0.  1.
</event>
<event>
 5   0  0.9358428E-04  0.1179556E+04  0.7818609E-02  0.9130942E-01
       -1   -1    0    0    0  501  0.00000000000E+00  0.00000000000E+00  0.23099996600E+03  0.23099996605E+03  0.50400001928E-02 0.  1.
        1   -1    0    0  501    0  0.00000000000E+00  0.00000000000E+00 -0.15057929648E+04  0.15057929648E+04  0.50400001928E-02 0. -1.
    10030    2    1    2    0    0  0.00000000000E+00  0.00000000000E+00 -0.12747929988E+04  0.17367929309E+04  0.11795560584E+04 0.  0.
        2    1    3    3  502    0 -0.42782388580E+03 -0.14241860454E+03 -0.77643899423E+02  0.45754225084E+03  0.25500000920E-02 0.  1.
       -2    1    3    3    0  502  0.42782388580E+03  0.14241860454E+03 -0.11971490994E+04  0.12792506800E+04  0.25500000920E-02 0. -1.
</event>
<event>
 5   0  0.9208078E-04  0.1200142E+04  0.7818609E-02  0.9112732E-01
       -1   -1    0    0    0  501  0.00000000000E+00  0.00000000000E+00  0.26496033904E+03  0.26496033908E+03  0.50400001928E-02 0.  1.
        1   -1    0    0  501    0  0.00000000000E+00  0.00000000000E+00 -0.13590149082E+04  0.13590149082E+04  0.50400001928E-02 0. -1.
    10030    2    1    2    0    0  0.00000000000E+00  0.00000000000E+00 -0.10940545692E+04  0.16239752473E+04  0.12001417431E+04 0.  0.
        3    1    3    3  502    0  0.35495563954E+03  0.22286074427E+03 -0.11281345648E+04  0.12034733167E+04  0.10100000352E+00 0. -1.
       -3    1    3    3    0  502 -0.35495563954E+03 -0.22286074427E+03  0.34079995634E+02  0.42050193065E+03  0.10100000352E+00 0.  1.
</event>
<event>
 5   0  0.9170776E-04  0.1203834E+04  0.7818609E-02  0.9109507E-01
       -1   -1    0    0    0  501  0.00000000000E+00  0.00000000000E+00  0.81113890491E+03  0.81113890493E+03  0.50400001928E-02 0. -1.
        1   -1    0    0  501    0  0.00000000000E+00  0.00000000000E+00 -0.44666096779E+03  0.44666096782E+03  0.50400001928E-02 0.  1.
    10030    2    1    2    0    0  0.00000000000E+00  0.00000000000E+00  0.36447793713E+03  0.12577998727E+04  0.12038340223E+04 0.  0.
        5    1    3    3  502    0  0.21981066511E+02 -0.47679072918E+03  0.56537828316E+03  0.73992382025E+03  0.46999998093E+01 0. -1.
       -5    1    3    3    0  502 -0.21981066511E+02  0.47679072918E+03 -0.20090034603E+03  0.51787605249E+03  0.46999998093E+01 0.  1.
</event>
<event>
 5   0  0.9358428E-04  0.1199053E+04  0.7818609E-02  0.9113686E-01
       -1   -1    0    0    0  501  0.00000000000E+00  0.00000000000E+00  0.34543293977E+03  0.34543293981E+03  0.50400001928E-02 0. -1.
        1   -1    0    0  501    0  0.00000000000E+00  0.00000000000E+00 -0.10405259539E+04  0.10405259539E+04  0.50400001928E-02 0.  1.
    10030    2    1    2    0    0  0.00000000000E+00  0.00000000000E+00 -0.69509301410E+03  0.13859588937E+04  0.11990528582E+04 0.  0.
        2    1    3    3  502    0 -0.22860343294E+03 -0.37129506744E+03  0.12806941130E+03  0.45444618028E+03  0.25500000920E-02 0. -1.
       -2    1    3    3    0  502  0.22860343294E+03  0.37129506744E+03 -0.82316242540E+03  0.93151271342E+03  0.25500000920E-02 0.  1.
</event>
<event>
 5   0  0.1551501E-03  0.1201109E+04  0.7818609E-02  0.9111886E-01
       -2   -1    0    0    0  501  0.00000000000E+00  0.00000000000E+00  0.63298632487E+03  0.63298632488E+03  0.25500000920E-02 0. -1.
        2   -1    0    0  501    0  0.00000000000E+00  0.00000000000E+00 -0.56978463535E+03  0.56978463535E+03  0.25500000920E-02 0.  1.
    10030    2    1    2    0    0  0.00000000000E+00  0.00000000000E+00  0.63201689525E+02  0.12027709602E+04  0.12011092911E+04 0.  0.
        4    1    3    3  502    0  0.19052315628E+03  0.56580469347E+03  0.96731159458E+02  0.60480786564E+03  0.12699999809E+01 0. -1.
       -4    1    3    3    0  502 -0.19052315628E+03 -0.56580469347E+03 -0.33529469933E+02  0.59796309459E+03  0.12699999809E+01 0.  1.
</event>
<event>
 5   0  0.8908478E-04  0.1055076E+04  0.7818609E-02  0.9250119E-01
       -1   -1    0    0    0  501  0.00000000000E+00  0.00000000000E+00  0.61340497004E+03  0.61340497006E+03  0.50400001928E-02 0.  1.
        1   -1    0    0  501    0  0.00000000000E+00  0.00000000000E+00 -0.45369126881E+03  0.45369126884E+03  0.50400001928E-02 0. -1.
    10030    2    1    2    0    0  0.00000000000E+00  0.00000000000E+00  0.15971370123E+03  0.10670962389E+04  0.10550762611E+04 0.  0.
        4    1    3    3  502    0 -0.20299404891E+03  0.48023374872E+03  0.16117072720E+03  0.54571847459E+03  0.12699999809E+01 0.  1.
       -4    1    3    3    0  502  0.20299404891E+03 -0.48023374872E+03 -0.14570259663E+01  0.52137776432E+03  0.12699999809E+01 0. -1.
</event>
<event>
 5   0  0.9208078E-04  0.1190696E+04  0.7818609E-02  0.9121040E-01
        1   -1    0    0  501    0  0.00000000000E+00  0.00000000000E+00  0.50787628207E+03  0.50787628209E+03  0.50400001928E-02 0.  1.
       -1   -1    0    0    0  501  0.00000000000E+00  0.00000000000E+00 -0.69788496561E+03  0.69788496563E+03  0.50400001928E-02 0. -1.
    10030    2    1    2    0    0  0.00000000000E+00  0.00000000000E+00 -0.19000868354E+03  0.12057612477E+04  0.11906959674E+04 0.  0.
        3    1    3    3  502    0 -0.46074019492E+03 -0.29817341309E+03  0.13867561759E+03  0.56605640055E+03  0.10100000352E+00 0.  1.
       -3    1    3    3    0  502  0.46074019492E+03  0.29817341309E+03 -0.32868430113E+03  0.63970484717E+03  0.10100000352E+00 0. -1.
</event>
<event>
 5   0  0.6137750E-04  0.1238749E+04  0.7818609E-02  0.9079600E-01
       -4   -1    0    0    0  501  0.00000000000E+00  0.00000000000E+00  0.23821078833E+03  0.23821417375E+03  0.12699999809E+01 0. -1.
        4   -1    0    0  501    0  0.00000000000E+00  0.00000000000E+00 -0.16104274696E+04  0.16104279703E+04  0.12699999809E+01 0.  1.
    10030    2    1    2    0    0  0.00000000000E+00  0.00000000000E+00 -0.13722166812E+04  0.18486421441E+04  0.12387490289E+04 0.  0.
        2    1    3    3  502    0 -0.59729980901E+03 -0.33217782572E+02 -0.92560223727E+03  0.11020934555E+04  0.25500000920E-02 0.  1.
       -2    1    3    3    0  502  0.59729980901E+03  0.33217782572E+02 -0.44661444396E+03  0.74654868862E+03  0.25500000920E-02 0. -1.
</event>
<event>
 5   0  0.1597352E-03  0.1198616E+04  0.7818609E-02  0.9114068E-01
        2   -1    0    0  501    0  0.00000000000E+00  0.00000000000E+00  0.84721749493E+03  0.84721749494E+03  0.25500000920E-02 0. -1.
       -2   -1    0    0    0  501  0.00000000000E+00  0.00000000000E+00 -0.42394107789E+03  0.42394107789E+03  0.25500000920E-02 0.  1.
    10030    2    1    2    0    0  0.00000000000E+00  0.00000000000E+00  0.42327641705E+03  0.12711585728E+04  0.11986163657E+04 0.  0.
        1    1    3    3  502    0  0.26424910707E+03  0.35093245486E+03  0.64397363204E+03  0.77954038847E+03  0.50400001928E-02 0. -1.
       -1    1    3    3    0  502 -0.26424910707E+03 -0.35093245486E+03 -0.22069721499E+03  0.49161818436E+03  0.50400001928E-02 0.  1.
</event>
<event>
 5   0  0.1647550E-03  0.1168082E+04  0.7818609E-02  0.9141262E-01
       -2   -1    0    0    0  501  0.00000000000E+00  0.00000000000E+00  0.41238393457E+03  0.41238393458E+03  0.25500000920E-02 0. -1.
        2   -1    0    0  501    0  0.00000000000E+00  0.00000000000E+00 -0.82715125656E+03  0.82715125656E+03  0.25500000920E-02 0.  1.
    10030    2    1    2    0    0  0.00000000000E+00  0.00000000000E+00 -0.41476732198E+03  0.12395351911E+04  0.11680820000E+04 0.  0.
        3    1    3    3  502    0 -0.19493900579E+03  0.24264533737E+03 -0.73180625246E+03  0.79524736848E+03  0.10100000352E+00 0.  1.
       -3    1    3    3    0  502  0.19493900579E+03 -0.24264533737E+03  0.31703893048E+03  0.44428782266E+03  0.10100000352E+00 0. -1.
</event>
<event>
 5   0  0.1647550E-03  0.1202814E+04  0.7818609E-02  0.9110397E-01
       -2   -1    0    0    0  501  0.00000000000E+00  0.00000000000E+00  0.56970097621E+03  0.56970097621E+03  0.25500000920E-02 0. -1.
        2   -1    0    0  501    0  0.00000000000E+00  0.00000000000E+00 -0.63487706533E+03  0.63487706533E+03  0.25500000920E-02 0.  1.
    10030    2    1    2    0    0  0.00000000000E+00  0.00000000000E+00 -0.65176089120E+02  0.12045780415E+04  0.12028135082E+04 0.  0.
        3    1    3    3  502    0  0.57580983522E+03  0.14681868075E+03  0.60161979250E+02  0.59727059639E+03  0.10100000352E+00 0. -1.
       -3    1    3    3    0  502 -0.57580983522E+03 -0.14681868075E+03 -0.12533806837E+03  0.60730744516E+03  0.10100000352E+00 0.  1.
</event>
<event>
 5   0  0.8908478E-04  0.1200502E+04  0.7818609E-02  0.9112417E-01
        1   -1    0    0  501    0  0.00000000000E+00  0.00000000000E+00  0.71039389818E+03  0.71039389820E+03  0.50400001928E-02 0. -1.
       -1   -1    0    0    0  501  0.00000000000E+00  0.00000000000E+00 -0.50718502234E+03  0.50718502236E+03  0.50400001928E-02 0.  1.
    10030    2    1    2    0    0  0.00000000000E+00  0.00000000000E+00  0.20320887585E+03  0.12175789206E+04  0.12005018037E+04 0.  0.
        4    1    3    3  502    0 -0.10423010868E+03  0.43418774920E+03 -0.30524596288E+03  0.54088781449E+03  0.12699999809E+01 0.  1.
       -4    1    3    3    0  502  0.10423010868E+03 -0.43418774920E+03  0.50845483872E+03  0.67669110607E+03  0.12699999809E+01 0. -1.
</event>
<event>
 5   0  0.1597352E-03  0.1196828E+04  0.7818609E-02  0.9115638E-01
       -2   -1    0    0    0  501  0.00000000000E+00  0.00000000000E+00  0.54328887223E+03  0.54328887224E+03  0.25500000920E-02 0. -1.
        2   -1    0    0  501    0  0.00000000000E+00  0.00000000000E+00 -0.65913218597E+03  0.65913218597E+03  0.25500000920E-02 0.  1.
    10030    2    1    2    0    0  0.00000000000E+00  0.00000000000E+00 -0.11584331374E+03  0.12024210582E+04  0.11968277770E+04 0.  0.
        1    1    3    3  502    0  0.20660120292E+03 -0.16042592308E+03  0.48281169334E+03  0.54911534771E+03  0.50400001928E-02 0. -1.
       -1    1    3    3    0  502 -0.20660120292E+03  0.16042592308E+03 -0.59865500707E+03  0.65330571049E+03  0.50400001928E-02 0.  1.
</event>
<event>
 5   0  0.9358428E-04  0.1209482E+04  0.7818609E-02  0.9104597E-01
       -1   -1    0    0    0  501  0.00000000000E+00  0.00000000000E+00  0.67092837962E+03  0.67092837964E+03  0.50400001928E-02 0. -1.
        1   -1    0    0  501    0  0.00000000000E+00  0.00000000000E+00 -0.54508287750E+03  0.54508287752E+03  0.50400001928E-02 0.  1.
    10030    2    1    2    0    0  0.00000000000E+00  0.00000000000E+00  0.12584550212E+03  0.12160112572E+04  0.12094818259E+04 0.  0.
        2    1    3    3  502    0  0.46880789985E+03  0.11027553040E+03  0.43064310068E+03  0.64606115789E+03  0.25500000920E-02 0. -1.
       -2    1    3    3    0  502 -0.46880789985E+03 -0.11027553040E+03 -0.30479759856E+03  0.56995009927E+03  0.25500000920E-02 0.  1.
</event>
<event>
 5   0  0.9169078E-04  0.1208672E+04  0.7818609E-02  0.9105300E-01
       -1   -1    0    0    0  501  0.00000000000E+00  0.00000000000E+00  0.11840246544E+04  0.11840246544E+04  0.50400001928E-02 0.  1.
        1   -1    0    0  501    0  0.00000000000E+00  0.00000000000E+00 -0.30845786681E+03  0.30845786685E+03  0.50400001928E-02 0. -1.
    10030    2    1    2    0    0  0.00000000000E+00  0.00000000000E+00  0.87556678759E+03  0.14924825213E+04  0.12086715338E+04 0.  0.
        1    1    3    3  502    0  0.10986631595E+02 -0.58437025039E+03  0.24803799991E+03  0.63492688165E+03  0.50400001928E-02 0. -1.
       -1    1    3    3    0  502 -0.10986631595E+02  0.58437025039E+03  0.62752878769E+03  0.85755563961E+03  0.50400001928E-02 0.  1.
</event>
<event>
 5   0  0.9170776E-04  0.1205707E+04  0.7818609E-02  0.9107876E-01
       -1   -1    0    0    0  501  0.00000000000E+00  0.00000000000E+00  0.26827195558E+03  0.26827195563E+03  0.50400001928E-02 0.  1.
        1   -1    0    0  501    0  0.00000000000E+00  0.00000000000E+00 -0.13547158972E+04  0.13547158972E+04  0.50400001928E-02 0. -1.
    10030    2    1    2    0    0  0.00000000000E+00  0.00000000000E+00 -0.10864439416E+04  0.16229878528E+04  0.12057069014E+04 0.  0.
        5    1    3    3  502    0  0.32477485397E+03  0.20172507934E+03 -0.11706181939E+04  0.12314790941E+04  0.46999998093E+01 0. -1.
       -5    1    3    3    0  502 -0.32477485397E+03 -0.20172507934E+03  0.84174252264E+02  0.39150875872E+03  0.46999998093E+01 0.  1.
</event>
<event>
 5   0  0.1537557E-03  0.1186499E+04  0.7818609E-02  0.9124757E-01
        2   -1    0    0  501    0  0.00000000000E+00  0.00000000000E+00  0.79730753443E+03  0.79730753443E+03  0.25500000920E-02 0. -1.
       -2   -1    0    0    0  501  0.00000000000E+00  0.00000000000E+00 -0.44141658090E+03  0.44141658091E+03  0.25500000920E-02 0.  1.
    10030    2    1    2    0    0  0.00000000000E+00  0.00000000000E+00  0.35589095353E+03  0.12387241153E+04  0.11864986570E+04 0.  0.
        2    1    3    3  502    0  0.55511626178E+03 -0.26694036783E+02  0.39463392684E+03  0.68161761414E+03  0.25500000920E-02 0.  1.
       -2    1    3    3    0  502 -0.55511626178E+03  0.26694036783E+02 -0.38742973306E+02  0.55710650120E+03  0.25500000920E-02 0. -1.
</event>
<event>
 5   0  0.1551501E-03  0.1194711E+04  0.7818609E-02  0.9117499E-01
        2   -1    0    0  501    0  0.00000000000E+00  0.00000000000E+00  0.57096262206E+03  0.57096262207E+03  0.25500000920E-02 0.  1.
       -2   -1    0    0    0  501  0.00000000000E+00  0.00000000000E+00 -0.62496835070E+03  0.62496835071E+03  0.25500000920E-02 0. -1.
    10030    2    1    2    0    0  0.00000000000E+00  0.00000000000E+00 -0.54005728642E+02  0.11959309728E+04  0.11947109579E+04 0.  0.
        4    1    3    3  502    0  0.54201322003E+03  0.10255832362E+03 -0.25644297831E+03  0.60832651961E+03  0.12699999809E+01 0. -1.
       -4    1    3    3    0  502 -0.54201322003E+03 -0.10255832362E+03  0.20243724967E+03  0.58760445317E+03  0.12699999809E+01 0.  1.
</event>
<event>
 5   0  0.1647550E-03  0.1201313E+04  0.7818609E-02  0.9111708E-01
       -2   -1    0    0    0  501  0.00000000000E+00  0.00000000000E+00  0.68298906179E+03  0.68298906180E+03  0.25500000920E-02 0.  1.
        2   -1    0    0  501    0  0.00000000000E+00  0.00000000000E+00 -0.52824919402E+03  0.52824919403E+03  0.25500000920E-02 0. -1.
    10030    2    1    2    0    0  0.00000000000E+00  0.00000000000E+00  0.15473986777E+03  0.12112382558E+04  0.12013133170E+04 0.  0.
        3    1    3    3  502    0 -0.17604665275E+03  0.24766571383E+02  0.65585443279E+03  0.67952251929E+03  0.10100000352E+00 0.  1.
       -3    1    3    3    0  502  0.17604665275E+03 -0.24766571383E+02 -0.50111456502E+03  0.53171573654E+03  0.10100000352E+00 0. -1.
</event>
<event>
 5   0  0.6137750E-04  0.1182706E+04  0.7818609E-02  0.9128130E-01
        3   -1    0    0  501    0  0.00000000000E+00  0.00000000000E+00  0.89977182741E+03  0.89977183308E+03  0.10100000352E+00 0. -1.
       -3   -1    0    0    0  501  0.00000000000E+00  0.00000000000E+00 -0.38865214495E+03  0.38865215807E+03  0.10100000352E+00 0.  1.
    10030    2    1    2    0    0  0.00000000000E+00  0.00000000000E+00  0.51111968246E+03  0.12884239911E+04  0.11827058177E+04 0.  0.
        2    1    3    3  502    0 -0.44836205261E+03 -0.19637322726E+03 -0.10592501101E+03  0.50081042578E+03  0.25500000920E-02 0.  1.
       -2    1    3    3    0  502  0.44836205261E+03  0.19637322726E+03  0.61704469347E+03  0.78761356537E+03  0.25500000920E-02 0. -1.
</event>
<event>
 5   0  0.6137750E-04  0.1172902E+04  0.7818609E-02  0.9136912E-01
       -4   -1    0    0    0  501  0.00000000000E+00  0.00000000000E+00  0.58523507981E+03  0.58523645780E+03  0.12699999809E+01 0. -1.
        4   -1    0    0  501    0  0.00000000000E+00  0.00000000000E+00 -0.58766680539E+03  0.58766817768E+03  0.12699999809E+01 0.  1.
    10030    2    1    2    0    0  0.00000000000E+00  0.00000000000E+00 -0.24317255869E+01  0.11729046355E+04  0.11729021147E+04 0.  0.
        2    1    3    3  502    0  0.17829702219E+03  0.35657610870E+03  0.42888794839E+03  0.58556060463E+03  0.25500000920E-02 0. -1.
       -2    1    3    3    0  502 -0.17829702219E+03 -0.35657610870E+03 -0.43131967397E+03  0.58734403085E+03  0.25500000920E-02 0.  1.
</event>
<event>
 5   0  0.1551501E-03  0.1218694E+04  0.7818609E-02  0.9096649E-01
       -2   -1    0    0    0  501  0.00000000000E+00  0.00000000000E+00  0.41502690272E+03  0.41502690272E+03  0.25500000920E-02 0.  1.
        2   -1    0    0  501    0  0.00000000000E+00  0.00000000000E+00 -0.89464963341E+03  0.89464963342E+03  0.25500000920E-02 0. -1.
    10030    2    1    2    0    0  0.00000000000E+00  0.00000000000E+00 -0.47962273070E+03  0.13096765361E+04  0.12186938358E+04 0.  0.
        4    1    3    3  502    0  0.29410724207E+03 -0.50187024403E+03 -0.44799831635E+02  0.58342218804E+03  0.12699999809E+01 0.  1.
       -4    1    3    3    0  502 -0.29410724207E+03  0.50187024403E+03 -0.43482289906E+03  0.72625434810E+03  0.12699999809E+01 0. -1.
</event>
<event>
 5   0  0.1597352E-03  0.1199943E+04  0.7818609E-02  0.9112906E-01
       -2   -1    0    0    0  501  0.00000000000E+00  0.00000000000E+00  0.27989377074E+03  0.27989377075E+03  0.25500000920E-02 0. -1.
        2   -1    0    0  501    0  0.00000000000E+00  0.00000000000E+00 -0.12860808788E+04  0.12860808788E+04  0.25500000920E-02 0.  1.
    10030    2    1    2    0    0  0.00000000000E+00  0.00000000000E+00 -0.10061871080E+04  0.15659746495E+04  0.11999433764E+04 0.  0.
        1    1    3    3  502    0  0.20651178691E+03  0.52267545301E+03 -0.22894409581E+03  0.60683782541E+03  0.50400001928E-02 0. -1.
       -1    1    3    3    0  502 -0.20651178691E+03 -0.52267545301E+03 -0.77724301223E+03  0.95913682413E+03  0.50400001928E-02 0.  1.
</event>
<event>
 5   0  0.8908478E-04  0.1203938E+04  0.7818609E-02  0.9109417E-01
       -1   -1    0    0    0  501  0.00000000000E+00  0.00000000000E+00  0.42136838851E+03  0.42136838854E+03  0.50400001928E-02 0.  1.
        1   -1    0    0  501    0  0.00000000000E+00  0.00000000000E+00 -0.85997566293E+03  0.85997566295E+03  0.50400001928E-02 0. -1.
    10030    2    1    2    0    0  0.00000000000E+00  0.00000000000E+00 -0.43860727443E+03  0.12813440515E+04  0.12039378045E+04 0.  0.
        4    1    3    3  502    0 -0.29533555973E+03 -0.35269966436E+03 -0.63252510463E+03  0.78211876782E+03  0.12699999809E+01 0. -1.
       -4    1    3    3    0  502  0.29533555973E+03  0.35269966436E+03  0.19391783021E+03  0.49922528367E+03  0.12699999809E+01 0.  1.
</event>
<event>
 5   0  0.9170776E-04  0.1184250E+04  0.7818609E-02  0.9126755E-01
       -1   -1    0    0    0  501  0.00000000000E+00  0.00000000000E+00  0.36284998801E+03  0.36284998805E+03  0.50400001928E-02 0. -1.
        1   -1    0    0  501    0  0.00000000000E+00  0.00000000000E+00 -0.96627313357E+03  0.96627313358E+03  0.50400001928E-02 0.  1.
    10030    2    1    2    0    0  0.00000000000E+00  0.00000000000E+00 -0.60342314555E+03  0.13291231216E+04  0.11842503029E+04 0.  0.
        5    1    3    3  502    0 -0.37112133290E+03 -0.16008400694E+03  0.18392562702E+03  0.44408181599E+03  0.46999998093E+01 0. -1.
       -5    1    3    3    0  502  0.37112133290E+03  0.16008400694E+03 -0.78734877258E+03  0.88504130564E+03  0.46999998093E+01 0.  1.
</event>
<event>
 5   0  0.1567019E-03  0.1224211E+04  0.7818609E-02  0.9091925E-01
       -2   -1    0    0    0  501  0.00000000000E+00  0.00000000000E+00  0.72363355471E+03  0.72363355471E+03  0.25500000920E-02 0. -1.
        2   -1    0    0  501    0  0.00000000000E+00  0.00000000000E+00 -0.51776599841E+03  0.51776599842E+03  0.25500000920E-02 0.  1.
    10030    2    1    2    0    0  0.00000000000E+00  0.00000000000E+00  0.20586755630E+03  0.12413995531E+04  0.12242105210E+04 0.  0.
        5    1    3    3  502    0 -0.46299918617E+03 -0.10846514840E+03  0.49372497101E+03  0.68550665336E+03  0.46999998093E+01 0. -1.
       -5    1    3    3    0  502  0.46299918617E+03  0.10846514840E+03 -0.28785741471E+03  0.55589289977E+03  0.46999998093E+01 0.  1.
</event>
<event>
 5   0  0.1567019E-03  0.1188617E+04  0.7818609E-02  0.9122879E-01
       -2   -1    0    0    0  501  0.00000000000E+00  0.00000000000E+00  0.39142972427E+03  0.39142972428E+03  0.25500000920E-02 0.  1.
        2   -1    0    0  501    0  0.00000000000E+00  0.00000000000E+00 -0.90233906385E+03  0.90233906385E+03  0.25500000920E-02 0. -1.
    10030    2    1    2    0    0  0.00000000000E+00  0.00000000000E+00 -0.51090933958E+03  0.12937687881E+04  0.11886165588E+04 0.  0.
        5    1    3    3  502    0  0.15437132257E+03 -0.54863030851E+03 -0.43873929922E+03  0.71926350062E+03  0.46999998093E+01 0.  1.
       -5    1    3    3    0  502 -0.15437132257E+03  0.54863030851E+03 -0.72170040363E+02  0.57450528751E+03  0.46999998093E+01 0. -1.
</event>
<event>
 5   0  0.1567019E-03  0.1195927E+04  0.7818609E-02  0.9116429E-01
        2   -1    0    0  501    0  0.00000000000E+00  0.00000000000E+00  0.10426819490E+04  0.10426819490E+04  0.25500000920E-02 0. -1.
       -2   -1    0    0    0  501  0.00000000000E+00  0.00000000000E+00 -0.34292350886E+03  0.34292350887E+03  0.25500000920E-02 0.  1.
    10030    2    1    2    0    0  0.00000000000E+00  0.00000000000E+00  0.69975844017E+03  0.13856054579E+04  0.11959266743E+04 0.  0.
        5    1    3    3  502    0  0.17197305507E+03  0.57259079513E+03  0.36164417296E+03  0.69874426521E+03  0.46999998093E+01 0.  1.
       -5    1    3    3    0  502 -0.17197305507E+03 -0.57259079513E+03  0.33811426721E+03  0.68686119269E+03  0.46999998093E+01 0. -1.
</event>
<event>
 5   0  0.1551501E-03  0.1215595E+04  0.7818609E-02  0.9099315E-01
       -2   -1    0    0    0  501  0.00000000000E+00  0.00000000000E+00  0.30153219247E+03  0.30153219248E+03  0.25500000920E-02 0.  1.
        2   -1    0    0  501    0  0.00000000000E+00  0.00000000000E+00 -0.12251346804E+04  0.12251346804E+04  0.25500000920E-02 0. -1.
    10030    2    1    2    0    0  0.00000000000E+00  0.00000000000E+00 -0.92360248796E+03  0.15266668729E+04  0.12155945809E+04 0.  0.
        4    1    3    3  502    0 -0.28313753406E+03  0.53713261273E+03 -0.42769186694E+03  0.74269795529E+03  0.12699999809E+01 0. -1.
       -4    1    3    3    0  502  0.28313753406E+03 -0.53713261273E+03 -0.49591062102E+03  0.78396891762E+03  0.12699999809E+01 0.  1.
</event>
<event>
 5   0  0.1551501E-03  0.1199649E+04  0.7818609E-02  0.9113164E-01
       -2   -1    0    0    0  501  0.00000000000E+00  0.00000000000E+00  0.35714487714E+03  0.35714487715E+03  0.25500000920E-02 0. -1.
        2   -1    0    0  501    0  0.00000000000E+00  0.00000000000E+00 -0.10074049643E+04  0.10074049643E+04  0.25500000920E-02 0.  1.
    10030    2    1    2    0    0  0.00000000000E+00  0.00000000000E+00 -0.65026008715E+03  0.13645498414E+04  0.11996491524E+04 0.  0.
        4    1    3    3  502    0  0.16512950195E+03  0.56512744421E+03 -0.19468827885E+03  0.62011444060E+03  0.12699999809E+01 0. -1.
       -4    1    3    3    0  502 -0.16512950195E+03 -0.56512744421E+03 -0.45557180830E+03  0.74443540085E+03  0.12699999809E+01 0.  1.
</event>
<event>
 5   0  0.9170776E-04  0.1195598E+04  0.7818609E-02  0.9116718E-01
       -1   -1    0    0    0  501  0.00000000000E+00  0.00000000000E+00  0.19211062045E+04  0.19211062045E+04  0.50400001928E-02 0. -1.
        1   -1    0    0  501    0  0.00000000000E+00  0.00000000000E+00 -0.18601980837E+03  0.18601980844E+03  0.50400001928E-02 0.  1.
    10030    2    1    2    0    0  0.00000000000E+00  0.00000000000E+00  0.17350863962E+04  0.21071260130E+04  0.11955982739E+04 0.  0.
        5    1    3    3  502    0 -0.25872453594E+03  0.42582940655E+03  0.28548935653E+03  0.57427809611E+03  0.46999998093E+01 0.  1.
       -5    1    3    3    0  502  0.25872453594E+03 -0.42582940655E+03  0.14495970396E+04  0.15328479169E+04  0.46999998093E+01 0. -1.
</event>
<event>
 5   0  0.1597352E-03  0.1192260E+04  0.7818609E-02  0.9119659E-01
        2   -1    0    0  501    0  0.00000000000E+00  0.00000000000E+00  0.41168586782E+03  0.41168586783E+03  0.25500000920E-02 0. -1.
       -2   -1    0    0    0  501  0.00000000000E+00  0.00000000000E+00 -0.86320846253E+03  0.86320846253E+03  0.25500000920E-02 0.  1.
    10030    2    1    2    0    0  0.00000000000E+00  0.00000000000E+00 -0.45152259471E+03  0.12748943304E+04  0.11922595775E+04 0.  0.
        1    1    3    3  502    0 -0.50560717423E+03 -0.21794683298E+03 -0.47014302973E+03  0.72399855322E+03  0.50400001928E-02 0. -1.
       -1    1    3    3    0  502  0.50560717423E+03  0.21794683298E+03  0.18620435022E+02  0.55089577714E+03  0.50400001928E-02 0.  1.
</event>
<event>
 5   0  0.1537557E-03  0.1197819E+04  0.7818609E-02  0.9114768E-01
        2   -1    0    0  501    0  0.00000000000E+00  0.00000000000E+00  0.37901917086E+03  0.37901917087E+03  0.25500000920E-02 0. -1.
       -2   -1    0    0    0  501  0.00000000000E+00  0.00000000000E+00 -0.94637082972E+03  0.94637082972E+03  0.25500000920E-02 0.  1.
    10030    2    1    2    0    0  0.00000000000E+00  0.00000000000E+00 -0.56735165886E+03  0.13253900006E+04  0.11978191637E+04 0.  0.
        2    1    3    3  502    0  0.90777973442E+02 -0.21255357255E+02  0.37094016759E+03  0.38247750079E+03  0.25500000920E-02 0. -1.
       -2    1    3    3    0  502 -0.90777973442E+02  0.21255357255E+02 -0.93829182645E+03  0.94291249980E+03  0.25500000920E-02 0.  1.
</event>
<event>
 5   0  0.9169078E-04  0.1198875E+04  0.7818609E-02  0.9113842E-01
        1   -1    0    0  501    0  0.00000000000E+00  0.00000000000E+00  0.82363431734E+03  0.82363431736E+03  0.50400001928E-02 0.  1.
       -1   -1    0    0    0  501  0.00000000000E+00  0.00000000000E+00 -0.43626826995E+03  0.43626826997E+03  0.50400001928E-02 0. -1.
    10030    2    1    2    0    0  0.00000000000E+00  0.00000000000E+00  0.38736604740E+03  0.12599025873E+04  0.11988753375E+04 0.  0.
        1    1    3    3  502    0  0.26429258201E+03  0.48794952859E+03 -0.44527458244E+02  0.55671177994E+03  0.50400001928E-02 0. -1.
       -1    1    3    3    0  502 -0.26429258201E+03 -0.48794952859E+03  0.43189350564E+03  0.70319080739E+03  0.50400001928E-02 0.  1.
</event>
<event>
 5   0  0.1567019E-03  0.1199733E+04  0.7818609E-02  0.9113090E-01
       -2   -1    0    0    0  501  0.00000000000E+00  0.00000000000E+00  0.81184645014E+03  0.81184645015E+03  0.25500000920E-02 0.  1.
        2   -1    0    0  501    0  0.00000000000E+00  0.00000000000E+00 -0.44323656479E+03  0.44323656480E+03  0.25500000920E-02 0. -1.
    10030    2    1    2    0    0  0.00000000000E+00  0.00000000000E+00  0.36860988535E+03  0.12550830149E+04  0.11997333566E+04 0.  0.
        5    1    3    3  502    0 -0.38611543178E+03 -0.11125958931E+03 -0.28161181387E+03  0.49070472443E+03  0.46999998093E+01 0. -1.
       -5    1    3    3    0  502  0.38611543178E+03  0.11125958931E+03  0.65022169922E+03  0.76437829051E+03  0.46999998093E+01 0.  1.
</event>
<event>
 5   0  0.1537557E-03  0.1193755E+04  0.7818609E-02  0.9118340E-01
        2   -1    0    0  501    0  0.00000000000E+00  0.00000000000E+00  0.14086644027E+04  0.14086644027E+04  0.25500000920E-02 0. -1.
       -2   -1    0    0    0  501  0.00000000000E+00  0.00000000000E+00 -0.25290828970E+03  0.25290828972E+03  0.25500000920E-02 0.  1.
    10030    2    1    2    0    0  0.00000000000E+00  0.00000000000E+00  0.11557561130E+04  0.16615726924E+04  0.11937552595E+04 0.  0.
        2    1    3    3  502    0  0.33402073565E+03  0.40914300395E+03  0.96485037924E+03  0.10999564100E+04  0.25500000920E-02 0. -1.
       -2    1    3    3    0  502 -0.33402073565E+03 -0.40914300395E+03  0.19090573376E+03  0.56161628245E+03  0.25500000920E-02 0.  1.
</event>
<event>
 5   0  0.9169078E-04  0.1204383E+04  0.7818609E-02  0.9109029E-01
       -1   -1    0    0    0  501  0.00000000000E+00  0.00000000000E+00  0.99658082212E+03  0.99658082213E+03  0.50400001928E-02 0.  1.
        1   -1    0    0  501    0  0.00000000000E+00  0.00000000000E+00 -0.36387885472E+03  0.36387885475E+03  0.50400001928E-02 0. -1.
    10030    2    1    2    0    0  0.00000000000E+00  0.00000000000E+00  0.63270196740E+03  0.13604596769E+04  0.12043831421E+04 0.  0.
        1    1    3    3  502    0 -0.24547838253E+03  0.12395811726E+03  0.92150942353E+03  0.96166775386E+03  0.50400001928E-02 0.  1.
       -1    1    3    3    0  502  0.24547838253E+03 -0.12395811726E+03 -0.28880745614E+03  0.39879192303E+03  0.50400001928E-02 0. -1.
</event>
<event>
 5   0  0.1567019E-03  0.1181428E+04  0.7818609E-02  0.9129270E-01
       -2   -1    0    0    0  501  0.00000000000E+00  0.00000000000E+00  0.34526896988E+03  0.34526896989E+03  0.25500000920E-02 0.  1.
        2   -1    0    0  501    0  0.00000000000E+00  0.00000000000E+00 -0.10106411661E+04  0.10106411661E+04  0.25500000920E-02 0. -1.
    10030    2    1    2    0    0  0.00000000000E+00  0.00000000000E+00 -0.66537219622E+03  0.13559101360E+04  0.11814280077E+04 0.  0.
        5    1    3    3  502    0 -0.17048640910E+03  0.49722142138E+03 -0.23392973445E+02  0.52617875173E+03  0.46999998093E+01 0.  1.
       -5    1    3    3    0  502  0.17048640910E+03 -0.49722142138E+03 -0.64197922278E+03  0.82973138427E+03  0.46999998093E+01 0. -1.
</event>
<event>
 5   0  0.1567019E-03  0.1193709E+04  0.7818609E-02  0.9118381E-01
       -2   -1    0    0    0  501  0.00000000000E+00  0.00000000000E+00  0.11280141603E+04  0.11280141603E+04  0.25500000920E-02 0.  1.
        2   -1    0    0  501    0  0.00000000000E+00  0.00000000000E+00 -0.31580733681E+03  0.31580733682E+03  0.25500000920E-02 0. -1.
    10030    2    1    2    0    0  0.00000000000E+00  0.00000000000E+00  0.81220682349E+03  0.14438214971E+04  0.11937087549E+04 0.  0.
        5    1    3    3  502    0 -0.58406409785E+03  0.92471528264E+02  0.30835454151E+03  0.66692313440E+03  0.46999998093E+01 0. -1.
       -5    1    3    3    0  502  0.58406409785E+03 -0.92471528264E+02  0.50385228198E+03  0.77689836271E+03  0.46999998093E+01 0.  1.
</event>
<event>
 5   0  0.1647550E-03  0.1198056E+04  0.7818609E-02  0.9114560E-01
       -2   -1    0    0    0  501  0.00000000000E+00  0.00000000000E+00  0.59851711000E+03  0.59851711001E+03  0.25500000920E-02 0. -1.
        2   -1    0    0  501    0  0.00000000000E+00  0.00000000000E+00 -0.59953959718E+03  0.59953959718E+03  0.25500000920E-02 0.  1.
    10030    2    1    2    0    0  0.00000000000E+00  0.00000000000E+00 -0.10224871735E+01  0.11980567072E+04  0.11980562709E+04 0.  0.
        3    1    3    3  502    0  0.23623093469E+03  0.54754613330E+03 -0.57281628379E+02  0.59907680455E+03  0.10100000352E+00 0. -1.
       -3    1    3    3    0  502 -0.23623093469E+03 -0.54754613330E+03  0.56259141206E+02  0.59897990264E+03  0.10100000352E+00 0.  1.
</event>
<event>
 5   0  0.6137750E-04  0.1200508E+04  0.7818609E-02  0.9112412E-01
        4   -1    0    0  501    0  0.00000000000E+00  0.00000000000E+00  0.60524483491E+03  0.60524616734E+03  0.12699999809E+01 0.  1.
       -4   -1    0    0    0  501  0.00000000000E+00  0.00000000000E+00 -0.59530192909E+03  0.59530328378E+03  0.12699999809E+01 0. -1.
    10030    2    1    2    0    0  0.00000000000E+00  0.00000000000E+00  0.99429058164E+01  0.12005494511E+04  0.12005082770E+04 0.  0.
        3    1    3    3  502    0 -0.22681314732E+03  0.55415791739E+03  0.47042117235E+02  0.60062315323E+03  0.10100000352E+00 0. -1.
       -3    1    3    3    0  502  0.22681314732E+03 -0.55415791739E+03 -0.37099211418E+02  0.59992629789E+03  0.10100000352E+00 0.  1.
</event>
<event>
 5   0  0.9170776E-04  0.1191697E+04  0.7818609E-02  0.9120156E-01
        1   -1    0    0  501    0  0.00000000000E+00  0.00000000000E+00  0.10464795466E+04  0.10464795466E+04  0.50400001928E-02 0. -1.
       -1   -1    0    0    0  501  0.00000000000E+00  0.00000000000E+00 -0.33926631682E+03  0.33926631685E+03  0.50400001928E-02 0.  1.
    10030    2    1    2    0    0  0.00000000000E+00  0.00000000000E+00  0.70721322980E+03  0.13857458635E+04  0.11916967088E+04 0.  0.
        5    1    3    3  502    0  0.88484057371E+01  0.44913452397E+03 -0.10155511492E+03  0.46058185622E+03  0.46999998093E+01 0.  1.
       -5    1    3    3    0  502 -0.88484057371E+01 -0.44913452397E+03  0.80876834472E+03  0.92516400726E+03  0.46999998093E+01 0. -1.
</event>
<event>
 5   0  0.1537557E-03  0.1197567E+04  0.7818609E-02  0.9114988E-01
        2   -1    0    0  501    0  0.00000000000E+00  0.00000000000E+00  0.19809956372E+04  0.19809956372E+04  0.25500000920E-02 0.  1.
       -2   -1    0    0    0  501  0.00000000000E+00  0.00000000000E+00 -0.18099079645E+03  0.18099079647E+03  0.25500000920E-02 0. -1.
    10030    2    1    2    0    0  0.00000000000E+00  0.00000000000E+00  0.18000048407E+04  0.21619864336E+04  0.11975674981E+04 0.  0.
        2    1    3    3  502    0 -0.56547417698E+03  0.61956920597E+02  0.56253757193E+03  0.80003013986E+03  0.25500000920E-02 0. -1.
       -2    1    3    3    0  502  0.56547417698E+03 -0.61956920597E+02  0.12374672688E+04  0.13619562938E+04  0.25500000920E-02 0.  1.
</event>
<event>
 5   0  0.1597352E-03  0.1199701E+04  0.7818609E-02  0.9113118E-01
        2   -1    0    0  501    0  0.00000000000E+00  0.00000000000E+00  0.14763708561E+04  0.14763708561E+04  0.25500000920E-02 0. -1.
       -2   -1    0    0    0  501  0.00000000000E+00  0.00000000000E+00 -0.24371965269E+03  0.24371965270E+03  0.25500000920E-02 0.  1.
    10030    2    1    2    0    0  0.00000000000E+00  0.00000000000E+00  0.12326512034E+04  0.17200905088E+04  0.11997009499E+04 0.  0.
        1    1    3    3  502    0 -0.45657426019E+03 -0.12689079060E+03  0.89020701174E+02  0.48216803406E+03  0.50400001928E-02 0.  1.
       -1    1    3    3    0  502  0.45657426019E+03  0.12689079060E+03  0.11436305022E+04  0.12379224747E+04  0.50400001928E-02 0. -1.
</event>
<event>
 5   0  0.9358428E-04  0.1205149E+04  0.7818609E-02  0.9108361E-01
       -1   -1    0    0    0  501  0.00000000000E+00  0.00000000000E+00  0.25417470870E+03  0.25417470875E+03  0.50400001928E-02 0.  1.
        1   -1    0    0  501    0  0.00000000000E+00  0.00000000000E+00 -0.14285303407E+04  0.14285303407E+04  0.50400001928E-02 0. -1.
    10030    2    1    2    0    0  0.00000000000E+00  0.00000000000E+00 -0.11743556320E+04  0.16827050495E+04  0.12051494235E+04 0.  0.
        2    1    3    3  502    0 -0.53600373080E+03 -0.12487109308E+03 -0.92977039301E+03  0.10804470246E+04  0.25500000920E-02 0.  1.
       -2    1    3    3    0  502  0.53600373080E+03  0.12487109308E+03 -0.24458523898E+03  0.60225802482E+03  0.25500000920E-02 0. -1.
</event>
<event>
 5   0  0.9208078E-04  0.1201096E+04  0.7818609E-02  0.9111898E-01
        1   -1    0    0  501    0  0.00000000000E+00  0.00000000000E+00  0.10431828846E+04  0.10431828846E+04  0.50400001928E-02 0.  1.
       -1   -1    0    0    0  501  0.00000000000E+00  0.00000000000E+00 -0.34572830794E+03  0.34572830798E+03  0.50400001928E-02 0. -1.
    10030    2    1    2    0    0  0.00000000000E+00  0.00000000000E+00  0.69745457664E+03  0.13889111926E+04  0.12010959222E+04 0.  0.
        3    1    3    3  502    0  0.44223854175E+03 -0.26356297641E+03 -0.88462864033E+01  0.51489672491E+03  0.10100000352E+00 0. -1.
       -3    1    3    3    0  502 -0.44223854175E+03  0.26356297641E+03  0.70630086304E+03  0.87401446766E+03  0.10100000352E+00 0.  1.
</event>
<event>
 5   0  0.1537557E-03  0.1206492E+04  0.7818609E-02  0.9107193E-01
       -2   -1    0    0    0  501  0.00000000000E+00  0.00000000000E+00  0.36154076442E+03  0.36154076443E+03  0.25500000920E-02 0. -1.
        2   -1    0    0  501    0  0.00000000000E+00  0.00000000000E+00 -0.10065417716E+04  0.10065417716E+04  0.25500000920E-02 0.  1.
    10030    2    1    2    0    0  0.00000000000E+00  0.00000000000E+00 -0.64500100720E+03  0.13680825361E+04  0.12064922404E+04 0.  0.
        2    1    3    3  502    0  0.25340168804E+03  0.32563014695E+03  0.17650578416E+03  0.44877800743E+03  0.25500000920E-02 0. -1.
       -2    1    3    3    0  502 -0.25340168804E+03 -0.32563014695E+03 -0.82150679136E+03  0.91930452863E+03  0.25500000920E-02 0.  1.
</event>
<event>
 5   0  0.9169078E-04  0.1199029E+04  0.7818609E-02  0.9113707E-01
       -1   -1    0    0    0  501  0.00000000000E+00  0.00000000000E+00  0.61327285737E+03  0.61327285739E+03  0.50400001928E-02 0.  1.
        1   -1    0    0  501    0  0.00000000000E+00  0.00000000000E+00 -0.58606432313E+03  0.58606432315E+03  0.50400001928E-02 0. -1.
    10030    2    1    2    0    0  0.00000000000E+00  0.00000000000E+00  0.27208534233E+02  0.11993371805E+04  0.11990285102E+04 0.  0.
        1    1    3    3  502    0  0.36542435925E+03 -0.16169314208E+03 -0.43343103259E+03  0.58952700919E+03  0.50400001928E-02 0. -1.
       -1    1    3    3    0  502 -0.36542435925E+03  0.16169314208E+03  0.46063956682E+03  0.60981017135E+03  0.50400001928E-02 0.  1.
</event>
<event>
 5   0  0.9169078E-04  0.1190565E+04  0.7818609E-02  0.9121155E-01
       -1   -1    0    0    0  501  0.00000000000E+00  0.00000000000E+00  0.49334545629E+03  0.49334545632E+03  0.50400001928E-02 0. -1.
        1   -1    0    0  501    0  0.00000000000E+00  0.00000000000E+00 -0.71828250392E+03  0.71828250394E+03  0.50400001928E-02 0.  1.
    10030    2    1    2    0    0  0.00000000000E+00  0.00000000000E+00 -0.22493704763E+03  0.12116279603E+04  0.11905652602E+04 0.  0.
        1    1    3    3  502    0 -0.62136402800E+02 -0.21564058670E+03 -0.67358445226E+03  0.70998437274E+03  0.50400001928E-02 0.  1.
       -1    1    3    3    0  502  0.62136402800E+02  0.21564058670E+03  0.44864740463E+03  0.50164358752E+03  0.50400001928E-02 0. -1.
</event>
<event>
 5   0  0.9358428E-04  0.1194058E+04  0.7818609E-02  0.9118074E-01
        1   -1    0    0  501    0  0.00000000000E+00  0.00000000000E+00  0.85789427800E+03  0.85789427802E+03  0.50400001928E-02 0. -1.
       -1   -1    0    0    0  501  0.00000000000E+00  0.00000000000E+00 -0.41548654496E+03  0.41548654500E+03  0.50400001928E-02 0.  1.
    10030    2    1    2    0    0  0.00000000000E+00  0.00000000000E+00  0.44240773304E+03  0.12733808230E+04  0.11940578370E+04 0.  0.
        2    1    3    3  502    0  0.17491963709E+03 -0.36879314971E+02  0.82868291300E+03  0.84774544152E+03  0.25500000920E-02 0. -1.
       -2    1    3    3    0  502 -0.17491963709E+03  0.36879314971E+02 -0.38627517997E+03  0.42563538149E+03  0.25500000920E-02 0.  1.
</event>
<event>
 5   0  0.1551501E-03  0.1202340E+04  0.7818609E-02  0.9110810E-01
       -2   -1    0    0    0  501  0.00000000000E+00  0.00000000000E+00  0.44955124497E+03  0.44955124498E+03  0.25500000920E-02 0.  1.
        2   -1    0    0  501    0  0.00000000000E+00  0.00000000000E+00 -0.80392534326E+03  0.80392534327E+03  0.25500000920E-02 0. -1.
    10030    2    1    2    0    0  0.00000000000E+00  0.00000000000E+00 -0.35437409829E+03  0.12534765882E+04  0.12023404492E+04 0.  0.
        4    1    3    3  502    0 -0.58175143739E+03 -0.12210427387E+03 -0.27078189000E+03  0.65319877024E+03  0.12699999809E+01 0. -1.
       -4    1    3    3    0  502  0.58175143739E+03  0.12210427387E+03 -0.83592208296E+02  0.60027781800E+03  0.12699999809E+01 0.  1.
</event>
<event>
 5   0  0.1567019E-03  0.1163064E+04  0.7818609E-02  0.9145815E-01
       -2   -1    0    0    0  501  0.00000000000E+00  0.00000000000E+00  0.21254510217E+03  0.21254510218E+03  0.25500000920E-02 0.  1.
        2   -1    0    0  501    0  0.00000000000E+00  0.00000000000E+00 -0.15910957883E+04  0.15910957883E+04  0.25500000920E-02 0. -1.
    10030    2    1    2    0    0  0.00000000000E+00  0.00000000000E+00 -0.13785506862E+04  0.18036408905E+04  0.11630642577E+04 0.  0.
        5    1    3    3  502    0 -0.43286272079E+03 -0.38600650304E+03 -0.62373144756E+03  0.85172423008E+03  0.46999998093E+01 0. -1.
       -5    1    3    3    0  502  0.43286272079E+03  0.38600650304E+03 -0.75481923860E+03  0.95191666042E+03  0.46999998093E+01 0.  1.
</event>
<event>
 5   0  0.1551501E-03  0.1139017E+04  0.7818609E-02  0.9167976E-01
        2   -1    0    0  501    0  0.00000000000E+00  0.00000000000E+00  0.10271380644E+04  0.10271380644E+04  0.25500000920E-02 0.  1.
       -2   -1    0    0    0  501  0.00000000000E+00  0.00000000000E+00 -0.31577062995E+03  0.31577062996E+03  0.25500000920E-02 0. -1.
    10030    2    1    2    0    0  0.00000000000E+00  0.00000000000E+00  0.71136743441E+03  0.13429086943E+04  0.11390171792E+04 0.  0.
        4    1    3    3  502    0 -0.82827311741E+02  0.32040259623E+02 -0.30755485552E+03  0.32012270125E+03  0.12699999809E+01 0. -1.
       -4    1    3    3    0  502  0.82827311741E+02 -0.32040259623E+02  0.10189222899E+04  0.10227859931E+04  0.12699999809E+01 0.  1.
</event>
<event>
 5   0  0.1597352E-03  0.1203644E+04  0.7818609E-02  0.9109673E-01
       -2   -1    0    0    0  501  0.00000000000E+00  0.00000000000E+00  0.23875075427E+03  0.23875075429E+03  0.25500000920E-02 0.  1.
        2   -1    0    0  501    0  0.00000000000E+00  0.00000000000E+00 -0.15170212976E+04  0.15170212976E+04  0.25500000920E-02 0. -1.
    10030    2    1    2    0    0  0.00000000000E+00  0.00000000000E+00 -0.12782705433E+04  0.17557720519E+04  0.12036444310E+04 0.  0.
        1    1    3    3  502    0  0.55687965776E+01  0.18148855048E+03  0.19784187982E+03  0.26853401067E+03  0.50400001928E-02 0.  1.
       -1    1    3    3    0  502 -0.55687965776E+01 -0.18148855048E+03 -0.14761124231E+04  0.14872380412E+04  0.50400001928E-02 0. -1.
</event>
<event>
 5   0  0.1567019E-03  0.1199461E+04  0.7818609E-02  0.9113328E-01
       -2   -1    0    0    0  501  0.00000000000E+00  0.00000000000E+00  0.28724600457E+03  0.28724600458E+03  0.25500000920E-02 0.  1.
        2   -1    0    0  501    0  0.00000000000E+00  0.00000000000E+00 -0.12521559604E+04  0.12521559604E+04  0.25500000920E-02 0. -1.
    10030    2    1    2    0    0  0.00000000000E+00  0.00000000000E+00 -0.96490995579E+03  0.15394019649E+04  0.11994612069E+04 0.  0.
        5    1    3    3  502    0  0.47966479575E+03 -0.18802082102E+03 -0.87641113470E+03  0.10166359783E+04  0.46999998093E+01 0. -1.
       -5    1    3    3    0  502 -0.47966479575E+03  0.18802082102E+03 -0.88498821092E+02  0.52276598661E+03  0.46999998093E+01 0.  1.
</event>
<event>
 5   0  0.1647550E-03  0.1202792E+04  0.7818609E-02  0.9110416E-01
        2   -1    0    0  501    0  0.00000000000E+00  0.00000000000E+00  0.13980917128E+04  0.13980917128E+04  0.25500000920E-02 0.  1.
       -2   -1    0    0    0  501  0.00000000000E+00  0.00000000000E+00 -0.25869344446E+03  0.25869344447E+03  0.25500000920E-02 0. -1.
    10030    2    1    2    0    0  0.00000000000E+00  0.00000000000E+00  0.11393982684E+04  0.16567851573E+04  0.12027920200E+04 0.  0.
        3    1    3    3  502    0 -0.58289862736E+03  0.68748676825E+02  0.38915360631E+03  0.70422846424E+03  0.10100000352E+00 0. -1.
       -3    1    3    3    0  502  0.58289862736E+03 -0.68748676825E+02  0.75024466205E+03  0.95255669305E+03  0.10100000352E+00 0.  1.
</event>
<event>
 5   0  0.1551501E-03  0.1201028E+04  0.7818609E-02  0.9111958E-01
        2   -1    0    0  501    0  0.00000000000E+00  0.00000000000E+00  0.41645254285E+03  0.41645254285E+03  0.25500000920E-02 0.  1.
       -2   -1    0    0    0  501  0.00000000000E+00  0.00000000000E+00 -0.86592529370E+03  0.86592529370E+03  0.25500000920E-02 0. -1.
    10030    2    1    2    0    0  0.00000000000E+00  0.00000000000E+00 -0.44947275085E+03  0.12823778366E+04  0.12010275442E+04 0.  0.
        4    1    3    3  502    0  0.48294144787E+03  0.69106318610E+02  0.14913374807E+03  0.51014763849E+03  0.12699999809E+01 0.  1.
       -4    1    3    3    0  502 -0.48294144787E+03 -0.69106318610E+02 -0.59860649892E+03  0.77223019806E+03  0.12699999809E+01 0. -1.
</event>
<event>
 5   0  0.9208078E-04  0.1196284E+04  0.7818609E-02  0.9116116E-01
        1   -1    0    0  501    0  0.00000000000E+00  0.00000000000E+00  0.11556951985E+04  0.11556951985E+04  0.50400001928E-02 0. -1.
       -1   -1    0    0    0  501  0.00000000000E+00  0.00000000000E+00 -0.30957441946E+03  0.30957441950E+03  0.50400001928E-02 0.  1.
    10030    2    1    2    0    0  0.00000000000E+00  0.00000000000E+00  0.84612077899E+03  0.14652696180E+04  0.11962836957E+04 0.  0.
        3    1    3    3  502    0  0.41105980563E+03 -0.30184530702E+03  0.40222532133E+02  0.51156486927E+03  0.10100000352E+00 0.  1.
       -3    1    3    3    0  502 -0.41105980563E+03  0.30184530702E+03  0.80589824686E+03  0.95370474869E+03  0.10100000352E+00 0. -1.
</event>
<event>
 5   0  0.9358428E-04  0.1202492E+04  0.7818609E-02  0.9110678E-01
       -1   -1    0    0    0  501  0.00000000000E+00  0.00000000000E+00  0.30770099753E+03  0.30770099758E+03  0.50400001928E-02 0. -1.
        1   -1    0    0  501    0  0.00000000000E+00  0.00000000000E+00 -0.11748307704E+04  0.11748307704E+04  0.50400001928E-02 0.  1.
    10030    2    1    2    0    0  0.00000000000E+00  0.00000000000E+00 -0.86712977287E+03  0.14825317680E+04  0.12024917464E+04 0.  0.
        2    1    3    3  502    0  0.59702501327E+02  0.21782454958E+03 -0.11205415588E+04  0.11430771225E+04  0.25500000920E-02 0.  1.
       -2    1    3    3    0  502 -0.59702501327E+02 -0.21782454958E+03  0.25341178593E+03  0.33945464545E+03  0.25500000920E-02 0. -1.
</event>
<event>
 5   0  0.9208078E-04  0.1197713E+04  0.7818609E-02  0.9114860E-01
        1   -1    0    0  501    0  0.00000000000E+00  0.00000000000E+00  0.54985487515E+03  0.54985487517E+03  0.50400001928E-02 0.  1.
       -1   -1    0    0    0  501  0.00000000000E+00  0.00000000000E+00 -0.65222555007E+03  0.65222555009E+03  0.50400001928E-02 0. -1.
    10030    2    1    2    0    0  0.00000000000E+00  0.00000000000E+00 -0.10237067492E+03  0.12020804253E+04  0.11977134857E+04 0.  0.
        3    1    3    3  502    0 -0.40234908674E+02  0.40208348098E+03  0.39239830894E+03  0.56326407361E+03  0.10100000352E+00 0.  1.
       -3    1    3    3    0  502  0.40234908674E+02 -0.40208348098E+03 -0.49476898386E+03  0.63881635166E+03  0.10100000352E+00 0. -1.
</event>
<event>
 5   0  0.1551501E-03  0.1200372E+04  0.7818609E-02  0.9112531E-01
       -2   -1    0    0    0  501  0.00000000000E+00  0.00000000000E+00  0.59696666816E+03  0.59696666816E+03  0.25500000920E-02 0. -1.
        2   -1    0    0  501    0  0.00000000000E+00  0.00000000000E+00 -0.60342265492E+03  0.60342265493E+03  0.25500000920E-02 0.  1.
    10030    2    1    2    0    0  0.00000000000E+00  0.00000000000E+00 -0.64559867676E+01  0.12003893231E+04  0.12003719620E+04 0.  0.
        4    1    3    3  502    0 -0.52294199639E+03 -0.27948024069E+03 -0.96202787934E+02  0.60069470268E+03  0.12699999809E+01 0.  1.
       -4    1    3    3    0  502  0.52294199639E+03  0.27948024069E+03  0.89746801166E+02  0.59969462041E+03  0.12699999809E+01 0. -1.
</event>
<event>
 5   0  0.9169078E-04  0.1183420E+04  0.7818609E-02  0.9127494E-01
       -1   -1    0    0    0  501  0.00000000000E+00  0.00000000000E+00  0.44902832829E+03  0.44902832832E+03  0.50400001928E-02 0. -1.
        1   -1    0    0  501    0  0.00000000000E+00  0.00000000000E+00 -0.77972959468E+03  0.77972959470E+03  0.50400001928E-02 0.  1.
    10030    2    1    2    0    0  0.00000000000E+00  0.00000000000E+00 -0.33070126639E+03  0.12287579230E+04  0.11834199195E+04 0.  0.
        1    1    3    3  502    0  0.10938571639E+03  0.57438551379E+03 -0.71117270945E+02  0.58901750369E+03  0.50400001928E-02 0. -1.
       -1    1    3    3    0  502 -0.10938571639E+03 -0.57438551379E+03 -0.25958399545E+03  0.63974041933E+03  0.50400001928E-02 0.  1.
</event>
<event>
 5   0  0.9170776E-04  0.1159037E+04  0.7818609E-02  0.9149487E-01
        1   -1    0    0  501    0  0.00000000000E+00  0.00000000000E+00  0.14441755092E+04  0.14441755092E+04  0.50400001928E-02 0.  1.
       -1   -1    0    0    0  501  0.00000000000E+00  0.00000000000E+00 -0.23254917074E+03  0.23254917080E+03  0.50400001928E-02 0. -1.
    10030    2    1    2    0    0  0.00000000000E+00  0.00000000000E+00  0.12116263384E+04  0.16767246800E+04  0.11590372162E+04 0.  0.
        5    1    3    3  502    0  0.19382796517E+03 -0.27867584476E+03  0.12852631694E+04  0.13293430751E+04  0.46999998093E+01 0.  1.
       -5    1    3    3    0  502 -0.19382796517E+03  0.27867584476E+03 -0.73636831024E+02  0.34738160489E+03  0.46999998093E+01 0. -1.
</event>
<event>
 5   0  0.9169078E-04  0.1198968E+04  0.7818609E-02  0.9113760E-01
       -1   -1    0    0    0  501  0.00000000000E+00  0.00000000000E+00  0.30144443342E+03  0.30144443347E+03  0.50400001928E-02 0. -1.
        1   -1    0    0  501    0  0.00000000000E+00  0.00000000000E+00 -0.11921973086E+04  0.11921973086E+04  0.50400001928E-02 0.  1.
    10030    2    1    2    0    0  0.00000000000E+00  0.00000000000E+00 -0.89075287519E+03  0.14936417421E+04  0.11989682936E+04 0.  0.
        1    1    3    3  502    0  0.34213413429E+03  0.45815260985E+03 -0.22106243554E+03  0.61304826906E+03  0.50400001928E-02 0. -1.
       -1    1    3    3    0  502 -0.34213413429E+03 -0.45815260985E+03 -0.66969043965E+03  0.88059347304E+03  0.50400001928E-02 0.  1.
</event>
<event>
 5   0  0.9358428E-04  0.1197637E+04  0.7818609E-02  0.9114928E-01
        1   -1    0    0  501    0  0.00000000000E+00  0.00000000000E+00  0.21127500645E+04  0.21127500645E+04  0.50400001928E-02 0.  1.
       -1   -1    0    0    0  501  0.00000000000E+00  0.00000000000E+00 -0.16972356813E+03  0.16972356821E+03  0.50400001928E-02 0. -1.
    10030    2    1    2    0    0  0.00000000000E+00  0.00000000000E+00  0.19430264964E+04  0.22824736327E+04  0.11976368057E+04 0.  0.
        2    1    3    3  502    0 -0.16790456504E+03  0.56288076306E+02  0.20617044466E+04  0.20692958985E+04  0.25500000920E-02 0.  1.
       -2    1    3    3    0  502  0.16790456504E+03 -0.56288076306E+02 -0.11867795021E+03  0.21317773422E+03  0.25500000920E-02 0. -1.
</event>
<event>
 5   0  0.1567019E-03  0.1199915E+04  0.7818609E-02  0.9112931E-01
        2   -1    0    0  501    0  0.00000000000E+00  0.00000000000E+00  0.12595101451E+04  0.12595101451E+04  0.25500000920E-02 0. -1.
       -2   -1    0    0    0  501  0.00000000000E+00  0.00000000000E+00 -0.28578505575E+03  0.28578505576E+03  0.25500000920E-02 0.  1.
    10030    2    1    2    0    0  0.00000000000E+00  0.00000000000E+00  0.97372508938E+03  0.15452952009E+04  0.11999152921E+04 0.  0.
        5    1    3    3  502    0 -0.10426984723E+03  0.32903668772E+03  0.11188083862E+04  0.11708508180E+04  0.46999998093E+01 0. -1.
       -5    1    3    3    0  502  0.10426984723E+03 -0.32903668772E+03 -0.14508329680E+03  0.37444438294E+03  0.46999998093E+01 0.  1.
</event>
<event>
 5   0  0.1551501E-03  0.1202475E+04  0.7818609E-02  0.9110693E-01
       -2   -1    0    0    0  501  0.00000000000E+00  0.00000000000E+00  0.36134834701E+03  0.36134834702E+03  0.25500000920E-02 0. -1.
        2   -1    0    0  501    0  0.00000000000E+00  0.00000000000E+00 -0.10003828832E+04  0.10003828832E+04  0.25500000920E-02 0.  1.
    10030    2    1    2    0    0  0.00000000000E+00  0.00000000000E+00 -0.63903453615E+03  0.13617312302E+04  0.12024752824E+04 0.  0.
        4    1    3    3  502    0 -0.37547399111E+03  0.16187286465E+03 -0.81869289022E+03  0.91511922923E+03  0.12699999809E+01 0.  1.
       -4    1    3    3    0  502  0.37547399111E+03 -0.16187286465E+03  0.17965835407E+03  0.44661200095E+03  0.12699999809E+01 0. -1.
</event>
<event>
 5   0  0.9208078E-04  0.1201092E+04  0.7818609E-02  0.9111901E-01
        1   -1    0    0  501    0  0.00000000000E+00  0.00000000000E+00  0.16505541153E+04  0.16505541153E+04  0.50400001928E-02 0. -1.
       -1   -1    0    0    0  501  0.00000000000E+00  0.00000000000E+00 -0.21850570502E+03  0.21850570508E+03  0.50400001928E-02 0.  1.
    10030    2    1    2    0    0  0.00000000000E+00  0.00000000000E+00  0.14320484103E+04  0.18690598204E+04  0.12010919877E+04 0.  0.
        3    1    3    3  502    0  0.36623398472E+02 -0.13248446477E+03  0.16257465555E+04  0.16315468978E+04  0.10100000352E+00 0. -1.
       -3    1    3    3    0  502 -0.36623398472E+02  0.13248446477E+03 -0.19369814525E+03  0.23751292259E+03  0.10100000352E+00 0.  1.
</event>
<event>
 5   0  0.9358428E-04  0.1163774E+04  0.7818609E-02  0.9145170E-01
       -1   -1    0    0    0  501  0.00000000000E+00  0.00000000000E+00  0.30506499164E+03  0.30506499168E+03  0.50400001928E-02 0.  1.
        1   -1    0    0  501    0  0.00000000000E+00  0.00000000000E+00 -0.11099019705E+04  0.11099019705E+04  0.50400001928E-02 0. -1.
    10030    2    1    2    0    0  0.00000000000E+00  0.00000000000E+00 -0.80483697888E+03  0.14149669622E+04  0.11637735783E+04 0.  0.
        2    1    3    3  502    0  0.29390121673E+03  0.14251498457E+03 -0.98792500099E+03  0.10405211452E+04  0.25500000920E-02 0. -1.
       -2    1    3    3    0  502 -0.29390121673E+03 -0.14251498457E+03  0.18308802211E+03  0.37444581700E+03  0.25500000920E-02 0.  1.
</event>
<event>
 5   0  0.1551501E-03  0.1212410E+04  0.7818609E-02  0.9102063E-01
       -2   -1    0    0    0  501  0.00000000000E+00  0.00000000000E+00  0.54790927265E+03  0.54790927265E+03  0.25500000920E-02 0.  1.
        2   -1    0    0  501    0  0.00000000000E+00  0.00000000000E+00 -0.67070288466E+03  0.67070288466E+03  0.25500000920E-02 0. -1.
    10030    2    1    2    0    0  0.00000000000E+00  0.00000000000E+00 -0.12279361201E+03  0.12186121573E+04  0.12124097157E+04 0.  0.
        4    1    3    3  502    0  0.18912032678E+03  0.24567582245E+03  0.46219000827E+03  0.55654678544E+03  0.12699999809E+01 0.  1.
       -4    1    3    3    0  502 -0.18912032678E+03 -0.24567582245E+03 -0.58498362028E+03  0.66206537187E+03  0.12699999809E+01 0. -1.
</event>
<event>
 5   0  0.9169078E-04  0.1200930E+04  0.7818609E-02  0.9112043E-01
        1   -1    0    0  501    0  0.00000000000E+00  0.00000000000E+00  0.69913837947E+03  0.69913837948E+03  0.50400001928E-02 0.  1.
       -1   -1    0    0    0  501  0.00000000000E+00  0.00000000000E+00 -0.51571805090E+03  0.51571805093E+03  0.50400001928E-02 0. -1.
    10030    2    1    2    0    0  0.00000000000E+00  0.00000000000E+00  0.18342032857E+03  0.12148564304E+04  0.12009301102E+04 0.  0.
        1    1    3    3  502    0 -0.56701265525E+03  0.44417797930E+02  0.28651006963E+03  0.63683931412E+03  0.50400001928E-02 0.  1.
       -1    1    3    3    0  502  0.56701265525E+03 -0.44417797930E+02 -0.10308974106E+03  0.57801711629E+03  0.50400001928E-02 0. -1.
</event>
<event>
 5   0  0.1551501E-03  0.1205528E+04  0.7818609E-02  0.9108031E-01
       -2   -1    0    0    0  501  0.00000000000E+00  0.00000000000E+00  0.29652504464E+03  0.29652504465E+03  0.25500000920E-02 0.  1.
        2   -1    0    0  501    0  0.00000000000E+00  0.00000000000E+00 -0.12252748768E+04  0.12252748768E+04  0.25500000920E-02 0. -1.
    10030    2    1    2    0    0  0.00000000000E+00  0.00000000000E+00 -0.92874983220E+03  0.15217999215E+04  0.12055284112E+04 0.  0.
        4    1    3    3  502    0  0.39890044984E+03 -0.39638959632E+03 -0.19048026846E+03  0.59374289598E+03  0.12699999809E+01 0.  1.
       -4    1    3    3    0  502 -0.39890044984E+03  0.39638959632E+03 -0.73826956374E+03  0.92805702551E+03  0.12699999809E+01 0. -1.
</event>
<event>
 5   0  0.8908478E-04  0.1067171E+04  0.7818609E-02  0.9237793E-01
        1   -1    0    0  501    0  0.00000000000E+00  0.00000000000E+00  0.92211412939E+03  0.92211412941E+03  0.50400001928E-02 0. -1.
       -1   -1    0    0    0  501  0.00000000000E+00  0.00000000000E+00 -0.30876177668E+03  0.30876177672E+03  0.50400001928E-02 0.  1.
    10030    2    1    2    0    0  0.00000000000E+00  0.00000000000E+00  0.61335235271E+03  0.12308759061E+04  0.10671712082E+04 0.  0.
        4    1    3    3  502    0 -0.14466978281E+03 -0.43785279218E+03 -0.29588703182E+01  0.46114507641E+03  0.12699999809E+01 0.  1.
       -4    1    3    3    0  502  0.14466978281E+03  0.43785279218E+03  0.61631122303E+03  0.76973082972E+03  0.12699999809E+01 0. -1.
</event>
<event>
 5   0  0.9169078E-04  0.1207193E+04  0.7818609E-02  0.9106583E-01
       -1   -1    0    0    0  501  0.00000000000E+00  0.00000000000E+00  0.10225487614E+04  0.10225487614E+04  0.50400001928E-02 0. -1.
        1   -1    0    0  501    0  0.00000000000E+00  0.00000000000E+00 -0.35629491325E+03  0.35629491328E+03  0.50400001928E-02 0.  1.
    10030    2    1    2    0    0  0.00000000000E+00  0.00000000000E+00  0.66625384810E+03  0.13788436746E+04  0.12071933105E+04 0.  0.
        1    1    3    3  502    0 -0.52223622457E+03  0.13076696052E+03  0.64488035844E+03  0.84006032459E+03  0.50400001928E-02 0. -1.
       -1    1    3    3    0  502  0.52223622457E+03 -0.13076696052E+03  0.21373489660E+02  0.53878335006E+03  0.50400001928E-02 0.  1.
</event>
<event>
 5   0  0.1647550E-03  0.1205453E+04  0.7818609E-02  0.9108097E-01
       -2   -1    0    0    0  501  0.00000000000E+00  0.00000000000E+00  0.18557559575E+03  0.18557559577E+03  0.25500000920E-02 0.  1.
        2   -1    0    0  501    0  0.00000000000E+00  0.00000000000E+00 -0.19575807380E+04  0.19575807380E+04  0.25500000920E-02 0. -1.
    10030    2    1    2    0    0  0.00000000000E+00  0.00000000000E+00 -0.17720051422E+04  0.21431563337E+04  0.12054529633E+04 0.  0.
        3    1    3    3  502    0  0.51461615674E+03  0.13672475106E+03 -0.38390907136E+03  0.65643707361E+03  0.10100000352E+00 0.  1.
       -3    1    3    3    0  502 -0.51461615674E+03 -0.13672475106E+03 -0.13880960709E+04  0.14867192601E+04  0.10100000352E+00 0. -1.
</event>
<event>
 5   0  0.9170776E-04  0.1179089E+04  0.7818609E-02  0.9131360E-01
       -1   -1    0    0    0  501  0.00000000000E+00  0.00000000000E+00  0.38535220572E+03  0.38535220575E+03  0.50400001928E-02 0. -1.
        1   -1    0    0  501    0  0.00000000000E+00  0.00000000000E+00 -0.90193465815E+03  0.90193465817E+03  0.50400001928E-02 0.  1.
    10030    2    1    2    0    0  0.00000000000E+00  0.00000000000E+00 -0.51658245243E+03  0.12872868639E+04  0.11790886480E+04 0.  0.
        5    1    3    3  502    0  0.23169999070E+03 -0.40088342425E+03  0.14008758071E+03  0.48377580117E+03  0.46999998093E+01 0. -1.
       -5    1    3    3    0  502 -0.23169999070E+03  0.40088342425E+03 -0.65667003315E+03  0.80351106275E+03  0.46999998093E+01 0.  1.
</event>
<event>
 5   0  0.1647550E-03  0.1199956E+04  0.7818609E-02  0.9112895E-01
       -2   -1    0    0    0  501  0.00000000000E+00  0.00000000000E+00  0.31075326986E+03  0.31075326987E+03  0.25500000920E-02 0.  1.
        2   -1    0    0  501    0  0.00000000000E+00  0.00000000000E+00 -0.11583896576E+04  0.11583896576E+04  0.25500000920E-02 0. -1.
    10030    2    1    2    0    0  0.00000000000E+00  0.00000000000E+00 -0.84763638776E+03  0.14691429275E+04  0.11999556223E+04 0.  0.
        3    1    3    3  502    0 -0.40960823575E+03 -0.72818428128E+02 -0.95310874647E+03  0.10399508272E+04  0.10100000352E+00 0. -1.
       -3    1    3    3    0  502  0.40960823575E+03  0.72818428128E+02  0.10547235871E+03  0.42919210026E+03  0.10100000352E+00 0.  1.
</event>
<event>
 5   0  0.1551501E-03  0.1200337E+04  0.7818609E-02  0.9112562E-01
        2   -1    0    0  501    0  0.00000000000E+00  0.00000000000E+00  0.34714073465E+03  0.34714073466E+03  0.25500000920E-02 0. -1.
       -2   -1    0    0    0  501  0.00000000000E+00  0.00000000000E+00 -0.10376253050E+04  0.10376253050E+04  0.25500000920E-02 0.  1.
    10030    2    1    2    0    0  0.00000000000E+00  0.00000000000E+00 -0.69048457037E+03  0.13847660397E+04  0.12003366373E+04 0.  0.
        4    1    3    3  502    0  0.13791907623E+03  0.56848824121E+03 -0.50001975206E+03  0.76955956061E+03  0.12699999809E+01 0.  1.
       -4    1    3    3    0  502 -0.13791907623E+03 -0.56848824121E+03 -0.19046481831E+03  0.61520647908E+03  0.12699999809E+01 0. -1.
</event>
<event>
 5   0  0.1647550E-03  0.1197612E+04  0.7818609E-02  0.9114949E-01
       -2   -1    0    0    0  501  0.00000000000E+00  0.00000000000E+00  0.20529693811E+03  0.20529693813E+03  0.25500000920E-02 0.  1.
        2   -1    0    0  501    0  0.00000000000E+00  0.00000000000E+00 -0.17465859195E+04  0.17465859195E+04  0.25500000920E-02 0. -1.
    10030    2    1    2    0    0  0.00000000000E+00  0.00000000000E+00 -0.15412889814E+04  0.19518828576E+04  0.11976121934E+04 0.  0.
        3    1    3    3  502    0 -0.24169043230E+03 -0.85821076843E+02 -0.16525358226E+04  0.16723199985E+04  0.10100000352E+00 0. -1.
       -3    1    3    3    0  502  0.24169043230E+03  0.85821076843E+02  0.11124684123E+03  0.27956285909E+03  0.10100000352E+00 0.  1.
</event>
<event>
 5   0  0.1597352E-03  0.1205814E+04  0.7818609E-02  0.9107783E-01
       -2   -1    0    0    0  501  0.00000000000E+00  0.00000000000E+00  0.88820753992E+03  0.88820753993E+03  0.25500000920E-02 0. -1.
        2   -1    0    0  501    0  0.00000000000E+00  0.00000000000E+00 -0.40924754109E+03  0.40924754110E+03  0.25500000920E-02 0.  1.
    10030    2    1    2    0    0  0.00000000000E+00  0.00000000000E+00  0.47895999883E+03  0.12974550810E+04  0.12058138359E+04 0.  0.
        1    1    3    3  502    0  0.44648294528E+03  0.67915564463E+02 -0.19029689286E+03  0.49007392481E+03  0.50400001928E-02 0.  1.
       -1    1    3    3    0  502 -0.44648294528E+03 -0.67915564463E+02  0.66925689169E+03  0.80738115622E+03  0.50400001928E-02 0. -1.
</event>
<event>
 5   0  0.9358428E-04  0.1205741E+04  0.7818609E-02  0.9107846E-01
       -1   -1    0    0    0  501  0.00000000000E+00  0.00000000000E+00  0.63680496466E+03  0.63680496468E+03  0.50400001928E-02 0. -1.
        1   -1    0    0  501    0  0.00000000000E+00  0.00000000000E+00 -0.57074462225E+03  0.57074462227E+03  0.50400001928E-02 0.  1.
    10030    2    1    2    0    0  0.00000000000E+00  0.00000000000E+00  0.66060342409E+02  0.12075495869E+04  0.12057412807E+04 0.  0.
        2    1    3    3  502    0  0.93229973923E+02  0.94242858450E+02  0.62202737457E+03  0.63599654018E+03  0.25500000920E-02 0. -1.
       -2    1    3    3    0  502 -0.93229973923E+02 -0.94242858450E+02 -0.55596703216E+03  0.57155304676E+03  0.25500000920E-02 0.  1.
</event>
<event>
 5   0  0.8908478E-04  0.1208791E+04  0.7818609E-02  0.9105197E-01
       -1   -1    0    0    0  501  0.00000000000E+00  0.00000000000E+00  0.78582654847E+03  0.78582654848E+03  0.50400001928E-02 0.  1.
        1   -1    0    0  501    0  0.00000000000E+00  0.00000000000E+00 -0.46485282822E+03  0.46485282825E+03  0.50400001928E-02 0. -1.
    10030    2    1    2    0    0  0.00000000000E+00  0.00000000000E+00  0.32097372024E+03  0.12506793767E+04  0.12087906247E+04 0.  0.
        4    1    3    3  502    0  0.43282974327E+03 -0.21764016569E+03 -0.21339865994E+03  0.52938589833E+03  0.12699999809E+01 0. -1.
       -4    1    3    3    0  502 -0.43282974327E+03  0.21764016569E+03  0.53437238018E+03  0.72129347840E+03  0.12699999809E+01 0.  1.
</event>
<event>
 5   0  0.1567019E-03  0.1205225E+04  0.7818609E-02  0.9108295E-01
       -2   -1    0    0    0  501  0.00000000000E+00  0.00000000000E+00  0.20197566982E+03  0.20197566984E+03  0.25500000920E-02 0. -1.
        2   -1    0    0  501    0  0.00000000000E+00  0.00000000000E+00 -0.17979484950E+04  0.17979484950E+04  0.25500000920E-02 0.  1.
    10030    2    1    2    0    0  0.00000000000E+00  0.00000000000E+00 -0.15959728252E+04  0.19999241648E+04  0.12052250439E+04 0.  0.
        5    1    3    3  502    0 -0.19168185509E+03 -0.56056023075E+03 -0.61507764833E+03  0.85399783919E+03  0.46999998093E+01 0. -1.
       -5    1    3    3    0  502  0.19168185509E+03  0.56056023075E+03 -0.98089517684E+03  0.11459263256E+04  0.46999998093E+01 0.  1.
</event>
<event>
 5   0  0.9169078E-04  0.1197034E+04  0.7818609E-02  0.9115456E-01
       -1   -1    0    0    0  501  0.00000000000E+00  0.00000000000E+00  0.34103427776E+03  0.34103427780E+03  0.50400001928E-02 0. -1.
        1   -1    0    0  501    0  0.00000000000E+00  0.00000000000E+00 -0.10504013062E+04  0.10504013062E+04  0.50400001928E-02 0.  1.
    10030    2    1    2    0    0  0.00000000000E+00  0.00000000000E+00 -0.70936702841E+03  0.13914355840E+04  0.11970344203E+04 0.  0.
        1    1    3    3  502    0 -0.81575976226E+02  0.52245555866E+03 -0.28778572419E+02  0.52956836851E+03  0.50400001928E-02 0. -1.
       -1    1    3    3    0  502  0.81575976226E+02 -0.52245555866E+03 -0.68058845600E+03  0.86186721548E+03  0.50400001928E-02 0.  1.
</event>
<event>
 5   0  0.8908478E-04  0.1204648E+04  0.7818609E-02  0.9108798E-01
       -1   -1    0    0    0  501  0.00000000000E+00  0.00000000000E+00  0.35950339085E+03  0.35950339088E+03  0.50400001928E-02 0.  1.
        1   -1    0    0  501    0  0.00000000000E+00  0.00000000000E+00 -0.10091542946E+04  0.10091542946E+04  0.50400001928E-02 0. -1.
    10030    2    1    2    0    0  0.00000000000E+00  0.00000000000E+00 -0.64965090379E+03  0.13686576855E+04  0.12046483152E+04 0.  0.
        4    1    3    3  502    0 -0.82433170245E+02  0.32627520130E+02 -0.10016993235E+04  0.10056156971E+04  0.12699999809E+01 0. -1.
       -4    1    3    3    0  502  0.82433170245E+02 -0.32627520130E+02  0.35204841973E+03  0.36304198842E+03  0.12699999809E+01 0.  1.
</event>
<event>
 5   0  0.9170776E-04  0.1230040E+04  0.7818609E-02  0.9086962E-01
        1   -1    0    0  501    0  0.00000000000E+00  0.00000000000E+00  0.13221483954E+04  0.13221483954E+04  0.50400001928E-02 0.  1.
       -1   -1    0    0    0  501  0.00000000000E+00  0.00000000000E+00 -0.28608701399E+03  0.28608701404E+03  0.50400001928E-02 0. -1.
    10030    2    1    2    0    0  0.00000000000E+00  0.00000000000E+00  0.10360613814E+04  0.16082354095E+04  0.12300398149E+04 0.  0.
        5    1    3    3  502    0  0.49869144160E+03 -0.19198658980E+03  0.91605781282E+03  0.10605357189E+04  0.46999998093E+01 0.  1.
       -5    1    3    3    0  502 -0.49869144160E+03  0.19198658980E+03  0.12000356861E+03  0.54769969059E+03  0.46999998093E+01 0. -1.
</event>
<event>
 5   0  0.1551501E-03  0.1202076E+04  0.7818609E-02  0.9111041E-01
       -2   -1    0    0    0  501  0.00000000000E+00  0.00000000000E+00  0.54671483661E+03  0.54671483662E+03  0.25500000920E-02 0.  1.
        2   -1    0    0  501    0  0.00000000000E+00  0.00000000000E+00 -0.66075878416E+03  0.66075878416E+03  0.25500000920E-02 0. -1.
    10030    2    1    2    0    0  0.00000000000E+00  0.00000000000E+00 -0.11404394754E+03  0.12074736208E+04  0.12020759223E+04 0.  0.
        4    1    3    3  502    0  0.53672785515E+03  0.71084050762E+02  0.20513900066E+03  0.57897612668E+03  0.12699999809E+01 0.  1.
       -4    1    3    3    0  502 -0.53672785515E+03 -0.71084050762E+02 -0.31918294820E+03  0.62849749410E+03  0.12699999809E+01 0. -1.
</event>
<event>
 5   0  0.9169078E-04  0.1204856E+04  0.7818609E-02  0.9108617E-01
       -1   -1    0    0    0  501  0.00000000000E+00  0.00000000000E+00  0.71765630274E+03  0.71765630276E+03  0.50400001928E-02 0.  1.
        1   -1    0    0  501    0  0.00000000000E+00  0.00000000000E+00 -0.50570109599E+03  0.50570109601E+03  0.50400001928E-02 0. -1.
    10030    2    1    2    0    0  0.00000000000E+00  0.00000000000E+00  0.21195520675E+03  0.12233573988E+04  0.12048561389E+04 0.  0.
        1    1    3    3  502    0  0.57762570571E+03  0.17051565359E+03  0.91888842263E+02  0.60923772320E+03  0.50400001928E-02 0.  1.
       -1    1    3    3    0  502 -0.57762570571E+03 -0.17051565359E+03  0.12006636449E+03  0.61411967557E+03  0.50400001928E-02 0. -1.
</event>
<event>
 5   0  0.1537557E-03  0.1224630E+04  0.7818609E-02  0.9091567E-01
        2   -1    0    0  501    0  0.00000000000E+00  0.00000000000E+00  0.20152678674E+04  0.20152678674E+04  0.25500000920E-02 0.  1.
       -2   -1    0    0    0  501  0.00000000000E+00  0.00000000000E+00 -0.18604457003E+03  0.18604457004E+03  0.25500000920E-02 0. -1.
    10030    2    1    2    0    0  0.00000000000E+00  0.00000000000E+00  0.18292232974E+04  0.22013124374E+04  0.12246299750E+04 0.  0.
        2    1    3    3  502    0 -0.27493659221E+03  0.45492240096E+03  0.14609702988E+04  0.15546635438E+04  0.25500000920E-02 0. -1.
       -2    1    3    3    0  502  0.27493659221E+03 -0.45492240096E+03  0.36825299861E+03  0.64664889362E+03  0.25500000920E-02 0.  1.
</event>
<event>
 5   0  0.1567019E-03  0.1205110E+04  0.7818609E-02  0.9108396E-01
       -2   -1    0    0    0  501  0.00000000000E+00  0.00000000000E+00  0.12957909268E+04  0.12957909268E+04  0.25500000920E-02 0.  1.
        2   -1    0    0  501    0  0.00000000000E+00  0.00000000000E+00 -0.28019364312E+03  0.28019364313E+03  0.25500000920E-02 0. -1.
    10030    2    1    2    0    0  0.00000000000E+00  0.00000000000E+00  0.10155972837E+04  0.15759845699E+04  0.12051097552E+04 0.  0.
        5    1    3    3  502    0 -0.15863894929E+03  0.41725115370E+03  0.10370512622E+04  0.11290536976E+04  0.46999998093E+01 0.  1.
       -5    1    3    3    0  502  0.15863894929E+03 -0.41725115370E+03 -0.21453978536E+02  0.44693087238E+03  0.46999998093E+01 0. -1.
</event>
<event>
 5   0  0.9208078E-04  0.1200959E+04  0.7818609E-02  0.9112018E-01
        1   -1    0    0  501    0  0.00000000000E+00  0.00000000000E+00  0.26533729050E+03  0.26533729054E+03  0.50400001928E-02 0.  1.
       -1   -1    0    0    0  501  0.00000000000E+00  0.00000000000E+00 -0.13589321671E+04  0.13589321671E+04  0.50400001928E-02 0. -1.
    10030    2    1    2    0    0  0.00000000000E+00  0.00000000000E+00 -0.10935948766E+04  0.16242694577E+04  0.12009585825E+04 0.  0.
        3    1    3    3  502    0 -0.35047479632E+03  0.11232191043E+03  0.94919391893E+02  0.38007696007E+03  0.10100000352E+00 0.  1.
       -3    1    3    3    0  502  0.35047479632E+03 -0.11232191043E+03 -0.11885142685E+04  0.12441924976E+04  0.10100000352E+00 0. -1.
</event>
<event>
 5   0  0.6137750E-04  0.1201469E+04  0.7818609E-02  0.9111572E-01
       -3   -1    0    0    0  501  0.00000000000E+00  0.00000000000E+00  0.45368340608E+03  0.45368341732E+03  0.10100000352E+00 0.  1.
        3   -1    0    0  501    0  0.00000000000E+00  0.00000000000E+00 -0.79544818516E+03  0.79544819158E+03  0.10100000352E+00 0. -1.
    10030    2    1    2    0    0  0.00000000000E+00  0.00000000000E+00 -0.34176477908E+03  0.12491316089E+04  0.12014685232E+04 0.  0.
        1    1    3    3  502    0 -0.55882587244E+03 -0.12098541522E+03 -0.36246926029E+03  0.67698433592E+03  0.50400001928E-02 0. -1.
       -1    1    3    3    0  502  0.55882587244E+03  0.12098541522E+03  0.20704481202E+02  0.57214727298E+03  0.50400001928E-02 0.  1.
</event>
<event>
 5   0  0.9170776E-04  0.1203600E+04  0.7818609E-02  0.9109711E-01
        1   -1    0    0  501    0  0.00000000000E+00  0.00000000000E+00  0.18098249967E+04  0.18098249967E+04  0.50400001928E-02 0. -1.
       -1   -1    0    0    0  501  0.00000000000E+00  0.00000000000E+00 -0.20010954544E+03  0.20010954550E+03  0.50400001928E-02 0.  1.
    10030    2    1    2    0    0  0.00000000000E+00  0.00000000000E+00  0.16097154513E+04  0.20099345422E+04  0.12036000290E+04 0.  0.
        5    1    3    3  502    0  0.18615847611E+03  0.42088016409E+03  0.15734877782E+03  0.48639060294E+03  0.46999998093E+01 0.  1.
       -5    1    3    3    0  502 -0.18615847611E+03 -0.42088016409E+03  0.14523666734E+04  0.15235439393E+04  0.46999998093E+01 0. -1.
</event>
<event>
 5   0  0.1537557E-03  0.1201626E+04  0.7818609E-02  0.9111435E-01
       -2   -1    0    0    0  501  0.00000000000E+00  0.00000000000E+00  0.60621340553E+03  0.60621340554E+03  0.25500000920E-02 0. -1.
        2   -1    0    0  501    0  0.00000000000E+00  0.00000000000E+00 -0.59546046478E+03  0.59546046478E+03  0.25500000920E-02 0.  1.
    10030    2    1    2    0    0  0.00000000000E+00  0.00000000000E+00  0.10752940755E+02  0.12016738703E+04  0.12016257591E+04 0.  0.
        2    1    3    3  502    0  0.21995217056E+03  0.48914387605E+03 -0.26543951881E+03  0.59841359189E+03  0.25500000920E-02 0.  1.
       -2    1    3    3    0  502 -0.21995217056E+03 -0.48914387605E+03  0.27619245956E+03  0.60326027843E+03  0.25500000920E-02 0. -1.
</event>
<event>
 5   0  0.8908478E-04  0.1192962E+04  0.7818609E-02  0.9119040E-01
       -1   -1    0    0    0  501  0.00000000000E+00  0.00000000000E+00  0.54594785958E+03  0.54594785961E+03  0.50400001928E-02 0.  1.
        1   -1    0    0  501    0  0.00000000000E+00  0.00000000000E+00 -0.65169098758E+03  0.65169098760E+03  0.50400001928E-02 0. -1.
    10030    2    1    2    0    0  0.00000000000E+00  0.00000000000E+00 -0.10574312799E+03  0.11976388472E+04  0.11929615246E+04 0.  0.
        4    1    3    3  502    0 -0.17571050617E+02 -0.49852023531E+03 -0.38119589626E+03  0.62780816422E+03  0.12699999809E+01 0. -1.
       -4    1    3    3    0  502  0.17571050617E+02  0.49852023531E+03  0.27545276827E+03  0.56983068299E+03  0.12699999809E+01 0.  1.
</event>
<event>
 5   0  0.1647550E-03  0.1190028E+04  0.7818609E-02  0.9121630E-01
       -2   -1    0    0    0  501  0.00000000000E+00  0.00000000000E+00  0.25874615446E+03  0.25874615447E+03  0.25500000920E-02 0. -1.
        2   -1    0    0  501    0  0.00000000000E+00  0.00000000000E+00 -0.13682969782E+04  0.13682969782E+04  0.25500000920E-02 0.  1.
    10030    2    1    2    0    0  0.00000000000E+00  0.00000000000E+00 -0.11095508237E+04  0.16270431326E+04  0.11900278674E+04 0.  0.
        3    1    3    3  502    0  0.21013826575E+03 -0.11619864449E+03  0.18955776059E+03  0.30592870168E+03  0.10100000352E+00 0. -1.
       -3    1    3    3    0  502 -0.21013826575E+03  0.11619864449E+03 -0.12991085843E+04  0.13211144310E+04  0.10100000352E+00 0.  1.
</event>
<event>
 5   0  0.1567019E-03  0.1204545E+04  0.7818609E-02  0.9108888E-01
       -2   -1    0    0    0  501  0.00000000000E+00  0.00000000000E+00  0.34254456362E+03  0.34254456363E+03  0.25500000920E-02 0.  1.
        2   -1    0    0  501    0  0.00000000000E+00  0.00000000000E+00 -0.10589341896E+04  0.10589341896E+04  0.25500000920E-02 0. -1.
    10030    2    1    2    0    0  0.00000000000E+00  0.00000000000E+00 -0.71638962601E+03  0.14014787533E+04  0.12045449762E+04 0.  0.
        5    1    3    3  502    0 -0.55460916420E+03 -0.22733685200E+03 -0.42640256176E+03  0.73560492383E+03  0.46999998093E+01 0. -1.
       -5    1    3    3    0  502  0.55460916420E+03  0.22733685200E+03 -0.28998706425E+03  0.66587382943E+03  0.46999998093E+01 0.  1.
</event>
<event>
 5   0  0.1551501E-03  0.1201844E+04  0.7818609E-02  0.9111244E-01
       -2   -1    0    0    0  501  0.00000000000E+00  0.00000000000E+00  0.50507491133E+03  0.50507491134E+03  0.25500000920E-02 0. -1.
        2   -1    0    0  501    0  0.00000000000E+00  0.00000000000E+00 -0.71495766860E+03  0.71495766860E+03  0.25500000920E-02 0.  1.
    10030    2    1    2    0    0  0.00000000000E+00  0.00000000000E+00 -0.20988275727E+03  0.12200325799E+04  0.12018438852E+04 0.  0.
        4    1    3    3  502    0 -0.56737493402E+03  0.19480086724E+03 -0.69139018208E+02  0.60385719369E+03  0.12699999809E+01 0. -1.
       -4    1    3    3    0  502  0.56737493402E+03 -0.19480086724E+03 -0.14074373906E+03  0.61617538625E+03  0.12699999809E+01 0.  1.
</event>
<event>
 5   0  0.8908478E-04  0.1203365E+04  0.7818609E-02  0.9109917E-01
       -1   -1    0    0    0  501  0.00000000000E+00  0.00000000000E+00  0.21732456185E+03  0.21732456191E+03  0.50400001928E-02 0. -1.
        1   -1    0    0  501    0  0.00000000000E+00  0.00000000000E+00 -0.16658108963E+04  0.16658108963E+04  0.50400001928E-02 0.  1.
    10030    2    1    2    0    0  0.00000000000E+00  0.00000000000E+00 -0.14484863344E+04  0.18831354582E+04  0.12033646550E+04 0.  0.
        4    1    3    3  502    0  0.19710360418E+02 -0.49699228489E+03 -0.19441651851E+03  0.53403110876E+03  0.12699999809E+01 0. -1.
       -4    1    3    3    0  502 -0.19710360418E+02  0.49699228489E+03 -0.12540698159E+04  0.13491043495E+04  0.12699999809E+01 0.  1.
</event>
<event>
 5   0  0.1597352E-03  0.1220867E+04  0.7818609E-02  0.9094786E-01
        2   -1    0    0  501    0  0.00000000000E+00  0.00000000000E+00  0.12195502465E+04  0.12195502465E+04  0.25500000920E-02 0. -1.
       -2   -1    0    0    0  501  0.00000000000E+00  0.00000000000E+00 -0.30554607192E+03  0.30554607193E+03  0.25500000920E-02 0.  1.
    10030    2    1    2    0    0  0.00000000000E+00  0.00000000000E+00  0.91400417455E+03  0.15250963184E+04  0.12208665567E+04 0.  0.
        1    1    3    3  502    0 -0.43887550000E+03 -0.19858132294E+03 -0.11374059931E+02  0.48184604967E+03  0.50400001928E-02 0.  1.
       -1    1    3    3    0  502  0.43887550000E+03  0.19858132294E+03  0.92537823448E+03  0.10432502687E+04  0.50400001928E-02 0. -1.
</event>
<event>
 5   0  0.8908478E-04  0.1204023E+04  0.7818609E-02  0.9109343E-01
       -1   -1    0    0    0  501  0.00000000000E+00  0.00000000000E+00  0.66496654941E+03  0.66496654943E+03  0.50400001928E-02 0.  1.
        1   -1    0    0  501    0  0.00000000000E+00  0.00000000000E+00 -0.54501633342E+03  0.54501633345E+03  0.50400001928E-02 0. -1.
    10030    2    1    2    0    0  0.00000000000E+00  0.00000000000E+00  0.11995021599E+03  0.12099828829E+04  0.12040226420E+04 0.  0.
        4    1    3    3  502    0  0.32689555134E+03  0.47368915243E+03 -0.11746024842E+03  0.58740159812E+03  0.12699999809E+01 0. -1.
       -4    1    3    3    0  502 -0.32689555134E+03 -0.47368915243E+03  0.23741046441E+03  0.62258128476E+03  0.12699999809E+01 0.  1.
</event>
<event>
 5   0  0.1551501E-03  0.1194020E+04  0.7818609E-02  0.9118107E-01
       -2   -1    0    0    0  501  0.00000000000E+00  0.00000000000E+00  0.63464716368E+03  0.63464716368E+03  0.25500000920E-02 0.  1.
        2   -1    0    0  501    0  0.00000000000E+00  0.00000000000E+00 -0.56160467884E+03  0.56160467885E+03  0.25500000920E-02 0. -1.
    10030    2    1    2    0    0  0.00000000000E+00  0.00000000000E+00  0.73042484835E+02  0.11962518425E+04  0.11940197930E+04 0.  0.
        4    1    3    3  502    0 -0.30991028259E+03  0.18489672989E+03 -0.43996009245E+03  0.56903223093E+03  0.12699999809E+01 0. -1.
       -4    1    3    3    0  502  0.30991028259E+03 -0.18489672989E+03  0.51300257729E+03  0.62721961161E+03  0.12699999809E+01 0.  1.
</event>
<event>
 5   0  0.9169078E-04  0.1150685E+04  0.7818609E-02  0.9157152E-01
       -1   -1    0    0    0  501  0.00000000000E+00  0.00000000000E+00  0.34097312035E+03  0.34097312038E+03  0.50400001928E-02 0. -1.
        1   -1    0    0  501    0  0.00000000000E+00  0.00000000000E+00 -0.97080718744E+03  0.97080718745E+03  0.50400001928E-02 0.  1.
    10030    2    1    2    0    0  0.00000000000E+00  0.00000000000E+00 -0.62983406709E+03  0.13117803078E+04  0.11506852845E+04 0.  0.
        1    1    3    3  502    0 -0.10931697212E+03 -0.16981707898E+03  0.29923590371E+03  0.36101269618E+03  0.50400001928E-02 0. -1.
       -1    1    3    3    0  502  0.10931697212E+03  0.16981707898E+03 -0.92906997080E+03  0.95076761166E+03  0.50400001928E-02 0.  1.
</event>
<event>
 5   0  0.1567019E-03  0.1194096E+04  0.7818609E-02  0.9118040E-01
        2   -1    0    0  501    0  0.00000000000E+00  0.00000000000E+00  0.15653362566E+04  0.15653362566E+04  0.25500000920E-02 0. -1.
       -2   -1    0    0    0  501  0.00000000000E+00  0.00000000000E+00 -0.22772518319E+03  0.22772518321E+03  0.25500000920E-02 0.  1.
    10030    2    1    2    0    0  0.00000000000E+00  0.00000000000E+00  0.13376110734E+04  0.17930614398E+04  0.11940962872E+04 0.  0.
        5    1    3    3  502    0 -0.22344096728E+03  0.38596950072E+03  0.72787206730E+02  0.45190528743E+03  0.46999998093E+01 0.  1.
       -5    1    3    3    0  502  0.22344096728E+03 -0.38596950072E+03  0.12648238667E+04  0.13411561524E+04  0.46999998093E+01 0. -1.
</event>
<event>
 5   0  0.1567019E-03  0.1228722E+04  0.7818609E-02  0.9088081E-01
        2   -1    0    0  501    0  0.00000000000E+00  0.00000000000E+00  0.10411479815E+04  0.10411479815E+04  0.25500000920E-02 0. -1.
       -2   -1    0    0    0  501  0.00000000000E+00  0.00000000000E+00 -0.36252251726E+03  0.36252251727E+03  0.25500000920E-02 0.  1.
    10030    2    1    2    0    0  0.00000000000E+00  0.00000000000E+00  0.67862546423E+03  0.14036704988E+04  0.12287222422E+04 0.  0.
        5    1    3    3  502    0  0.12548420726E+02 -0.57968577127E+03  0.10736568965E+03  0.58969698794E+03  0.46999998093E+01 0. -1.
       -5    1    3    3    0  502 -0.12548420726E+02  0.57968577127E+03  0.57125977457E+03  0.81397351082E+03  0.46999998093E+01 0.  1.
</event>
<event>
 5   0  0.1537557E-03  0.1197620E+04  0.7818609E-02  0.9114942E-01
       -2   -1    0    0    0  501  0.00000000000E+00  0.00000000000E+00  0.12827951375E+03  0.12827951377E+03  0.25500000920E-02 0. -1.
        2   -1    0    0  501    0  0.00000000000E+00  0.00000000000E+00 -0.27952499904E+04  0.27952499904E+04  0.25500000920E-02 0.  1.
    10030    2    1    2    0    0  0.00000000000E+00  0.00000000000E+00 -0.26669704767E+04  0.29235295042E+04  0.11976198222E+04 0.  0.
        2    1    3    3  502    0 -0.10415682292E+03 -0.41438186971E+03 -0.30934352836E+03  0.52749824289E+03  0.25500000920E-02 0. -1.
       -2    1    3    3    0  502  0.10415682292E+03  0.41438186971E+03 -0.23576269483E+04  0.23960312613E+04  0.25500000920E-02 0.  1.
</event>
<event>
 5   0  0.1537557E-03  0.1161379E+04  0.7818609E-02  0.9147349E-01
       -2   -1    0    0    0  501  0.00000000000E+00  0.00000000000E+00  0.28324708016E+03  0.28324708018E+03  0.25500000920E-02 0. -1.
        2   -1    0    0  501    0  0.00000000000E+00  0.00000000000E+00 -0.11904816493E+04  0.11904816493E+04  0.25500000920E-02 0.  1.
    10030    2    1    2    0    0  0.00000000000E+00  0.00000000000E+00 -0.90723456912E+03  0.14737287295E+04  0.11613792682E+04 0.  0.
        2    1    3    3  502    0 -0.35202811187E+03  0.42107784486E+03 -0.69428307003E+03  0.88501939205E+03  0.25500000920E-02 0. -1.
       -2    1    3    3    0  502  0.35202811187E+03 -0.42107784486E+03 -0.21295149909E+03  0.58870933740E+03  0.25500000920E-02 0.  1.
</event>
<event>
 5   0  0.1597352E-03  0.1200585E+04  0.7818609E-02  0.9112345E-01
       -2   -1    0    0    0  501  0.00000000000E+00  0.00000000000E+00  0.78598087518E+03  0.78598087518E+03  0.25500000920E-02 0.  1.
        2   -1    0    0  501    0  0.00000000000E+00  0.00000000000E+00 -0.45847299841E+03  0.45847299841E+03  0.25500000920E-02 0. -1.
    10030    2    1    2    0    0  0.00000000000E+00  0.00000000000E+00  0.32750787677E+03  0.12444538736E+04  0.12005848717E+04 0.  0.
        1    1    3    3  502    0  0.33285947425E+03 -0.43027665964E+03  0.42683411422E+03  0.69146279329E+03  0.50400001928E-02 0. -1.
       -1    1    3    3    0  502 -0.33285947425E+03  0.43027665964E+03 -0.99326237445E+02  0.55299108030E+03  0.50400001928E-02 0.  1.
</event>
<event>
 5   0  0.9208078E-04  0.1196939E+04  0.7818609E-02  0.9115540E-01
        1   -1    0    0  501    0  0.00000000000E+00  0.00000000000E+00  0.57035551360E+03  0.57035551362E+03  0.50400001928E-02 0.  1.
       -1   -1    0    0    0  501  0.00000000000E+00  0.00000000000E+00 -0.62796925548E+03  0.62796925550E+03  0.50400001928E-02 0. -1.
    10030    2    1    2    0    0  0.00000000000E+00  0.00000000000E+00 -0.57613741877E+02  0.11983247691E+04  0.11969389747E+04 0.  0.
        3    1    3    3  502    0  0.37626246267E+03  0.99101178412E+02 -0.48405438812E+03  0.62105003440E+03  0.10100000352E+00 0. -1.
       -3    1    3    3    0  502 -0.37626246267E+03 -0.99101178412E+02  0.42644064624E+03  0.57727473472E+03  0.10100000352E+00 0.  1.
</event>
<event>
 5   0  0.9208078E-04  0.1202976E+04  0.7818609E-02  0.9110256E-01
        1   -1    0    0  501    0  0.00000000000E+00  0.00000000000E+00  0.54163518228E+03  0.54163518231E+03  0.50400001928E-02 0. -1.
       -1   -1    0    0    0  501  0.00000000000E+00  0.00000000000E+00 -0.66795478654E+03  0.66795478656E+03  0.50400001928E-02 0.  1.
    10030    2    1    2    0    0  0.00000000000E+00  0.00000000000E+00 -0.12631960426E+03  0.12095899689E+04  0.12029759974E+04 0.  0.
        3    1    3    3  502    0 -0.31204715973E+02  0.58258895774E+03  0.83946221034E+02  0.58943244414E+03  0.10100000352E+00 0.  1.
       -3    1    3    3    0  502  0.31204715973E+02 -0.58258895774E+03 -0.21026582529E+03  0.62015752472E+03  0.10100000352E+00 0. -1.
</event>
<event>
 5   0  0.6137750E-04  0.1166966E+04  0.7818609E-02  0.9142273E-01
       -3   -1    0    0    0  501  0.00000000000E+00  0.00000000000E+00  0.68467390136E+03  0.68467390881E+03  0.10100000352E+00 0. -1.
        3   -1    0    0  501    0  0.00000000000E+00  0.00000000000E+00 -0.49724749227E+03  0.49724750253E+03  0.10100000352E+00 0.  1.
    10030    2    1    2    0    0  0.00000000000E+00  0.00000000000E+00  0.18742640910E+03  0.11819214113E+04  0.11669659651E+04 0.  0.
        4    1    3    3  502    0 -0.49167362446E+03  0.20122942866E+03 -0.15065581885E+03  0.55220922176E+03  0.12699999809E+01 0.  1.
       -4    1    3    3    0  502  0.49167362446E+03 -0.20122942866E+03  0.33808222795E+03  0.62971218958E+03  0.12699999809E+01 0. -1.
</event>
<event>
 5   0  0.1647550E-03  0.1201796E+04  0.7818609E-02  0.9111286E-01
       -2   -1    0    0    0  501  0.00000000000E+00  0.00000000000E+00  0.26081696517E+03  0.26081696519E+03  0.25500000920E-02 0. -1.
        2   -1    0    0  501    0  0.00000000000E+00  0.00000000000E+00 -0.13844139240E+04  0.13844139240E+04  0.25500000920E-02 0.  1.
    10030    2    1    2    0    0  0.00000000000E+00  0.00000000000E+00 -0.11235969589E+04  0.16452308892E+04  0.12017963858E+04 0.  0.
        3    1    3    3  502    0 -0.23572050017E+03 -0.33233025432E+02 -0.13171088491E+04  0.13384484744E+04  0.10100000352E+00 0.  1.
       -3    1    3    3    0  502  0.23572050017E+03  0.33233025432E+02  0.19351189021E+03  0.30678241480E+03  0.10100000352E+00 0. -1.
</event>
<event>
 5   0  0.9169078E-04  0.1201968E+04  0.7818609E-02  0.9111136E-01
       -1   -1    0    0    0  501  0.00000000000E+00  0.00000000000E+00  0.54871178499E+03  0.54871178501E+03  0.50400001928E-02 0. -1.
        1   -1    0    0  501    0  0.00000000000E+00  0.00000000000E+00 -0.65823559307E+03  0.65823559309E+03  0.50400001928E-02 0.  1.
    10030    2    1    2    0    0  0.00000000000E+00  0.00000000000E+00 -0.10952380808E+03  0.12069473781E+04  0.12019677654E+04 0.  0.
        1    1    3    3  502    0 -0.27262908521E+03 -0.52047866443E+03 -0.18160613372E+03  0.61498410228E+03  0.50400001928E-02 0.  1.
       -1    1    3    3    0  502  0.27262908521E+03  0.52047866443E+03  0.72082325638E+02  0.59196327582E+03  0.50400001928E-02 0. -1.
</event>
<event>
 5   0  0.1537557E-03  0.1211056E+04  0.7818609E-02  0.9103234E-01
       -2   -1    0    0    0  501  0.00000000000E+00  0.00000000000E+00  0.42029235413E+03  0.42029235413E+03  0.25500000920E-02 0.  1.
        2   -1    0    0  501    0  0.00000000000E+00  0.00000000000E+00 -0.87240221431E+03  0.87240221431E+03  0.25500000920E-02 0. -1.
    10030    2    1    2    0    0  0.00000000000E+00  0.00000000000E+00 -0.45210986018E+03  0.12926945684E+04  0.12110557054E+04 0.  0.
        2    1    3    3  502    0  0.11128694471E+01  0.10712411121E+03 -0.86220625635E+03  0.86883625740E+03  0.25500000920E-02 0. -1.
       -2    1    3    3    0  502 -0.11128694471E+01 -0.10712411121E+03  0.41009639617E+03  0.42385831104E+03  0.25500000920E-02 0.  1.
</event>
<event>
 5   0  0.8908478E-04  0.1202194E+04  0.7818609E-02  0.9110939E-01
        1   -1    0    0  501    0  0.00000000000E+00  0.00000000000E+00  0.80918030208E+03  0.80918030209E+03  0.50400001928E-02 0.  1.
       -1   -1    0    0    0  501  0.00000000000E+00  0.00000000000E+00 -0.44652267654E+03  0.44652267657E+03  0.50400001928E-02 0. -1.
    10030    2    1    2    0    0  0.00000000000E+00  0.00000000000E+00  0.36265762554E+03  0.12557029787E+04  0.12021935856E+04 0.  0.
        4    1    3    3  502    0  0.22528221425E+03  0.75202645054E+02 -0.39543378560E+03  0.46127757975E+03  0.12699999809E+01 0. -1.
       -4    1    3    3    0  502 -0.22528221425E+03 -0.75202645054E+02  0.75809141115E+03  0.79442539891E+03  0.12699999809E+01 0.  1.
</event>
<event>
 5   0  0.9169078E-04  0.1193970E+04  0.7818609E-02  0.9118151E-01
       -1   -1    0    0    0  501  0.00000000000E+00  0.00000000000E+00  0.53088516218E+03  0.53088516221E+03  0.50400001928E-02 0.  1.
        1   -1    0    0  501    0  0.00000000000E+00  0.00000000000E+00 -0.67131509474E+03  0.67131509476E+03  0.50400001928E-02 0. -1.
    10030    2    1    2    0    0  0.00000000000E+00  0.00000000000E+00 -0.14042993256E+03  0.12022002570E+04  0.11939702224E+04 0.  0.
        1    1    3    3  502    0  0.10310606175E+03  0.59123537435E+02 -0.65928159525E+03  0.66990945247E+03  0.50400001928E-02 0. -1.
       -1    1    3    3    0  502 -0.10310606175E+03 -0.59123537435E+02  0.51885166269E+03  0.53229080450E+03  0.50400001928E-02 0.  1.
</event>
<event>
 5   0  0.9358428E-04  0.1206395E+04  0.7818609E-02  0.9107277E-01
        1   -1    0    0  501    0  0.00000000000E+00  0.00000000000E+00  0.46752092169E+03  0.46752092172E+03  0.50400001928E-02 0.  1.
       -1   -1    0    0    0  501  0.00000000000E+00  0.00000000000E+00 -0.77824846918E+03  0.77824846919E+03  0.50400001928E-02 0. -1.
    10030    2    1    2    0    0  0.00000000000E+00  0.00000000000E+00 -0.31072754748E+03  0.12457693909E+04  0.12063953608E+04 0.  0.
        2    1    3    3  502    0 -0.43643705673E+03  0.35328493026E+03  0.72191480508E+02  0.56612644904E+03  0.25500000920E-02 0.  1.
       -2    1    3    3    0  502  0.43643705673E+03 -0.35328493026E+03 -0.38291902799E+03  0.67964294187E+03  0.25500000920E-02 0. -1.
</event>
<event>
 5   0  0.9208078E-04  0.1195501E+04  0.7818609E-02  0.9116803E-01
        1   -1    0    0  501    0  0.00000000000E+00  0.00000000000E+00  0.54633407836E+03  0.54633407838E+03  0.50400001928E-02 0. -1.
       -1   -1    0    0    0  501  0.00000000000E+00  0.00000000000E+00 -0.65400631569E+03  0.65400631571E+03  0.50400001928E-02 0.  1.
    10030    2    1    2    0    0  0.00000000000E+00  0.00000000000E+00 -0.10767223733E+03  0.12003403941E+04  0.11955014642E+04 0.  0.
        3    1    3    3  502    0 -0.33807208137E+03 -0.49040142708E+03 -0.10423526520E+03  0.60469107204E+03  0.10100000352E+00 0.  1.
       -3    1    3    3    0  502  0.33807208137E+03  0.49040142708E+03 -0.34369721264E+01  0.59564932206E+03  0.10100000352E+00 0. -1.
</event>
<event>
 5   0  0.1551501E-03  0.1197001E+04  0.7818609E-02  0.9115485E-01
       -2   -1    0    0    0  501  0.00000000000E+00  0.00000000000E+00  0.28135386172E+03  0.28135386174E+03  0.25500000920E-02 0. -1.
        2   -1    0    0  501    0  0.00000000000E+00  0.00000000000E+00 -0.12731407383E+04  0.12731407383E+04  0.25500000920E-02 0.  1.
    10030    2    1    2    0    0  0.00000000000E+00  0.00000000000E+00 -0.99178687661E+03  0.15544946001E+04  0.11970013588E+04 0.  0.
        4    1    3    3  502    0 -0.50441509672E+02  0.51891052863E+03 -0.87759480650E+03  0.10207775173E+04  0.12699999809E+01 0.  1.
       -4    1    3    3    0  502  0.50441509672E+02 -0.51891052863E+03 -0.11419207011E+03  0.53371708273E+03  0.12699999809E+01 0. -1.
</event>
<event>
 5   0  0.1551501E-03  0.1202151E+04  0.7818609E-02  0.9110976E-01
        2   -1    0    0  501    0  0.00000000000E+00  0.00000000000E+00  0.75983498745E+03  0.75983498745E+03  0.25500000920E-02 0.  1.
       -2   -1    0    0    0  501  0.00000000000E+00  0.00000000000E+00 -0.47548678580E+03  0.47548678580E+03  0.25500000920E-02 0. -1.
    10030    2    1    2    0    0  0.00000000000E+00  0.00000000000E+00  0.28434820165E+03  0.12353217733E+04  0.12021505661E+04 0.  0.
        4    1    3    3  502    0 -0.59150973622E+02 -0.47473380088E+03 -0.23176093581E+03  0.53158796417E+03  0.12699999809E+01 0. -1.
       -4    1    3    3    0  502  0.59150973622E+02  0.47473380088E+03  0.51610913747E+03  0.70373380909E+03  0.12699999809E+01 0.  1.
</event>
<event>
 5   0  0.9358428E-04  0.1237008E+04  0.7818609E-02  0.9081066E-01
       -1   -1    0    0    0  501  0.00000000000E+00  0.00000000000E+00  0.36376335154E+03  0.36376335158E+03  0.50400001928E-02 0.  1.
        1   -1    0    0  501    0  0.00000000000E+00  0.00000000000E+00 -0.10516376400E+04  0.10516376400E+04  0.50400001928E-02 0. -1.
    10030    2    1    2    0    0  0.00000000000E+00  0.00000000000E+00 -0.68787428847E+03  0.14154009916E+04  0.12370080559E+04 0.  0.
        2    1    3    3  502    0 -0.16250860949E+03  0.44611753302E+03  0.10960642585E+03  0.48728171525E+03  0.25500000920E-02 0.  1.
       -2    1    3    3    0  502  0.16250860949E+03 -0.44611753302E+03 -0.79748071431E+03  0.92811927635E+03  0.25500000920E-02 0. -1.
</event>
<event>
 5   0  0.1551501E-03  0.1196201E+04  0.7818609E-02  0.9116189E-01
        2   -1    0    0  501    0  0.00000000000E+00  0.00000000000E+00  0.86363065663E+03  0.86363065663E+03  0.25500000920E-02 0.  1.
       -2   -1    0    0    0  501  0.00000000000E+00  0.00000000000E+00 -0.41420950794E+03  0.41420950795E+03  0.25500000920E-02 0. -1.
    10030    2    1    2    0    0  0.00000000000E+00  0.00000000000E+00  0.44942114869E+03  0.12778401646E+04  0.11962007011E+04 0.  0.
        4    1    3    3  502    0  0.24704451069E+03  0.51364325346E+03  0.31059591931E+02  0.57081230999E+03  0.12699999809E+01 0. -1.
       -4    1    3    3    0  502 -0.24704451069E+03 -0.51364325346E+03  0.41836155675E+03  0.70702785458E+03  0.12699999809E+01 0.  1.
</event>
<event>
 5   0  0.1597352E-03  0.1196079E+04  0.7818609E-02  0.9116295E-01
       -2   -1    0    0    0  501  0.00000000000E+00  0.00000000000E+00  0.22732030957E+03  0.22732030958E+03  0.25500000920E-02 0.  1.
        2   -1    0    0  501    0  0.00000000000E+00  0.00000000000E+00 -0.15733367930E+04  0.15733367930E+04  0.25500000920E-02 0. -1.
    10030    2    1    2    0    0  0.00000000000E+00  0.00000000000E+00 -0.13460164834E+04  0.18006571026E+04  0.11960792731E+04 0.  0.
        1    1    3    3  502    0  0.32177391517E+02 -0.43438582243E+03 -0.12899280372E+04  0.13614847662E+04  0.50400001928E-02 0.  1.
       -1    1    3    3    0  502 -0.32177391517E+02  0.43438582243E+03 -0.56088446205E+02  0.43917233642E+03  0.50400001928E-02 0. -1.
</event>
<event>
 5   0  0.1551501E-03  0.1200239E+04  0.7818609E-02  0.9112647E-01
       -2   -1    0    0    0  501  0.00000000000E+00  0.00000000000E+00  0.12171064250E+04  0.12171064250E+04  0.25500000920E-02 0.  1.
        2   -1    0    0  501    0  0.00000000000E+00  0.00000000000E+00 -0.29590143315E+03  0.29590143316E+03  0.25500000920E-02 0. -1.
    10030    2    1    2    0    0  0.00000000000E+00  0.00000000000E+00  0.92120499188E+03  0.15130078582E+04  0.12002392019E+04 0.  0.
        4    1    3    3  502    0 -0.44833335759E+02 -0.20911063278E+03 -0.24623218169E+03  0.32614289036E+03  0.12699999809E+01 0. -1.
       -4    1    3    3    0  502  0.44833335759E+02  0.20911063278E+03  0.11674371736E+04  0.11868649678E+04  0.12699999809E+01 0.  1.
</event>
<event>
 5   0  0.9208078E-04  0.1213386E+04  0.7818609E-02  0.9101220E-01
       -1   -1    0    0    0  501  0.00000000000E+00  0.00000000000E+00  0.54141057530E+03  0.54141057532E+03  0.50400001928E-02 0.  1.
        1   -1    0    0  501    0  0.00000000000E+00  0.00000000000E+00 -0.67984673829E+03  0.67984673831E+03  0.50400001928E-02 0. -1.
    10030    2    1    2    0    0  0.00000000000E+00  0.00000000000E+00 -0.13843616299E+03  0.12212573136E+04  0.12133856991E+04 0.  0.
        3    1    3    3  502    0 -0.11876317265E+03 -0.36113022860E+03  0.40666682158E+03  0.55668451313E+03  0.10100000352E+00 0.  1.
       -3    1    3    3    0  502  0.11876317265E+03  0.36113022860E+03 -0.54510298457E+03  0.66457280051E+03  0.10100000352E+00 0. -1.
</event>
<event>
 5   0  0.1567019E-03  0.1192893E+04  0.7818609E-02  0.9119100E-01
       -2   -1    0    0    0  501  0.00000000000E+00  0.00000000000E+00  0.41541125196E+03  0.41541125197E+03  0.25500000920E-02 0.  1.
        2   -1    0    0  501    0  0.00000000000E+00  0.00000000000E+00 -0.85637609180E+03  0.85637609180E+03  0.25500000920E-02 0. -1.
    10030    2    1    2    0    0  0.00000000000E+00  0.00000000000E+00 -0.44096483984E+03  0.12717873438E+04  0.11928927269E+04 0.  0.
        5    1    3    3  502    0  0.29633128245E+03 -0.97399607869E+02 -0.76246118512E+03  0.82381312286E+03  0.46999998093E+01 0. -1.
       -5    1    3    3    0  502 -0.29633128245E+03  0.97399607869E+02  0.32149634528E+03  0.44797422091E+03  0.46999998093E+01 0.  1.
</event>
<event>
 5   0  0.9208078E-04  0.1174935E+04  0.7818609E-02  0.9135083E-01
       -1   -1    0    0    0  501  0.00000000000E+00  0.00000000000E+00  0.50421677224E+03  0.50421677226E+03  0.50400001928E-02 0. -1.
        1   -1    0    0  501    0  0.00000000000E+00  0.00000000000E+00 -0.68446387681E+03  0.68446387683E+03  0.50400001928E-02 0.  1.
    10030    2    1    2    0    0  0.00000000000E+00  0.00000000000E+00 -0.18024710457E+03  0.11886806491E+04  0.11749351756E+04 0.  0.
        3    1    3    3  502    0 -0.21526659761E+03  0.44027146257E+03 -0.41785699233E+03  0.64403660225E+03  0.10100000352E+00 0.  1.
       -3    1    3    3    0  502  0.21526659761E+03 -0.44027146257E+03  0.23760988776E+03  0.54464404684E+03  0.10100000352E+00 0. -1.
</event>
<event>
 5   0  0.9208078E-04  0.1195773E+04  0.7818609E-02  0.9116564E-01
        1   -1    0    0  501    0  0.00000000000E+00  0.00000000000E+00  0.82900443636E+03  0.82900443637E+03  0.50400001928E-02 0.  1.
       -1   -1    0    0    0  501  0.00000000000E+00  0.00000000000E+00 -0.43120222217E+03  0.43120222220E+03  0.50400001928E-02 0. -1.
    10030    2    1    2    0    0  0.00000000000E+00  0.00000000000E+00  0.39780221419E+03  0.12602066586E+04  0.11957734822E+04 0.  0.
        3    1    3    3  502    0  0.52187425365E+03  0.10829563796E+03 -0.86598143794E+02  0.53998141684E+03  0.10100000352E+00 0. -1.
       -3    1    3    3    0  502 -0.52187425365E+03 -0.10829563796E+03  0.48440035798E+03  0.72022524174E+03  0.10100000352E+00 0.  1.
</event>
<event>
 5   0  0.1647550E-03  0.1237692E+04  0.7818609E-02  0.9080490E-01
       -2   -1    0    0    0  501  0.00000000000E+00  0.00000000000E+00  0.10642552561E+04  0.10642552561E+04  0.25500000920E-02 0.  1.
        2   -1    0    0  501    0  0.00000000000E+00  0.00000000000E+00 -0.35984803354E+03  0.35984803355E+03  0.25500000920E-02 0. -1.
    10030    2    1    2    0    0  0.00000000000E+00  0.00000000000E+00  0.70440722259E+03  0.14241032897E+04  0.12376916597E+04 0.  0.
        3    1    3    3  502    0 -0.57146811303E+03  0.22965816622E+03  0.42173214892E+03  0.74644269248E+03  0.10100000352E+00 0.  1.
       -3    1    3    3    0  502  0.57146811303E+03 -0.22965816622E+03  0.28267507367E+03  0.67766059720E+03  0.10100000352E+00 0. -1.
</event>
<event>
 5   0  0.9169078E-04  0.1193685E+04  0.7818609E-02  0.9118402E-01
       -1   -1    0    0    0  501  0.00000000000E+00  0.00000000000E+00  0.39512048031E+03  0.39512048034E+03  0.50400001928E-02 0. -1.
        1   -1    0    0  501    0  0.00000000000E+00  0.00000000000E+00 -0.90154966070E+03  0.90154966072E+03  0.50400001928E-02 0.  1.
    10030    2    1    2    0    0  0.00000000000E+00  0.00000000000E+00 -0.50642918039E+03  0.12966701411E+04  0.11936846066E+04 0.  0.
        1    1    3    3  502    0 -0.58929958832E+03  0.93719758624E+02 -0.23933162554E+03  0.64291292176E+03  0.50400001928E-02 0.  1.
       -1    1    3    3    0  502  0.58929958832E+03 -0.93719758624E+02 -0.26709755485E+03  0.65375721930E+03  0.50400001928E-02 0. -1.
</event>
<event>
 5   0  0.8908478E-04  0.1212407E+04  0.7818609E-02  0.9102065E-01
       -1   -1    0    0    0  501  0.00000000000E+00  0.00000000000E+00  0.43643149950E+03  0.43643149953E+03  0.50400001928E-02 0.  1.
        1   -1    0    0  501    0  0.00000000000E+00  0.00000000000E+00 -0.84201693098E+03  0.84201693099E+03  0.50400001928E-02 0. -1.
    10030    2    1    2    0    0  0.00000000000E+00  0.00000000000E+00 -0.40558543147E+03  0.12784484305E+04  0.12124070469E+04 0.  0.
        4    1    3    3  502    0  0.40229746310E+03 -0.47092259859E+02  0.27279624790E+03  0.48834448448E+03  0.12699999809E+01 0.  1.
       -4    1    3    3    0  502 -0.40229746310E+03  0.47092259859E+02 -0.67838167937E+03  0.79010394605E+03  0.12699999809E+01 0. -1.
</event>
<event>
 5   0  0.9170776E-04  0.1196664E+04  0.7818609E-02  0.9115781E-01
        1   -1    0    0  501    0  0.00000000000E+00  0.00000000000E+00  0.17073615753E+04  0.17073615753E+04  0.50400001928E-02 0. -1.
       -1   -1    0    0    0  501  0.00000000000E+00  0.00000000000E+00 -0.20968107903E+03  0.20968107909E+03  0.50400001928E-02 0.  1.
    10030    2    1    2    0    0  0.00000000000E+00  0.00000000000E+00  0.14976804963E+04  0.19170426544E+04  0.11966643932E+04 0.  0.
        5    1    3    3  502    0  0.46644852304E+03  0.74640636988E+02  0.13370861636E+04  0.14180856632E+04  0.46999998093E+01 0. -1.
       -5    1    3    3    0  502 -0.46644852304E+03 -0.74640636988E+02  0.16059433262E+03  0.49895699113E+03  0.46999998093E+01 0.  1.
</event>
<event>
 5   0  0.8908478E-04  0.1059461E+04  0.7818609E-02  0.9245630E-01
        1   -1    0    0  501    0  0.00000000000E+00  0.00000000000E+00  0.79351238961E+03  0.79351238963E+03  0.50400001928E-02 0. -1.
       -1   -1    0    0    0  501  0.00000000000E+00  0.00000000000E+00 -0.35363607618E+03  0.35363607622E+03  0.50400001928E-02 0.  1.
    10030    2    1    2    0    0  0.00000000000E+00  0.00000000000E+00  0.43987631343E+03  0.11471484658E+04  0.10594613875E+04 0.  0.
        4    1    3    3  502    0  0.70993749316E+02 -0.52488450848E+03  0.22894109868E+03  0.57702642856E+03  0.12699999809E+01 0. -1.
       -4    1    3    3    0  502 -0.70993749316E+02  0.52488450848E+03  0.21093521475E+03  0.57012203729E+03  0.12699999809E+01 0.  1.
</event>
<event>
 5   0  0.9169078E-04  0.1193708E+04  0.7818609E-02  0.9118382E-01
        1   -1    0    0  501    0  0.00000000000E+00  0.00000000000E+00  0.65596077705E+03  0.65596077707E+03  0.50400001928E-02 0. -1.
       -1   -1    0    0    0  501  0.00000000000E+00  0.00000000000E+00 -0.54307290762E+03  0.54307290764E+03  0.50400001928E-02 0.  1.
    10030    2    1    2    0    0  0.00000000000E+00  0.00000000000E+00  0.11288786943E+03  0.11990336847E+04  0.11937077138E+04 0.  0.
        1    1    3    3  502    0 -0.21202187706E+02 -0.59298291864E+03 -0.83127065727E+01  0.59342006680E+03  0.50400001928E-02 0.  1.
       -1    1    3    3    0  502  0.21202187706E+02  0.59298291864E+03  0.12120057601E+03  0.60561361792E+03  0.50400001928E-02 0. -1.
</event>
<event>
 5   0  0.1551501E-03  0.1206343E+04  0.7818609E-02  0.9107322E-01
       -2   -1    0    0    0  501  0.00000000000E+00  0.00000000000E+00  0.11005842822E+04  0.11005842822E+04  0.25500000920E-02 0.  1.
        2   -1    0    0  501    0  0.00000000000E+00  0.00000000000E+00 -0.33056632993E+03  0.33056632994E+03  0.25500000920E-02 0. -1.
    10030    2    1    2    0    0  0.00000000000E+00  0.00000000000E+00  0.77001795223E+03  0.14311506121E+04  0.12063434120E+04 0.  0.
        4    1    3    3  502    0 -0.10914263139E+03  0.43961856246E+03  0.85752643458E+03  0.96980915305E+03  0.12699999809E+01 0.  1.
       -4    1    3    3    0  502  0.10914263139E+03 -0.43961856246E+03 -0.87508482345E+02  0.46134145904E+03  0.12699999809E+01 0. -1.
</event>
<event>
 5   0  0.8908478E-04  0.1196696E+04  0.7818609E-02  0.9115754E-01
       -1   -1    0    0    0  501  0.00000000000E+00  0.00000000000E+00  0.28176910548E+03  0.28176910553E+03  0.50400001928E-02 0.  1.
        1   -1    0    0  501    0  0.00000000000E+00  0.00000000000E+00 -0.12706154931E+04  0.12706154932E+04  0.50400001928E-02 0. -1.
    10030    2    1    2    0    0  0.00000000000E+00  0.00000000000E+00 -0.98884638766E+03  0.15523845987E+04  0.11966957691E+04 0.  0.
        4    1    3    3  502    0 -0.33305189445E+03 -0.38702438665E+03 -0.89908099656E+03  0.10339534281E+04  0.12699999809E+01 0. -1.
       -4    1    3    3    0  502  0.33305189445E+03  0.38702438665E+03 -0.89765391102E+02  0.51843117055E+03  0.12699999809E+01 0.  1.
</event>
<event>
 5   0  0.8908478E-04  0.1182598E+04  0.7818609E-02  0.9128226E-01
       -1   -1    0    0    0  501  0.00000000000E+00  0.00000000000E+00  0.33380864732E+03  0.33380864735E+03  0.50400001928E-02 0.  1.
        1   -1    0    0  501    0  0.00000000000E+00  0.00000000000E+00 -0.10474101895E+04  0.10474101895E+04  0.50400001928E-02 0. -1.
    10030    2    1    2    0    0  0.00000000000E+00  0.00000000000E+00 -0.71360154215E+03  0.13812188368E+04  0.11825981204E+04 0.  0.
        4    1    3    3  502    0  0.10638883900E+03 -0.88438397405E+02 -0.10282396127E+04  0.10375057827E+04  0.12699999809E+01 0. -1.
       -4    1    3    3    0  502 -0.10638883900E+03  0.88438397405E+02  0.31463807056E+03  0.34371305408E+03  0.12699999809E+01 0.  1.
</event>
<event>
 5   0  0.9208078E-04  0.1197147E+04  0.7818609E-02  0.9115358E-01
        1   -1    0    0  501    0  0.00000000000E+00  0.00000000000E+00  0.41935429452E+03  0.41935429455E+03  0.50400001928E-02 0. -1.
       -1   -1    0    0    0  501  0.00000000000E+00  0.00000000000E+00 -0.85438482183E+03  0.85438482185E+03  0.50400001928E-02 0.  1.
    10030    2    1    2    0    0  0.00000000000E+00  0.00000000000E+00 -0.43503052732E+03  0.12737391164E+04  0.11971465144E+04 0.  0.
        3    1    3    3  502    0  0.17002352454E+03  0.29198851446E+02  0.39233087178E+03  0.42858382491E+03  0.10100000352E+00 0. -1.
       -3    1    3    3    0  502 -0.17002352454E+03 -0.29198851446E+02 -0.82736139909E+03  0.84515529149E+03  0.10100000352E+00 0.  1.
</event>
<event>
 5   0  0.9208078E-04  0.1202329E+04  0.7818609E-02  0.9110821E-01
        1   -1    0    0  501    0  0.00000000000E+00  0.00000000000E+00  0.46793631289E+03  0.46793631292E+03  0.50400001928E-02 0.  1.
       -1   -1    0    0    0  501  0.00000000000E+00  0.00000000000E+00 -0.77232449400E+03  0.77232449402E+03  0.50400001928E-02 0. -1.
    10030    2    1    2    0    0  0.00000000000E+00  0.00000000000E+00 -0.30438818111E+03  0.12402608069E+04  0.12023288670E+04 0.  0.
        3    1    3    3  502    0  0.72860748989E+02  0.45894221618E+03  0.24123326322E+03  0.52357439206E+03  0.10100000352E+00 0.  1.
       -3    1    3    3    0  502 -0.72860748989E+02 -0.45894221618E+03 -0.54562144434E+03  0.71668641487E+03  0.10100000352E+00 0. -1.
</event>
<event>
 5   0  0.1551501E-03  0.1209892E+04  0.7818609E-02  0.9104242E-01
        2   -1    0    0  501    0  0.00000000000E+00  0.00000000000E+00  0.11074810181E+04  0.11074810181E+04  0.25500000920E-02 0.  1.
       -2   -1    0    0    0  501  0.00000000000E+00  0.00000000000E+00 -0.33044313929E+03  0.33044313930E+03  0.25500000920E-02 0. -1.
    10030    2    1    2    0    0  0.00000000000E+00  0.00000000000E+00  0.77703787883E+03  0.14379241574E+04  0.12098917379E+04 0.  0.
        4    1    3    3  502    0  0.52130158730E+03 -0.30691111648E+03  0.38513375187E+03  0.71713276181E+03  0.12699999809E+01 0.  1.
       -4    1    3    3    0  502 -0.52130158730E+03  0.30691111648E+03  0.39190412696E+03  0.72079139560E+03  0.12699999809E+01 0. -1.
</event>
<event>
 5   0  0.9358428E-04  0.1198195E+04  0.7818609E-02  0.9114438E-01
        1   -1    0    0  501    0  0.00000000000E+00  0.00000000000E+00  0.73251140550E+03  0.73251140552E+03  0.50400001928E-02 0. -1.
       -1   -1    0    0    0  501  0.00000000000E+00  0.00000000000E+00 -0.48998224448E+03  0.48998224450E+03  0.50400001928E-02 0.  1.
    10030    2    1    2    0    0  0.00000000000E+00  0.00000000000E+00  0.24252916102E+03  0.12224936500E+04  0.11981946129E+04 0.  0.
        2    1    3    3  502    0 -0.36708685355E+03  0.44847629820E+03 -0.33582267777E+02  0.58052693031E+03  0.25500000920E-02 0. -1.
       -2    1    3    3    0  502  0.36708685355E+03 -0.44847629820E+03  0.27611142880E+03  0.64196671971E+03  0.25500000920E-02 0.  1.
</event>
<event>
 5   0  0.8908478E-04  0.1133407E+04  0.7818609E-02  0.9173229E-01
        1   -1    0    0  501    0  0.00000000000E+00  0.00000000000E+00  0.11373552302E+04  0.11373552303E+04  0.50400001928E-02 0.  1.
       -1   -1    0    0    0  501  0.00000000000E+00  0.00000000000E+00 -0.28236811006E+03  0.28236811011E+03  0.50400001928E-02 0. -1.
    10030    2    1    2    0    0  0.00000000000E+00  0.00000000000E+00  0.85498712019E+03  0.14197233404E+04  0.11334069823E+04 0.  0.
        4    1    3    3  502    0  0.87583747917E+02 -0.33707828381E+03 -0.13249506630E+03  0.37262479494E+03  0.12699999809E+01 0. -1.
       -4    1    3    3    0  502 -0.87583747917E+02  0.33707828381E+03  0.98748218648E+03  0.10470985454E+04  0.12699999809E+01 0.  1.
</event>
<event>
 5   0  0.1551501E-03  0.1192364E+04  0.7818609E-02  0.9119567E-01
        2   -1    0    0  501    0  0.00000000000E+00  0.00000000000E+00  0.65181740366E+03  0.65181740366E+03  0.25500000920E-02 0. -1.
       -2   -1    0    0    0  501  0.00000000000E+00  0.00000000000E+00 -0.54529536840E+03  0.54529536841E+03  0.25500000920E-02 0.  1.
    10030    2    1    2    0    0  0.00000000000E+00  0.00000000000E+00  0.10652203526E+03  0.11971127721E+04  0.11923640573E+04 0.  0.
        4    1    3    3  502    0  0.31852002344E+03  0.32230990790E+03  0.44222196282E+03  0.63316708645E+03  0.12699999809E+01 0.  1.
       -4    1    3    3    0  502 -0.31852002344E+03 -0.32230990790E+03 -0.33569992756E+03  0.56394568562E+03  0.12699999809E+01 0. -1.
</event>
<event>
 5   0  0.1567019E-03  0.1199790E+04  0.7818609E-02  0.9113040E-01
        2   -1    0    0  501    0  0.00000000000E+00  0.00000000000E+00  0.81261813045E+03  0.81261813045E+03  0.25500000920E-02 0. -1.
       -2   -1    0    0    0  501  0.00000000000E+00  0.00000000000E+00 -0.44285751138E+03  0.44285751139E+03  0.25500000920E-02 0.  1.
    10030    2    1    2    0    0  0.00000000000E+00  0.00000000000E+00  0.36976061907E+03  0.12554756418E+04  0.11997900532E+04 0.  0.
        5    1    3    3  502    0 -0.29369018608E+03 -0.67043595518E+02  0.72770857308E+03  0.78761070741E+03  0.46999998093E+01 0. -1.
       -5    1    3    3    0  502  0.29369018608E+03  0.67043595518E+02 -0.35794795401E+03  0.46786493444E+03  0.46999998093E+01 0.  1.
</event>
<event>
 5   0  0.8908478E-04  0.1198438E+04  0.7818609E-02  0.9114225E-01
       -1   -1    0    0    0  501  0.00000000000E+00  0.00000000000E+00  0.33205554645E+03  0.33205554649E+03  0.50400001928E-02 0.  1.
        1   -1    0    0  501    0  0.00000000000E+00  0.00000000000E+00 -0.10813356749E+04  0.10813356749E+04  0.50400001928E-02 0. -1.
    10030    2    1    2    0    0  0.00000000000E+00  0.00000000000E+00 -0.74928012841E+03  0.14133912214E+04  0.11984381643E+04 0.  0.
        4    1    3    3  502    0 -0.30397729923E+03 -0.14741364393E+03 -0.95830927969E+03  0.10161157755E+04  0.12699999809E+01 0. -1.
       -4    1    3    3    0  502  0.30397729923E+03  0.14741364393E+03  0.20902915128E+03  0.39727544582E+03  0.12699999809E+01 0.  1.
</event>
<event>
 5   0  0.1551501E-03  0.1191347E+04  0.7818609E-02  0.9120465E-01
       -2   -1    0    0    0  501  0.00000000000E+00  0.00000000000E+00  0.40488135923E+03  0.40488135923E+03  0.25500000920E-02 0. -1.
        2   -1    0    0  501    0  0.00000000000E+00  0.00000000000E+00 -0.87637197852E+03  0.87637197853E+03  0.25500000920E-02 0.  1.
    10030    2    1    2    0    0  0.00000000000E+00  0.00000000000E+00 -0.47149061930E+03  0.12812533378E+04  0.11913465958E+04 0.  0.
        4    1    3    3  502    0  0.35681417690E+03 -0.47203085039E+03 -0.16204968450E+03  0.61350728904E+03  0.12699999809E+01 0. -1.
       -4    1    3    3    0  502 -0.35681417690E+03  0.47203085039E+03 -0.30944093480E+03  0.66774604872E+03  0.12699999809E+01 0.  1.
</event>
<event>
 5   0  0.1647550E-03  0.1202728E+04  0.7818609E-02  0.9110472E-01
        2   -1    0    0  501    0  0.00000000000E+00  0.00000000000E+00  0.22685346512E+04  0.22685346512E+04  0.25500000920E-02 0.  1.
       -2   -1    0    0    0  501  0.00000000000E+00  0.00000000000E+00 -0.15941497260E+03  0.15941497262E+03  0.25500000920E-02 0. -1.
    10030    2    1    2    0    0  0.00000000000E+00  0.00000000000E+00  0.21091196786E+04  0.24279496238E+04  0.12027275490E+04 0.  0.
        3    1    3    3  502    0 -0.46291190948E+03 -0.20344266880E+03  0.39743552826E+03  0.64314179211E+03  0.10100000352E+00 0. -1.
       -3    1    3    3    0  502  0.46291190948E+03  0.20344266880E+03  0.17116841503E+04  0.17848078317E+04  0.10100000352E+00 0.  1.
</event>
<event>
 5   0  0.9170776E-04  0.1198390E+04  0.7818609E-02  0.9114267E-01
       -1   -1    0    0    0  501  0.00000000000E+00  0.00000000000E+00  0.30657838939E+03  0.30657838943E+03  0.50400001928E-02 0. -1.
        1   -1    0    0  501    0  0.00000000000E+00  0.00000000000E+00 -0.11711029452E+04  0.11711029452E+04  0.50400001928E-02 0.  1.
    10030    2    1    2    0    0  0.00000000000E+00  0.00000000000E+00 -0.86452455584E+03  0.14776813347E+04  0.11983903451E+04 0.  0.
        5    1    3    3  502    0 -0.12176706758E+03  0.17922326723E+03 -0.11210806401E+04  0.11418371556E+04  0.46999998093E+01 0.  1.
       -5    1    3    3    0  502  0.12176706758E+03 -0.17922326723E+03  0.25655608426E+03  0.33584417910E+03  0.46999998093E+01 0. -1.
</event>
<event>
 5   0  0.1537557E-03  0.1262739E+04  0.7818609E-02  0.9059646E-01
        2   -1    0    0  501    0  0.00000000000E+00  0.00000000000E+00  0.20672610385E+04  0.20672610385E+04  0.25500000920E-02 0.  1.
       -2   -1    0    0    0  501  0.00000000000E+00  0.00000000000E+00 -0.19282891881E+03  0.19282891883E+03  0.25500000920E-02 0. -1.
    10030    2    1    2    0    0  0.00000000000E+00  0.00000000000E+00  0.18744321197E+04  0.22600899574E+04  0.12627394204E+04 0.  0.
        2    1    3    3  502    0  0.49087317006E+02 -0.61357217995E+03  0.68569975851E+03  0.92144698357E+03  0.25500000920E-02 0.  1.
       -2    1    3    3    0  502 -0.49087317006E+02  0.61357217995E+03  0.11887323612E+04  0.13386429738E+04  0.25500000920E-02 0. -1.
</event>
<event>
 5   0  0.9170776E-04  0.1200152E+04  0.7818609E-02  0.9112724E-01
        1   -1    0    0  501    0  0.00000000000E+00  0.00000000000E+00  0.51905377906E+03  0.51905377908E+03  0.50400001928E-02 0. -1.
       -1   -1    0    0    0  501  0.00000000000E+00  0.00000000000E+00 -0.69374516933E+03  0.69374516934E+03  0.50400001928E-02 0.  1.
    10030    2    1    2    0    0  0.00000000000E+00  0.00000000000E+00 -0.17469139027E+03  0.12127989484E+04  0.12001517435E+04 0.  0.
        5    1    3    3  502    0  0.44856176390E+03 -0.27664859793E+03 -0.37729590318E+03  0.64816386148E+03  0.46999998093E+01 0.  1.
       -5    1    3    3    0  502 -0.44856176390E+03  0.27664859793E+03  0.20260451291E+03  0.56463508695E+03  0.46999998093E+01 0. -1.
</event>
<event>
 5   0  0.1537557E-03  0.1196317E+04  0.7818609E-02  0.9116086E-01
        2   -1    0    0  501    0  0.00000000000E+00  0.00000000000E+00  0.13518544345E+04  0.13518544345E+04  0.25500000920E-02 0.  1.
       -2   -1    0    0    0  501  0.00000000000E+00  0.00000000000E+00 -0.26466887562E+03  0.26466887563E+03  0.25500000920E-02 0. -1.
    10030    2    1    2    0    0  0.00000000000E+00  0.00000000000E+00  0.10871855589E+04  0.16165233102E+04  0.11963173378E+04 0.  0.
        2    1    3    3  502    0  0.83842776237E+02  0.15201329439E+02 -0.25642583572E+03  0.27021269544E+03  0.25500000920E-02 0. -1.
       -2    1    3    3    0  502 -0.83842776237E+02 -0.15201329439E+02  0.13436113946E+04  0.13463106147E+04  0.25500000920E-02 0.  1.
</event>
<event>
 5   0  0.9208078E-04  0.1211845E+04  0.7818609E-02  0.9102552E-01
        1   -1    0    0  501    0  0.00000000000E+00  0.00000000000E+00  0.72021002961E+03  0.72021002962E+03  0.50400001928E-02 0.  1.
       -1   -1    0    0    0  501  0.00000000000E+00  0.00000000000E+00 -0.50977066346E+03  0.50977066348E+03  0.50400001928E-02 0. -1.
    10030    2    1    2    0    0  0.00000000000E+00  0.00000000000E+00  0.21043936615E+03  0.12299806931E+04  0.12118447832E+04 0.  0.
        3    1    3    3  502    0  0.34109256020E+03  0.42490435353E+03 -0.16380188743E+03  0.56896301531E+03  0.10100000352E+00 0. -1.
       -3    1    3    3    0  502 -0.34109256020E+03 -0.42490435353E+03  0.37424125358E+03  0.66101767779E+03  0.10100000352E+00 0.  1.
</event>
<event>
 5   0  0.1647550E-03  0.1190734E+04  0.7818609E-02  0.9121006E-01
       -2   -1    0    0    0  501  0.00000000000E+00  0.00000000000E+00  0.27499685738E+03  0.27499685739E+03  0.25500000920E-02 0.  1.
        2   -1    0    0  501    0  0.00000000000E+00  0.00000000000E+00 -0.12889676690E+04  0.12889676690E+04  0.25500000920E-02 0. -1.
    10030    2    1    2    0    0  0.00000000000E+00  0.00000000000E+00 -0.10139708117E+04  0.15639645264E+04  0.11907343251E+04 0.  0.
        3    1    3    3  502    0  0.10216412858E+03 -0.27947534950E+03 -0.11842930052E+04  0.12211035634E+04  0.10100000352E+00 0. -1.
       -3    1    3    3    0  502 -0.10216412858E+03  0.27947534950E+03  0.17032219356E+03  0.34286096303E+03  0.10100000352E+00 0.  1.
</event>
<event>
 5   0  0.9358428E-04  0.1196490E+04  0.7818609E-02  0.9115935E-01
       -1   -1    0    0    0  501  0.00000000000E+00  0.00000000000E+00  0.95778343410E+03  0.95778343411E+03  0.50400001928E-02 0.  1.
        1   -1    0    0  501    0  0.00000000000E+00  0.00000000000E+00 -0.37367202634E+03  0.37367202637E+03  0.50400001928E-02 0. -1.
    10030    2    1    2    0    0  0.00000000000E+00  0.00000000000E+00  0.58411140776E+03  0.13314554605E+04  0.11964896600E+04 0.  0.
        2    1    3    3  502    0  0.58056754097E+03  0.54592003704E+02  0.14334811518E+03  0.60048949918E+03  0.25500000920E-02 0. -1.
       -2    1    3    3    0  502 -0.58056754097E+03 -0.54592003704E+02  0.44076329258E+03  0.73096596130E+03  0.25500000920E-02 0.  1.
</event>
<event>
 5   0  0.9169078E-04  0.1201345E+04  0.7818609E-02  0.9111680E-01
        1   -1    0    0  501    0  0.00000000000E+00  0.00000000000E+00  0.11176854998E+04  0.11176854998E+04  0.50400001928E-02 0.  1.
       -1   -1    0    0    0  501  0.00000000000E+00  0.00000000000E+00 -0.32281649011E+03  0.32281649015E+03  0.50400001928E-02 0. -1.
    10030    2    1    2    0    0  0.00000000000E+00  0.00000000000E+00  0.79486900968E+03  0.14405019900E+04  0.12013447634E+04 0.  0.
        1    1    3    3  502    0 -0.10507811645E+03  0.25167999392E+03  0.10391613514E+04  0.10743558741E+04  0.50400001928E-02 0.  1.
       -1    1    3    3    0  502  0.10507811645E+03 -0.25167999392E+03 -0.24429234174E+03  0.36614611586E+03  0.50400001928E-02 0. -1.
</event>
<event>
 5   0  0.1537557E-03  0.1201414E+04  0.7818609E-02  0.9111620E-01
       -2   -1    0    0    0  501  0.00000000000E+00  0.00000000000E+00  0.51488548145E+03  0.51488548146E+03  0.25500000920E-02 0. -1.
        2   -1    0    0  501    0  0.00000000000E+00  0.00000000000E+00 -0.70083288824E+03  0.70083288824E+03  0.25500000920E-02 0.  1.
    10030    2    1    2    0    0  0.00000000000E+00  0.00000000000E+00 -0.18594740679E+03  0.12157183697E+04  0.12014136325E+04 0.  0.
        2    1    3    3  502    0 -0.10895339041E+03 -0.10641564540E+03 -0.68097201946E+03  0.69779511474E+03  0.25500000920E-02 0.  1.
       -2    1    3    3    0  502  0.10895339041E+03  0.10641564540E+03  0.49502461267E+03  0.51792325496E+03  0.25500000920E-02 0. -1.
</event>
<event>
 5   0  0.9208078E-04  0.1204187E+04  0.7818609E-02  0.9109199E-01
        1   -1    0    0  501    0  0.00000000000E+00  0.00000000000E+00  0.58936497607E+03  0.58936497610E+03  0.50400001928E-02 0.  1.
       -1   -1    0    0    0  501  0.00000000000E+00  0.00000000000E+00 -0.61509701970E+03  0.61509701972E+03  0.50400001928E-02 0. -1.
    10030    2    1    2    0    0  0.00000000000E+00  0.00000000000E+00 -0.25732043622E+02  0.12044619958E+04  0.12041870956E+04 0.  0.
        3    1    3    3  502    0 -0.40052949014E+03 -0.61500757515E+01 -0.46247384843E+03  0.61183638873E+03  0.10100000352E+00 0. -1.
       -3    1    3    3    0  502  0.40052949014E+03  0.61500757515E+01  0.43674180480E+03  0.59262560708E+03  0.10100000352E+00 0.  1.
</event>
<event>
 5   0  0.1551501E-03  0.1196924E+04  0.7818609E-02  0.9115553E-01
        2   -1    0    0  501    0  0.00000000000E+00  0.00000000000E+00  0.11987676225E+04  0.11987676225E+04  0.25500000920E-02 0. -1.
       -2   -1    0    0    0  501  0.00000000000E+00  0.00000000000E+00 -0.29877066307E+03  0.29877066308E+03  0.25500000920E-02 0.  1.
    10030    2    1    2    0    0  0.00000000000E+00  0.00000000000E+00  0.89999695945E+03  0.14975382856E+04  0.11969237193E+04 0.  0.
        4    1    3    3  502    0  0.42811578149E+03 -0.41474355242E+03  0.51690489227E+03  0.78897884457E+03  0.12699999809E+01 0. -1.
       -4    1    3    3    0  502 -0.42811578149E+03  0.41474355242E+03  0.38309206718E+03  0.70855944103E+03  0.12699999809E+01 0.  1.
</event>
<event>
 5   0  0.1647550E-03  0.1172764E+04  0.7818609E-02  0.9137036E-01
       -2   -1    0    0    0  501  0.00000000000E+00  0.00000000000E+00  0.37276173977E+03  0.37276173978E+03  0.25500000920E-02 0. -1.
        2   -1    0    0  501    0  0.00000000000E+00  0.00000000000E+00 -0.92242186239E+03  0.92242186239E+03  0.25500000920E-02 0.  1.
    10030    2    1    2    0    0  0.00000000000E+00  0.00000000000E+00 -0.54966012262E+03  0.12951836022E+04  0.11727635367E+04 0.  0.
        3    1    3    3  502    0  0.21114288432E+03  0.13636016997E+03  0.31025290199E+03  0.39928972808E+03  0.10100000352E+00 0. -1.
       -3    1    3    3    0  502 -0.21114288432E+03 -0.13636016997E+03 -0.85991302461E+03  0.89589387410E+03  0.10100000352E+00 0.  1.
</event>
<event>
 5   0  0.1567019E-03  0.1187628E+04  0.7818609E-02  0.9123755E-01
       -2   -1    0    0    0  501  0.00000000000E+00  0.00000000000E+00  0.77868723218E+03  0.77868723219E+03  0.25500000920E-02 0. -1.
        2   -1    0    0  501    0  0.00000000000E+00  0.00000000000E+00 -0.45283272053E+03  0.45283272054E+03  0.25500000920E-02 0.  1.
    10030    2    1    2    0    0  0.00000000000E+00  0.00000000000E+00  0.32585451165E+03  0.12315199527E+04  0.11876279852E+04 0.  0.
        5    1    3    3  502    0 -0.11693986263E+03  0.44285557018E+03 -0.22892336718E+03  0.51207810493E+03  0.46999998093E+01 0.  1.
       -5    1    3    3    0  502  0.11693986263E+03 -0.44285557018E+03  0.55477787883E+03  0.71944184779E+03  0.46999998093E+01 0. -1.
</event>
<event>
 5   0  0.8908478E-04  0.1199895E+04  0.7818609E-02  0.9112949E-01
        1   -1    0    0  501    0  0.00000000000E+00  0.00000000000E+00  0.18280461624E+04  0.18280461624E+04  0.50400001928E-02 0.  1.
       -1   -1    0    0    0  501  0.00000000000E+00  0.00000000000E+00 -0.19689699581E+03  0.19689699587E+03  0.50400001928E-02 0. -1.
    10030    2    1    2    0    0  0.00000000000E+00  0.00000000000E+00  0.16311491666E+04  0.20249431583E+04  0.11998946581E+04 0.  0.
        4    1    3    3  502    0 -0.68853047301E+02 -0.55964410893E+03  0.46974851835E+03  0.73389887189E+03  0.12699999809E+01 0. -1.
       -4    1    3    3    0  502  0.68853047301E+02  0.55964410893E+03  0.11614006483E+04  0.12910442864E+04  0.12699999809E+01 0.  1.
</event>
<event>
 5   0  0.9169078E-04  0.1197221E+04  0.7818609E-02  0.9115292E-01
       -1   -1    0    0    0  501  0.00000000000E+00  0.00000000000E+00  0.67161530930E+03  0.67161530932E+03  0.50400001928E-02 0. -1.
        1   -1    0    0  501    0  0.00000000000E+00  0.00000000000E+00 -0.53354170937E+03  0.53354170939E+03  0.50400001928E-02 0.  1.
    10030    2    1    2    0    0  0.00000000000E+00  0.00000000000E+00  0.13807359994E+03  0.12051570187E+04  0.11972214168E+04 0.  0.
        1    1    3    3  502    0  0.31299042977E+03  0.46420096151E+03  0.28231195955E+03  0.62701322500E+03  0.50400001928E-02 0. -1.
       -1    1    3    3    0  502 -0.31299042977E+03 -0.46420096151E+03 -0.14423835961E+03  0.57814379371E+03  0.50400001928E-02 0.  1.
</event>
<event>
 5   0  0.9170776E-04  0.1206167E+04  0.7818609E-02  0.9107476E-01
       -1   -1    0    0    0  501  0.00000000000E+00  0.00000000000E+00  0.45042707628E+03  0.45042707631E+03  0.50400001928E-02 0.  1.
        1   -1    0    0  501    0  0.00000000000E+00  0.00000000000E+00 -0.80747738289E+03  0.80747738290E+03  0.50400001928E-02 0. -1.
    10030    2    1    2    0    0  0.00000000000E+00  0.00000000000E+00 -0.35705030661E+03  0.12579044592E+04  0.12061669482E+04 0.  0.
        5    1    3    3  502    0 -0.45346260258E+03  0.29645894861E+03  0.97736202259E+02  0.55053673391E+03  0.46999998093E+01 0.  1.
       -5    1    3    3    0  502  0.45346260258E+03 -0.29645894861E+03 -0.45478650887E+03  0.70736772530E+03  0.46999998093E+01 0. -1.
</event>
<event>
 5   0  0.1537557E-03  0.1192756E+04  0.7818609E-02  0.9119221E-01
        2   -1    0    0  501    0  0.00000000000E+00  0.00000000000E+00  0.13897392235E+04  0.13897392235E+04  0.25500000920E-02 0. -1.
       -2   -1    0    0    0  501  0.00000000000E+00  0.00000000000E+00 -0.25592352350E+03  0.25592352351E+03  0.25500000920E-02 0.  1.
    10030    2    1    2    0    0  0.00000000000E+00  0.00000000000E+00  0.11338157000E+04  0.16456627471E+04  0.11927564024E+04 0.  0.
        2    1    3    3  502    0 -0.54037082576E+03 -0.12840481942E+03  0.86659028770E+03  0.10293042085E+04  0.25500000920E-02 0. -1.
       -2    1    3    3    0  502  0.54037082576E+03  0.12840481942E+03  0.26722541234E+03  0.61635853851E+03  0.25500000920E-02 0.  1.
</event>
<event>
 5   0  0.1551501E-03  0.1292025E+04  0.7818609E-02  0.9035913E-01
       -2   -1    0    0    0  501  0.00000000000E+00  0.00000000000E+00  0.34527419311E+03  0.34527419312E+03  0.25500000920E-02 0.  1.
        2   -1    0    0  501    0  0.00000000000E+00  0.00000000000E+00 -0.12086976231E+04  0.12086976231E+04  0.25500000920E-02 0. -1.
    10030    2    1    2    0    0  0.00000000000E+00  0.00000000000E+00 -0.86342342996E+03  0.15539718162E+04  0.12920249170E+04 0.  0.
        4    1    3    3  502    0 -0.47527833878E+03 -0.37524937778E+03 -0.70233891638E+03  0.92735277064E+03  0.12699999809E+01 0. -1.
       -4    1    3    3    0  502  0.47527833878E+03  0.37524937778E+03 -0.16108451357E+03  0.62661904555E+03  0.12699999809E+01 0.  1.
</event>
<event>
 5   0  0.1567019E-03  0.1202119E+04  0.7818609E-02  0.9111004E-01
        2   -1    0    0  501    0  0.00000000000E+00  0.00000000000E+00  0.78470001102E+03  0.78470001102E+03  0.25500000920E-02 0. -1.
       -2   -1    0    0    0  501  0.00000000000E+00  0.00000000000E+00 -0.46039559385E+03  0.46039559386E+03  0.25500000920E-02 0.  1.
    10030    2    1    2    0    0  0.00000000000E+00  0.00000000000E+00  0.32430441716E+03  0.12450956049E+04  0.12021188420E+04 0.  0.
        5    1    3    3  502    0  0.14458960519E+03  0.46510931503E+02 -0.44017134225E+03  0.46566331315E+03  0.46999998093E+01 0.  1.
       -5    1    3    3    0  502 -0.14458960519E+03 -0.46510931503E+02  0.76447575941E+03  0.77943229174E+03  0.46999998093E+01 0. -1.
</event>
<event>
 5   0  0.1551501E-03  0.1196817E+04  0.7818609E-02  0.9115647E-01
       -2   -1    0    0    0  501  0.00000000000E+00  0.00000000000E+00  0.80196650303E+03  0.80196650303E+03  0.25500000920E-02 0. -1.
        2   -1    0    0  501    0  0.00000000000E+00  0.00000000000E+00 -0.44651830719E+03  0.44651830720E+03  0.25500000920E-02 0.  1.
    10030    2    1    2    0    0  0.00000000000E+00  0.00000000000E+00  0.35544819583E+03  0.12484848102E+04  0.11968169875E+04 0.  0.
        4    1    3    3  502    0  0.12205109949E+03 -0.53722424387E+03  0.42144411180E+03  0.69363038526E+03  0.12699999809E+01 0. -1.
       -4    1    3    3    0  502 -0.12205109949E+03  0.53722424387E+03 -0.65995915970E+02  0.55485442497E+03  0.12699999809E+01 0.  1.
</event>
<event>
 5   0  0.1537557E-03  0.1154286E+04  0.7818609E-02  0.9153839E-01
        2   -1    0    0  501    0  0.00000000000E+00  0.00000000000E+00  0.10540264535E+04  0.10540264535E+04  0.25500000920E-02 0. -1.
       -2   -1    0    0    0  501  0.00000000000E+00  0.00000000000E+00 -0.31602036375E+03  0.31602036376E+03  0.25500000920E-02 0.  1.
    10030    2    1    2    0    0  0.00000000000E+00  0.00000000000E+00  0.73800608976E+03  0.13700468173E+04  0.11542856202E+04 0.  0.
        2    1    3    3  502    0  0.40841538790E+03  0.26792129472E+03  0.73389006707E+03  0.88157789207E+03  0.25500000920E-02 0. -1.
       -2    1    3    3    0  502 -0.40841538790E+03 -0.26792129472E+03  0.41160226854E+01  0.48846892520E+03  0.25500000920E-02 0.  1.
</event>
<event>
 5   0  0.1567019E-03  0.1194302E+04  0.7818609E-02  0.9117858E-01
        2   -1    0    0  501    0  0.00000000000E+00  0.00000000000E+00  0.93019995744E+03  0.93019995744E+03  0.25500000920E-02 0.  1.
       -2   -1    0    0    0  501  0.00000000000E+00  0.00000000000E+00 -0.38334713761E+03  0.38334713762E+03  0.25500000920E-02 0. -1.
    10030    2    1    2    0    0  0.00000000000E+00  0.00000000000E+00  0.54685281983E+03  0.13135470951E+04  0.11943022919E+04 0.  0.
        5    1    3    3  502    0  0.44416626287E+03  0.35534365245E+02  0.71063515657E+03  0.83879125886E+03  0.46999998093E+01 0.  1.
       -5    1    3    3    0  502 -0.44416626287E+03 -0.35534365245E+02 -0.16378233675E+03  0.47475583621E+03  0.46999998093E+01 0. -1.
</event>
<event>
 5   0  0.1567019E-03  0.1204238E+04  0.7818609E-02  0.9109155E-01
        2   -1    0    0  501    0  0.00000000000E+00  0.00000000000E+00  0.94063721265E+03  0.94063721265E+03  0.25500000920E-02 0.  1.
       -2   -1    0    0    0  501  0.00000000000E+00  0.00000000000E+00 -0.38542753802E+03  0.38542753802E+03  0.25500000920E-02 0. -1.
    10030    2    1    2    0    0  0.00000000000E+00  0.00000000000E+00  0.55520967463E+03  0.13260647507E+04  0.12042383237E+04 0.  0.
        5    1    3    3  502    0 -0.13944050855E+03 -0.30382188765E+03 -0.27382916333E+03  0.43215262989E+03  0.46999998093E+01 0. -1.
       -5    1    3    3    0  502  0.13944050855E+03  0.30382188765E+03  0.82903883796E+03  0.89391212078E+03  0.46999998093E+01 0.  1.
</event>
<event>
 5   0  0.9358428E-04  0.1193461E+04  0.7818609E-02  0.9118600E-01
       -1   -1    0    0    0  501  0.00000000000E+00  0.00000000000E+00  0.29255280794E+03  0.29255280798E+03  0.50400001928E-02 0. -1.
        1   -1    0    0  501    0  0.00000000000E+00  0.00000000000E+00 -0.12171718215E+04  0.12171718215E+04  0.50400001928E-02 0.  1.
    10030    2    1    2    0    0  0.00000000000E+00  0.00000000000E+00 -0.92461901357E+03  0.15097246295E+04  0.11934605719E+04 0.  0.
        2    1    3    3  502    0 -0.56140268084E+03 -0.12159702268E+03 -0.25783242219E+03  0.62963192733E+03  0.25500000920E-02 0. -1.
       -2    1    3    3    0  502  0.56140268084E+03  0.12159702268E+03 -0.66678659138E+03  0.88009270218E+03  0.25500000920E-02 0.  1.
</event>
<event>
 5   0  0.9358428E-04  0.1199140E+04  0.7818609E-02  0.9113610E-01
       -1   -1    0    0    0  501  0.00000000000E+00  0.00000000000E+00  0.21248678353E+03  0.21248678359E+03  0.50400001928E-02 0. -1.
        1   -1    0    0  501    0  0.00000000000E+00  0.00000000000E+00 -0.16917956834E+04  0.16917956834E+04  0.50400001928E-02 0.  1.
    10030    2    1    2    0    0  0.00000000000E+00  0.00000000000E+00 -0.14793088999E+04  0.19042824670E+04  0.11991400639E+04 0.  0.
        2    1    3    3  502    0  0.10786982129E+03 -0.49405662999E+03 -0.12511817805E+04  0.13495123934E+04  0.25500000920E-02 0.  1.
       -2    1    3    3    0  502 -0.10786982129E+03  0.49405662999E+03 -0.22812711935E+03  0.55477007361E+03  0.25500000920E-02 0. -1.
</event>
<event>
 5   0  0.6137750E-04  0.1210283E+04  0.7818609E-02  0.9103903E-01
       -4   -1    0    0    0  501  0.00000000000E+00  0.00000000000E+00  0.62356885857E+03  0.62357015185E+03  0.12699999809E+01 0.  1.
        4   -1    0    0  501    0  0.00000000000E+00  0.00000000000E+00 -0.58725595173E+03  0.58725732498E+03  0.12699999809E+01 0. -1.
    10030    2    1    2    0    0  0.00000000000E+00  0.00000000000E+00  0.36312906845E+02  0.12108274768E+04  0.12102828394E+04 0.  0.
        2    1    3    3  502    0  0.21966500577E+03  0.12869593544E+03  0.56738508347E+03  0.62188519158E+03  0.25500000920E-02 0.  1.
       -2    1    3    3    0  502 -0.21966500577E+03 -0.12869593544E+03 -0.53107217662E+03  0.58894228524E+03  0.25500000920E-02 0. -1.
</event>
<event>
 5   0  0.9208078E-04  0.1205082E+04  0.7818609E-02  0.9108420E-01
        1   -1    0    0  501    0  0.00000000000E+00  0.00000000000E+00  0.83321861105E+03  0.83321861106E+03  0.50400001928E-02 0. -1.
       -1   -1    0    0    0  501  0.00000000000E+00  0.00000000000E+00 -0.43572660012E+03  0.43572660015E+03  0.50400001928E-02 0.  1.
    10030    2    1    2    0    0  0.00000000000E+00  0.00000000000E+00  0.39749201093E+03  0.12689452112E+04  0.12050817608E+04 0.  0.
        3    1    3    3  502    0  0.36023934017E+03  0.53664033669E+02 -0.30669526179E+03  0.47614515068E+03  0.10100000352E+00 0.  1.
       -3    1    3    3    0  502 -0.36023934017E+03 -0.53664033669E+02  0.70418727272E+03  0.79280006053E+03  0.10100000352E+00 0. -1.
</event>
<event>
 5   0  0.1647550E-03  0.1217421E+04  0.7818609E-02  0.9097743E-01
        2   -1    0    0  501    0  0.00000000000E+00  0.00000000000E+00  0.36793172298E+03  0.36793172299E+03  0.25500000920E-02 0.  1.
       -2   -1    0    0    0  501  0.00000000000E+00  0.00000000000E+00 -0.10070578438E+04  0.10070578438E+04  0.25500000920E-02 0. -1.
    10030    2    1    2    0    0  0.00000000000E+00  0.00000000000E+00 -0.63912612079E+03  0.13749895668E+04  0.12174210900E+04 0.  0.
        3    1    3    3  502    0 -0.45916696961E+03  0.39122341953E+03 -0.22754102349E+03  0.64472086793E+03  0.10100000352E+00 0.  1.
       -3    1    3    3    0  502  0.45916696961E+03 -0.39122341953E+03 -0.41158509730E+03  0.73026869883E+03  0.10100000352E+00 0. -1.
</event>
<event>
 5   0  0.9169078E-04  0.1201303E+04  0.7818609E-02  0.9111717E-01
        1   -1    0    0  501    0  0.00000000000E+00  0.00000000000E+00  0.34665700773E+03  0.34665700776E+03  0.50400001928E-02 0. -1.
       -1   -1    0    0    0  501  0.00000000000E+00  0.00000000000E+00 -0.10407465160E+04  0.10407465161E+04  0.50400001928E-02 0.  1.
    10030    2    1    2    0    0  0.00000000000E+00  0.00000000000E+00 -0.69408950832E+03  0.13874035238E+04  0.12013027480E+04 0.  0.
        1    1    3    3  502    0  0.36264386086E+03 -0.47853075816E+03 -0.32772564191E+03  0.68403680655E+03  0.50400001928E-02 0. -1.
       -1    1    3    3    0  502 -0.36264386086E+03  0.47853075816E+03 -0.36636386641E+03  0.70336671727E+03  0.50400001928E-02 0.  1.
</event>
<event>
 5   0  0.9358428E-04  0.1206951E+04  0.7818609E-02  0.9106794E-01
       -1   -1    0    0    0  501  0.00000000000E+00  0.00000000000E+00  0.43088300480E+03  0.43088300483E+03  0.50400001928E-02 0.  1.
        1   -1    0    0  501    0  0.00000000000E+00  0.00000000000E+00 -0.84520056695E+03  0.84520056697E+03  0.50400001928E-02 0. -1.
    10030    2    1    2    0    0  0.00000000000E+00  0.00000000000E+00 -0.41431756216E+03  0.12760835718E+04  0.12069508026E+04 0.  0.
        2    1    3    3  502    0  0.88482069424E+02 -0.10658661936E+03  0.41384543739E+03  0.43641474550E+03  0.25500000920E-02 0.  1.
       -2    1    3    3    0  502 -0.88482069424E+02  0.10658661936E+03 -0.82816299954E+03  0.83966882630E+03  0.25500000920E-02 0. -1.
</event>
<event>
 5   0  0.9170776E-04  0.1190730E+04  0.7818609E-02  0.9121010E-01
       -1   -1    0    0    0  501  0.00000000000E+00  0.00000000000E+00  0.11599788992E+04  0.11599788993E+04  0.50400001928E-02 0. -1.
        1   -1    0    0  501    0  0.00000000000E+00  0.00000000000E+00 -0.30557399286E+03  0.30557399291E+03  0.50400001928E-02 0.  1.
    10030    2    1    2    0    0  0.00000000000E+00  0.00000000000E+00  0.85440490638E+03  0.14655528922E+04  0.11907298332E+04 0.  0.
        5    1    3    3  502    0 -0.58336563183E+03 -0.55919012217E+02  0.29814477240E+03  0.65753691275E+03  0.46999998093E+01 0.  1.
       -5    1    3    3    0  502  0.58336563183E+03  0.55919012217E+02  0.55626013399E+03  0.80801597941E+03  0.46999998093E+01 0. -1.
</event>
<event>
 5   0  0.1537557E-03  0.1198846E+04  0.7818609E-02  0.9113867E-01
       -2   -1    0    0    0  501  0.00000000000E+00  0.00000000000E+00  0.35055416068E+03  0.35055416069E+03  0.25500000920E-02 0. -1.
        2   -1    0    0  501    0  0.00000000000E+00  0.00000000000E+00 -0.10249712502E+04  0.10249712502E+04  0.25500000920E-02 0.  1.
    10030    2    1    2    0    0  0.00000000000E+00  0.00000000000E+00 -0.67441708949E+03  0.13755254109E+04  0.11988460057E+04 0.  0.
        2    1    3    3  502    0 -0.55062004664E+03  0.20337866981E+03 -0.47661628797E+03  0.75611401591E+03  0.25500000920E-02 0. -1.
       -2    1    3    3    0  502  0.55062004664E+03 -0.20337866981E+03 -0.19780080152E+03  0.61941139495E+03  0.25500000920E-02 0.  1.
</event>
<event>
 5   0  0.1551501E-03  0.1171275E+04  0.7818609E-02  0.9138378E-01
        2   -1    0    0  501    0  0.00000000000E+00  0.00000000000E+00  0.90572708076E+03  0.90572708076E+03  0.25500000920E-02 0.  1.
       -2   -1    0    0    0  501  0.00000000000E+00  0.00000000000E+00 -0.37866967071E+03  0.37866967072E+03  0.25500000920E-02 0. -1.
    10030    2    1    2    0    0  0.00000000000E+00  0.00000000000E+00  0.52705741005E+03  0.12843967515E+04  0.11712751605E+04 0.  0.
        4    1    3    3  502    0  0.23117265058E+03 -0.52855062833E+03  0.37407788672E+03  0.68756268028E+03  0.12699999809E+01 0. -1.
       -4    1    3    3    0  502 -0.23117265058E+03  0.52855062833E+03  0.15297952333E+03  0.59683407120E+03  0.12699999809E+01 0.  1.
</event>
<event>
 5   0  0.9208078E-04  0.1203214E+04  0.7818609E-02  0.9110048E-01
       -1   -1    0    0    0  501  0.00000000000E+00  0.00000000000E+00  0.23639641474E+03  0.23639641479E+03  0.50400001928E-02 0. -1.
        1   -1    0    0  501    0  0.00000000000E+00  0.00000000000E+00 -0.15310331446E+04  0.15310331446E+04  0.50400001928E-02 0.  1.
    10030    2    1    2    0    0  0.00000000000E+00  0.00000000000E+00 -0.12946367298E+04  0.17674295594E+04  0.12032136074E+04 0.  0.
        3    1    3    3  502    0  0.54027800606E+03 -0.17452902462E+03 -0.35511677214E+03  0.66967800944E+03  0.10100000352E+00 0. -1.
       -3    1    3    3    0  502 -0.54027800606E+03  0.17452902462E+03 -0.93951995769E+03  0.10977515499E+04  0.10100000352E+00 0.  1.
</event>
<event>
 5   0  0.1537557E-03  0.1199100E+04  0.7818609E-02  0.9113644E-01
       -2   -1    0    0    0  501  0.00000000000E+00  0.00000000000E+00  0.33686124862E+03  0.33686124863E+03  0.25500000920E-02 0. -1.
        2   -1    0    0  501    0  0.00000000000E+00  0.00000000000E+00 -0.10670875348E+04  0.10670875348E+04  0.25500000920E-02 0.  1.
    10030    2    1    2    0    0  0.00000000000E+00  0.00000000000E+00 -0.73022628619E+03  0.14039487834E+04  0.11991003951E+04 0.  0.
        2    1    3    3  502    0 -0.26382381004E+03 -0.41771421494E+03 -0.76280476327E+03  0.90882301631E+03  0.25500000920E-02 0. -1.
       -2    1    3    3    0  502  0.26382381004E+03  0.41771421494E+03  0.32578477071E+02  0.49512576713E+03  0.25500000920E-02 0.  1.
</event>
<event>
 5   0  0.9170776E-04  0.1201262E+04  0.7818609E-02  0.9111753E-01
       -1   -1    0    0    0  501  0.00000000000E+00  0.00000000000E+00  0.41447321048E+03  0.41447321051E+03  0.50400001928E-02 0.  1.
        1   -1    0    0  501    0  0.00000000000E+00  0.00000000000E+00 -0.87039995914E+03  0.87039995915E+03  0.50400001928E-02 0. -1.
    10030    2    1    2    0    0  0.00000000000E+00  0.00000000000E+00 -0.45592674866E+03  0.12848731697E+04  0.12012617791E+04 0.  0.
        5    1    3    3  502    0  0.22489327484E+02  0.59922550577E+03 -0.26436758890E+03  0.65535432300E+03  0.46999998093E+01 0. -1.
       -5    1    3    3    0  502 -0.22489327484E+02 -0.59922550577E+03 -0.19155915976E+03  0.62951884666E+03  0.46999998093E+01 0.  1.
</event>
<event>
 5   0  0.6137750E-04  0.1199185E+04  0.7818609E-02  0.9113570E-01
        3   -1    0    0  501    0  0.00000000000E+00  0.00000000000E+00  0.84127623919E+03  0.84127624525E+03  0.10100000352E+00 0.  1.
       -3   -1    0    0    0  501  0.00000000000E+00  0.00000000000E+00 -0.42734019998E+03  0.42734021192E+03  0.10100000352E+00 0. -1.
    10030    2    1    2    0    0  0.00000000000E+00  0.00000000000E+00  0.41393603921E+03  0.12686164572E+04  0.11991850028E+04 0.  0.
        4    1    3    3  502    0  0.41324994797E+03  0.34120100053E+03 -0.77518104212E+02  0.54148343616E+03  0.12699999809E+01 0.  1.
       -4    1    3    3    0  502 -0.41324994797E+03 -0.34120100053E+03  0.49145414342E+03  0.72713302101E+03  0.12699999809E+01 0. -1.
</event>
<event>
 5   0  0.8908478E-04  0.1172155E+04  0.7818609E-02  0.9137585E-01
        1   -1    0    0  501    0  0.00000000000E+00  0.00000000000E+00  0.72056123734E+03  0.72056123736E+03  0.50400001928E-02 0. -1.
       -1   -1    0    0    0  501  0.00000000000E+00  0.00000000000E+00 -0.47669327790E+03  0.47669327793E+03  0.50400001928E-02 0.  1.
    10030    2    1    2    0    0  0.00000000000E+00  0.00000000000E+00  0.24386795944E+03  0.11972545153E+04  0.11721547648E+04 0.  0.
        4    1    3    3  502    0  0.72130970164E+02 -0.50748232728E+03  0.41217338570E+03  0.65774592521E+03  0.12699999809E+01 0.  1.
       -4    1    3    3    0  502 -0.72130970164E+02  0.50748232728E+03 -0.16830542626E+03  0.53950859007E+03  0.12699999809E+01 0. -1.
</event>
<event>
 5   0  0.9358428E-04  0.1203927E+04  0.7818609E-02  0.9109426E-01
       -1   -1    0    0    0  501  0.00000000000E+00  0.00000000000E+00  0.36959392258E+03  0.36959392262E+03  0.50400001928E-02 0.  1.
        1   -1    0    0  501    0  0.00000000000E+00  0.00000000000E+00 -0.98042734643E+03  0.98042734644E+03  0.50400001928E-02 0. -1.
    10030    2    1    2    0    0  0.00000000000E+00  0.00000000000E+00 -0.61083342385E+03  0.13500212691E+04  0.12039268895E+04 0.  0.
        2    1    3    3  502    0  0.22832825920E+03 -0.23484466765E+03  0.26091873272E+03  0.41876532446E+03  0.25500000920E-02 0.  1.
       -2    1    3    3    0  502 -0.22832825920E+03  0.23484466765E+03 -0.87175215657E+03  0.93125594460E+03  0.25500000920E-02 0. -1.
</event>
<event>
 5   0  0.9170776E-04  0.1211845E+04  0.7818609E-02  0.9102551E-01
        1   -1    0    0  501    0  0.00000000000E+00  0.00000000000E+00  0.35309777961E+03  0.35309777965E+03  0.50400001928E-02 0. -1.
       -1   -1    0    0    0  501  0.00000000000E+00  0.00000000000E+00 -0.10397746208E+04  0.10397746208E+04  0.50400001928E-02 0.  1.
    10030    2    1    2    0    0  0.00000000000E+00  0.00000000000E+00 -0.68667684122E+03  0.13928724005E+04  0.12118450560E+04 0.  0.
        5    1    3    3  502    0  0.13971584926E+03  0.29146963367E+03  0.24570697880E+03  0.40604073110E+03  0.46999998093E+01 0. -1.
       -5    1    3    3    0  502 -0.13971584926E+03 -0.29146963367E+03 -0.93238382002E+03  0.98683166939E+03  0.46999998093E+01 0.  1.
</event>
<event>
 5   0  0.9169078E-04  0.1204517E+04  0.7818609E-02  0.9108912E-01
        1   -1    0    0  501    0  0.00000000000E+00  0.00000000000E+00  0.12687795840E+04  0.12687795840E+04  0.50400001928E-02 0.  1.
       -1   -1    0    0    0  501  0.00000000000E+00  0.00000000000E+00 -0.28587735009E+03  0.28587735013E+03  0.50400001928E-02 0. -1.
    10030    2    1    2    0    0  0.00000000000E+00  0.00000000000E+00  0.98290223394E+03  0.15546569342E+04  0.12045170740E+04 0.  0.
        1    1    3    3  502    0  0.67098436941E+02  0.36621659901E+03 -0.11954876848E+03  0.39103542768E+03  0.50400001928E-02 0. -1.
       -1    1    3    3    0  502 -0.67098436941E+02 -0.36621659901E+03  0.11024510024E+04  0.11636215065E+04  0.50400001928E-02 0.  1.
</event>
<event>
 5   0  0.1647550E-03  0.1201091E+04  0.7818609E-02  0.9111902E-01
       -2   -1    0    0    0  501  0.00000000000E+00  0.00000000000E+00  0.19297322981E+03  0.19297322982E+03  0.25500000920E-02 0. -1.
        2   -1    0    0  501    0  0.00000000000E+00  0.00000000000E+00 -0.18689363761E+04  0.18689363761E+04  0.25500000920E-02 0.  1.
    10030    2    1    2    0    0  0.00000000000E+00  0.00000000000E+00 -0.16759631463E+04  0.20619096059E+04  0.12010906524E+04 0.  0.
        3    1    3    3  502    0 -0.54708626442E+03  0.27221674039E+02 -0.41534509945E+03  0.68742705947E+03  0.10100000352E+00 0. -1.
       -3    1    3    3    0  502  0.54708626442E+03 -0.27221674039E+02 -0.12606180468E+04  0.13744825464E+04  0.10100000352E+00 0.  1.
</event>
<event>
 5   0  0.1647550E-03  0.1200420E+04  0.7818609E-02  0.9112489E-01
       -2   -1    0    0    0  501  0.00000000000E+00  0.00000000000E+00  0.30317068246E+03  0.30317068247E+03  0.25500000920E-02 0.  1.
        2   -1    0    0  501    0  0.00000000000E+00  0.00000000000E+00 -0.11882816661E+04  0.11882816661E+04  0.25500000920E-02 0. -1.
    10030    2    1    2    0    0  0.00000000000E+00  0.00000000000E+00 -0.88511098365E+03  0.14914523486E+04  0.12004201992E+04 0.  0.
        3    1    3    3  502    0  0.28748394321E+02 -0.59235831179E+03 -0.32775686078E+03  0.67759826572E+03  0.10100000352E+00 0.  1.
       -3    1    3    3    0  502 -0.28748394321E+02  0.59235831179E+03 -0.55735412287E+03  0.81385408287E+03  0.10100000352E+00 0. -1.
</event>
<event>
 5   0  0.9170776E-04  0.1199725E+04  0.7818609E-02  0.9113098E-01
       -1   -1    0    0    0  501  0.00000000000E+00  0.00000000000E+00  0.10025643168E+04  0.10025643168E+04  0.50400001928E-02 0. -1.
        1   -1    0    0  501    0  0.00000000000E+00  0.00000000000E+00 -0.35891438819E+03  0.35891438822E+03  0.50400001928E-02 0.  1.
    10030    2    1    2    0    0  0.00000000000E+00  0.00000000000E+00  0.64364992863E+03  0.13614787051E+04  0.11997245658E+04 0.  0.
        5    1    3    3  502    0  0.39303829026E+03 -0.18652042792E+03  0.79047336871E+03  0.90229662766E+03  0.46999998093E+01 0. -1.
       -5    1    3    3    0  502 -0.39303829026E+03  0.18652042792E+03 -0.14682344008E+03  0.45918207739E+03  0.46999998093E+01 0.  1.
</event>
<event>
 5   0  0.9208078E-04  0.1213026E+04  0.7818609E-02  0.9101531E-01
        1   -1    0    0  501    0  0.00000000000E+00  0.00000000000E+00  0.20704988633E+04  0.20704988633E+04  0.50400001928E-02 0. -1.
       -1   -1    0    0    0  501  0.00000000000E+00  0.00000000000E+00 -0.17766637499E+03  0.17766637506E+03  0.50400001928E-02 0.  1.
    10030    2    1    2    0    0  0.00000000000E+00  0.00000000000E+00  0.18928324883E+04  0.22481652384E+04  0.12130260138E+04 0.  0.
        3    1    3    3  502    0 -0.42132241174E+03  0.26696053570E+03  0.15859640237E+04  0.16625469608E+04  0.10100000352E+00 0. -1.
       -3    1    3    3    0  502  0.42132241174E+03 -0.26696053570E+03  0.30686846464E+03  0.58561827759E+03  0.10100000352E+00 0.  1.
</event>
<event>
 5   0  0.9208078E-04  0.1162907E+04  0.7818609E-02  0.9145958E-01
       -1   -1    0    0    0  501  0.00000000000E+00  0.00000000000E+00  0.55613288025E+03  0.55613288027E+03  0.50400001928E-02 0. -1.
        1   -1    0    0  501    0  0.00000000000E+00  0.00000000000E+00 -0.60792695322E+03  0.60792695324E+03  0.50400001928E-02 0.  1.
    10030    2    1    2    0    0  0.00000000000E+00  0.00000000000E+00 -0.51794072972E+02  0.11640598335E+04  0.11629069911E+04 0.  0.
        3    1    3    3  502    0 -0.81889854339E+01 -0.49179003253E+03 -0.33630711851E+03  0.59584140821E+03  0.10100000352E+00 0.  1.
       -3    1    3    3    0  502  0.81889854339E+01  0.49179003253E+03  0.28451304554E+03  0.56821842531E+03  0.10100000352E+00 0. -1.
</event>
<event>
 5   0  0.1537557E-03  0.1203007E+04  0.7818609E-02  0.9110228E-01
        2   -1    0    0  501    0  0.00000000000E+00  0.00000000000E+00  0.95061781716E+03  0.95061781716E+03  0.25500000920E-02 0.  1.
       -2   -1    0    0    0  501  0.00000000000E+00  0.00000000000E+00 -0.38060158415E+03  0.38060158416E+03  0.25500000920E-02 0. -1.
    10030    2    1    2    0    0  0.00000000000E+00  0.00000000000E+00  0.57001623301E+03  0.13312194013E+04  0.12030073103E+04 0.  0.
        2    1    3    3  502    0 -0.56953708562E+03  0.11021554768E+03  0.46097354424E+03  0.74095652190E+03  0.25500000920E-02 0.  1.
       -2    1    3    3    0  502  0.56953708562E+03 -0.11021554768E+03  0.10904268877E+03  0.59026287942E+03  0.25500000920E-02 0. -1.
</event>
<event>
 5   0  0.1537557E-03  0.1186381E+04  0.7818609E-02  0.9124861E-01
       -2   -1    0    0    0  501  0.00000000000E+00  0.00000000000E+00  0.49379499134E+03  0.49379499134E+03  0.25500000920E-02 0.  1.
        2   -1    0    0  501    0  0.00000000000E+00  0.00000000000E+00 -0.71259347005E+03  0.71259347006E+03  0.25500000920E-02 0. -1.
    10030    2    1    2    0    0  0.00000000000E+00  0.00000000000E+00 -0.21879847872E+03  0.12063884614E+04  0.11863811974E+04 0.  0.
        2    1    3    3  502    0  0.47415587731E+03  0.46074159035E+02  0.25001362430E+03  0.53800876987E+03  0.25500000920E-02 0.  1.
       -2    1    3    3    0  502 -0.47415587731E+03 -0.46074159035E+02 -0.46881210302E+03  0.66837969153E+03  0.25500000920E-02 0. -1.
</event>
<event>
 5   0  0.8908478E-04  0.1219882E+04  0.7818609E-02  0.9095630E-01
       -1   -1    0    0    0  501  0.00000000000E+00  0.00000000000E+00  0.45774245779E+03  0.45774245781E+03  0.50400001928E-02 0. -1.
        1   -1    0    0  501    0  0.00000000000E+00  0.00000000000E+00 -0.81274523446E+03  0.81274523447E+03  0.50400001928E-02 0.  1.
    10030    2    1    2    0    0  0.00000000000E+00  0.00000000000E+00 -0.35500277667E+03  0.12704876923E+04  0.12198819635E+04 0.  0.
        4    1    3    3  502    0  0.51994655802E+03 -0.24501864254E+03 -0.39004538398E+03  0.69463340897E+03  0.12699999809E+01 0. -1.
       -4    1    3    3    0  502 -0.51994655802E+03  0.24501864254E+03  0.35042607312E+02  0.57585428332E+03  0.12699999809E+01 0.  1.
</event>
<event>
 5   0  0.1597352E-03  0.1209665E+04  0.7818609E-02  0.9104439E-01
        2   -1    0    0  501    0  0.00000000000E+00  0.00000000000E+00  0.23749505885E+04  0.23749505885E+04  0.25500000920E-02 0.  1.
       -2   -1    0    0    0  501  0.00000000000E+00  0.00000000000E+00 -0.15403360906E+03  0.15403360908E+03  0.25500000920E-02 0. -1.
    10030    2    1    2    0    0  0.00000000000E+00  0.00000000000E+00  0.22209169794E+04  0.25289841976E+04  0.12096647643E+04 0.  0.
        1    1    3    3  502    0  0.21989767625E+03  0.42141432065E+03  0.18923644778E+04  0.19511505156E+04  0.50400001928E-02 0.  1.
       -1    1    3    3    0  502 -0.21989767625E+03 -0.42141432065E+03  0.32855250162E+03  0.57783368196E+03  0.50400001928E-02 0. -1.
</event>
<event>
 5   0  0.6137750E-04  0.1196752E+04  0.7818609E-02  0.9115704E-01
        3   -1    0    0  501    0  0.00000000000E+00  0.00000000000E+00  0.75286860682E+03  0.75286861360E+03  0.10100000352E+00 0. -1.
       -3   -1    0    0    0  501  0.00000000000E+00  0.00000000000E+00 -0.47558631633E+03  0.47558632706E+03  0.10100000352E+00 0.  1.
    10030    2    1    2    0    0  0.00000000000E+00  0.00000000000E+00  0.27728229049E+03  0.12284549407E+04  0.11967523021E+04 0.  0.
        4    1    3    3  502    0  0.55321977145E+03  0.22346820969E+03  0.18525612601E+03  0.62474923080E+03  0.12699999809E+01 0. -1.
       -4    1    3    3    0  502 -0.55321977145E+03 -0.22346820969E+03  0.92026164475E+02  0.60370570985E+03  0.12699999809E+01 0.  1.
</event>
<event>
 5   0  0.1567019E-03  0.1206556E+04  0.7818609E-02  0.9107137E-01
       -2   -1    0    0    0  501  0.00000000000E+00  0.00000000000E+00  0.11223654469E+04  0.11223654469E+04  0.25500000920E-02 0. -1.
        2   -1    0    0  501    0  0.00000000000E+00  0.00000000000E+00 -0.32426544314E+03  0.32426544315E+03  0.25500000920E-02 0.  1.
    10030    2    1    2    0    0  0.00000000000E+00  0.00000000000E+00  0.79810000380E+03  0.14466308901E+04  0.12065559730E+04 0.  0.
        5    1    3    3  502    0  0.11823177580E+03  0.32513052205E+03  0.99158361575E+03  0.10502136765E+04  0.46999998093E+01 0. -1.
       -5    1    3    3    0  502 -0.11823177580E+03 -0.32513052205E+03 -0.19348361195E+03  0.39641721364E+03  0.46999998093E+01 0.  1.
</event>
<event>
 5   0  0.1567019E-03  0.1194131E+04  0.7818609E-02  0.9118009E-01
        2   -1    0    0  501    0  0.00000000000E+00  0.00000000000E+00  0.50878199126E+03  0.50878199126E+03  0.25500000920E-02 0. -1.
       -2   -1    0    0    0  501  0.00000000000E+00  0.00000000000E+00 -0.70066762314E+03  0.70066762314E+03  0.25500000920E-02 0.  1.
    10030    2    1    2    0    0  0.00000000000E+00  0.00000000000E+00 -0.19188563188E+03  0.12094496144E+04  0.11941307609E+04 0.  0.
        5    1    3    3  502    0 -0.55943821076E+03  0.19272620810E+03 -0.17665498514E+03  0.61753022332E+03  0.46999998093E+01 0.  1.
       -5    1    3    3    0  502  0.55943821076E+03 -0.19272620810E+03 -0.15230646746E+02  0.59191939108E+03  0.46999998093E+01 0. -1.
</event>
<event>
 5   0  0.1537557E-03  0.1203533E+04  0.7818609E-02  0.9109770E-01
       -2   -1    0    0    0  501  0.00000000000E+00  0.00000000000E+00  0.71372194240E+03  0.71372194241E+03  0.25500000920E-02 0. -1.
        2   -1    0    0  501    0  0.00000000000E+00  0.00000000000E+00 -0.50737252146E+03  0.50737252147E+03  0.25500000920E-02 0.  1.
    10030    2    1    2    0    0  0.00000000000E+00  0.00000000000E+00  0.20634942094E+03  0.12210944639E+04  0.12035329685E+04 0.  0.
        2    1    3    3  502    0  0.18390836797E+03 -0.42698337749E+03  0.49083078294E+03  0.67605617366E+03  0.25500000920E-02 0. -1.
       -2    1    3    3    0  502 -0.18390836797E+03  0.42698337749E+03 -0.28448136200E+03  0.54503829021E+03  0.25500000920E-02 0.  1.
</event>
<event>
 5   0  0.9170776E-04  0.1144361E+04  0.7818609E-02  0.9163002E-01
       -1   -1    0    0    0  501  0.00000000000E+00  0.00000000000E+00  0.77576983036E+03  0.77576983038E+03  0.50400001928E-02 0. -1.
        1   -1    0    0  501    0  0.00000000000E+00  0.00000000000E+00 -0.42202003301E+03  0.42202003304E+03  0.50400001928E-02 0.  1.
    10030    2    1    2    0    0  0.00000000000E+00  0.00000000000E+00  0.35374979735E+03  0.11977898634E+04  0.11443607988E+04 0.  0.
        5    1    3    3  502    0 -0.17124676326E+03  0.18398189596E+03 -0.36112073133E+03  0.44000575514E+03  0.46999998093E+01 0.  1.
       -5    1    3    3    0  502  0.17124676326E+03 -0.18398189596E+03  0.71487052868E+03  0.75778410827E+03  0.46999998093E+01 0. -1.
</event>
<event>
 5   0  0.1647550E-03  0.1183855E+04  0.7818609E-02  0.9127106E-01
        2   -1    0    0  501    0  0.00000000000E+00  0.00000000000E+00  0.76466112045E+03  0.76466112045E+03  0.25500000920E-02 0. -1.
       -2   -1    0    0    0  501  0.00000000000E+00  0.00000000000E+00 -0.45821394995E+03  0.45821394996E+03  0.25500000920E-02 0.  1.
    10030    2    1    2    0    0  0.00000000000E+00  0.00000000000E+00  0.30644717049E+03  0.12228750704E+04  0.11838553837E+04 0.  0.
        3    1    3    3  502    0 -0.12560931624E+01 -0.46296814125E+02  0.76278666622E+03  0.76419139038E+03  0.10100000352E+00 0. -1.
       -3    1    3    3    0  502  0.12560931624E+01  0.46296814125E+02 -0.45633949572E+03  0.45868368003E+03  0.10100000352E+00 0.  1.
</event>
<event>
 5   0  0.9208078E-04  0.1147241E+04  0.7818609E-02  0.9160332E-01
       -1   -1    0    0    0  501  0.00000000000E+00  0.00000000000E+00  0.72592325496E+03  0.72592325497E+03  0.50400001928E-02 0.  1.
        1   -1    0    0  501    0  0.00000000000E+00  0.00000000000E+00 -0.45327185023E+03  0.45327185026E+03  0.50400001928E-02 0. -1.
    10030    2    1    2    0    0  0.00000000000E+00  0.00000000000E+00  0.27265140473E+03  0.11791951052E+04  0.11472411724E+04 0.  0.
        3    1    3    3  502    0  0.24791690457E+03  0.42347580262E+03  0.44166204987E+03  0.66019688236E+03  0.10100000352E+00 0.  1.
       -3    1    3    3    0  502 -0.24791690457E+03 -0.42347580262E+03 -0.16901064515E+03  0.51899822288E+03  0.10100000352E+00 0. -1.
</event>
<event>
 5   0  0.1551501E-03  0.1200632E+04  0.7818609E-02  0.9112304E-01
        2   -1    0    0  501    0  0.00000000000E+00  0.00000000000E+00  0.14257193148E+04  0.14257193148E+04  0.25500000920E-02 0. -1.
       -2   -1    0    0    0  501  0.00000000000E+00  0.00000000000E+00 -0.25277017161E+03  0.25277017163E+03  0.25500000920E-02 0.  1.
    10030    2    1    2    0    0  0.00000000000E+00  0.00000000000E+00  0.11729491432E+04  0.16784894864E+04  0.12006320267E+04 0.  0.
        4    1    3    3  502    0 -0.14805058322E+02 -0.22727881090E+03  0.13629689133E+04  0.13818685607E+04  0.12699999809E+01 0. -1.
       -4    1    3    3    0  502  0.14805058322E+02  0.22727881090E+03 -0.19001977010E+03  0.29662092570E+03  0.12699999809E+01 0.  1.
</event>
<event>
 5   0  0.9358428E-04  0.1197855E+04  0.7818609E-02  0.9114737E-01
        1   -1    0    0  501    0  0.00000000000E+00  0.00000000000E+00  0.14880907390E+04  0.14880907390E+04  0.50400001928E-02 0. -1.
       -1   -1    0    0    0  501  0.00000000000E+00  0.00000000000E+00 -0.24105644682E+03  0.24105644687E+03  0.50400001928E-02 0.  1.
    10030    2    1    2    0    0  0.00000000000E+00  0.00000000000E+00  0.12470342922E+04  0.17291471859E+04  0.11978545256E+04 0.  0.
        2    1    3    3  502    0  0.32548610566E+03 -0.14875770264E+03 -0.69747068720E+02  0.36460212928E+03  0.25500000920E-02 0.  1.
       -2    1    3    3    0  502 -0.32548610566E+03  0.14875770264E+03  0.13167813609E+04  0.13645450566E+04  0.25500000920E-02 0. -1.
</event>
<event>
 5   0  0.9169078E-04  0.1187957E+04  0.7818609E-02  0.9123464E-01
        1   -1    0    0  501    0  0.00000000000E+00  0.00000000000E+00  0.56249667218E+03  0.56249667220E+03  0.50400001928E-02 0.  1.
       -1   -1    0    0    0  501  0.00000000000E+00  0.00000000000E+00 -0.62722214857E+03  0.62722214859E+03  0.50400001928E-02 0. -1.
    10030    2    1    2    0    0  0.00000000000E+00  0.00000000000E+00 -0.64725476389E+02  0.11897188208E+04  0.11879568533E+04 0.  0.
        1    1    3    3  502    0 -0.52305613914E+03 -0.17686606480E+03  0.18691644155E+03  0.58292974338E+03  0.50400001928E-02 0.  1.
       -1    1    3    3    0  502  0.52305613914E+03  0.17686606480E+03 -0.25164191794E+03  0.60678907741E+03  0.50400001928E-02 0. -1.
</event>
<event>
 5   0  0.1567019E-03  0.1197408E+04  0.7818609E-02  0.9115128E-01
       -2   -1    0    0    0  501  0.00000000000E+00  0.00000000000E+00  0.12314030353E+03  0.12314030355E+03  0.25500000920E-02 0. -1.
        2   -1    0    0  501    0  0.00000000000E+00  0.00000000000E+00 -0.29108780593E+04  0.29108780593E+04  0.25500000920E-02 0.  1.
    10030    2    1    2    0    0  0.00000000000E+00  0.00000000000E+00 -0.27877377557E+04  0.30340183628E+04  0.11974078800E+04 0.  0.
        5    1    3    3  502    0  0.10273823372E+03  0.10352215913E+02  0.10036011359E+03  0.14407135537E+03  0.46999998093E+01 0. -1.
       -5    1    3    3    0  502 -0.10273823372E+03 -0.10352215913E+02 -0.28880978693E+04  0.28899470074E+04  0.46999998093E+01 0.  1.
</event>
<event>
 5   0  0.9170776E-04  0.1188796E+04  0.7818609E-02  0.9122720E-01
        1   -1    0    0  501    0  0.00000000000E+00  0.00000000000E+00  0.40720618414E+03  0.40720618417E+03  0.50400001928E-02 0.  1.
       -1   -1    0    0    0  501  0.00000000000E+00  0.00000000000E+00 -0.86764175587E+03  0.86764175589E+03  0.50400001928E-02 0. -1.
    10030    2    1    2    0    0  0.00000000000E+00  0.00000000000E+00 -0.46043557173E+03  0.12748479401E+04  0.11887961787E+04 0.  0.
        5    1    3    3  502    0  0.31823366394E+03 -0.50000923538E+03 -0.27823741725E+03  0.65476717288E+03  0.46999998093E+01 0.  1.
       -5    1    3    3    0  502 -0.31823366394E+03  0.50000923538E+03 -0.18219815448E+03  0.62008076718E+03  0.46999998093E+01 0. -1.
</event>
<event>
 5   0  0.1647550E-03  0.1194518E+04  0.7818609E-02  0.9117668E-01
        2   -1    0    0  501    0  0.00000000000E+00  0.00000000000E+00  0.68919419961E+03  0.68919419962E+03  0.25500000920E-02 0. -1.
       -2   -1    0    0    0  501  0.00000000000E+00  0.00000000000E+00 -0.51758763657E+03  0.51758763657E+03  0.25500000920E-02 0.  1.
    10030    2    1    2    0    0  0.00000000000E+00  0.00000000000E+00  0.17160656305E+03  0.12067818362E+04  0.11945181404E+04 0.  0.
        3    1    3    3  502    0 -0.42245557835E+03 -0.42205852157E+03  0.96697095470E+02  0.60494003817E+03  0.10100000352E+00 0. -1.
       -3    1    3    3    0  502  0.42245557835E+03  0.42205852157E+03  0.74909467578E+02  0.60184179802E+03  0.10100000352E+00 0.  1.
</event>
<event>
 5   0  0.1597352E-03  0.1195143E+04  0.7818609E-02  0.9117119E-01
       -2   -1    0    0    0  501  0.00000000000E+00  0.00000000000E+00  0.76143966764E+03  0.76143966765E+03  0.25500000920E-02 0.  1.
        2   -1    0    0  501    0  0.00000000000E+00  0.00000000000E+00 -0.46896911902E+03  0.46896911903E+03  0.25500000920E-02 0. -1.
    10030    2    1    2    0    0  0.00000000000E+00  0.00000000000E+00  0.29247054862E+03  0.12304087867E+04  0.11951429875E+04 0.  0.
        1    1    3    3  502    0  0.12784087061E+02 -0.45147038238E+03  0.54906457603E+03  0.71095769756E+03  0.50400001928E-02 0.  1.
       -1    1    3    3    0  502 -0.12784087061E+02  0.45147038238E+03 -0.25659402741E+03  0.51945108911E+03  0.50400001928E-02 0. -1.
</event>
<event>
 5   0  0.9358428E-04  0.1199731E+04  0.7818609E-02  0.9113092E-01
       -1   -1    0    0    0  501  0.00000000000E+00  0.00000000000E+00  0.10317885611E+04  0.10317885611E+04  0.50400001928E-02 0.  1.
        1   -1    0    0  501    0  0.00000000000E+00  0.00000000000E+00 -0.34875233926E+03  0.34875233930E+03  0.50400001928E-02 0. -1.
    10030    2    1    2    0    0  0.00000000000E+00  0.00000000000E+00  0.68303622184E+03  0.13805409004E+04  0.11997310938E+04 0.  0.
        2    1    3    3  502    0 -0.44501144481E+02  0.88213364705E+02  0.10223611186E+04  0.10271242410E+04  0.25500000920E-02 0.  1.
       -2    1    3    3    0  502  0.44501144481E+02 -0.88213364705E+02 -0.33932489678E+03  0.35341665941E+03  0.25500000920E-02 0. -1.
</event>
<event>
 5   0  0.9358428E-04  0.1201283E+04  0.7818609E-02  0.9111734E-01
        1   -1    0    0  501    0  0.00000000000E+00  0.00000000000E+00  0.86638842504E+03  0.86638842505E+03  0.50400001928E-02 0. -1.
       -1   -1    0    0    0  501  0.00000000000E+00  0.00000000000E+00 -0.41640726608E+03  0.41640726611E+03  0.50400001928E-02 0.  1.
    10030    2    1    2    0    0  0.00000000000E+00  0.00000000000E+00  0.44998115895E+03  0.12827956912E+04  0.12012833728E+04 0.  0.
        2    1    3    3  502    0  0.24956177833E+02 -0.10584454962E+03 -0.40580732230E+03  0.42012553164E+03  0.25500000920E-02 0.  1.
       -2    1    3    3    0  502 -0.24956177833E+02  0.10584454962E+03  0.85578848125E+03  0.86267015953E+03  0.25500000920E-02 0. -1.
</event>
<event>
 5   0  0.1647550E-03  0.1197512E+04  0.7818609E-02  0.9115037E-01
       -2   -1    0    0    0  501  0.00000000000E+00  0.00000000000E+00  0.35018676751E+03  0.35018676752E+03  0.25500000920E-02 0.  1.
        2   -1    0    0  501    0  0.00000000000E+00  0.00000000000E+00 -0.10237646790E+04  0.10237646790E+04  0.25500000920E-02 0. -1.
    10030    2    1    2    0    0  0.00000000000E+00  0.00000000000E+00 -0.67357791148E+03  0.13739514465E+04  0.11975121605E+04 0.  0.
        3    1    3    3  502    0 -0.45996844101E+03  0.38017963255E+03 -0.39301220006E+03  0.71453909573E+03  0.10100000352E+00 0.  1.
       -3    1    3    3    0  502  0.45996844101E+03 -0.38017963255E+03 -0.28056571142E+03  0.65941235078E+03  0.10100000352E+00 0. -1.
</event>
<event>
 5   0  0.1647550E-03  0.1201248E+04  0.7818609E-02  0.9111765E-01
       -2   -1    0    0    0  501  0.00000000000E+00  0.00000000000E+00  0.55848956193E+03  0.55848956193E+03  0.25500000920E-02 0. -1.
        2   -1    0    0  501    0  0.00000000000E+00  0.00000000000E+00 -0.64593712893E+03  0.64593712893E+03  0.25500000920E-02 0.  1.
    10030    2    1    2    0    0  0.00000000000E+00  0.00000000000E+00 -0.87447567000E+02  0.12044266909E+04  0.12012479247E+04 0.  0.
        3    1    3    3  502    0  0.52456283556E+03 -0.26095303245E+03  0.88862599543E+02  0.59258689270E+03  0.10100000352E+00 0. -1.
       -3    1    3    3    0  502 -0.52456283556E+03  0.26095303245E+03 -0.17631016654E+03  0.61183979817E+03  0.10100000352E+00 0.  1.
</event>
<event>
 5   0  0.8908478E-04  0.1203073E+04  0.7818609E-02  0.9110171E-01
       -1   -1    0    0    0  501  0.00000000000E+00  0.00000000000E+00  0.61294006878E+03  0.61294006880E+03  0.50400001928E-02 0. -1.
        1   -1    0    0  501    0  0.00000000000E+00  0.00000000000E+00 -0.59034476362E+03  0.59034476364E+03  0.50400001928E-02 0.  1.
    10030    2    1    2    0    0  0.00000000000E+00  0.00000000000E+00  0.22595305155E+02  0.12032848324E+04  0.12030726662E+04 0.  0.
        4    1    3    3  502    0  0.22657333194E+03 -0.53769206536E+03  0.15759755850E+03  0.60438963860E+03  0.12699999809E+01 0.  1.
       -4    1    3    3    0  502 -0.22657333194E+03  0.53769206536E+03 -0.13500225335E+03  0.59889519384E+03  0.12699999809E+01 0. -1.
</event>
<event>
 5   0  0.8908478E-04  0.1182861E+04  0.7818609E-02  0.9127992E-01
        1   -1    0    0  501    0  0.00000000000E+00  0.00000000000E+00  0.40324152460E+03  0.40324152463E+03  0.50400001928E-02 0.  1.
       -1   -1    0    0    0  501  0.00000000000E+00  0.00000000000E+00 -0.86744586377E+03  0.86744586378E+03  0.50400001928E-02 0. -1.
    10030    2    1    2    0    0  0.00000000000E+00  0.00000000000E+00 -0.46420433917E+03  0.12706873884E+04  0.11828612643E+04 0.  0.
        4    1    3    3  502    0 -0.36898694159E+02  0.12586267412E+03  0.38741973327E+03  0.40902150187E+03  0.12699999809E+01 0.  1.
       -4    1    3    3    0  502  0.36898694159E+02 -0.12586267412E+03 -0.85162407244E+03  0.86166588654E+03  0.12699999809E+01 0. -1.
</event>
<event>
 5   0  0.9169078E-04  0.1209492E+04  0.7818609E-02  0.9104588E-01
       -1   -1    0    0    0  501  0.00000000000E+00  0.00000000000E+00  0.59194019454E+03  0.59194019456E+03  0.50400001928E-02 0. -1.
        1   -1    0    0  501    0  0.00000000000E+00  0.00000000000E+00 -0.61782933562E+03  0.61782933565E+03  0.50400001928E-02 0.  1.
    10030    2    1    2    0    0  0.00000000000E+00  0.00000000000E+00 -0.25889141085E+02  0.12097695302E+04  0.12094924839E+04 0.  0.
        1    1    3    3  502    0 -0.50681452384E+03  0.15146840607E+03 -0.30612325515E+03  0.61115880668E+03  0.50400001928E-02 0.  1.
       -1    1    3    3    0  502  0.50681452384E+03 -0.15146840607E+03  0.28023411407E+03  0.59861072353E+03  0.50400001928E-02 0. -1.
</event>
<event>
 5   0  0.9169078E-04  0.1198649E+04  0.7818609E-02  0.9114040E-01
       -1   -1    0    0    0  501  0.00000000000E+00  0.00000000000E+00  0.60139550299E+03  0.60139550301E+03  0.50400001928E-02 0.  1.
        1   -1    0    0  501    0  0.00000000000E+00  0.00000000000E+00 -0.59726081523E+03  0.59726081526E+03  0.50400001928E-02 0. -1.
    10030    2    1    2    0    0  0.00000000000E+00  0.00000000000E+00  0.41346877510E+01  0.11986563183E+04  0.11986491871E+04 0.  0.
        1    1    3    3  502    0  0.55991018531E+03 -0.13291527558E+03  0.16947228928E+03  0.59990561171E+03  0.50400001928E-02 0.  1.
       -1    1    3    3    0  502 -0.55991018531E+03  0.13291527558E+03 -0.16533760153E+03  0.59875070656E+03  0.50400001928E-02 0. -1.
</event>
<event>
 5   0  0.9358428E-04  0.1195242E+04  0.7818609E-02  0.9117031E-01
       -1   -1    0    0    0  501  0.00000000000E+00  0.00000000000E+00  0.40955506195E+03  0.40955506199E+03  0.50400001928E-02 0. -1.
        1   -1    0    0  501    0  0.00000000000E+00  0.00000000000E+00 -0.87204644579E+03  0.87204644581E+03  0.50400001928E-02 0.  1.
    10030    2    1    2    0    0  0.00000000000E+00  0.00000000000E+00 -0.46249138384E+03  0.12816015078E+04  0.11952422954E+04 0.  0.
        2    1    3    3  502    0  0.47932220100E+03 -0.17965124578E+03 -0.56195640056E+03  0.76014428803E+03  0.25500000920E-02 0.  1.
       -2    1    3    3    0  502 -0.47932220100E+03  0.17965124578E+03  0.99465016727E+02  0.52145721976E+03  0.25500000920E-02 0. -1.
</event>
<event>
 5   0  0.9170776E-04  0.1072877E+04  0.7818609E-02  0.9232039E-01
       -1   -1    0    0    0  501  0.00000000000E+00  0.00000000000E+00  0.24719235363E+03  0.24719235368E+03  0.50400001928E-02 0. -1.
        1   -1    0    0  501    0  0.00000000000E+00  0.00000000000E+00 -0.11641386770E+04  0.11641386770E+04  0.50400001928E-02 0.  1.
    10030    2    1    2    0    0  0.00000000000E+00  0.00000000000E+00 -0.91694632340E+03  0.14113310307E+04  0.10728768421E+04 0.  0.
        5    1    3    3  502    0  0.37772378716E+03  0.37192986635E+03 -0.35050083894E+03  0.63551554896E+03  0.46999998093E+01 0. -1.
       -5    1    3    3    0  502 -0.37772378716E+03 -0.37192986635E+03 -0.56644548446E+03  0.77581548175E+03  0.46999998093E+01 0.  1.
</event>
<event>
 5   0  0.9358428E-04  0.1209972E+04  0.7818609E-02  0.9104172E-01
        1   -1    0    0  501    0  0.00000000000E+00  0.00000000000E+00  0.19301369304E+04  0.19301369304E+04  0.50400001928E-02 0.  1.
       -1   -1    0    0    0  501  0.00000000000E+00  0.00000000000E+00 -0.18962815317E+03  0.18962815324E+03  0.50400001928E-02 0. -1.
    10030    2    1    2    0    0  0.00000000000E+00  0.00000000000E+00  0.17405087772E+04  0.21197650836E+04  0.12099723989E+04 0.  0.
        2    1    3    3  502    0 -0.56841926319E+03 -0.56856778691E+02  0.52129767629E+03  0.77335917875E+03  0.25500000920E-02 0. -1.
       -2    1    3    3    0  502  0.56841926319E+03  0.56856778691E+02  0.12192111009E+04  0.13464059049E+04  0.25500000920E-02 0.  1.
</event>
<event>
 5   0  0.1597352E-03  0.1202161E+04  0.7818609E-02  0.9110967E-01
       -2   -1    0    0    0  501  0.00000000000E+00  0.00000000000E+00  0.19516703022E+03  0.19516703024E+03  0.25500000920E-02 0.  1.
        2   -1    0    0  501    0  0.00000000000E+00  0.00000000000E+00 -0.18512223257E+04  0.18512223257E+04  0.25500000920E-02 0. -1.
    10030    2    1    2    0    0  0.00000000000E+00  0.00000000000E+00 -0.16560552954E+04  0.20463893559E+04  0.12021606608E+04 0.  0.
        1    1    3    3  502    0 -0.21583674781E+03 -0.17445216608E+03 -0.17356345008E+04  0.17576820475E+04  0.50400001928E-02 0. -1.
       -1    1    3    3    0  502  0.21583674781E+03  0.17445216608E+03  0.79579205336E+02  0.28870730836E+03  0.50400001928E-02 0.  1.
</event>
<event>
 5   0  0.1597352E-03  0.1200745E+04  0.7818609E-02  0.9112205E-01
       -2   -1    0    0    0  501  0.00000000000E+00  0.00000000000E+00  0.49291718459E+03  0.49291718460E+03  0.25500000920E-02 0. -1.
        2   -1    0    0  501    0  0.00000000000E+00  0.00000000000E+00 -0.73125263817E+03  0.73125263817E+03  0.25500000920E-02 0.  1.
    10030    2    1    2    0    0  0.00000000000E+00  0.00000000000E+00 -0.23833545358E+03  0.12241698228E+04  0.12007447550E+04 0.  0.
        1    1    3    3  502    0 -0.28958120022E+03 -0.47569639201E+03 -0.34782575730E+03  0.65660268531E+03  0.50400001928E-02 0.  1.
       -1    1    3    3    0  502  0.28958120022E+03  0.47569639201E+03  0.10949030372E+03  0.56756713746E+03  0.50400001928E-02 0. -1.
</event>
<event>
 5   0  0.1537557E-03  0.1217003E+04  0.7818609E-02  0.9098103E-01
       -2   -1    0    0    0  501  0.00000000000E+00  0.00000000000E+00  0.34638711100E+03  0.34638711101E+03  0.25500000920E-02 0. -1.
        2   -1    0    0  501    0  0.00000000000E+00  0.00000000000E+00 -0.10689595136E+04  0.10689595136E+04  0.25500000920E-02 0.  1.
    10030    2    1    2    0    0  0.00000000000E+00  0.00000000000E+00 -0.72257240262E+03  0.14153466246E+04  0.12170025435E+04 0.  0.
        2    1    3    3  502    0  0.15901251584E+03  0.26121907701E+03  0.25052555652E+03  0.39532700498E+03  0.25500000920E-02 0. -1.
       -2    1    3    3    0  502 -0.15901251584E+03 -0.26121907701E+03 -0.97309795914E+03  0.10200196197E+04  0.25500000920E-02 0.  1.
</event>
<event>
 5   0  0.8908478E-04  0.1230580E+04  0.7818609E-02  0.9086503E-01
       -1   -1    0    0    0  501  0.00000000000E+00  0.00000000000E+00  0.67415290400E+03  0.67415290402E+03  0.50400001928E-02 0. -1.
        1   -1    0    0  501    0  0.00000000000E+00  0.00000000000E+00 -0.56156661659E+03  0.56156661661E+03  0.50400001928E-02 0.  1.
    10030    2    1    2    0    0  0.00000000000E+00  0.00000000000E+00  0.11258628741E+03  0.12357195206E+04  0.12305799696E+04 0.  0.
        4    1    3    3  502    0 -0.12258865082E+03 -0.34950090977E+02 -0.54815995997E+03  0.56278809581E+03  0.12699999809E+01 0.  1.
       -4    1    3    3    0  502  0.12258865082E+03  0.34950090977E+02  0.66074624739E+03  0.67293142482E+03  0.12699999809E+01 0. -1.
</event>
<event>
 5   0  0.8908478E-04  0.1207236E+04  0.7818609E-02  0.9106546E-01
       -1   -1    0    0    0  501  0.00000000000E+00  0.00000000000E+00  0.17415014820E+03  0.17415014827E+03  0.50400001928E-02 0. -1.
        1   -1    0    0  501    0  0.00000000000E+00  0.00000000000E+00 -0.20921872585E+04  0.20921872585E+04  0.50400001928E-02 0.  1.
    10030    2    1    2    0    0  0.00000000000E+00  0.00000000000E+00 -0.19180371103E+04  0.22663374068E+04  0.12072360518E+04 0.  0.
        4    1    3    3  502    0  0.34363069643E+03 -0.11567265736E+03 -0.18649777146E+04  0.18998962361E+04  0.12699999809E+01 0.  1.
       -4    1    3    3    0  502 -0.34363069643E+03  0.11567265736E+03 -0.53059395735E+02  0.36644117068E+03  0.12699999809E+01 0. -1.
</event>
<event>
 5   0  0.9169078E-04  0.1208229E+04  0.7818609E-02  0.9105684E-01
       -1   -1    0    0    0  501  0.00000000000E+00  0.00000000000E+00  0.74605032481E+03  0.74605032482E+03  0.50400001928E-02 0.  1.
        1   -1    0    0  501    0  0.00000000000E+00  0.00000000000E+00 -0.48918209247E+03  0.48918209249E+03  0.50400001928E-02 0. -1.
    10030    2    1    2    0    0  0.00000000000E+00  0.00000000000E+00  0.25686823234E+03  0.12352324173E+04  0.12082292150E+04 0.  0.
        1    1    3    3  502    0  0.15456583488E+03  0.90689548400E+02 -0.46138198866E+03  0.49496316124E+03  0.50400001928E-02 0. -1.
       -1    1    3    3    0  502 -0.15456583488E+03 -0.90689548400E+02  0.71825022100E+03  0.74026925608E+03  0.50400001928E-02 0.  1.
</event>
<event>
 5   0  0.9358428E-04  0.1192739E+04  0.7818609E-02  0.9119236E-01
       -1   -1    0    0    0  501  0.00000000000E+00  0.00000000000E+00  0.45358417404E+03  0.45358417407E+03  0.50400001928E-02 0. -1.
        1   -1    0    0  501    0  0.00000000000E+00  0.00000000000E+00 -0.78410312832E+03  0.78410312834E+03  0.50400001928E-02 0.  1.
    10030    2    1    2    0    0  0.00000000000E+00  0.00000000000E+00 -0.33051895428E+03  0.12376873024E+04  0.11927393175E+04 0.  0.
        2    1    3    3  502    0  0.27964300770E+02  0.48674924222E+03 -0.52164025174E+03  0.71401357071E+03  0.25500000920E-02 0.  1.
       -2    1    3    3    0  502 -0.27964300770E+02 -0.48674924222E+03  0.19112129746E+03  0.52367373170E+03  0.25500000920E-02 0. -1.
</event>
<event>
 5   0  0.6137750E-04  0.1201359E+04  0.7818609E-02  0.9111668E-01
       -4   -1    0    0    0  501  0.00000000000E+00  0.00000000000E+00  0.73219564042E+03  0.73219674184E+03  0.12699999809E+01 0. -1.
        4   -1    0    0  501    0  0.00000000000E+00  0.00000000000E+00 -0.49278347745E+03  0.49278511396E+03  0.12699999809E+01 0.  1.
    10030    2    1    2    0    0  0.00000000000E+00  0.00000000000E+00  0.23941216298E+03  0.12249818558E+04  0.12013585490E+04 0.  0.
        5    1    3    3  502    0  0.58208963441E+03 -0.75801615823E+02  0.24956527750E+03  0.63787079035E+03  0.46999998093E+01 0. -1.
       -5    1    3    3    0  502 -0.58208963441E+03  0.75801615823E+02 -0.10153114526E+02  0.58711106545E+03  0.46999998093E+01 0.  1.
</event>
<event>
 5   0  0.1647550E-03  0.1196558E+04  0.7818609E-02  0.9115875E-01
       -2   -1    0    0    0  501  0.00000000000E+00  0.00000000000E+00  0.97568054022E+03  0.97568054022E+03  0.25500000920E-02 0.  1.
        2   -1    0    0  501    0  0.00000000000E+00  0.00000000000E+00 -0.36685955355E+03  0.36685955355E+03  0.25500000920E-02 0. -1.
    10030    2    1    2    0    0  0.00000000000E+00  0.00000000000E+00  0.60882098667E+03  0.13425400938E+04  0.11965579424E+04 0.  0.
        3    1    3    3  502    0  0.10576523328E+03 -0.45316993962E+03 -0.11748071907E+03  0.47994896427E+03  0.10100000352E+00 0. -1.
       -3    1    3    3    0  502 -0.10576523328E+03  0.45316993962E+03  0.72630170575E+03  0.86259112951E+03  0.10100000352E+00 0.  1.
</event>
<event>
 5   0  0.1597352E-03  0.1193284E+04  0.7818609E-02  0.9118755E-01
       -2   -1    0    0    0  501  0.00000000000E+00  0.00000000000E+00  0.39197302059E+03  0.39197302060E+03  0.25500000920E-02 0.  1.
        2   -1    0    0  501    0  0.00000000000E+00  0.00000000000E+00 -0.90817968373E+03  0.90817968373E+03  0.25500000920E-02 0. -1.
    10030    2    1    2    0    0  0.00000000000E+00  0.00000000000E+00 -0.51620666313E+03  0.13001527043E+04  0.11932844319E+04 0.  0.
        1    1    3    3  502    0 -0.45366915077E+03  0.20870568892E+03 -0.61385392651E+03  0.79132193579E+03  0.50400001928E-02 0. -1.
       -1    1    3    3    0  502  0.45366915077E+03 -0.20870568892E+03  0.97647263378E+02  0.50883076854E+03  0.50400001928E-02 0.  1.
</event>
<event>
 5   0  0.1647550E-03  0.1201023E+04  0.7818609E-02  0.9111962E-01
       -2   -1    0    0    0  501  0.00000000000E+00  0.00000000000E+00  0.46297736194E+03  0.46297736195E+03  0.25500000920E-02 0. -1.
        2   -1    0    0  501    0  0.00000000000E+00  0.00000000000E+00 -0.77890186836E+03  0.77890186836E+03  0.25500000920E-02 0.  1.
    10030    2    1    2    0    0  0.00000000000E+00  0.00000000000E+00 -0.31592450642E+03  0.12418792303E+04  0.12010227845E+04 0.  0.
        3    1    3    3  502    0 -0.89233873561E+02  0.54777028777E+02  0.45346575322E+03  0.46539704191E+03  0.10100000352E+00 0. -1.
       -3    1    3    3    0  502  0.89233873561E+02 -0.54777028777E+02 -0.76939025964E+03  0.77648218840E+03  0.10100000352E+00 0.  1.
</event>
<event>
 5   0  0.8908478E-04  0.1206496E+04  0.7818609E-02  0.9107190E-01
       -1   -1    0    0    0  501  0.00000000000E+00  0.00000000000E+00  0.41889308718E+03  0.41889308721E+03  0.50400001928E-02 0.  1.
        1   -1    0    0  501    0  0.00000000000E+00  0.00000000000E+00 -0.86873701448E+03  0.86873701450E+03  0.50400001928E-02 0. -1.
    10030    2    1    2    0    0  0.00000000000E+00  0.00000000000E+00 -0.44984392730E+03  0.12876301017E+04  0.12064956361E+04 0.  0.
        4    1    3    3  502    0 -0.40918535297E+03  0.13342273827E+02 -0.69776903199E+03  0.80900797540E+03  0.12699999809E+01 0. -1.
       -4    1    3    3    0  502  0.40918535297E+03 -0.13342273827E+02  0.24792510469E+03  0.47862212630E+03  0.12699999809E+01 0.  1.
</event>
<event>
 5   0  0.1537557E-03  0.1120063E+04  0.7818609E-02  0.9185855E-01
        2   -1    0    0  501    0  0.00000000000E+00  0.00000000000E+00  0.10413384505E+04  0.10413384505E+04  0.25500000920E-02 0.  1.
       -2   -1    0    0    0  501  0.00000000000E+00  0.00000000000E+00 -0.30118469408E+03  0.30118469409E+03  0.25500000920E-02 0. -1.
    10030    2    1    2    0    0  0.00000000000E+00  0.00000000000E+00  0.74015375640E+03  0.13425231446E+04  0.11200628601E+04 0.  0.
        2    1    3    3  502    0 -0.10261102563E+03 -0.46220743199E+03  0.11552043896E+02  0.47360129064E+03  0.25500000920E-02 0. -1.
       -2    1    3    3    0  502  0.10261102563E+03  0.46220743199E+03  0.72860171250E+03  0.86892185393E+03  0.25500000920E-02 0.  1.
</event>
<event>
 5   0  0.1537557E-03  0.1211655E+04  0.7818609E-02  0.9102715E-01
        2   -1    0    0  501    0  0.00000000000E+00  0.00000000000E+00  0.62032625166E+03  0.62032625167E+03  0.25500000920E-02 0.  1.
       -2   -1    0    0    0  501  0.00000000000E+00  0.00000000000E+00 -0.59166805273E+03  0.59166805274E+03  0.25500000920E-02 0. -1.
    10030    2    1    2    0    0  0.00000000000E+00  0.00000000000E+00  0.28658198929E+02  0.12119943044E+04  0.12116554385E+04 0.  0.
        2    1    3    3  502    0  0.16126829115E+03  0.80146995966E+02  0.59293380318E+03  0.61967854381E+03  0.25500000920E-02 0.  1.
       -2    1    3    3    0  502 -0.16126829115E+03 -0.80146995966E+02 -0.56427560425E+03  0.59231576060E+03  0.25500000920E-02 0. -1.
</event>
<event>
 5   0  0.8908478E-04  0.1193372E+04  0.7818609E-02  0.9118678E-01
        1   -1    0    0  501    0  0.00000000000E+00  0.00000000000E+00  0.54543330627E+03  0.54543330629E+03  0.50400001928E-02 0.  1.
       -1   -1    0    0    0  501  0.00000000000E+00  0.00000000000E+00 -0.65275444003E+03  0.65275444005E+03  0.50400001928E-02 0. -1.
    10030    2    1    2    0    0  0.00000000000E+00  0.00000000000E+00 -0.10732113376E+03  0.11981877463E+04  0.11933717148E+04 0.  0.
        4    1    3    3  502    0 -0.26867167051E+03  0.24622424527E+03 -0.52803054698E+03  0.64158297744E+03  0.12699999809E+01 0. -1.
       -4    1    3    3    0  502  0.26867167051E+03 -0.24622424527E+03  0.42070941322E+03  0.55660476891E+03  0.12699999809E+01 0.  1.
</event>
<event>
 5   0  0.9358428E-04  0.1181209E+04  0.7818609E-02  0.9129465E-01
        1   -1    0    0  501    0  0.00000000000E+00  0.00000000000E+00  0.26912080814E+03  0.26912080819E+03  0.50400001928E-02 0.  1.
       -1   -1    0    0    0  501  0.00000000000E+00  0.00000000000E+00 -0.12961236496E+04  0.12961236496E+04  0.50400001928E-02 0. -1.
    10030    2    1    2    0    0  0.00000000000E+00  0.00000000000E+00 -0.10270028414E+04  0.15652444578E+04  0.11812092855E+04 0.  0.
        2    1    3    3  502    0  0.21149313841E+03  0.57772147194E+02  0.21319979112E+03  0.30581222919E+03  0.25500000920E-02 0.  1.
       -2    1    3    3    0  502 -0.21149313841E+03 -0.57772147194E+02 -0.12402026325E+04  0.12594322286E+04  0.25500000920E-02 0. -1.
</event>
<event>
 5   0  0.9170776E-04  0.1194965E+04  0.7818609E-02  0.9117275E-01
        1   -1    0    0  501    0  0.00000000000E+00  0.00000000000E+00  0.14985233048E+04  0.14985233048E+04  0.50400001928E-02 0.  1.
       -1   -1    0    0    0  501  0.00000000000E+00  0.00000000000E+00 -0.23822486032E+03  0.23822486037E+03  0.50400001928E-02 0. -1.
    10030    2    1    2    0    0  0.00000000000E+00  0.00000000000E+00  0.12602984445E+04  0.17367481651E+04  0.11949652799E+04 0.  0.
        5    1    3    3  502    0  0.19121121674E+03  0.52997810327E+03  0.34120306176E+03  0.65869578616E+03  0.46999998093E+01 0. -1.
       -5    1    3    3    0  502 -0.19121121674E+03 -0.52997810327E+03  0.91909538269E+03  0.10780523790E+04  0.46999998093E+01 0.  1.
</event>
<event>
 5   0  0.1551501E-03  0.1210474E+04  0.7818609E-02  0.9103738E-01
        2   -1    0    0  501    0  0.00000000000E+00  0.00000000000E+00  0.36244659923E+03  0.36244659924E+03  0.25500000920E-02 0.  1.
       -2   -1    0    0    0  501  0.00000000000E+00  0.00000000000E+00 -0.10106640521E+04  0.10106640521E+04  0.25500000920E-02 0. -1.
    10030    2    1    2    0    0  0.00000000000E+00  0.00000000000E+00 -0.64821745284E+03  0.13731106513E+04  0.12104738719E+04 0.  0.
        4    1    3    3  502    0  0.12389426916E+03 -0.39664901287E+03 -0.82326477047E+03  0.92219668430E+03  0.12699999809E+01 0. -1.
       -4    1    3    3    0  502 -0.12389426916E+03  0.39664901287E+03  0.17504731763E+03  0.45091396701E+03  0.12699999809E+01 0.  1.
</event>
<event>
 5   0  0.9170776E-04  0.1197778E+04  0.7818609E-02  0.9114804E-01
        1   -1    0    0  501    0  0.00000000000E+00  0.00000000000E+00  0.52969274653E+03  0.52969274655E+03  0.50400001928E-02 0.  1.
       -1   -1    0    0    0  501  0.00000000000E+00  0.00000000000E+00 -0.67712440671E+03  0.67712440673E+03  0.50400001928E-02 0. -1.
    10030    2    1    2    0    0  0.00000000000E+00  0.00000000000E+00 -0.14743166018E+03  0.12068171533E+04  0.11977777536E+04 0.  0.
        5    1    3    3  502    0  0.41399187499E+03 -0.20418752363E+03  0.31069197020E+03  0.55644712930E+03  0.46999998093E+01 0.  1.
       -5    1    3    3    0  502 -0.41399187499E+03  0.20418752363E+03 -0.45812363039E+03  0.65037002397E+03  0.46999998093E+01 0. -1.
</event>
<event>
 5   0  0.1597352E-03  0.1216655E+04  0.7818609E-02  0.9098402E-01
       -2   -1    0    0    0  501  0.00000000000E+00  0.00000000000E+00  0.20116759735E+03  0.20116759737E+03  0.25500000920E-02 0.  1.
        2   -1    0    0  501    0  0.00000000000E+00  0.00000000000E+00 -0.18395717361E+04  0.18395717361E+04  0.25500000920E-02 0. -1.
    10030    2    1    2    0    0  0.00000000000E+00  0.00000000000E+00 -0.16384041387E+04  0.20407393334E+04  0.12166548012E+04 0.  0.
        1    1    3    3  502    0  0.55025122562E+03  0.68800006712E+02 -0.39969231874E+03  0.68356696959E+03  0.50400001928E-02 0. -1.
       -1    1    3    3    0  502 -0.55025122562E+03 -0.68800006712E+02 -0.12387118200E+04  0.13571723638E+04  0.50400001928E-02 0.  1.
</event>
<event>
 5   0  0.9170776E-04  0.1201084E+04  0.7818609E-02  0.9111909E-01
       -1   -1    0    0    0  501  0.00000000000E+00  0.00000000000E+00  0.19666187981E+03  0.19666187987E+03  0.50400001928E-02 0.  1.
        1   -1    0    0  501    0  0.00000000000E+00  0.00000000000E+00 -0.18338604958E+04  0.18338604958E+04  0.50400001928E-02 0. -1.
    10030    2    1    2    0    0  0.00000000000E+00  0.00000000000E+00 -0.16371986160E+04  0.20305223757E+04  0.12010835982E+04 0.  0.
        5    1    3    3  502    0  0.34254630281E+03 -0.30771941034E+03 -0.14702917987E+04  0.15407171280E+04  0.46999998093E+01 0. -1.
       -5    1    3    3    0  502 -0.34254630281E+03  0.30771941034E+03 -0.16690681734E+03  0.48980524777E+03  0.46999998093E+01 0.  1.
</event>
<event>
 5   0  0.9169078E-04  0.1210129E+04  0.7818609E-02  0.9104036E-01
       -1   -1    0    0    0  501  0.00000000000E+00  0.00000000000E+00  0.25780470143E+03  0.25780470148E+03  0.50400001928E-02 0. -1.
        1   -1    0    0  501    0  0.00000000000E+00  0.00000000000E+00 -0.14200796771E+04  0.14200796771E+04  0.50400001928E-02 0.  1.
    10030    2    1    2    0    0  0.00000000000E+00  0.00000000000E+00 -0.11622749757E+04  0.16778843786E+04  0.12101292777E+04 0.  0.
        1    1    3    3  502    0  0.49000149447E+02  0.59388928238E+03 -0.72654326005E+03  0.93966515479E+03  0.50400001928E-02 0. -1.
       -1    1    3    3    0  502 -0.49000149447E+02 -0.59388928238E+03 -0.43573171561E+03  0.73821922379E+03  0.50400001928E-02 0.  1.
</event>
<event>
 5   0  0.9208078E-04  0.1198310E+04  0.7818609E-02  0.9114337E-01
        1   -1    0    0  501    0  0.00000000000E+00  0.00000000000E+00  0.79324407998E+03  0.79324408000E+03  0.50400001928E-02 0.  1.
       -1   -1    0    0    0  501  0.00000000000E+00  0.00000000000E+00 -0.45255548319E+03  0.45255548322E+03  0.50400001928E-02 0. -1.
    10030    2    1    2    0    0  0.00000000000E+00  0.00000000000E+00  0.34068859679E+03  0.12457995632E+04  0.11983104071E+04 0.  0.
        3    1    3    3  502    0 -0.48976753611E+03 -0.11665817817E+03  0.50803301787E+03  0.71524745886E+03  0.10100000352E+00 0. -1.
       -3    1    3    3    0  502  0.48976753611E+03  0.11665817817E+03 -0.16734442108E+03  0.53055210435E+03  0.10100000352E+00 0.  1.
</event>
<event>
 5   0  0.9170776E-04  0.1057526E+04  0.7818609E-02  0.9247608E-01
       -1   -1    0    0    0  501  0.00000000000E+00  0.00000000000E+00  0.25559727166E+03  0.25559727171E+03  0.50400001928E-02 0. -1.
        1   -1    0    0  501    0  0.00000000000E+00  0.00000000000E+00 -0.10938704486E+04  0.10938704486E+04  0.50400001928E-02 0.  1.
    10030    2    1    2    0    0  0.00000000000E+00  0.00000000000E+00 -0.83827317692E+03  0.13494677203E+04  0.10575259850E+04 0.  0.
        5    1    3    3  502    0  0.32941761498E+03 -0.18537084810E+02 -0.94636545871E+03  0.10022421165E+04  0.46999998093E+01 0.  1.
       -5    1    3    3    0  502 -0.32941761498E+03  0.18537084810E+02  0.10809228180E+03  0.34722560383E+03  0.46999998093E+01 0. -1.
</event>
<event>
 5   0  0.1551501E-03  0.1202631E+04  0.7818609E-02  0.9110557E-01
        2   -1    0    0  501    0  0.00000000000E+00  0.00000000000E+00  0.87729985364E+03  0.87729985365E+03  0.25500000920E-02 0. -1.
       -2   -1    0    0    0  501  0.00000000000E+00  0.00000000000E+00 -0.41215132224E+03  0.41215132225E+03  0.25500000920E-02 0.  1.
    10030    2    1    2    0    0  0.00000000000E+00  0.00000000000E+00  0.46514853141E+03  0.12894511759E+04  0.12026309404E+04 0.  0.
        4    1    3    3  502    0  0.41225593063E+02  0.34947647080E+03 -0.29021724401E+03  0.45613705702E+03  0.12699999809E+01 0.  1.
       -4    1    3    3    0  502 -0.41225593063E+02 -0.34947647080E+03  0.75536577541E+03  0.83331411888E+03  0.12699999809E+01 0. -1.
</event>
<event>
 5   0  0.1647550E-03  0.1198390E+04  0.7818609E-02  0.9114267E-01
       -2   -1    0    0    0  501  0.00000000000E+00  0.00000000000E+00  0.36886473786E+03  0.36886473786E+03  0.25500000920E-02 0.  1.
        2   -1    0    0  501    0  0.00000000000E+00  0.00000000000E+00 -0.97335118255E+03  0.97335118255E+03  0.25500000920E-02 0. -1.
    10030    2    1    2    0    0  0.00000000000E+00  0.00000000000E+00 -0.60448644469E+03  0.13422159204E+04  0.11983904686E+04 0.  0.
        3    1    3    3  502    0  0.91527000644E+02 -0.34873337298E+03  0.23377841996E+03  0.42970282419E+03  0.10100000352E+00 0.  1.
       -3    1    3    3    0  502 -0.91527000644E+02  0.34873337298E+03 -0.83826486465E+03  0.91251309622E+03  0.10100000352E+00 0. -1.
</event>
<event>
 5   0  0.1537557E-03  0.1202471E+04  0.7818609E-02  0.9110696E-01
       -2   -1    0    0    0  501  0.00000000000E+00  0.00000000000E+00  0.52996773999E+03  0.52996774000E+03  0.25500000920E-02 0.  1.
        2   -1    0    0  501    0  0.00000000000E+00  0.00000000000E+00 -0.68208695410E+03  0.68208695410E+03  0.25500000920E-02 0. -1.
    10030    2    1    2    0    0  0.00000000000E+00  0.00000000000E+00 -0.15211921411E+03  0.12120546941E+04  0.12024709253E+04 0.  0.
        2    1    3    3  502    0 -0.39936266109E+03  0.11522408634E+03  0.36181836230E+03  0.55107136784E+03  0.25500000920E-02 0.  1.
       -2    1    3    3    0  502  0.39936266109E+03 -0.11522408634E+03 -0.51393757641E+03  0.66098332626E+03  0.25500000920E-02 0. -1.
</event>
<event>
 5   0  0.1597352E-03  0.1184029E+04  0.7818609E-02  0.9126952E-01
       -2   -1    0    0    0  501  0.00000000000E+00  0.00000000000E+00  0.16625485739E+03  0.16625485741E+03  0.25500000920E-02 0. -1.
        2   -1    0    0  501    0  0.00000000000E+00  0.00000000000E+00 -0.21080961525E+04  0.21080961525E+04  0.25500000920E-02 0.  1.
    10030    2    1    2    0    0  0.00000000000E+00  0.00000000000E+00 -0.19418412951E+04  0.22743510099E+04  0.11840290963E+04 0.  0.
        1    1    3    3  502    0 -0.71715176704E+02 -0.35772524503E+03 -0.75358505051E+02  0.37254438905E+03  0.50400001928E-02 0. -1.
       -1    1    3    3    0  502  0.71715176704E+02  0.35772524503E+03 -0.18664827900E+04  0.19018066208E+04  0.50400001928E-02 0.  1.
</event>
<event>
 5   0  0.1567019E-03  0.1199862E+04  0.7818609E-02  0.9112977E-01
       -2   -1    0    0    0  501  0.00000000000E+00  0.00000000000E+00  0.27571908562E+03  0.27571908563E+03  0.25500000920E-02 0. -1.
        2   -1    0    0  501    0  0.00000000000E+00  0.00000000000E+00 -0.13053774727E+04  0.13053774727E+04  0.25500000920E-02 0.  1.
    10030    2    1    2    0    0  0.00000000000E+00  0.00000000000E+00 -0.10296583870E+04  0.15810965583E+04  0.11998624640E+04 0.  0.
        5    1    3    3  502    0  0.11722463640E+03  0.56180740821E+02 -0.12865716706E+04  0.12931305598E+04  0.46999998093E+01 0.  1.
       -5    1    3    3    0  502 -0.11722463640E+03 -0.56180740821E+02  0.25691328358E+03  0.28796599851E+03  0.46999998093E+01 0. -1.
</event>
<event>
 5   0  0.1647550E-03  0.1203377E+04  0.7818609E-02  0.9109905E-01
       -2   -1    0    0    0  501  0.00000000000E+00  0.00000000000E+00  0.37701959338E+03  0.37701959338E+03  0.25500000920E-02 0. -1.
        2   -1    0    0  501    0  0.00000000000E+00  0.00000000000E+00 -0.96023988327E+03  0.96023988327E+03  0.25500000920E-02 0.  1.
    10030    2    1    2    0    0  0.00000000000E+00  0.00000000000E+00 -0.58322028989E+03  0.13372594767E+04  0.12033773312E+04 0.  0.
        3    1    3    3  502    0  0.50038115028E+03  0.30771860991E+03 -0.14690267476E+03  0.60551832713E+03  0.10100000352E+00 0.  1.
       -3    1    3    3    0  502 -0.50038115028E+03 -0.30771860991E+03 -0.43631761513E+03  0.73174114953E+03  0.10100000352E+00 0. -1.
</event>
<event>
 5   0  0.9169078E-04  0.1208401E+04  0.7818609E-02  0.9105535E-01
        1   -1    0    0  501    0  0.00000000000E+00  0.00000000000E+00  0.95241076444E+03  0.95241076445E+03  0.50400001928E-02 0.  1.
       -1   -1    0    0    0  501  0.00000000000E+00  0.00000000000E+00 -0.38329908779E+03  0.38329908783E+03  0.50400001928E-02 0. -1.
    10030    2    1    2    0    0  0.00000000000E+00  0.00000000000E+00  0.56911167664E+03  0.13357098523E+04  0.12084008892E+04 0.  0.
        1    1    3    3  502    0 -0.44363031664E+03 -0.39967121054E+03  0.38654372766E+03  0.71130934747E+03  0.50400001928E-02 0.  1.
       -1    1    3    3    0  502  0.44363031664E+03  0.39967121054E+03  0.18256794898E+03  0.62440050481E+03  0.50400001928E-02 0. -1.
</event>
<event>
 5   0  0.9208078E-04  0.1203330E+04  0.7818609E-02  0.9109947E-01
        1   -1    0    0  501    0  0.00000000000E+00  0.00000000000E+00  0.38945979766E+03  0.38945979770E+03  0.50400001928E-02 0.  1.
       -1   -1    0    0    0  501  0.00000000000E+00  0.00000000000E+00 -0.92949473662E+03  0.92949473663E+03  0.50400001928E-02 0. -1.
    10030    2    1    2    0    0  0.00000000000E+00  0.00000000000E+00 -0.54003493895E+03  0.13189545343E+04  0.12033300995E+04 0.  0.
        3    1    3    3  502    0 -0.17238458035E+03 -0.30684395218E+03 -0.80489353624E+03  0.87847781384E+03  0.10100000352E+00 0. -1.
       -3    1    3    3    0  502  0.17238458035E+03  0.30684395218E+03  0.26485859729E+03  0.44047672048E+03  0.10100000352E+00 0.  1.
</event>
<event>
 5   0  0.9170776E-04  0.1198216E+04  0.7818609E-02  0.9114419E-01
        1   -1    0    0  501    0  0.00000000000E+00  0.00000000000E+00  0.10527613990E+04  0.10527613990E+04  0.50400001928E-02 0. -1.
       -1   -1    0    0    0  501  0.00000000000E+00  0.00000000000E+00 -0.34094187482E+03  0.34094187485E+03  0.50400001928E-02 0.  1.
    10030    2    1    2    0    0  0.00000000000E+00  0.00000000000E+00  0.71181952422E+03  0.13937032739E+04  0.11982160826E+04 0.  0.
        5    1    3    3  502    0  0.30790596667E+02  0.51136966944E+03 -0.53435653307E+01  0.51234523844E+03  0.46999998093E+01 0.  1.
       -5    1    3    3    0  502 -0.30790596667E+02 -0.51136966944E+03  0.71716308955E+03  0.88135803546E+03  0.46999998093E+01 0. -1.
</event>
<event>
 5   0  0.9208078E-04  0.1195414E+04  0.7818609E-02  0.9116880E-01
       -1   -1    0    0    0  501  0.00000000000E+00  0.00000000000E+00  0.21233421306E+03  0.21233421312E+03  0.50400001928E-02 0. -1.
        1   -1    0    0  501    0  0.00000000000E+00  0.00000000000E+00 -0.16825064153E+04  0.16825064153E+04  0.50400001928E-02 0.  1.
    10030    2    1    2    0    0  0.00000000000E+00  0.00000000000E+00 -0.14701722023E+04  0.18948406284E+04  0.11954140299E+04 0.  0.
        3    1    3    3  502    0  0.25760358838E+02  0.58946243997E+03 -0.88649429837E+03  0.10648951664E+04  0.10100000352E+00 0.  1.
       -3    1    3    3    0  502 -0.25760358838E+02 -0.58946243997E+03 -0.58367790389E+03  0.82994546201E+03  0.10100000352E+00 0. -1.
</event>
<event>
 5   0  0.1537557E-03  0.1206771E+04  0.7818609E-02  0.9106950E-01
       -2   -1    0    0    0  501  0.00000000000E+00  0.00000000000E+00  0.60250479839E+03  0.60250479840E+03  0.25500000920E-02 0. -1.
        2   -1    0    0  501    0  0.00000000000E+00  0.00000000000E+00 -0.60426756894E+03  0.60426756894E+03  0.25500000920E-02 0.  1.
    10030    2    1    2    0    0  0.00000000000E+00  0.00000000000E+00 -0.17627705434E+01  0.12067723673E+04  0.12067710799E+04 0.  0.
        2    1    3    3  502    0  0.17378512929E+03  0.31492776245E+03  0.48357072160E+03  0.60267852916E+03  0.25500000920E-02 0. -1.
       -2    1    3    3    0  502 -0.17378512929E+03 -0.31492776245E+03 -0.48533349214E+03  0.60409383818E+03  0.25500000920E-02 0.  1.
</event>
<event>
 5   0  0.1647550E-03  0.1192002E+04  0.7818609E-02  0.9119886E-01
       -2   -1    0    0    0  501  0.00000000000E+00  0.00000000000E+00  0.71663844639E+03  0.71663844639E+03  0.25500000920E-02 0. -1.
        2   -1    0    0  501    0  0.00000000000E+00  0.00000000000E+00 -0.49567146674E+03  0.49567146675E+03  0.25500000920E-02 0.  1.
    10030    2    1    2    0    0  0.00000000000E+00  0.00000000000E+00  0.22096697964E+03  0.12123099131E+04  0.11920020635E+04 0.  0.
        3    1    3    3  502    0 -0.45693163908E+03 -0.37428857818E+03  0.19145620535E+03  0.62091380345E+03  0.10100000352E+00 0. -1.
       -3    1    3    3    0  502  0.45693163908E+03  0.37428857818E+03  0.29510774291E+02  0.59139610968E+03  0.10100000352E+00 0.  1.
</event>
<event>
 5   0  0.9208078E-04  0.1200157E+04  0.7818609E-02  0.9112719E-01
       -1   -1    0    0    0  501  0.00000000000E+00  0.00000000000E+00  0.82000301874E+03  0.82000301875E+03  0.50400001928E-02 0.  1.
        1   -1    0    0  501    0  0.00000000000E+00  0.00000000000E+00 -0.43913759830E+03  0.43913759833E+03  0.50400001928E-02 0. -1.
    10030    2    1    2    0    0  0.00000000000E+00  0.00000000000E+00  0.38086542044E+03  0.12591406171E+04  0.12001569169E+04 0.  0.
        3    1    3    3  502    0  0.77408667420E+02  0.44611137193E+03 -0.22273223028E+03  0.50459599143E+03  0.10100000352E+00 0. -1.
       -3    1    3    3    0  502 -0.77408667420E+02 -0.44611137193E+03  0.60359765072E+03  0.75454462566E+03  0.10100000352E+00 0.  1.
</event>
<event>
 5   0  0.9358428E-04  0.1201263E+04  0.7818609E-02  0.9111752E-01
       -1   -1    0    0    0  501  0.00000000000E+00  0.00000000000E+00  0.29409442795E+03  0.29409442799E+03  0.50400001928E-02 0.  1.
        1   -1    0    0  501    0  0.00000000000E+00  0.00000000000E+00 -0.12266746955E+04  0.12266746955E+04  0.50400001928E-02 0. -1.
    10030    2    1    2    0    0  0.00000000000E+00  0.00000000000E+00 -0.93258026758E+03  0.15207691235E+04  0.12012629902E+04 0.  0.
        2    1    3    3  502    0 -0.20371915903E+03 -0.49688386470E+03 -0.80684244931E+03  0.96922123829E+03  0.25500000920E-02 0. -1.
       -2    1    3    3    0  502  0.20371915903E+03  0.49688386470E+03 -0.12573781828E+03  0.55154788523E+03  0.25500000920E-02 0.  1.
</event>
<event>
 5   0  0.1537557E-03  0.1197493E+04  0.7818609E-02  0.9115054E-01
       -2   -1    0    0    0  501  0.00000000000E+00  0.00000000000E+00  0.32032651195E+03  0.32032651196E+03  0.25500000920E-02 0. -1.
        2   -1    0    0  501    0  0.00000000000E+00  0.00000000000E+00 -0.11191614448E+04  0.11191614448E+04  0.25500000920E-02 0.  1.
    10030    2    1    2    0    0  0.00000000000E+00  0.00000000000E+00 -0.79883493283E+03  0.14394879567E+04  0.11974925168E+04 0.  0.
        2    1    3    3  502    0 -0.27768583806E+03  0.47122149525E+03 -0.69223800301E+03  0.88224292293E+03  0.25500000920E-02 0. -1.
       -2    1    3    3    0  502  0.27768583806E+03 -0.47122149525E+03 -0.10659692982E+03  0.55724503381E+03  0.25500000920E-02 0.  1.
</event>
<event>
 5   0  0.9358428E-04  0.1188983E+04  0.7818609E-02  0.9122555E-01
       -1   -1    0    0    0  501  0.00000000000E+00  0.00000000000E+00  0.35715663228E+03  0.35715663231E+03  0.50400001928E-02 0.  1.
        1   -1    0    0  501    0  0.00000000000E+00  0.00000000000E+00 -0.98953787224E+03  0.98953787225E+03  0.50400001928E-02 0. -1.
    10030    2    1    2    0    0  0.00000000000E+00  0.00000000000E+00 -0.63238123996E+03  0.13466945046E+04  0.11889827820E+04 0.  0.
        2    1    3    3  502    0  0.33778538391E+03  0.35668799253E+03 -0.69540614512E+03  0.85141940093E+03  0.25500000920E-02 0. -1.
       -2    1    3    3    0  502 -0.33778538391E+03 -0.35668799253E+03  0.63024905164E+02  0.49527510363E+03  0.25500000920E-02 0.  1.
</event>
<event>
 5   0  0.6137750E-04  0.1194357E+04  0.7818609E-02  0.9117810E-01
       -3   -1    0    0    0  501  0.00000000000E+00  0.00000000000E+00  0.53943391337E+03  0.53943392282E+03  0.10100000352E+00 0.  1.
        3   -1    0    0  501    0  0.00000000000E+00  0.00000000000E+00 -0.66110464676E+03  0.66110465448E+03  0.10100000352E+00 0. -1.
    10030    2    1    2    0    0  0.00000000000E+00  0.00000000000E+00 -0.12167073340E+03  0.12005385773E+04  0.11943571946E+04 0.  0.
        4    1    3    3  502    0 -0.40448022468E+02 -0.18670049082E+03 -0.62956180051E+03  0.65790788820E+03  0.12699999809E+01 0. -1.
       -4    1    3    3    0  502  0.40448022468E+02  0.18670049082E+03  0.50789106712E+03  0.54263068910E+03  0.12699999809E+01 0.  1.
</event>
<event>
 5   0  0.1597352E-03  0.1211069E+04  0.7818609E-02  0.9103223E-01
        2   -1    0    0  501    0  0.00000000000E+00  0.00000000000E+00  0.69853398404E+03  0.69853398404E+03  0.25500000920E-02 0.  1.
       -2   -1    0    0    0  501  0.00000000000E+00  0.00000000000E+00 -0.52491614429E+03  0.52491614430E+03  0.25500000920E-02 0. -1.
    10030    2    1    2    0    0  0.00000000000E+00  0.00000000000E+00  0.17361783974E+03  0.12234501283E+04  0.12110685622E+04 0.  0.
        1    1    3    3  502    0 -0.39030431220E+03 -0.29856614760E+02  0.55353104432E+03  0.67795685011E+03  0.50400001928E-02 0.  1.
       -1    1    3    3    0  502  0.39030431220E+03  0.29856614760E+02 -0.37991320457E+03  0.54549327823E+03  0.50400001928E-02 0. -1.
</event>
<event>
 5   0  0.8908478E-04  0.1198293E+04  0.7818609E-02  0.9114352E-01
        1   -1    0    0  501    0  0.00000000000E+00  0.00000000000E+00  0.45312079283E+03  0.45312079286E+03  0.50400001928E-02 0.  1.
       -1   -1    0    0    0  501  0.00000000000E+00  0.00000000000E+00 -0.79223201425E+03  0.79223201426E+03  0.50400001928E-02 0. -1.
    10030    2    1    2    0    0  0.00000000000E+00  0.00000000000E+00 -0.33911122141E+03  0.12453528071E+04  0.11982934506E+04 0.  0.
        4    1    3    3  502    0  0.13463888004E+03  0.13921719773E+03  0.41969064149E+03  0.46222386742E+03  0.12699999809E+01 0.  1.
       -4    1    3    3    0  502 -0.13463888004E+03 -0.13921719773E+03 -0.75880186290E+03  0.78312893971E+03  0.12699999809E+01 0. -1.
</event>
<event>
 5   0  0.9169078E-04  0.1198449E+04  0.7818609E-02  0.9114215E-01
       -1   -1    0    0    0  501  0.00000000000E+00  0.00000000000E+00  0.20828194149E+03  0.20828194155E+03  0.50400001928E-02 0.  1.
        1   -1    0    0  501    0  0.00000000000E+00  0.00000000000E+00 -0.17239613109E+04  0.17239613109E+04  0.50400001928E-02 0. -1.
    10030    2    1    2    0    0  0.00000000000E+00  0.00000000000E+00 -0.15156793694E+04  0.19322432525E+04  0.11984490126E+04 0.  0.
        1    1    3    3  502    0 -0.32183230721E+03 -0.29016477385E+03 -0.14251362110E+04  0.14895586091E+04  0.50400001928E-02 0. -1.
       -1    1    3    3    0  502  0.32183230721E+03  0.29016477385E+03 -0.90543158427E+02  0.44268464341E+03  0.50400001928E-02 0.  1.
</event>
<event>
 5   0  0.9358428E-04  0.1200952E+04  0.7818609E-02  0.9112024E-01
       -1   -1    0    0    0  501  0.00000000000E+00  0.00000000000E+00  0.10798879464E+04  0.10798879464E+04  0.50400001928E-02 0.  1.
        1   -1    0    0  501    0  0.00000000000E+00  0.00000000000E+00 -0.33389697535E+03  0.33389697539E+03  0.50400001928E-02 0. -1.
    10030    2    1    2    0    0  0.00000000000E+00  0.00000000000E+00  0.74599097106E+03  0.14137849218E+04  0.12009518210E+04 0.  0.
        2    1    3    3  502    0 -0.15913669002E+03  0.28454388615E+03  0.96662466005E+03  0.10201239840E+04  0.25500000920E-02 0.  1.
       -2    1    3    3    0  502  0.15913669002E+03 -0.28454388615E+03 -0.22063368899E+03  0.39366093784E+03  0.25500000920E-02 0. -1.
</event>
<event>
 5   0  0.1597352E-03  0.1166022E+04  0.7818609E-02  0.9143128E-01
        2   -1    0    0  501    0  0.00000000000E+00  0.00000000000E+00  0.72477142473E+03  0.72477142474E+03  0.25500000920E-02 0. -1.
       -2   -1    0    0    0  501  0.00000000000E+00  0.00000000000E+00 -0.46897817966E+03  0.46897817967E+03  0.25500000920E-02 0.  1.
    10030    2    1    2    0    0  0.00000000000E+00  0.00000000000E+00  0.25579324507E+03  0.11937496044E+04  0.11660222699E+04 0.  0.
        1    1    3    3  502    0 -0.52163449880E+03 -0.35783041285E+02  0.39194242897E+03  0.65345378110E+03  0.50400001928E-02 0. -1.
       -1    1    3    3    0  502  0.52163449880E+03  0.35783041285E+02 -0.13614918391E+03  0.54029582331E+03  0.50400001928E-02 0.  1.
</event>
<event>
 5   0  0.1567019E-03  0.1195821E+04  0.7818609E-02  0.9116522E-01
        2   -1    0    0  501    0  0.00000000000E+00  0.00000000000E+00  0.49298393959E+03  0.49298393960E+03  0.25500000920E-02 0. -1.
       -2   -1    0    0    0  501  0.00000000000E+00  0.00000000000E+00 -0.72516939412E+03  0.72516939412E+03  0.25500000920E-02 0.  1.
    10030    2    1    2    0    0  0.00000000000E+00  0.00000000000E+00 -0.23218545453E+03  0.12181533337E+04  0.11958208307E+04 0.  0.
        5    1    3    3  502    0 -0.27553048468E+02 -0.23508911889E+03  0.44320436170E+03  0.50247214900E+03  0.46999998093E+01 0. -1.
       -5    1    3    3    0  502  0.27553048468E+02  0.23508911889E+03 -0.67538981623E+03  0.71568118472E+03  0.46999998093E+01 0.  1.
</event>
<event>
 5   0  0.9208078E-04  0.1229340E+04  0.7818609E-02  0.9087556E-01
       -1   -1    0    0    0  501  0.00000000000E+00  0.00000000000E+00  0.32730932253E+03  0.32730932257E+03  0.50400001928E-02 0. -1.
        1   -1    0    0  501    0  0.00000000000E+00  0.00000000000E+00 -0.11543177982E+04  0.11543177982E+04  0.50400001928E-02 0.  1.
    10030    2    1    2    0    0  0.00000000000E+00  0.00000000000E+00 -0.82700847565E+03  0.14816271208E+04  0.12293396220E+04 0.  0.
        3    1    3    3  502    0 -0.23878770827E+03 -0.35423688616E+03 -0.94614639149E+03  0.10381215466E+04  0.10100000352E+00 0.  1.
       -3    1    3    3    0  502  0.23878770827E+03  0.35423688616E+03  0.11913791584E+03  0.44350557418E+03  0.10100000352E+00 0. -1.
</event>
<event>
 5   0  0.1551501E-03  0.1194883E+04  0.7818609E-02  0.9117347E-01
        2   -1    0    0  501    0  0.00000000000E+00  0.00000000000E+00  0.13680210862E+04  0.13680210862E+04  0.25500000920E-02 0.  1.
       -2   -1    0    0    0  501  0.00000000000E+00  0.00000000000E+00 -0.26091428626E+03  0.26091428628E+03  0.25500000920E-02 0. -1.
    10030    2    1    2    0    0  0.00000000000E+00  0.00000000000E+00  0.11071067999E+04  0.16289353725E+04  0.11948828316E+04 0.  0.
        4    1    3    3  502    0 -0.14692819815E+03 -0.56770279406E+03  0.70934882036E+03  0.92035412730E+03  0.12699999809E+01 0. -1.
       -4    1    3    3    0  502  0.14692819815E+03  0.56770279406E+03  0.39775797957E+03  0.70858124517E+03  0.12699999809E+01 0.  1.
</event>
<event>
 5   0  0.8908478E-04  0.1209726E+04  0.7818609E-02  0.9104385E-01
        1   -1    0    0  501    0  0.00000000000E+00  0.00000000000E+00  0.11850975316E+04  0.11850975316E+04  0.50400001928E-02 0.  1.
       -1   -1    0    0    0  501  0.00000000000E+00  0.00000000000E+00 -0.30871675604E+03  0.30871675608E+03  0.50400001928E-02 0. -1.
    10030    2    1    2    0    0  0.00000000000E+00  0.00000000000E+00  0.87638077556E+03  0.14938142877E+04  0.12097263585E+04 0.  0.
        4    1    3    3  502    0 -0.31511296354E+03 -0.70339082627E+02  0.10697873430E+04  0.11174481368E+04  0.12699999809E+01 0.  1.
       -4    1    3    3    0  502  0.31511296354E+03  0.70339082627E+02 -0.19340656740E+03  0.37636615091E+03  0.12699999809E+01 0. -1.
</event>
<event>
 5   0  0.9170776E-04  0.1193351E+04  0.7818609E-02  0.9118696E-01
       -1   -1    0    0    0  501  0.00000000000E+00  0.00000000000E+00  0.69365682784E+03  0.69365682786E+03  0.50400001928E-02 0. -1.
        1   -1    0    0  501    0  0.00000000000E+00  0.00000000000E+00 -0.51325368406E+03  0.51325368408E+03  0.50400001928E-02 0.  1.
    10030    2    1    2    0    0  0.00000000000E+00  0.00000000000E+00  0.18040314378E+03  0.12069105119E+04  0.11933514527E+04 0.  0.
        5    1    3    3  502    0  0.12768674633E+03  0.10796581700E+03  0.66945638139E+03  0.69003946221E+03  0.46999998093E+01 0. -1.
       -5    1    3    3    0  502 -0.12768674633E+03 -0.10796581700E+03 -0.48905323761E+03  0.51687104973E+03  0.46999998093E+01 0.  1.
</event>
<event>
 5   0  0.9358428E-04  0.1196039E+04  0.7818609E-02  0.9116330E-01
       -1   -1    0    0    0  501  0.00000000000E+00  0.00000000000E+00  0.37817740849E+03  0.37817740852E+03  0.50400001928E-02 0. -1.
        1   -1    0    0  501    0  0.00000000000E+00  0.00000000000E+00 -0.94566094078E+03  0.94566094080E+03  0.50400001928E-02 0.  1.
    10030    2    1    2    0    0  0.00000000000E+00  0.00000000000E+00 -0.56748353230E+03  0.13238383493E+04  0.11960394708E+04 0.  0.
        2    1    3    3  502    0 -0.31019310320E+03  0.44419923020E+02  0.28003021521E+03  0.42024970228E+03  0.25500000920E-02 0. -1.
       -2    1    3    3    0  502  0.31019310320E+03 -0.44419923020E+02 -0.84751374750E+03  0.90358864703E+03  0.25500000920E-02 0.  1.
</event>
<event>
 5   0  0.9358428E-04  0.1195427E+04  0.7818609E-02  0.9116869E-01
       -1   -1    0    0    0  501  0.00000000000E+00  0.00000000000E+00  0.30165816559E+03  0.30165816563E+03  0.50400001928E-02 0.  1.
        1   -1    0    0  501    0  0.00000000000E+00  0.00000000000E+00 -0.11843250605E+04  0.11843250605E+04  0.50400001928E-02 0. -1.
    10030    2    1    2    0    0  0.00000000000E+00  0.00000000000E+00 -0.88266689487E+03  0.14859832261E+04  0.11954268279E+04 0.  0.
        2    1    3    3  502    0  0.31049098814E+03 -0.10747511698E+03  0.17933129381E+03  0.37431973957E+03  0.25500000920E-02 0.  1.
       -2    1    3    3    0  502 -0.31049098814E+03  0.10747511698E+03 -0.10619981887E+04  0.11116634865E+04  0.25500000920E-02 0. -1.
</event>
<event>
 5   0  0.9170776E-04  0.1192283E+04  0.7818609E-02  0.9119639E-01
        1   -1    0    0  501    0  0.00000000000E+00  0.00000000000E+00  0.80394008180E+03  0.80394008182E+03  0.50400001928E-02 0. -1.
       -1   -1    0    0    0  501  0.00000000000E+00  0.00000000000E+00 -0.44205335262E+03  0.44205335265E+03  0.50400001928E-02 0.  1.
    10030    2    1    2    0    0  0.00000000000E+00  0.00000000000E+00  0.36188672918E+03  0.12459934345E+04  0.11922825311E+04 0.  0.
        5    1    3    3  502    0 -0.14484086673E+02  0.46908328252E+03 -0.20319332595E+03  0.51142793472E+03  0.46999998093E+01 0.  1.
       -5    1    3    3    0  502  0.14484086673E+02 -0.46908328252E+03  0.56508005513E+03  0.73456549974E+03  0.46999998093E+01 0. -1.
</event>
<event>
 5   0  0.9170776E-04  0.1199723E+04  0.7818609E-02  0.9113099E-01
        1   -1    0    0  501    0  0.00000000000E+00  0.00000000000E+00  0.32883432118E+03  0.32883432122E+03  0.50400001928E-02 0. -1.
       -1   -1    0    0    0  501  0.00000000000E+00  0.00000000000E+00 -0.10942704096E+04  0.10942704097E+04  0.50400001928E-02 0.  1.
    10030    2    1    2    0    0  0.00000000000E+00  0.00000000000E+00 -0.76543608846E+03  0.14231047309E+04  0.11997227469E+04 0.  0.
        5    1    3    3  502    0  0.21018444411E+03 -0.31698496635E+03  0.16749552297E+03  0.41561257158E+03  0.46999998093E+01 0. -1.
       -5    1    3    3    0  502 -0.21018444411E+03  0.31698496635E+03 -0.93293161143E+03  0.10074921593E+04  0.46999998093E+01 0.  1.
</event>
<event>
 5   0  0.9358428E-04  0.1187070E+04  0.7818609E-02  0.9124250E-01
       -1   -1    0    0    0  501  0.00000000000E+00  0.00000000000E+00  0.26092972268E+03  0.26092972273E+03  0.50400001928E-02 0.  1.
        1   -1    0    0  501    0  0.00000000000E+00  0.00000000000E+00 -0.13501092548E+04  0.13501092548E+04  0.50400001928E-02 0. -1.
    10030    2    1    2    0    0  0.00000000000E+00  0.00000000000E+00 -0.10891795321E+04  0.16110389776E+04  0.11870697258E+04 0.  0.
        2    1    3    3  502    0 -0.15449954881E+03 -0.35479060321E+02 -0.13208483933E+04  0.13303267841E+04  0.25500000920E-02 0. -1.
       -2    1    3    3    0  502  0.15449954881E+03  0.35479060321E+02  0.23166886119E+03  0.28071219346E+03  0.25500000920E-02 0.  1.
</event>
<event>
 5   0  0.9358428E-04  0.1206615E+04  0.7818609E-02  0.9107086E-01
       -1   -1    0    0    0  501  0.00000000000E+00  0.00000000000E+00  0.10237963774E+04  0.10237963774E+04  0.50400001928E-02 0. -1.
        1   -1    0    0  501    0  0.00000000000E+00  0.00000000000E+00 -0.35551989046E+03  0.35551989050E+03  0.50400001928E-02 0.  1.
    10030    2    1    2    0    0  0.00000000000E+00  0.00000000000E+00  0.66827648691E+03  0.13793162679E+04  0.12066150604E+04 0.  0.
        2    1    3    3  502    0 -0.12610951784E+03 -0.12595918842E+03  0.99301151679E+03  0.10088811625E+04  0.25500000920E-02 0. -1.
       -2    1    3    3    0  502  0.12610951784E+03  0.12595918842E+03 -0.32473502988E+03  0.37043510535E+03  0.25500000920E-02 0.  1.
</event>
<event>
 5   0  0.6137750E-04  0.1194589E+04  0.7818609E-02  0.9117606E-01
       -4   -1    0    0    0  501  0.00000000000E+00  0.00000000000E+00  0.11219643252E+04  0.11219650440E+04  0.12699999809E+01 0. -1.
        4   -1    0    0  501    0  0.00000000000E+00  0.00000000000E+00 -0.31797638080E+03  0.31797891698E+03  0.12699999809E+01 0.  1.
    10030    2    1    2    0    0  0.00000000000E+00  0.00000000000E+00  0.80398794443E+03  0.14399439610E+04  0.11945886305E+04 0.  0.
        2    1    3    3  502    0 -0.38490488558E+03 -0.14477066772E+03 -0.12016375402E+03  0.42842694239E+03  0.25500000920E-02 0.  1.
       -2    1    3    3    0  502  0.38490488558E+03  0.14477066772E+03  0.92415169845E+03  0.10115170186E+04  0.25500000920E-02 0. -1.
</event>
<event>
 5   0  0.1597352E-03  0.1197731E+04  0.7818609E-02  0.9114845E-01
        2   -1    0    0  501    0  0.00000000000E+00  0.00000000000E+00  0.15266182644E+04  0.15266182644E+04  0.25500000920E-02 0. -1.
       -2   -1    0    0    0  501  0.00000000000E+00  0.00000000000E+00 -0.23492448592E+03  0.23492448593E+03  0.25500000920E-02 0.  1.
    10030    2    1    2    0    0  0.00000000000E+00  0.00000000000E+00  0.12916937784E+04  0.17615427503E+04  0.11977312068E+04 0.  0.
        1    1    3    3  502    0 -0.54989526032E+03  0.15122286277E+03  0.37711351438E+03  0.68371613576E+03  0.50400001928E-02 0. -1.
       -1    1    3    3    0  502  0.54989526032E+03 -0.15122286277E+03  0.91458026406E+03  0.10778266145E+04  0.50400001928E-02 0.  1.
</event>
<event>
 5   0  0.9170776E-04  0.1173941E+04  0.7818609E-02  0.9135977E-01
       -1   -1    0    0    0  501  0.00000000000E+00  0.00000000000E+00  0.69268443960E+03  0.69268443962E+03  0.50400001928E-02 0.  1.
        1   -1    0    0  501    0  0.00000000000E+00  0.00000000000E+00 -0.49739010184E+03  0.49739010186E+03  0.50400001928E-02 0. -1.
    10030    2    1    2    0    0  0.00000000000E+00  0.00000000000E+00  0.19529433777E+03  0.11900745415E+04  0.11739410274E+04 0.  0.
        5    1    3    3  502    0 -0.29806530072E+03  0.39167036436E+03  0.42182896692E+03  0.64823634976E+03  0.46999998093E+01 0.  1.
       -5    1    3    3    0  502  0.29806530072E+03 -0.39167036436E+03 -0.22653462915E+03  0.54183819173E+03  0.46999998093E+01 0. -1.
</event>
<event>
 5   0  0.9358428E-04  0.1189608E+04  0.7818609E-02  0.9122001E-01
       -1   -1    0    0    0  501  0.00000000000E+00  0.00000000000E+00  0.46579806803E+03  0.46579806806E+03  0.50400001928E-02 0. -1.
        1   -1    0    0  501    0  0.00000000000E+00  0.00000000000E+00 -0.75953938011E+03  0.75953938013E+03  0.50400001928E-02 0.  1.
    10030    2    1    2    0    0  0.00000000000E+00  0.00000000000E+00 -0.29374131209E+03  0.12253374482E+04  0.11896082983E+04 0.  0.
        2    1    3    3  502    0 -0.46493485688E+03 -0.19787836568E+03  0.17635621260E+03  0.53518387726E+03  0.25500000920E-02 0. -1.
       -2    1    3    3    0  502  0.46493485688E+03  0.19787836568E+03 -0.47009752469E+03  0.69015357093E+03  0.25500000920E-02 0.  1.
</event>
<event>
 5   0  0.9169078E-04  0.1199434E+04  0.7818609E-02  0.9113352E-01
        1   -1    0    0  501    0  0.00000000000E+00  0.00000000000E+00  0.13441034405E+04  0.13441034405E+04  0.50400001928E-02 0. -1.
       -1   -1    0    0    0  501  0.00000000000E+00  0.00000000000E+00 -0.26758383760E+03  0.26758383765E+03  0.50400001928E-02 0.  1.
    10030    2    1    2    0    0  0.00000000000E+00  0.00000000000E+00  0.10765196029E+04  0.16116872781E+04  0.11994337944E+04 0.  0.
        1    1    3    3  502    0  0.57451765737E+03  0.61983262544E+02  0.32264660050E+03  0.66182572653E+03  0.50400001928E-02 0.  1.
       -1    1    3    3    0  502 -0.57451765737E+03 -0.61983262544E+02  0.75387300236E+03  0.94986155158E+03  0.50400001928E-02 0. -1.
</event>
<event>
 5   0  0.1567019E-03  0.1190606E+04  0.7818609E-02  0.9121119E-01
        2   -1    0    0  501    0  0.00000000000E+00  0.00000000000E+00  0.13442433285E+04  0.13442433285E+04  0.25500000920E-02 0. -1.
       -2   -1    0    0    0  501  0.00000000000E+00  0.00000000000E+00 -0.26363204975E+03  0.26363204976E+03  0.25500000920E-02 0.  1.
    10030    2    1    2    0    0  0.00000000000E+00  0.00000000000E+00  0.10806112788E+04  0.16078753783E+04  0.11906059366E+04 0.  0.
        5    1    3    3  502    0  0.39898060480E+03 -0.32943547674E+03  0.14277617766E+03  0.53676846335E+03  0.46999998093E+01 0.  1.
       -5    1    3    3    0  502 -0.39898060480E+03  0.32943547674E+03  0.93783510113E+03  0.10711069150E+04  0.46999998093E+01 0. -1.
</event>
<event>
 5   0  0.1567019E-03  0.1199886E+04  0.7818609E-02  0.9112957E-01
       -2   -1    0    0    0  501  0.00000000000E+00  0.00000000000E+00  0.28675550469E+03  0.28675550470E+03  0.25500000920E-02 0.  1.
        2   -1    0    0  501    0  0.00000000000E+00  0.00000000000E+00 -0.12551855934E+04  0.12551855934E+04  0.25500000920E-02 0. -1.
    10030    2    1    2    0    0  0.00000000000E+00  0.00000000000E+00 -0.96843008875E+03  0.15419410981E+04  0.11998856251E+04 0.  0.
        5    1    3    3  502    0 -0.44276594064E+03 -0.30840052500E+03 -0.82118061483E+03  0.98260483114E+03  0.46999998093E+01 0. -1.
       -5    1    3    3    0  502  0.44276594064E+03  0.30840052500E+03 -0.14724947391E+03  0.55933626700E+03  0.46999998093E+01 0.  1.
</event>
<event>
 5   0  0.1551501E-03  0.1201111E+04  0.7818609E-02  0.9111885E-01
        2   -1    0    0  501    0  0.00000000000E+00  0.00000000000E+00  0.22697799592E+04  0.22697799592E+04  0.25500000920E-02 0. -1.
       -2   -1    0    0    0  501  0.00000000000E+00  0.00000000000E+00 -0.15889938845E+03  0.15889938847E+03  0.25500000920E-02 0.  1.
    10030    2    1    2    0    0  0.00000000000E+00  0.00000000000E+00  0.21108805708E+04  0.24286793477E+04  0.12011105652E+04 0.  0.
        4    1    3    3  502    0  0.11958623309E+03 -0.24215602806E+03  0.21400555428E+04  0.21570303077E+04  0.12699999809E+01 0. -1.
       -4    1    3    3    0  502 -0.11958623309E+03  0.24215602806E+03 -0.29174972003E+02  0.27164904005E+03  0.12699999809E+01 0.  1.
</event>
<event>
 5   0  0.9170776E-04  0.1214343E+04  0.7818609E-02  0.9100394E-01
       -1   -1    0    0    0  501  0.00000000000E+00  0.00000000000E+00  0.14537275588E+03  0.14537275597E+03  0.50400001928E-02 0. -1.
        1   -1    0    0  501    0  0.00000000000E+00  0.00000000000E+00 -0.25359425228E+04  0.25359425228E+04  0.50400001928E-02 0.  1.
    10030    2    1    2    0    0  0.00000000000E+00  0.00000000000E+00 -0.23905697669E+04  0.26813152788E+04  0.12143425438E+04 0.  0.
        5    1    3    3  502    0 -0.36255994033E+03 -0.46362747330E+03 -0.15245323910E+04  0.16342035508E+04  0.46999998093E+01 0.  1.
       -5    1    3    3    0  502  0.36255994033E+03  0.46362747330E+03 -0.86603737594E+03  0.10471117280E+04  0.46999998093E+01 0. -1.
</event>
<event>
 5   0  0.1537557E-03  0.1202814E+04  0.7818609E-02  0.9110397E-01
       -2   -1    0    0    0  501  0.00000000000E+00  0.00000000000E+00  0.39738115955E+03  0.39738115956E+03  0.25500000920E-02 0.  1.
        2   -1    0    0  501    0  0.00000000000E+00  0.00000000000E+00 -0.91018481786E+03  0.91018481787E+03  0.25500000920E-02 0. -1.
    10030    2    1    2    0    0  0.00000000000E+00  0.00000000000E+00 -0.51280365831E+03  0.13075659774E+04  0.12028138648E+04 0.  0.
        2    1    3    3  502    0 -0.30627203727E+03  0.24971000571E+03  0.23643777233E+03  0.46050023666E+03  0.25500000920E-02 0.  1.
       -2    1    3    3    0  502  0.30627203727E+03 -0.24971000571E+03 -0.74924143065E+03  0.84706574076E+03  0.25500000920E-02 0. -1.
</event>
<event>
 5   0  0.9358428E-04  0.1198806E+04  0.7818609E-02  0.9113903E-01
       -1   -1    0    0    0  501  0.00000000000E+00  0.00000000000E+00  0.31425202793E+03  0.31425202797E+03  0.50400001928E-02 0. -1.
        1   -1    0    0  501    0  0.00000000000E+00  0.00000000000E+00 -0.11432980958E+04  0.11432980958E+04  0.50400001928E-02 0.  1.
    10030    2    1    2    0    0  0.00000000000E+00  0.00000000000E+00 -0.82904606790E+03  0.14575501238E+04  0.11988056476E+04 0.  0.
        2    1    3    3  502    0  0.15088639138E+03 -0.56558245256E+03 -0.57133057690E+03  0.81796628406E+03  0.25500000920E-02 0. -1.
       -2    1    3    3    0  502 -0.15088639138E+03  0.56558245256E+03 -0.25771549101E+03  0.63958383975E+03  0.25500000920E-02 0.  1.
</event>
<event>
 5   0  0.1537557E-03  0.1293811E+04  0.7818609E-02  0.9034487E-01
        2   -1    0    0  501    0  0.00000000000E+00  0.00000000000E+00  0.13127855386E+04  0.13127855386E+04  0.25500000920E-02 0. -1.
       -2   -1    0    0    0  501  0.00000000000E+00  0.00000000000E+00 -0.31877790488E+03  0.31877790489E+03  0.25500000920E-02 0.  1.
    10030    2    1    2    0    0  0.00000000000E+00  0.00000000000E+00  0.99400763374E+03  0.16315634435E+04  0.12938114601E+04 0.  0.
        2    1    3    3  502    0 -0.23421825188E+03  0.11421772439E+03  0.12436734500E+04  0.12706799472E+04  0.25500000920E-02 0. -1.
       -2    1    3    3    0  502  0.23421825188E+03 -0.11421772439E+03 -0.24966581624E+03  0.36088349628E+03  0.25500000920E-02 0.  1.
</event>
<event>
 5   0  0.9170776E-04  0.1189851E+04  0.7818609E-02  0.9121787E-01
        1   -1    0    0  501    0  0.00000000000E+00  0.00000000000E+00  0.57758023151E+03  0.57758023154E+03  0.50400001928E-02 0.  1.
       -1   -1    0    0    0  501  0.00000000000E+00  0.00000000000E+00 -0.61279146088E+03  0.61279146090E+03  0.50400001928E-02 0. -1.
    10030    2    1    2    0    0  0.00000000000E+00  0.00000000000E+00 -0.35211229363E+02  0.11903716924E+04  0.11898508039E+04 0.  0.
        5    1    3    3  502    0 -0.17908086315E+03 -0.16122479404E+03 -0.56176537408E+03  0.61128210776E+03  0.46999998093E+01 0. -1.
       -5    1    3    3    0  502  0.17908086315E+03  0.16122479404E+03  0.52655414472E+03  0.57908958467E+03  0.46999998093E+01 0.  1.
</event>
<event>
 5   0  0.1551501E-03  0.1204285E+04  0.7818609E-02  0.9109114E-01
        2   -1    0    0  501    0  0.00000000000E+00  0.00000000000E+00  0.13650147516E+04  0.13650147516E+04  0.25500000920E-02 0.  1.
       -2   -1    0    0    0  501  0.00000000000E+00  0.00000000000E+00 -0.26562016449E+03  0.26562016450E+03  0.25500000920E-02 0. -1.
    10030    2    1    2    0    0  0.00000000000E+00  0.00000000000E+00  0.10993945871E+04  0.16306349161E+04  0.12042847551E+04 0.  0.
        4    1    3    3  502    0 -0.25907030753E+03  0.40347487001E+03  0.56518033588E+02  0.48280979277E+03  0.12699999809E+01 0. -1.
       -4    1    3    3    0  502  0.25907030753E+03 -0.40347487001E+03  0.10428765535E+04  0.11478251233E+04  0.12699999809E+01 0.  1.
</event>
<event>
 5   0  0.9169078E-04  0.1191757E+04  0.7818609E-02  0.9120103E-01
       -1   -1    0    0    0  501  0.00000000000E+00  0.00000000000E+00  0.14741210941E+03  0.14741210950E+03  0.50400001928E-02 0.  1.
        1   -1    0    0  501    0  0.00000000000E+00  0.00000000000E+00 -0.24086968013E+04  0.24086968013E+04  0.50400001928E-02 0. -1.
    10030    2    1    2    0    0  0.00000000000E+00  0.00000000000E+00 -0.22612846919E+04  0.25561089108E+04  0.11917568150E+04 0.  0.
        1    1    3    3  502    0 -0.28589144674E+01  0.15184087804E+03 -0.23664915850E+04  0.23713595779E+04  0.50400001928E-02 0. -1.
       -1    1    3    3    0  502  0.28589144674E+01 -0.15184087804E+03  0.10520689311E+03  0.18474933293E+03  0.50400001928E-02 0.  1.
</event>
<event>
 5   0  0.9170776E-04  0.1202634E+04  0.7818609E-02  0.9110554E-01
        1   -1    0    0  501    0  0.00000000000E+00  0.00000000000E+00  0.44187795416E+03  0.44187795419E+03  0.50400001928E-02 0.  1.
       -1   -1    0    0    0  501  0.00000000000E+00  0.00000000000E+00 -0.81828518528E+03  0.81828518529E+03  0.50400001928E-02 0. -1.
    10030    2    1    2    0    0  0.00000000000E+00  0.00000000000E+00 -0.37640723112E+03  0.12601631395E+04  0.12026340817E+04 0.  0.
        5    1    3    3  502    0  0.51665830346E+03  0.19383202441E+03  0.62081009878E+02  0.55532224700E+03  0.46999998093E+01 0.  1.
       -5    1    3    3    0  502 -0.51665830346E+03 -0.19383202441E+03 -0.43848824100E+03  0.70484089248E+03  0.46999998093E+01 0. -1.
</event>
<event>
 5   0  0.8908478E-04  0.1205521E+04  0.7818609E-02  0.9108037E-01
        1   -1    0    0  501    0  0.00000000000E+00  0.00000000000E+00  0.16274254384E+04  0.16274254384E+04  0.50400001928E-02 0. -1.
       -1   -1    0    0    0  501  0.00000000000E+00  0.00000000000E+00 -0.22324856400E+03  0.22324856405E+03  0.50400001928E-02 0.  1.
    10030    2    1    2    0    0  0.00000000000E+00  0.00000000000E+00  0.14041768744E+04  0.18506740024E+04  0.12055212851E+04 0.  0.
        4    1    3    3  502    0  0.27008215502E+03  0.58988441051E+02  0.15243620600E+04  0.15492273266E+04  0.12699999809E+01 0. -1.
       -4    1    3    3    0  502 -0.27008215502E+03 -0.58988441051E+02 -0.12018518560E+03  0.30144667584E+03  0.12699999809E+01 0.  1.
</event>
<event>
 5   0  0.1537557E-03  0.1215757E+04  0.7818609E-02  0.9099175E-01
        2   -1    0    0  501    0  0.00000000000E+00  0.00000000000E+00  0.79153038318E+03  0.79153038318E+03  0.25500000920E-02 0. -1.
       -2   -1    0    0    0  501  0.00000000000E+00  0.00000000000E+00 -0.46683757633E+03  0.46683757634E+03  0.25500000920E-02 0.  1.
    10030    2    1    2    0    0  0.00000000000E+00  0.00000000000E+00  0.32469280685E+03  0.12583679595E+04  0.12157567613E+04 0.  0.
        2    1    3    3  502    0 -0.44454199549E+02 -0.12283036374E+03 -0.45213868629E+03  0.47063028564E+03  0.25500000920E-02 0.  1.
       -2    1    3    3    0  502  0.44454199549E+02  0.12283036374E+03  0.77683149314E+03  0.78773767388E+03  0.25500000920E-02 0. -1.
</event>
<event>
 5   0  0.1597352E-03  0.1208450E+04  0.7818609E-02  0.9105492E-01
       -2   -1    0    0    0  501  0.00000000000E+00  0.00000000000E+00  0.57163476328E+03  0.57163476328E+03  0.25500000920E-02 0.  1.
        2   -1    0    0  501    0  0.00000000000E+00  0.00000000000E+00 -0.63867300632E+03  0.63867300632E+03  0.25500000920E-02 0. -1.
    10030    2    1    2    0    0  0.00000000000E+00  0.00000000000E+00 -0.67038243038E+02  0.12103077696E+04  0.12084497388E+04 0.  0.
        1    1    3    3  502    0  0.37393470598E+03  0.26819030868E+03  0.35866242161E+03  0.58343117735E+03  0.50400001928E-02 0.  1.
       -1    1    3    3    0  502 -0.37393470598E+03 -0.26819030868E+03 -0.42570066465E+03  0.62687659225E+03  0.50400001928E-02 0. -1.
</event>
<event>
 5   0  0.9170776E-04  0.1207756E+04  0.7818609E-02  0.9106095E-01
       -1   -1    0    0    0  501  0.00000000000E+00  0.00000000000E+00  0.20919042811E+03  0.20919042817E+03  0.50400001928E-02 0.  1.
        1   -1    0    0  501    0  0.00000000000E+00  0.00000000000E+00 -0.17432382888E+04  0.17432382888E+04  0.50400001928E-02 0. -1.
    10030    2    1    2    0    0  0.00000000000E+00  0.00000000000E+00 -0.15340478607E+04  0.19524287170E+04  0.12077562072E+04 0.  0.
        5    1    3    3  502    0 -0.10618917213E+03 -0.17567734031E+03  0.15102569674E+03  0.25489119100E+03  0.46999998093E+01 0.  1.
       -5    1    3    3    0  502  0.10618917213E+03  0.17567734031E+03 -0.16850735574E+04  0.16975375260E+04  0.46999998093E+01 0. -1.
</event>
<event>
 5   0  0.1567019E-03  0.1193292E+04  0.7818609E-02  0.9118749E-01
        2   -1    0    0  501    0  0.00000000000E+00  0.00000000000E+00  0.58530536576E+03  0.58530536577E+03  0.25500000920E-02 0. -1.
       -2   -1    0    0    0  501  0.00000000000E+00  0.00000000000E+00 -0.60820604621E+03  0.60820604621E+03  0.25500000920E-02 0.  1.
    10030    2    1    2    0    0  0.00000000000E+00  0.00000000000E+00 -0.22900680444E+02  0.11935114120E+04  0.11932916866E+04 0.  0.
        5    1    3    3  502    0 -0.26356568508E+03 -0.38160387971E+03 -0.38685367765E+03  0.60395881422E+03  0.46999998093E+01 0.  1.
       -5    1    3    3    0  502  0.26356568508E+03  0.38160387971E+03  0.36395299721E+03  0.58955259777E+03  0.46999998093E+01 0. -1.
</event>
<event>
 5   0  0.1567019E-03  0.1197189E+04  0.7818609E-02  0.9115321E-01
       -2   -1    0    0    0  501  0.00000000000E+00  0.00000000000E+00  0.22691442596E+03  0.22691442597E+03  0.25500000920E-02 0. -1.
        2   -1    0    0  501    0  0.00000000000E+00  0.00000000000E+00 -0.15790767148E+04  0.15790767148E+04  0.25500000920E-02 0.  1.
    10030    2    1    2    0    0  0.00000000000E+00  0.00000000000E+00 -0.13521622889E+04  0.18059911408E+04  0.11971888511E+04 0.  0.
        5    1    3    3  502    0 -0.41223617111E+03 -0.90113326492E+02 -0.35651448041E+02  0.42349992695E+03  0.46999998093E+01 0. -1.
       -5    1    3    3    0  502  0.41223617111E+03  0.90113326492E+02 -0.13165108408E+04  0.13824912139E+04  0.46999998093E+01 0.  1.
</event>
<event>
 5   0  0.1567019E-03  0.1215771E+04  0.7818609E-02  0.9099163E-01
        2   -1    0    0  501    0  0.00000000000E+00  0.00000000000E+00  0.14584844265E+04  0.14584844265E+04  0.25500000920E-02 0. -1.
       -2   -1    0    0    0  501  0.00000000000E+00  0.00000000000E+00 -0.25336202905E+03  0.25336202906E+03  0.25500000920E-02 0.  1.
    10030    2    1    2    0    0  0.00000000000E+00  0.00000000000E+00  0.12051223974E+04  0.17118464555E+04  0.12157706587E+04 0.  0.
        5    1    3    3  502    0 -0.12210127508E+03  0.58702820148E+03  0.74330582427E+03  0.95500600475E+03  0.46999998093E+01 0. -1.
       -5    1    3    3    0  502  0.12210127508E+03 -0.58702820148E+03  0.46181657316E+03  0.75684045079E+03  0.46999998093E+01 0.  1.
</event>
<event>
 5   0  0.8908478E-04  0.1283865E+04  0.7818609E-02  0.9042459E-01
        1   -1    0    0  501    0  0.00000000000E+00  0.00000000000E+00  0.78603101468E+03  0.78603101469E+03  0.50400001928E-02 0. -1.
       -1   -1    0    0    0  501  0.00000000000E+00  0.00000000000E+00 -0.52425093952E+03  0.52425093954E+03  0.50400001928E-02 0.  1.
    10030    2    1    2    0    0  0.00000000000E+00  0.00000000000E+00  0.26178007516E+03  0.13102819542E+04  0.12838652546E+04 0.  0.
        4    1    3    3  502    0  0.37940298044E+03  0.51427950708E+03  0.19251332135E+03  0.66745263859E+03  0.12699999809E+01 0.  1.
       -4    1    3    3    0  502 -0.37940298044E+03 -0.51427950708E+03  0.69266753807E+02  0.64282931564E+03  0.12699999809E+01 0. -1.
</event>
<event>
 5   0  0.1551501E-03  0.1202444E+04  0.7818609E-02  0.9110720E-01
        2   -1    0    0  501    0  0.00000000000E+00  0.00000000000E+00  0.58622422642E+03  0.58622422642E+03  0.25500000920E-02 0. -1.
       -2   -1    0    0    0  501  0.00000000000E+00  0.00000000000E+00 -0.61660324845E+03  0.61660324846E+03  0.25500000920E-02 0.  1.
    10030    2    1    2    0    0  0.00000000000E+00  0.00000000000E+00 -0.30379022038E+02  0.12028274749E+04  0.12024437822E+04 0.  0.
        4    1    3    3  502    0  0.39213322370E+03  0.24611600640E+03  0.36850112459E+03  0.59172311554E+03  0.12699999809E+01 0. -1.
       -4    1    3    3    0  502 -0.39213322370E+03 -0.24611600640E+03 -0.39888014663E+03  0.61110435934E+03  0.12699999809E+01 0.  1.
</event>
<event>
 5   0  0.9169078E-04  0.1197461E+04  0.7818609E-02  0.9115082E-01
       -1   -1    0    0    0  501  0.00000000000E+00  0.00000000000E+00  0.32211776743E+03  0.32211776747E+03  0.50400001928E-02 0. -1.
        1   -1    0    0  501    0  0.00000000000E+00  0.00000000000E+00 -0.11128793676E+04  0.11128793676E+04  0.50400001928E-02 0.  1.
    10030    2    1    2    0    0  0.00000000000E+00  0.00000000000E+00 -0.79076160021E+03  0.14349971351E+04  0.11974610096E+04 0.  0.
        1    1    3    3  502    0 -0.24832943954E+03 -0.53959516522E+03 -0.48543997030E+03  0.76712607677E+03  0.50400001928E-02 0. -1.
       -1    1    3    3    0  502  0.24832943954E+03  0.53959516522E+03 -0.30532162991E+03  0.66787105835E+03  0.50400001928E-02 0.  1.
</event>
<event>
 5   0  0.6137750E-04  0.1201488E+04  0.7818609E-02  0.9111555E-01
       -3   -1    0    0    0  501  0.00000000000E+00  0.00000000000E+00  0.61008436841E+03  0.61008437677E+03  0.10100000352E+00 0.  1.
        3   -1    0    0  501    0  0.00000000000E+00  0.00000000000E+00 -0.59154645574E+03  0.59154646436E+03  0.10100000352E+00 0. -1.
    10030    2    1    2    0    0  0.00000000000E+00  0.00000000000E+00  0.18537912674E+02  0.12016308411E+04  0.12014878377E+04 0.  0.
        5    1    3    3  502    0 -0.48080537212E+03  0.35259344848E+03 -0.64055663560E+02  0.59968422007E+03  0.46999998093E+01 0. -1.
       -5    1    3    3    0  502  0.48080537212E+03 -0.35259344848E+03  0.82593576234E+02  0.60194662106E+03  0.46999998093E+01 0.  1.
</event>
<event>
 5   0  0.9169078E-04  0.1201696E+04  0.7818609E-02  0.9111373E-01
       -1   -1    0    0    0  501  0.00000000000E+00  0.00000000000E+00  0.27783446971E+03  0.27783446975E+03  0.50400001928E-02 0.  1.
        1   -1    0    0  501    0  0.00000000000E+00  0.00000000000E+00 -0.12994006636E+04  0.12994006637E+04  0.50400001928E-02 0. -1.
    10030    2    1    2    0    0  0.00000000000E+00  0.00000000000E+00 -0.10215661939E+04  0.15772351334E+04  0.12016959588E+04 0.  0.
        1    1    3    3  502    0 -0.15355560379E+03  0.19496706970E+03 -0.12289860484E+04  0.12537935192E+04  0.50400001928E-02 0. -1.
       -1    1    3    3    0  502  0.15355560379E+03 -0.19496706970E+03  0.20741985446E+03  0.32344161416E+03  0.50400001928E-02 0.  1.
</event>
<event>
 5   0  0.9358428E-04  0.1186122E+04  0.7818609E-02  0.9125092E-01
       -1   -1    0    0    0  501  0.00000000000E+00  0.00000000000E+00  0.44325329684E+03  0.44325329687E+03  0.50400001928E-02 0. -1.
        1   -1    0    0  501    0  0.00000000000E+00  0.00000000000E+00 -0.79349936093E+03  0.79349936094E+03  0.50400001928E-02 0.  1.
    10030    2    1    2    0    0  0.00000000000E+00  0.00000000000E+00 -0.35024606408E+03  0.12367526578E+04  0.11861217607E+04 0.  0.
        2    1    3    3  502    0  0.35540305492E+02  0.24509871969E+03  0.38675293030E+03  0.45925409612E+03  0.25500000920E-02 0. -1.
       -2    1    3    3    0  502 -0.35540305492E+02 -0.24509871969E+03 -0.73699899438E+03  0.77749856169E+03  0.25500000920E-02 0.  1.
</event>
<event>
 5   0  0.1551501E-03  0.1177952E+04  0.7818609E-02  0.9132377E-01
        2   -1    0    0  501    0  0.00000000000E+00  0.00000000000E+00  0.23545150581E+04  0.23545150581E+04  0.25500000920E-02 0. -1.
       -2   -1    0    0    0  501  0.00000000000E+00  0.00000000000E+00 -0.14733084944E+03  0.14733084946E+03  0.25500000920E-02 0.  1.
    10030    2    1    2    0    0  0.00000000000E+00  0.00000000000E+00  0.22071842087E+04  0.25018459076E+04  0.11779519575E+04 0.  0.
        4    1    3    3  502    0  0.96368517710E+02  0.13115864139E+03  0.23058020712E+04  0.23115393756E+04  0.12699999809E+01 0. -1.
       -4    1    3    3    0  502 -0.96368517710E+02 -0.13115864139E+03 -0.98617862518E+02  0.19030653201E+03  0.12699999809E+01 0.  1.
</event>
<event>
 5   0  0.8908478E-04  0.1198706E+04  0.7818609E-02  0.9113990E-01
        1   -1    0    0  501    0  0.00000000000E+00  0.00000000000E+00  0.42278607321E+03  0.42278607324E+03  0.50400001928E-02 0.  1.
       -1   -1    0    0    0  501  0.00000000000E+00  0.00000000000E+00 -0.84965919801E+03  0.84965919802E+03  0.50400001928E-02 0. -1.
    10030    2    1    2    0    0  0.00000000000E+00  0.00000000000E+00 -0.42687312480E+03  0.12724452713E+04  0.11987060956E+04 0.  0.
        4    1    3    3  502    0 -0.51800397728E+03  0.92801631985E+02  0.91057862152E+02  0.53407247686E+03  0.12699999809E+01 0.  1.
       -4    1    3    3    0  502  0.51800397728E+03 -0.92801631985E+02 -0.51793098695E+03  0.73837279440E+03  0.12699999809E+01 0. -1.
</event>
<event>
 5   0  0.9169078E-04  0.1200900E+04  0.7818609E-02  0.9112069E-01
        1   -1    0    0  501    0  0.00000000000E+00  0.00000000000E+00  0.52022071910E+03  0.52022071913E+03  0.50400001928E-02 0. -1.
       -1   -1    0    0    0  501  0.00000000000E+00  0.00000000000E+00 -0.69305284604E+03  0.69305284606E+03  0.50400001928E-02 0.  1.
    10030    2    1    2    0    0  0.00000000000E+00  0.00000000000E+00 -0.17283212694E+03  0.12132735652E+04  0.12009004121E+04 0.  0.
        1    1    3    3  502    0 -0.54126394972E+03  0.11660486493E+03 -0.32113951554E+03  0.64007339131E+03  0.50400001928E-02 0.  1.
       -1    1    3    3    0  502  0.54126394972E+03 -0.11660486493E+03  0.14830738860E+03  0.57320017388E+03  0.50400001928E-02 0. -1.
</event>
<event>
 5   0  0.1597352E-03  0.1149568E+04  0.7818609E-02  0.9158182E-01
       -2   -1    0    0    0  501  0.00000000000E+00  0.00000000000E+00  0.43006897875E+03  0.43006897876E+03  0.25500000920E-02 0. -1.
        2   -1    0    0  501    0  0.00000000000E+00  0.00000000000E+00 -0.76819439419E+03  0.76819439419E+03  0.25500000920E-02 0.  1.
    10030    2    1    2    0    0  0.00000000000E+00  0.00000000000E+00 -0.33812541544E+03  0.11982633730E+04  0.11495678816E+04 0.  0.
        1    1    3    3  502    0 -0.35168201682E+03 -0.17512751161E+03  0.26826493314E+03  0.47572677101E+03  0.50400001928E-02 0. -1.
       -1    1    3    3    0  502  0.35168201682E+03  0.17512751161E+03 -0.60639034858E+03  0.72253660195E+03  0.50400001928E-02 0.  1.
</event>
<event>
 5   0  0.1567019E-03  0.1205069E+04  0.7818609E-02  0.9108431E-01
       -2   -1    0    0    0  501  0.00000000000E+00  0.00000000000E+00  0.31928759307E+03  0.31928759308E+03  0.25500000920E-02 0.  1.
        2   -1    0    0  501    0  0.00000000000E+00  0.00000000000E+00 -0.11370552073E+04  0.11370552073E+04  0.25500000920E-02 0. -1.
    10030    2    1    2    0    0  0.00000000000E+00  0.00000000000E+00 -0.81776761425E+03  0.14563428004E+04  0.12050686625E+04 0.  0.
        5    1    3    3  502    0  0.22503385389E+02  0.25507483234E+03 -0.10680017832E+04  0.10982802336E+04  0.46999998093E+01 0. -1.
       -5    1    3    3    0  502 -0.22503385389E+02 -0.25507483234E+03  0.25023416898E+03  0.35806256684E+03  0.46999998093E+01 0.  1.
</event>
<event>
 5   0  0.8908478E-04  0.1201594E+04  0.7818609E-02  0.9111462E-01
       -1   -1    0    0    0  501  0.00000000000E+00  0.00000000000E+00  0.36528518126E+03  0.36528518130E+03  0.50400001928E-02 0.  1.
        1   -1    0    0  501    0  0.00000000000E+00  0.00000000000E+00 -0.98815186441E+03  0.98815186442E+03  0.50400001928E-02 0. -1.
    10030    2    1    2    0    0  0.00000000000E+00  0.00000000000E+00 -0.62286668314E+03  0.13534370457E+04  0.12015943291E+04 0.  0.
        4    1    3    3  502    0 -0.52646436347E+03  0.26517064128E+03 -0.18068041269E+03  0.61654458024E+03  0.12699999809E+01 0.  1.
       -4    1    3    3    0  502  0.52646436347E+03 -0.26517064128E+03 -0.44218627045E+03  0.73689246547E+03  0.12699999809E+01 0. -1.
</event>
<event>
 5   0  0.1551501E-03  0.1200748E+04  0.7818609E-02  0.9112202E-01
        2   -1    0    0  501    0  0.00000000000E+00  0.00000000000E+00  0.17283187211E+04  0.17283187211E+04  0.25500000920E-02 0.  1.
       -2   -1    0    0    0  501  0.00000000000E+00  0.00000000000E+00 -0.20855457147E+03  0.20855457149E+03  0.25500000920E-02 0. -1.
    10030    2    1    2    0    0  0.00000000000E+00  0.00000000000E+00  0.15197641496E+04  0.19368732926E+04  0.12007477175E+04 0.  0.
        4    1    3    3  502    0 -0.25203186165E+03  0.28915784112E+03  0.15048884290E+04  0.15530045437E+04  0.12699999809E+01 0.  1.
       -4    1    3    3    0  502  0.25203186165E+03 -0.28915784112E+03  0.14875720649E+02  0.38386874883E+03  0.12699999809E+01 0. -1.
</event>
<event>
 5   0  0.1537557E-03  0.1218143E+04  0.7818609E-02  0.9097123E-01
        2   -1    0    0  501    0  0.00000000000E+00  0.00000000000E+00  0.49025903188E+03  0.49025903189E+03  0.25500000920E-02 0.  1.
       -2   -1    0    0    0  501  0.00000000000E+00  0.00000000000E+00 -0.75667751702E+03  0.75667751702E+03  0.25500000920E-02 0. -1.
    10030    2    1    2    0    0  0.00000000000E+00  0.00000000000E+00 -0.26641848514E+03  0.12469365489E+04  0.12181428273E+04 0.  0.
        2    1    3    3  502    0 -0.28186225962E+03 -0.45083964707E+03 -0.43732649626E+03  0.68844548448E+03  0.25500000920E-02 0. -1.
       -2    1    3    3    0  502  0.28186225962E+03  0.45083964707E+03  0.17090801113E+03  0.55849106442E+03  0.25500000920E-02 0.  1.
</event>
<event>
 5   0  0.9169078E-04  0.1153143E+04  0.7818609E-02  0.9154888E-01
       -1   -1    0    0    0  501  0.00000000000E+00  0.00000000000E+00  0.56304410900E+03  0.56304410902E+03  0.50400001928E-02 0.  1.
        1   -1    0    0  501    0  0.00000000000E+00  0.00000000000E+00 -0.59042437495E+03  0.59042437497E+03  0.50400001928E-02 0. -1.
    10030    2    1    2    0    0  0.00000000000E+00  0.00000000000E+00 -0.27380265949E+02  0.11534684840E+04  0.11531434709E+04 0.  0.
        1    1    3    3  502    0 -0.27830194023E+03 -0.45474369564E+03  0.20589660756E+03  0.57152183833E+03  0.50400001928E-02 0.  1.
       -1    1    3    3    0  502  0.27830194023E+03  0.45474369564E+03 -0.23327687351E+03  0.58194664566E+03  0.50400001928E-02 0. -1.
</event>
<event>
 5   0  0.1537557E-03  0.1197642E+04  0.7818609E-02  0.9114923E-01
        2   -1    0    0  501    0  0.00000000000E+00  0.00000000000E+00  0.61474498856E+03  0.61474498857E+03  0.25500000920E-02 0.  1.
       -2   -1    0    0    0  501  0.00000000000E+00  0.00000000000E+00 -0.58330981343E+03  0.58330981343E+03  0.25500000920E-02 0. -1.
    10030    2    1    2    0    0  0.00000000000E+00  0.00000000000E+00  0.31435175136E+02  0.11980548020E+04  0.11976423249E+04 0.  0.
        2    1    3    3  502    0  0.12713473596E+03 -0.81378201277E+02  0.59540067047E+03  0.61423742245E+03  0.25500000920E-02 0.  1.
       -2    1    3    3    0  502 -0.12713473596E+03  0.81378201277E+02 -0.56396549534E+03  0.58381737955E+03  0.25500000920E-02 0. -1.
</event>
<event>
 5   0  0.9358428E-04  0.1150997E+04  0.7818609E-02  0.9156864E-01
       -1   -1    0    0    0  501  0.00000000000E+00  0.00000000000E+00  0.10523009686E+04  0.10523009686E+04  0.50400001928E-02 0. -1.
        1   -1    0    0  501    0  0.00000000000E+00  0.00000000000E+00 -0.31473770641E+03  0.31473770645E+03  0.50400001928E-02 0.  1.
    10030    2    1    2    0    0  0.00000000000E+00  0.00000000000E+00  0.73756326215E+03  0.13670386750E+04  0.11509974689E+04 0.  0.
        2    1    3    3  502    0  0.43077061330E+03 -0.34370123130E+03  0.17180634067E+03  0.57724455509E+03  0.25500000920E-02 0.  1.
       -2    1    3    3    0  502 -0.43077061330E+03  0.34370123130E+03  0.56575692149E+03  0.78979411994E+03  0.25500000920E-02 0. -1.
</event>
<event>
 5   0  0.8908478E-04  0.1195057E+04  0.7818609E-02  0.9117194E-01
        1   -1    0    0  501    0  0.00000000000E+00  0.00000000000E+00  0.82749070336E+03  0.82749070338E+03  0.50400001928E-02 0. -1.
       -1   -1    0    0    0  501  0.00000000000E+00  0.00000000000E+00 -0.43147384090E+03  0.43147384093E+03  0.50400001928E-02 0.  1.
    10030    2    1    2    0    0  0.00000000000E+00  0.00000000000E+00  0.39601686246E+03  0.12589645443E+04  0.11950574750E+04 0.  0.
        4    1    3    3  502    0  0.42655250353E+03 -0.10977158848E+03  0.62338605347E+03  0.76328803506E+03  0.12699999809E+01 0. -1.
       -4    1    3    3    0  502 -0.42655250353E+03  0.10977158848E+03 -0.22736919101E+03  0.49567650925E+03  0.12699999809E+01 0.  1.
</event>
<event>
 5   0  0.1597352E-03  0.1204471E+04  0.7818609E-02  0.9108952E-01
       -2   -1    0    0    0  501  0.00000000000E+00  0.00000000000E+00  0.33151127379E+03  0.33151127380E+03  0.25500000920E-02 0. -1.
        2   -1    0    0  501    0  0.00000000000E+00  0.00000000000E+00 -0.10940424789E+04  0.10940424789E+04  0.25500000920E-02 0.  1.
    10030    2    1    2    0    0  0.00000000000E+00  0.00000000000E+00 -0.76253120514E+03  0.14255537527E+04  0.12044706983E+04 0.  0.
        1    1    3    3  502    0 -0.11426367883E+03 -0.57688757867E+03 -0.22771392620E+03  0.63064181508E+03  0.50400001928E-02 0. -1.
       -1    1    3    3    0  502  0.11426367883E+03  0.57688757867E+03 -0.53481727894E+03  0.79491193764E+03  0.50400001928E-02 0.  1.
</event>
<event>
 5   0  0.1537557E-03  0.1199728E+04  0.7818609E-02  0.9113094E-01
        2   -1    0    0  501    0  0.00000000000E+00  0.00000000000E+00  0.16238196322E+04  0.16238196322E+04  0.25500000920E-02 0.  1.
       -2   -1    0    0    0  501  0.00000000000E+00  0.00000000000E+00 -0.22159916233E+03  0.22159916235E+03  0.25500000920E-02 0. -1.
    10030    2    1    2    0    0  0.00000000000E+00  0.00000000000E+00  0.14022204699E+04  0.18454187945E+04  0.11997284198E+04 0.  0.
        2    1    3    3  502    0  0.48216199125E+03 -0.68306665363E+02  0.12398989542E+04  0.13321018741E+04  0.25500000920E-02 0.  1.
       -2    1    3    3    0  502 -0.48216199125E+03  0.68306665363E+02  0.16232151562E+03  0.51331692041E+03  0.25500000920E-02 0. -1.
</event>
<event>
 5   0  0.9169078E-04  0.1198760E+04  0.7818609E-02  0.9113942E-01
        1   -1    0    0  501    0  0.00000000000E+00  0.00000000000E+00  0.42703758611E+03  0.42703758614E+03  0.50400001928E-02 0. -1.
       -1   -1    0    0    0  501  0.00000000000E+00  0.00000000000E+00 -0.84127625808E+03  0.84127625810E+03  0.50400001928E-02 0.  1.
    10030    2    1    2    0    0  0.00000000000E+00  0.00000000000E+00 -0.41423867197E+03  0.12683138442E+04  0.11987603306E+04 0.  0.
        1    1    3    3  502    0  0.16822916564E+03  0.14166608081E+03  0.38280339211E+03  0.44148473095E+03  0.50400001928E-02 0. -1.
       -1    1    3    3    0  502 -0.16822916564E+03 -0.14166608081E+03 -0.79704206408E+03  0.82682911328E+03  0.50400001928E-02 0.  1.
</event>
<event>
 5   0  0.9358428E-04  0.1197314E+04  0.7818609E-02  0.9115211E-01
        1   -1    0    0  501    0  0.00000000000E+00  0.00000000000E+00  0.92713489177E+03  0.92713489179E+03  0.50400001928E-02 0.  1.
       -1   -1    0    0    0  501  0.00000000000E+00  0.00000000000E+00 -0.38655687651E+03  0.38655687654E+03  0.50400001928E-02 0. -1.
    10030    2    1    2    0    0  0.00000000000E+00  0.00000000000E+00  0.54057801527E+03  0.13136917683E+04  0.11973142744E+04 0.  0.
        2    1    3    3  502    0 -0.53315018849E+03 -0.26553333765E+03  0.33642462470E+03  0.68406038110E+03  0.25500000920E-02 0. -1.
       -2    1    3    3    0  502  0.53315018849E+03  0.26553333765E+03  0.20415339057E+03  0.62963138722E+03  0.25500000920E-02 0.  1.
</event>
<event>
 5   0  0.1597352E-03  0.1202932E+04  0.7818609E-02  0.9110294E-01
        2   -1    0    0  501    0  0.00000000000E+00  0.00000000000E+00  0.65250794004E+03  0.65250794005E+03  0.25500000920E-02 0.  1.
       -2   -1    0    0    0  501  0.00000000000E+00  0.00000000000E+00 -0.55441633274E+03  0.55441633275E+03  0.25500000920E-02 0. -1.
    10030    2    1    2    0    0  0.00000000000E+00  0.00000000000E+00  0.98091607299E+02  0.12069242728E+04  0.12029315179E+04 0.  0.
        1    1    3    3  502    0  0.11816608712E+03 -0.58730441911E+03  0.10280868208E+03  0.60783166254E+03  0.50400001928E-02 0. -1.
       -1    1    3    3    0  502 -0.11816608712E+03  0.58730441911E+03 -0.47170747819E+01  0.59909261026E+03  0.50400001928E-02 0.  1.
</event>
<event>
 5   0  0.9358428E-04  0.1208131E+04  0.7818609E-02  0.9105769E-01
       -1   -1    0    0    0  501  0.00000000000E+00  0.00000000000E+00  0.20199632179E+03  0.20199632185E+03  0.50400001928E-02 0. -1.
        1   -1    0    0  501    0  0.00000000000E+00  0.00000000000E+00 -0.18064432235E+04  0.18064432235E+04  0.50400001928E-02 0.  1.
    10030    2    1    2    0    0  0.00000000000E+00  0.00000000000E+00 -0.16044469017E+04  0.20084395453E+04  0.12081306001E+04 0.  0.
        2    1    3    3  502    0  0.57669903469E+03  0.15709289626E+03 -0.65696297321E+03  0.88817808059E+03  0.25500000920E-02 0. -1.
       -2    1    3    3    0  502 -0.57669903469E+03 -0.15709289626E+03 -0.94748392849E+03  0.11202614648E+04  0.25500000920E-02 0.  1.
</event>
<event>
 5   0  0.9208078E-04  0.1206266E+04  0.7818609E-02  0.9107389E-01
        1   -1    0    0  501    0  0.00000000000E+00  0.00000000000E+00  0.15223221982E+04  0.15223221982E+04  0.50400001928E-02 0.  1.
       -1   -1    0    0    0  501  0.00000000000E+00  0.00000000000E+00 -0.23895710267E+03  0.23895710272E+03  0.50400001928E-02 0. -1.
    10030    2    1    2    0    0  0.00000000000E+00  0.00000000000E+00  0.12833650956E+04  0.17612793009E+04  0.12062664745E+04 0.  0.
        3    1    3    3  502    0  0.20942488513E+02 -0.52760509622E+03  0.10672832760E+04  0.11907557797E+04  0.10100000352E+00 0.  1.
       -3    1    3    3    0  502 -0.20942488513E+02  0.52760509622E+03  0.21608181954E+03  0.57052352127E+03  0.10100000352E+00 0. -1.
</event>
<event>
 5   0  0.1551501E-03  0.1196527E+04  0.7818609E-02  0.9115902E-01
       -2   -1    0    0    0  501  0.00000000000E+00  0.00000000000E+00  0.52203179653E+03  0.52203179654E+03  0.25500000920E-02 0.  1.
        2   -1    0    0  501    0  0.00000000000E+00  0.00000000000E+00 -0.68562726402E+03  0.68562726402E+03  0.25500000920E-02 0. -1.
    10030    2    1    2    0    0  0.00000000000E+00  0.00000000000E+00 -0.16359546749E+03  0.12076590606E+04  0.11965270284E+04 0.  0.
        4    1    3    3  502    0  0.57008510977E+03 -0.55212928188E+02 -0.25624125753E+03  0.62746051253E+03  0.12699999809E+01 0. -1.
       -4    1    3    3    0  502 -0.57008510977E+03  0.55212928188E+02  0.92645790048E+02  0.58019854803E+03  0.12699999809E+01 0.  1.
</event>
<event>
 5   0  0.1551501E-03  0.1169312E+04  0.7818609E-02  0.9140150E-01
       -2   -1    0    0    0  501  0.00000000000E+00  0.00000000000E+00  0.70230951685E+03  0.70230951686E+03  0.25500000920E-02 0. -1.
        2   -1    0    0  501    0  0.00000000000E+00  0.00000000000E+00 -0.48671244993E+03  0.48671244993E+03  0.25500000920E-02 0.  1.
    10030    2    1    2    0    0  0.00000000000E+00  0.00000000000E+00  0.21559706693E+03  0.11890219668E+04  0.11693122518E+04 0.  0.
        4    1    3    3  502    0 -0.35617308706E+03 -0.76880706029E+02 -0.35712954412E+03  0.51020881518E+03  0.12699999809E+01 0.  1.
       -4    1    3    3    0  502  0.35617308706E+03  0.76880706029E+02  0.57272661105E+03  0.67881315161E+03  0.12699999809E+01 0. -1.
</event>
<event>
 5   0  0.1551501E-03  0.1205020E+04  0.7818609E-02  0.9108473E-01
        2   -1    0    0  501    0  0.00000000000E+00  0.00000000000E+00  0.87054982308E+03  0.87054982308E+03  0.25500000920E-02 0. -1.
       -2   -1    0    0    0  501  0.00000000000E+00  0.00000000000E+00 -0.41699916597E+03  0.41699916598E+03  0.25500000920E-02 0.  1.
    10030    2    1    2    0    0  0.00000000000E+00  0.00000000000E+00  0.45355065710E+03  0.12875489891E+04  0.12050204150E+04 0.  0.
        4    1    3    3  502    0  0.80528446963E+01 -0.12037503845E+03 -0.40395981819E+03  0.42159239296E+03  0.12699999809E+01 0.  1.
       -4    1    3    3    0  502 -0.80528446963E+01  0.12037503845E+03  0.85751047529E+03  0.86595659610E+03  0.12699999809E+01 0. -1.
</event>
<event>
 5   0  0.1647550E-03  0.1204807E+04  0.7818609E-02  0.9108660E-01
       -2   -1    0    0    0  501  0.00000000000E+00  0.00000000000E+00  0.39120023461E+03  0.39120023462E+03  0.25500000920E-02 0. -1.
        2   -1    0    0  501    0  0.00000000000E+00  0.00000000000E+00 -0.92763174859E+03  0.92763174859E+03  0.25500000920E-02 0.  1.
    10030    2    1    2    0    0  0.00000000000E+00  0.00000000000E+00 -0.53643151398E+03  0.13188319832E+04  0.12048066362E+04 0.  0.
        3    1    3    3  502    0 -0.52221858640E+03 -0.27106056991E+03 -0.12674131857E+03  0.60187162799E+03  0.10100000352E+00 0.  1.
       -3    1    3    3    0  502  0.52221858640E+03  0.27106056991E+03 -0.40969019541E+03  0.71696035522E+03  0.10100000352E+00 0. -1.
</event>
<event>
 5   0  0.9169078E-04  0.1197169E+04  0.7818609E-02  0.9115338E-01
       -1   -1    0    0    0  501  0.00000000000E+00  0.00000000000E+00  0.48731635690E+03  0.48731635692E+03  0.50400001928E-02 0.  1.
        1   -1    0    0  501    0  0.00000000000E+00  0.00000000000E+00 -0.73525876553E+03  0.73525876555E+03  0.50400001928E-02 0. -1.
    10030    2    1    2    0    0  0.00000000000E+00  0.00000000000E+00 -0.24794240863E+03  0.12225751225E+04  0.11971693665E+04 0.  0.
        1    1    3    3  502    0 -0.66699925156E+02  0.58969930931E+03 -0.44149381501E+02  0.59509942306E+03  0.50400001928E-02 0.  1.
       -1    1    3    3    0  502  0.66699925156E+02 -0.58969930931E+03 -0.20379302713E+03  0.62747569941E+03  0.50400001928E-02 0. -1.
</event>
<event>
 5   0  0.1537557E-03  0.1185374E+04  0.7818609E-02  0.9125756E-01
        2   -1    0    0  501    0  0.00000000000E+00  0.00000000000E+00  0.16431151903E+04  0.16431151903E+04  0.25500000920E-02 0.  1.
       -2   -1    0    0    0  501  0.00000000000E+00  0.00000000000E+00 -0.21378783455E+03  0.21378783457E+03  0.25500000920E-02 0. -1.
    10030    2    1    2    0    0  0.00000000000E+00  0.00000000000E+00  0.14293273558E+04  0.18569030249E+04  0.11853742674E+04 0.  0.
        2    1    3    3  502    0 -0.33265466012E+03 -0.17409506676E+02  0.14825994765E+04  0.15195602724E+04  0.25500000920E-02 0.  1.
       -2    1    3    3    0  502  0.33265466012E+03  0.17409506676E+02 -0.53272120674E+02  0.33734275251E+03  0.25500000920E-02 0. -1.
</event>
<event>
 5   0  0.1597352E-03  0.1218069E+04  0.7818609E-02  0.9097186E-01
        2   -1    0    0  501    0  0.00000000000E+00  0.00000000000E+00  0.49450394338E+03  0.49450394338E+03  0.25500000920E-02 0.  1.
       -2   -1    0    0    0  501  0.00000000000E+00  0.00000000000E+00 -0.75009174368E+03  0.75009174368E+03  0.25500000920E-02 0. -1.
    10030    2    1    2    0    0  0.00000000000E+00  0.00000000000E+00 -0.25558780030E+03  0.12445956871E+04  0.12180694974E+04 0.  0.
        1    1    3    3  502    0 -0.45820975690E+03  0.18240562419E+03 -0.49292072014E+03  0.69727959200E+03  0.50400001928E-02 0. -1.
       -1    1    3    3    0  502  0.45820975690E+03 -0.18240562419E+03  0.23733291984E+03  0.54731609506E+03  0.50400001928E-02 0.  1.
</event>
<event>
 5   0  0.9358428E-04  0.1196104E+04  0.7818609E-02  0.9116273E-01
       -1   -1    0    0    0  501  0.00000000000E+00  0.00000000000E+00  0.22142807833E+03  0.22142807839E+03  0.50400001928E-02 0. -1.
        1   -1    0    0  501    0  0.00000000000E+00  0.00000000000E+00 -0.16152704585E+04  0.16152704585E+04  0.50400001928E-02 0.  1.
    10030    2    1    2    0    0  0.00000000000E+00  0.00000000000E+00 -0.13938423801E+04  0.18366985368E+04  0.11961040651E+04 0.  0.
        2    1    3    3  502    0 -0.30552821461E+02 -0.59494377744E+03 -0.61603510153E+03  0.85696605507E+03  0.25500000920E-02 0. -1.
       -2    1    3    3    0  502  0.30552821461E+02  0.59494377744E+03 -0.77780727860E+03  0.97973248178E+03  0.25500000920E-02 0.  1.
</event>
<event>
 5   0  0.9358428E-04  0.1200647E+04  0.7818609E-02  0.9112290E-01
        1   -1    0    0  501    0  0.00000000000E+00  0.00000000000E+00  0.52241996150E+03  0.52241996152E+03  0.50400001928E-02 0.  1.
       -1   -1    0    0    0  501  0.00000000000E+00  0.00000000000E+00 -0.68984417601E+03  0.68984417603E+03  0.50400001928E-02 0. -1.
    10030    2    1    2    0    0  0.00000000000E+00  0.00000000000E+00 -0.16742421451E+03  0.12122641376E+04  0.12006471054E+04 0.  0.
        2    1    3    3  502    0 -0.42202469232E+03 -0.37528593297E+03  0.12183562431E+03  0.57774414041E+03  0.25500000920E-02 0.  1.
       -2    1    3    3    0  502  0.42202469232E+03  0.37528593297E+03 -0.28925983882E+03  0.63451999714E+03  0.25500000920E-02 0. -1.
</event>
<event>
 5   0  0.1551501E-03  0.1203945E+04  0.7818609E-02  0.9109411E-01
       -2   -1    0    0    0  501  0.00000000000E+00  0.00000000000E+00  0.86792822897E+03  0.86792822897E+03  0.25500000920E-02 0.  1.
        2   -1    0    0  501    0  0.00000000000E+00  0.00000000000E+00 -0.41751227532E+03  0.41751227532E+03  0.25500000920E-02 0. -1.
    10030    2    1    2    0    0  0.00000000000E+00  0.00000000000E+00  0.45041595365E+03  0.12854405043E+04  0.12039446660E+04 0.  0.
        4    1    3    3  502    0 -0.75630245021E+02  0.40522740782E+03 -0.24316626636E+03  0.47860279147E+03  0.12699999809E+01 0. -1.
       -4    1    3    3    0  502  0.75630245021E+02 -0.40522740782E+03  0.69358222001E+03  0.80683771282E+03  0.12699999809E+01 0.  1.
</event>
<event>
 5   0  0.1551501E-03  0.1197645E+04  0.7818609E-02  0.9114920E-01
        2   -1    0    0  501    0  0.00000000000E+00  0.00000000000E+00  0.32129908762E+03  0.32129908763E+03  0.25500000920E-02 0.  1.
       -2   -1    0    0    0  501  0.00000000000E+00  0.00000000000E+00 -0.11160585098E+04  0.11160585098E+04  0.25500000920E-02 0. -1.
    10030    2    1    2    0    0  0.00000000000E+00  0.00000000000E+00 -0.79475942217E+03  0.14373575974E+04  0.11976453247E+04 0.  0.
        4    1    3    3  502    0 -0.54120869536E+03 -0.22807099552E+03 -0.53766797934E+03  0.79624851638E+03  0.12699999809E+01 0. -1.
       -4    1    3    3    0  502  0.54120869536E+03  0.22807099552E+03 -0.25709144283E+03  0.64110908105E+03  0.12699999809E+01 0.  1.
</event>
<event>
 5   0  0.1551501E-03  0.1205843E+04  0.7818609E-02  0.9107758E-01
       -2   -1    0    0    0  501  0.00000000000E+00  0.00000000000E+00  0.51073664632E+03  0.51073664632E+03  0.25500000920E-02 0.  1.
        2   -1    0    0  501    0  0.00000000000E+00  0.00000000000E+00 -0.71174459257E+03  0.71174459258E+03  0.25500000920E-02 0. -1.
    10030    2    1    2    0    0  0.00000000000E+00  0.00000000000E+00 -0.20100794626E+03  0.12224812389E+04  0.12058425208E+04 0.  0.
        4    1    3    3  502    0 -0.54019143898E+03 -0.17640582417E+03 -0.30474505076E+03  0.64482320399E+03  0.12699999809E+01 0. -1.
       -4    1    3    3    0  502  0.54019143898E+03  0.17640582417E+03  0.10373710450E+03  0.57765803491E+03  0.12699999809E+01 0.  1.
</event>
<event>
 5   0  0.9208078E-04  0.1202156E+04  0.7818609E-02  0.9110972E-01
        1   -1    0    0  501    0  0.00000000000E+00  0.00000000000E+00  0.11134619585E+04  0.11134619585E+04  0.50400001928E-02 0. -1.
       -1   -1    0    0    0  501  0.00000000000E+00  0.00000000000E+00 -0.32447869736E+03  0.32447869740E+03  0.50400001928E-02 0.  1.
    10030    2    1    2    0    0  0.00000000000E+00  0.00000000000E+00  0.78898326113E+03  0.14379406559E+04  0.12021558732E+04 0.  0.
        3    1    3    3  502    0 -0.32732512385E+03 -0.54369119599E+02 -0.20500583427E+03  0.39003222964E+03  0.10100000352E+00 0.  1.
       -3    1    3    3    0  502  0.32732512385E+03  0.54369119599E+02  0.99398909540E+03  0.10479084263E+04  0.10100000352E+00 0. -1.
</event>
<event>
 5   0  0.6137750E-04  0.1195053E+04  0.7818609E-02  0.9117198E-01
        3   -1    0    0  501    0  0.00000000000E+00  0.00000000000E+00  0.65107886666E+03  0.65107887449E+03  0.10100000352E+00 0. -1.
       -3   -1    0    0    0  501  0.00000000000E+00  0.00000000000E+00 -0.54837903537E+03  0.54837904467E+03  0.10100000352E+00 0.  1.
    10030    2    1    2    0    0  0.00000000000E+00  0.00000000000E+00  0.10269983129E+03  0.11994579192E+04  0.11950531555E+04 0.  0.
        3    1    3    3  502    0 -0.14596680270E+03 -0.38037956053E+03 -0.38734586014E+03  0.56216700644E+03  0.10100000352E+00 0.  1.
       -3    1    3    3    0  502  0.14596680270E+03  0.38037956053E+03  0.49004569143E+03  0.63729091273E+03  0.10100000352E+00 0. -1.
</event>
<event>
 5   0  0.9208078E-04  0.1190356E+04  0.7818609E-02  0.9121340E-01
        1   -1    0    0  501    0  0.00000000000E+00  0.00000000000E+00  0.84178976933E+03  0.84178976934E+03  0.50400001928E-02 0. -1.
       -1   -1    0    0    0  501  0.00000000000E+00  0.00000000000E+00 -0.42081391070E+03  0.42081391073E+03  0.50400001928E-02 0.  1.
    10030    2    1    2    0    0  0.00000000000E+00  0.00000000000E+00  0.42097585863E+03  0.12626036801E+04  0.11903559885E+04 0.  0.
        3    1    3    3  502    0 -0.16452399561E+03 -0.98801404385E+02 -0.38709532726E+03  0.43205632182E+03  0.10100000352E+00 0.  1.
       -3    1    3    3    0  502  0.16452399561E+03  0.98801404385E+02  0.80807118589E+03  0.83054735825E+03  0.10100000352E+00 0. -1.
</event>
<event>
 5   0  0.1537557E-03  0.1205394E+04  0.7818609E-02  0.9108149E-01
       -2   -1    0    0    0  501  0.00000000000E+00  0.00000000000E+00  0.18522460328E+04  0.18522460328E+04  0.25500000920E-02 0. -1.
        2   -1    0    0  501    0  0.00000000000E+00  0.00000000000E+00 -0.19610968772E+03  0.19610968773E+03  0.25500000920E-02 0.  1.
    10030    2    1    2    0    0  0.00000000000E+00  0.00000000000E+00  0.16561363451E+04  0.20483557206E+04  0.12053935309E+04 0.  0.
        2    1    3    3  502    0  0.56702023036E+03  0.20424552878E+03  0.83469628738E+03  0.10295368230E+04  0.25500000920E-02 0.  1.
       -2    1    3    3    0  502 -0.56702023036E+03 -0.20424552878E+03  0.82144005774E+03  0.10188188976E+04  0.25500000920E-02 0. -1.
</event>
<event>
 5   0  0.9358428E-04  0.1202450E+04  0.7818609E-02  0.9110715E-01
       -1   -1    0    0    0  501  0.00000000000E+00  0.00000000000E+00  0.38324182043E+03  0.38324182046E+03  0.50400001928E-02 0. -1.
        1   -1    0    0  501    0  0.00000000000E+00  0.00000000000E+00 -0.94319447605E+03  0.94319447606E+03  0.50400001928E-02 0.  1.
    10030    2    1    2    0    0  0.00000000000E+00  0.00000000000E+00 -0.55995265562E+03  0.13264362965E+04  0.12024501121E+04 0.  0.
        2    1    3    3  502    0 -0.13475258413E+03  0.46469673678E+03  0.11371272086E+03  0.49702303669E+03  0.25500000920E-02 0. -1.
       -2    1    3    3    0  502  0.13475258413E+03 -0.46469673678E+03 -0.67366537649E+03  0.82941325984E+03  0.25500000920E-02 0.  1.
</event>
<event>
 5   0  0.9358428E-04  0.1195147E+04  0.7818609E-02  0.9117115E-01
        1   -1    0    0  501    0  0.00000000000E+00  0.00000000000E+00  0.47234192230E+03  0.47234192233E+03  0.50400001928E-02 0.  1.
       -1   -1    0    0    0  501  0.00000000000E+00  0.00000000000E+00 -0.75600777111E+03  0.75600777112E+03  0.50400001928E-02 0. -1.
    10030    2    1    2    0    0  0.00000000000E+00  0.00000000000E+00 -0.28366584881E+03  0.12283496935E+04  0.11951471272E+04 0.  0.
        2    1    3    3  502    0 -0.45145177307E+03  0.16929577552E+03  0.22099624253E+03  0.53038580509E+03  0.25500000920E-02 0.  1.
       -2    1    3    3    0  502  0.45145177307E+03 -0.16929577552E+03 -0.50466209134E+03  0.69796388836E+03  0.25500000920E-02 0. -1.
</event>
<event>
 5   0  0.9169078E-04  0.1194323E+04  0.7818609E-02  0.9117840E-01
        1   -1    0    0  501    0  0.00000000000E+00  0.00000000000E+00  0.62600673469E+03  0.62600673471E+03  0.50400001928E-02 0.  1.
       -1   -1    0    0    0  501  0.00000000000E+00  0.00000000000E+00 -0.56964566732E+03  0.56964566734E+03  0.50400001928E-02 0. -1.
    10030    2    1    2    0    0  0.00000000000E+00  0.00000000000E+00  0.56361067370E+02  0.11956524020E+04  0.11943232798E+04 0.  0.
        1    1    3    3  502    0  0.14856492228E+03  0.20904257283E+03 -0.51170775529E+03  0.57237676423E+03  0.50400001928E-02 0. -1.
       -1    1    3    3    0  502 -0.14856492228E+03 -0.20904257283E+03  0.56806882266E+03  0.62327563781E+03  0.50400001928E-02 0.  1.
</event>
<event>
 5   0  0.1537557E-03  0.1195913E+04  0.7818609E-02  0.9116442E-01
        2   -1    0    0  501    0  0.00000000000E+00  0.00000000000E+00  0.21373902077E+03  0.21373902078E+03  0.25500000920E-02 0. -1.
       -2   -1    0    0    0  501  0.00000000000E+00  0.00000000000E+00 -0.16728431766E+04  0.16728431766E+04  0.25500000920E-02 0.  1.
    10030    2    1    2    0    0  0.00000000000E+00  0.00000000000E+00 -0.14591041558E+04  0.18865821974E+04  0.11959128103E+04 0.  0.
        2    1    3    3  502    0 -0.23055807714E+03  0.41195976392E+03 -0.15061122265E+03  0.49553164825E+03  0.25500000920E-02 0.  1.
       -2    1    3    3    0  502  0.23055807714E+03 -0.41195976392E+03 -0.13084929332E+04  0.13910505491E+04  0.25500000920E-02 0. -1.
</event>
<event>
 5   0  0.1551501E-03  0.1197519E+04  0.7818609E-02  0.9115031E-01
        2   -1    0    0  501    0  0.00000000000E+00  0.00000000000E+00  0.92077845246E+03  0.92077845246E+03  0.25500000920E-02 0.  1.
       -2   -1    0    0    0  501  0.00000000000E+00  0.00000000000E+00 -0.38935842066E+03  0.38935842067E+03  0.25500000920E-02 0. -1.
    10030    2    1    2    0    0  0.00000000000E+00  0.00000000000E+00  0.53142003180E+03  0.13101368731E+04  0.11975188417E+04 0.  0.
        4    1    3    3  502    0  0.66643836752E+02 -0.34182885904E+03 -0.26714932647E+03  0.43892908924E+03  0.12699999809E+01 0. -1.
       -4    1    3    3    0  502 -0.66643836752E+02  0.34182885904E+03  0.79856935827E+03  0.87120778389E+03  0.12699999809E+01 0.  1.
</event>
<event>
 5   0  0.9169078E-04  0.1198063E+04  0.7818609E-02  0.9114554E-01
        1   -1    0    0  501    0  0.00000000000E+00  0.00000000000E+00  0.54976366183E+03  0.54976366186E+03  0.50400001928E-02 0. -1.
       -1   -1    0    0    0  501  0.00000000000E+00  0.00000000000E+00 -0.65271462630E+03  0.65271462632E+03  0.50400001928E-02 0.  1.
    10030    2    1    2    0    0  0.00000000000E+00  0.00000000000E+00 -0.10295096447E+03  0.12024782882E+04  0.11980630753E+04 0.  0.
        1    1    3    3  502    0  0.43303897645E+03 -0.41373970661E+03 -0.39792864349E+02  0.60023892912E+03  0.50400001928E-02 0. -1.
       -1    1    3    3    0  502 -0.43303897645E+03  0.41373970661E+03 -0.63158100123E+02  0.60223935905E+03  0.50400001928E-02 0.  1.
</event>
<event>
 5   0  0.1597352E-03  0.1192813E+04  0.7818609E-02  0.9119170E-01
        2   -1    0    0  501    0  0.00000000000E+00  0.00000000000E+00  0.17614255671E+04  0.17614255671E+04  0.25500000920E-02 0. -1.
       -2   -1    0    0    0  501  0.00000000000E+00  0.00000000000E+00 -0.20193917241E+03  0.20193917242E+03  0.25500000920E-02 0.  1.
    10030    2    1    2    0    0  0.00000000000E+00  0.00000000000E+00  0.15594863947E+04  0.19633647396E+04  0.11928131812E+04 0.  0.
        1    1    3    3  502    0 -0.56979501185E+03 -0.60336664189E+02  0.10521738108E+04  0.11980720332E+04  0.50400001928E-02 0.  1.
       -1    1    3    3    0  502  0.56979501185E+03  0.60336664189E+02  0.50731258392E+03  0.76529270636E+03  0.50400001928E-02 0. -1.
</event>
<event>
 5   0  0.9358428E-04  0.1207954E+04  0.7818609E-02  0.9105923E-01
       -1   -1    0    0    0  501  0.00000000000E+00  0.00000000000E+00  0.67322569915E+03  0.67322569917E+03  0.50400001928E-02 0. -1.
        1   -1    0    0  501    0  0.00000000000E+00  0.00000000000E+00 -0.54185142840E+03  0.54185142843E+03  0.50400001928E-02 0.  1.
    10030    2    1    2    0    0  0.00000000000E+00  0.00000000000E+00  0.13137427075E+03  0.12150771276E+04  0.12079541494E+04 0.  0.
        2    1    3    3  502    0  0.34158176737E+03 -0.33924920483E+03 -0.30118283227E+03  0.56787254313E+03  0.25500000920E-02 0.  1.
       -2    1    3    3    0  502 -0.34158176737E+03  0.33924920483E+03  0.43255710302E+03  0.64720458447E+03  0.25500000920E-02 0. -1.
</event>
<event>
 5   0  0.8908478E-04  0.1201641E+04  0.7818609E-02  0.9111421E-01
        1   -1    0    0  501    0  0.00000000000E+00  0.00000000000E+00  0.16792106233E+04  0.16792106233E+04  0.50400001928E-02 0.  1.
       -1   -1    0    0    0  501  0.00000000000E+00  0.00000000000E+00 -0.21497332155E+03  0.21497332161E+03  0.50400001928E-02 0. -1.
    10030    2    1    2    0    0  0.00000000000E+00  0.00000000000E+00  0.14642373018E+04  0.18941839449E+04  0.12016413530E+04 0.  0.
        4    1    3    3  502    0  0.17729700181E+03  0.99415399364E+02  0.16233606848E+04  0.16360376445E+04  0.12699999809E+01 0.  1.
       -4    1    3    3    0  502 -0.17729700181E+03 -0.99415399364E+02 -0.15912338303E+03  0.25814630040E+03  0.12699999809E+01 0. -1.
</event>
<event>
 5   0  0.9169078E-04  0.1202921E+04  0.7818609E-02  0.9110304E-01
        1   -1    0    0  501    0  0.00000000000E+00  0.00000000000E+00  0.48642427618E+03  0.48642427621E+03  0.50400001928E-02 0. -1.
       -1   -1    0    0    0  501  0.00000000000E+00  0.00000000000E+00 -0.74370157929E+03  0.74370157931E+03  0.50400001928E-02 0.  1.
    10030    2    1    2    0    0  0.00000000000E+00  0.00000000000E+00 -0.25727730311E+03  0.12301258555E+04  0.12029206166E+04 0.  0.
        1    1    3    3  502    0 -0.54975047278E+03  0.16176890106E+03 -0.31541587929E+03  0.65412685054E+03  0.50400001928E-02 0.  1.
       -1    1    3    3    0  502  0.54975047278E+03 -0.16176890106E+03  0.58138576180E+02  0.57599900498E+03  0.50400001928E-02 0. -1.
</event>
<event>
 5   0  0.9169078E-04  0.1176001E+04  0.7818609E-02  0.9134126E-01
        1   -1    0    0  501    0  0.00000000000E+00  0.00000000000E+00  0.10511873037E+04  0.10511873037E+04  0.50400001928E-02 0. -1.
       -1   -1    0    0    0  501  0.00000000000E+00  0.00000000000E+00 -0.32890856463E+03  0.32890856467E+03  0.50400001928E-02 0.  1.
    10030    2    1    2    0    0  0.00000000000E+00  0.00000000000E+00  0.72227873904E+03  0.13800958684E+04  0.11760008627E+04 0.  0.
        1    1    3    3  502    0  0.39693099297E+03 -0.34852450707E+03  0.58006685313E+02  0.53140222127E+03  0.50400001928E-02 0.  1.
       -1    1    3    3    0  502 -0.39693099297E+03  0.34852450707E+03  0.66427205373E+03  0.84869364708E+03  0.50400001928E-02 0. -1.
</event>
<event>
 5   0  0.9169078E-04  0.1195763E+04  0.7818609E-02  0.9116573E-01
       -1   -1    0    0    0  501  0.00000000000E+00  0.00000000000E+00  0.50944578415E+03  0.50944578418E+03  0.50400001928E-02 0.  1.
        1   -1    0    0  501    0  0.00000000000E+00  0.00000000000E+00 -0.70166909637E+03  0.70166909639E+03  0.50400001928E-02 0. -1.
    10030    2    1    2    0    0  0.00000000000E+00  0.00000000000E+00 -0.19222331221E+03  0.12111148806E+04  0.11957631254E+04 0.  0.
        1    1    3    3  502    0  0.23364949766E+03 -0.54700678030E+03 -0.15733485119E+03  0.61527454106E+03  0.50400001928E-02 0. -1.
       -1    1    3    3    0  502 -0.23364949766E+03  0.54700678030E+03 -0.34888461024E+02  0.59584033951E+03  0.50400001928E-02 0.  1.
</event>
<event>
 5   0  0.9358428E-04  0.1197878E+04  0.7818609E-02  0.9114716E-01
        1   -1    0    0  501    0  0.00000000000E+00  0.00000000000E+00  0.59778690973E+03  0.59778690975E+03  0.50400001928E-02 0. -1.
       -1   -1    0    0    0  501  0.00000000000E+00  0.00000000000E+00 -0.60009372883E+03  0.60009372886E+03  0.50400001928E-02 0.  1.
    10030    2    1    2    0    0  0.00000000000E+00  0.00000000000E+00 -0.23068191073E+01  0.11978806386E+04  0.11978784174E+04 0.  0.
        2    1    3    3  502    0 -0.45367188732E+03  0.31499734149E+03  0.23055085957E+03  0.59849411472E+03  0.25500000920E-02 0. -1.
       -2    1    3    3    0  502  0.45367188732E+03 -0.31499734149E+03 -0.23285767868E+03  0.59938652389E+03  0.25500000920E-02 0.  1.
</event>
<event>
 5   0  0.8908478E-04  0.1192311E+04  0.7818609E-02  0.9119614E-01
       -1   -1    0    0    0  501  0.00000000000E+00  0.00000000000E+00  0.30529352446E+03  0.30529352451E+03  0.50400001928E-02 0.  1.
        1   -1    0    0  501    0  0.00000000000E+00  0.00000000000E+00 -0.11641291848E+04  0.11641291848E+04  0.50400001928E-02 0. -1.
    10030    2    1    2    0    0  0.00000000000E+00  0.00000000000E+00 -0.85883566037E+03  0.14694227094E+04  0.11923105331E+04 0.  0.
        4    1    3    3  502    0 -0.73178155834E+01 -0.51771723844E+03 -0.79358542463E+03  0.94755692625E+03  0.12699999809E+01 0. -1.
       -4    1    3    3    0  502  0.73178155834E+01  0.51771723844E+03 -0.65250235745E+02  0.52186578310E+03  0.12699999809E+01 0.  1.
</event>
<event>
 5   0  0.1537557E-03  0.1195011E+04  0.7818609E-02  0.9117235E-01
       -2   -1    0    0    0  501  0.00000000000E+00  0.00000000000E+00  0.15398416496E+03  0.15398416498E+03  0.25500000920E-02 0. -1.
        2   -1    0    0  501    0  0.00000000000E+00  0.00000000000E+00 -0.23185027158E+04  0.23185027158E+04  0.25500000920E-02 0.  1.
    10030    2    1    2    0    0  0.00000000000E+00  0.00000000000E+00 -0.21645185508E+04  0.24724868808E+04  0.11950108027E+04 0.  0.
        2    1    3    3  502    0 -0.28664265596E+03 -0.31282810561E+03 -0.19526879274E+04  0.19982531316E+04  0.25500000920E-02 0.  1.
       -2    1    3    3    0  502  0.28664265596E+03  0.31282810561E+03 -0.21183062342E+03  0.47423374922E+03  0.25500000920E-02 0. -1.
</event>
<event>
 5   0  0.9358428E-04  0.1278471E+04  0.7818609E-02  0.9046814E-01
        1   -1    0    0  501    0  0.00000000000E+00  0.00000000000E+00  0.45725019035E+03  0.45725019038E+03  0.50400001928E-02 0. -1.
       -1   -1    0    0    0  501  0.00000000000E+00  0.00000000000E+00 -0.89365045331E+03  0.89365045332E+03  0.50400001928E-02 0.  1.
    10030    2    1    2    0    0  0.00000000000E+00  0.00000000000E+00 -0.43640026296E+03  0.13509006437E+04  0.12784707113E+04 0.  0.
        2    1    3    3  502    0 -0.25888488201E+03  0.56829550950E+03 -0.36246593658E+03  0.72205451556E+03  0.25500000920E-02 0. -1.
       -2    1    3    3    0  502  0.25888488201E+03 -0.56829550950E+03 -0.73934326371E+02  0.62884612814E+03  0.25500000920E-02 0.  1.
</event>
<event>
 5   0  0.9170776E-04  0.1204916E+04  0.7818609E-02  0.9108564E-01
       -1   -1    0    0    0  501  0.00000000000E+00  0.00000000000E+00  0.75294988169E+03  0.75294988171E+03  0.50400001928E-02 0.  1.
        1   -1    0    0  501    0  0.00000000000E+00  0.00000000000E+00 -0.48204506747E+03  0.48204506750E+03  0.50400001928E-02 0. -1.
    10030    2    1    2    0    0  0.00000000000E+00  0.00000000000E+00  0.27090481422E+03  0.12349949492E+04  0.12049162237E+04 0.  0.
        5    1    3    3  502    0  0.15327104926E+03  0.57815493905E+03  0.61693931484E+02  0.60131803504E+03  0.46999998093E+01 0. -1.
       -5    1    3    3    0  502 -0.15327104926E+03 -0.57815493905E+03  0.20921088273E+03  0.63367691416E+03  0.46999998093E+01 0.  1.
</event>
<event>
 5   0  0.1597352E-03  0.1191882E+04  0.7818609E-02  0.9119992E-01
        2   -1    0    0  501    0  0.00000000000E+00  0.00000000000E+00  0.17500514253E+04  0.17500514253E+04  0.25500000920E-02 0. -1.
       -2   -1    0    0    0  501  0.00000000000E+00  0.00000000000E+00 -0.20293450520E+03  0.20293450521E+03  0.25500000920E-02 0.  1.
    10030    2    1    2    0    0  0.00000000000E+00  0.00000000000E+00  0.15471169201E+04  0.19529859305E+04  0.11918822426E+04 0.  0.
        1    1    3    3  502    0 -0.29670020772E+03  0.20999723716E+03 -0.25048228276E+00  0.36349678904E+03  0.50400001928E-02 0.  1.
       -1    1    3    3    0  502  0.29670020772E+03 -0.20999723716E+03  0.15473674024E+04  0.15894891414E+04  0.50400001928E-02 0. -1.
</event>
<event>
 5   0  0.1597352E-03  0.1196627E+04  0.7818609E-02  0.9115814E-01
       -2   -1    0    0    0  501  0.00000000000E+00  0.00000000000E+00  0.18072577612E+03  0.18072577613E+03  0.25500000920E-02 0.  1.
        2   -1    0    0  501    0  0.00000000000E+00  0.00000000000E+00 -0.19807854726E+04  0.19807854726E+04  0.25500000920E-02 0. -1.
    10030    2    1    2    0    0  0.00000000000E+00  0.00000000000E+00 -0.18000596965E+04  0.21615112487E+04  0.11966269124E+04 0.  0.
        1    1    3    3  502    0  0.22287825097E+03  0.35494476898E+03 -0.12874626177E+03  0.43844737852E+03  0.50400001928E-02 0.  1.
       -1    1    3    3    0  502 -0.22287825097E+03 -0.35494476898E+03 -0.16713134347E+04  0.17230638702E+04  0.50400001928E-02 0. -1.
</event>
<event>
 5   0  0.1537557E-03  0.1263414E+04  0.7818609E-02  0.9059092E-01
        2   -1    0    0  501    0  0.00000000000E+00  0.00000000000E+00  0.23583653595E+04  0.23583653595E+04  0.25500000920E-02 0.  1.
       -2   -1    0    0    0  501  0.00000000000E+00  0.00000000000E+00 -0.16920788356E+03  0.16920788358E+03  0.25500000920E-02 0. -1.
    10030    2    1    2    0    0  0.00000000000E+00  0.00000000000E+00  0.21891574759E+04  0.25275732431E+04  0.12634144390E+04 0.  0.
        2    1    3    3  502    0  0.15834170073E+03  0.27481737972E+02 -0.12762680474E+03  0.20522168844E+03  0.25500000920E-02 0. -1.
       -2    1    3    3    0  502 -0.15834170073E+03 -0.27481737972E+02  0.23167842807E+04  0.23223515546E+04  0.25500000920E-02 0.  1.
</event>
<event>
 5   0  0.1567019E-03  0.1193643E+04  0.7818609E-02  0.9118439E-01
       -2   -1    0    0    0  501  0.00000000000E+00  0.00000000000E+00  0.56773326553E+03  0.56773326553E+03  0.25500000920E-02 0.  1.
        2   -1    0    0  501    0  0.00000000000E+00  0.00000000000E+00 -0.62739993434E+03  0.62739993434E+03  0.25500000920E-02 0. -1.
    10030    2    1    2    0    0  0.00000000000E+00  0.00000000000E+00 -0.59666668809E+02  0.11951331999E+04  0.11936428503E+04 0.  0.
        5    1    3    3  502    0  0.15917818252E+03 -0.37720960171E+03  0.40493105476E+03  0.57586111739E+03  0.46999998093E+01 0.  1.
       -5    1    3    3    0  502 -0.15917818252E+03  0.37720960171E+03 -0.46459772357E+03  0.61927208249E+03  0.46999998093E+01 0. -1.
</event>
<event>
 5   0  0.8908478E-04  0.1206703E+04  0.7818609E-02  0.9107010E-01
        1   -1    0    0  501    0  0.00000000000E+00  0.00000000000E+00  0.62755382744E+03  0.62755382746E+03  0.50400001928E-02 0. -1.
       -1   -1    0    0    0  501  0.00000000000E+00  0.00000000000E+00 -0.58008254427E+03  0.58008254429E+03  0.50400001928E-02 0.  1.
    10030    2    1    2    0    0  0.00000000000E+00  0.00000000000E+00  0.47471283169E+02  0.12076363718E+04  0.12067029807E+04 0.  0.
        4    1    3    3  502    0  0.65402847465E+02 -0.50912586986E+03  0.34106879158E+03  0.61629231482E+03  0.12699999809E+01 0. -1.
       -4    1    3    3    0  502 -0.65402847465E+02  0.50912586986E+03 -0.29359750841E+03  0.59134405693E+03  0.12699999809E+01 0.  1.
</event>
<event>
 5   0  0.1597352E-03  0.1196424E+04  0.7818609E-02  0.9115993E-01
       -2   -1    0    0    0  501  0.00000000000E+00  0.00000000000E+00  0.24951171504E+03  0.24951171506E+03  0.25500000920E-02 0. -1.
        2   -1    0    0  501    0  0.00000000000E+00  0.00000000000E+00 -0.14342311887E+04  0.14342311887E+04  0.25500000920E-02 0.  1.
    10030    2    1    2    0    0  0.00000000000E+00  0.00000000000E+00 -0.11847194737E+04  0.16837429038E+04  0.11964238107E+04 0.  0.
        1    1    3    3  502    0  0.51278244675E+03 -0.24823735657E+03 -0.33558829480E+03  0.66120127535E+03  0.50400001928E-02 0. -1.
       -1    1    3    3    0  502 -0.51278244675E+03  0.24823735657E+03 -0.84913117888E+03  0.10225416284E+04  0.50400001928E-02 0.  1.
</event>
<event>
 5   0  0.9169078E-04  0.1197539E+04  0.7818609E-02  0.9115014E-01
        1   -1    0    0  501    0  0.00000000000E+00  0.00000000000E+00  0.16439530903E+04  0.16439530904E+04  0.50400001928E-02 0. -1.
       -1   -1    0    0    0  501  0.00000000000E+00  0.00000000000E+00 -0.21808692594E+03  0.21808692600E+03  0.50400001928E-02 0.  1.
    10030    2    1    2    0    0  0.00000000000E+00  0.00000000000E+00  0.14258661644E+04  0.18620400164E+04  0.11975386022E+04 0.  0.
        1    1    3    3  502    0 -0.48288922845E+03 -0.33458011248E+03  0.53294957065E+03  0.79319676216E+03  0.50400001928E-02 0.  1.
       -1    1    3    3    0  502  0.48288922845E+03  0.33458011248E+03  0.89291659375E+03  0.10688432542E+04  0.50400001928E-02 0. -1.
</event>
<event>
 5   0  0.6137750E-04  0.1194895E+04  0.7818609E-02  0.9117337E-01
        4   -1    0    0  501    0  0.00000000000E+00  0.00000000000E+00  0.36852810461E+03  0.36853029290E+03  0.12699999809E+01 0.  1.
       -4   -1    0    0    0  501  0.00000000000E+00  0.00000000000E+00 -0.96855966513E+03  0.96856049776E+03  0.12699999809E+01 0. -1.
    10030    2    1    2    0    0  0.00000000000E+00  0.00000000000E+00 -0.60003156052E+03  0.13370907907E+04  0.11948949363E+04 0.  0.
        1    1    3    3  502    0  0.98253321938E+02 -0.16792078205E+03  0.33208945700E+03  0.38488246490E+03  0.50400001928E-02 0.  1.
       -1    1    3    3    0  502 -0.98253321938E+02  0.16792078205E+03 -0.93212101752E+03  0.95220832576E+03  0.50400001928E-02 0. -1.
</event>
<event>
 5   0  0.9169078E-04  0.1211305E+04  0.7818609E-02  0.9103018E-01
        1   -1    0    0  501    0  0.00000000000E+00  0.00000000000E+00  0.92351825882E+03  0.92351825883E+03  0.50400001928E-02 0.  1.
       -1   -1    0    0    0  501  0.00000000000E+00  0.00000000000E+00 -0.39719317715E+03  0.39719317718E+03  0.50400001928E-02 0. -1.
    10030    2    1    2    0    0  0.00000000000E+00  0.00000000000E+00  0.52632508166E+03  0.13207114360E+04  0.12113053313E+04 0.  0.
        1    1    3    3  502    0  0.10187642334E+03 -0.59446565283E+03  0.20297788421E+03  0.63637114920E+03  0.50400001928E-02 0. -1.
       -1    1    3    3    0  502 -0.10187642334E+03  0.59446565283E+03  0.32334719745E+03  0.68434028682E+03  0.50400001928E-02 0.  1.
</event>
<event>
 5   0  0.9170776E-04  0.1188927E+04  0.7818609E-02  0.9122604E-01
       -1   -1    0    0    0  501  0.00000000000E+00  0.00000000000E+00  0.40083541268E+03  0.40083541272E+03  0.50400001928E-02 0.  1.
        1   -1    0    0  501    0  0.00000000000E+00  0.00000000000E+00 -0.88162598811E+03  0.88162598812E+03  0.50400001928E-02 0. -1.
    10030    2    1    2    0    0  0.00000000000E+00  0.00000000000E+00 -0.48079057543E+03  0.12824614008E+04  0.11889271076E+04 0.  0.
        5    1    3    3  502    0 -0.36370401633E+03  0.39416608144E+03  0.36126261310E+02  0.53756367809E+03  0.46999998093E+01 0. -1.
       -5    1    3    3    0  502  0.36370401633E+03 -0.39416608144E+03 -0.51691683674E+03  0.74489772274E+03  0.46999998093E+01 0.  1.
</event>
<event>
 5   0  0.6137750E-04  0.1214569E+04  0.7818609E-02  0.9100199E-01
        4   -1    0    0  501    0  0.00000000000E+00  0.00000000000E+00  0.22231901836E+03  0.22232264577E+03  0.12699999809E+01 0.  1.
       -4   -1    0    0    0  501  0.00000000000E+00  0.00000000000E+00 -0.16588348463E+04  0.16588353325E+04  0.12699999809E+01 0. -1.
    10030    2    1    2    0    0  0.00000000000E+00  0.00000000000E+00 -0.14365158280E+04  0.18811579782E+04  0.12145689009E+04 0.  0.
        5    1    3    3  502    0 -0.17678490412E+02 -0.42227316314E+03 -0.13936341108E+04  0.14563190852E+04  0.46999998093E+01 0. -1.
       -5    1    3    3    0  502  0.17678490412E+02  0.42227316314E+03 -0.42881717174E+02  0.42483889299E+03  0.46999998093E+01 0.  1.
</event>
<event>
 5   0  0.1597352E-03  0.1208420E+04  0.7818609E-02  0.9105518E-01
       -2   -1    0    0    0  501  0.00000000000E+00  0.00000000000E+00  0.65654180909E+03  0.65654180909E+03  0.25500000920E-02 0.  1.
        2   -1    0    0  501    0  0.00000000000E+00  0.00000000000E+00 -0.55604979524E+03  0.55604979525E+03  0.25500000920E-02 0. -1.
    10030    2    1    2    0    0  0.00000000000E+00  0.00000000000E+00  0.10049201384E+03  0.12125916043E+04  0.12084203549E+04 0.  0.
        1    1    3    3  502    0  0.12032725825E+03 -0.46510894270E+03 -0.31744064982E+03  0.57582422999E+03  0.50400001928E-02 0. -1.
       -1    1    3    3    0  502 -0.12032725825E+03  0.46510894270E+03  0.41793266366E+03  0.63676737435E+03  0.50400001928E-02 0.  1.
</event>
<event>
 5   0  0.1647550E-03  0.1199541E+04  0.7818609E-02  0.9113258E-01
        2   -1    0    0  501    0  0.00000000000E+00  0.00000000000E+00  0.14605437372E+04  0.14605437372E+04  0.25500000920E-02 0. -1.
       -2   -1    0    0    0  501  0.00000000000E+00  0.00000000000E+00 -0.24629520014E+03  0.24629520015E+03  0.25500000920E-02 0.  1.
    10030    2    1    2    0    0  0.00000000000E+00  0.00000000000E+00  0.12142485370E+04  0.17068389373E+04  0.11995414325E+04 0.  0.
        3    1    3    3  502    0 -0.46313184393E+03  0.25690679258E+03  0.10076491567E+04  0.11383536525E+04  0.10100000352E+00 0. -1.
       -3    1    3    3    0  502  0.46313184393E+03 -0.25690679258E+03  0.20659938035E+03  0.56848528486E+03  0.10100000352E+00 0.  1.
</event>
<event>
 5   0  0.9169078E-04  0.1203217E+04  0.7818609E-02  0.9110045E-01
        1   -1    0    0  501    0  0.00000000000E+00  0.00000000000E+00  0.13312861021E+04  0.13312861022E+04  0.50400001928E-02 0.  1.
       -1   -1    0    0    0  501  0.00000000000E+00  0.00000000000E+00 -0.27186715728E+03  0.27186715733E+03  0.50400001928E-02 0. -1.
    10030    2    1    2    0    0  0.00000000000E+00  0.00000000000E+00  0.10594189449E+04  0.16031532595E+04  0.12032173007E+04 0.  0.
        1    1    3    3  502    0 -0.28101084409E+02  0.26823278881E+03 -0.18680664705E+03  0.32807807508E+03  0.50400001928E-02 0. -1.
       -1    1    3    3    0  502  0.28101084409E+02 -0.26823278881E+03  0.12462255919E+04  0.12750751844E+04  0.50400001928E-02 0.  1.
</event>
<event>
 5   0  0.9358428E-04  0.1086907E+04  0.7818609E-02  0.9218048E-01
       -1   -1    0    0    0  501  0.00000000000E+00  0.00000000000E+00  0.54050229261E+03  0.54050229263E+03  0.50400001928E-02 0. -1.
        1   -1    0    0  501    0  0.00000000000E+00  0.00000000000E+00 -0.54642115227E+03  0.54642115230E+03  0.50400001928E-02 0.  1.
    10030    2    1    2    0    0  0.00000000000E+00  0.00000000000E+00 -0.59188596672E+01  0.10869234449E+04  0.10869073292E+04 0.  0.
        2    1    3    3  502    0 -0.11075390096E+03  0.43878027380E+03 -0.30387472595E+03  0.54510036171E+03  0.25500000920E-02 0.  1.
       -2    1    3    3    0  502  0.11075390096E+03 -0.43878027380E+03  0.29795586629E+03  0.54182308322E+03  0.25500000920E-02 0. -1.
</event>
<event>
 5   0  0.6137750E-04  0.1200319E+04  0.7818609E-02  0.9112578E-01
        3   -1    0    0  501    0  0.00000000000E+00  0.00000000000E+00  0.63334540601E+03  0.63334541407E+03  0.10100000352E+00 0. -1.
       -3   -1    0    0    0  501  0.00000000000E+00  0.00000000000E+00 -0.56871210612E+03  0.56871211508E+03  0.10100000352E+00 0.  1.
    10030    2    1    2    0    0  0.00000000000E+00  0.00000000000E+00  0.64633299898E+02  0.12020575292E+04  0.12003186410E+04 0.  0.
        1    1    3    3  502    0  0.46065930769E+03 -0.25633101774E+03 -0.25494139859E+03  0.58558321796E+03  0.50400001928E-02 0.  1.
       -1    1    3    3    0  502 -0.46065930769E+03  0.25633101774E+03  0.31957469848E+03  0.61647431119E+03  0.50400001928E-02 0. -1.
</event>
<event>
 5   0  0.8908478E-04  0.1159680E+04  0.7818609E-02  0.9148900E-01
        1   -1    0    0  501    0  0.00000000000E+00  0.00000000000E+00  0.13502824944E+04  0.13502824944E+04  0.50400001928E-02 0. -1.
       -1   -1    0    0    0  501  0.00000000000E+00  0.00000000000E+00 -0.24899541452E+03  0.24899541457E+03  0.50400001928E-02 0.  1.
    10030    2    1    2    0    0  0.00000000000E+00  0.00000000000E+00  0.11012870799E+04  0.15992779090E+04  0.11596795238E+04 0.  0.
        4    1    3    3  502    0 -0.20888914883E+03  0.18139427660E+03 -0.15210534244E+03  0.31571539110E+03  0.12699999809E+01 0.  1.
       -4    1    3    3    0  502  0.20888914883E+03 -0.18139427660E+03  0.12533924224E+04  0.12835625179E+04  0.12699999809E+01 0. -1.
</event>
<event>
 5   0  0.9358428E-04  0.1086285E+04  0.7818609E-02  0.9218664E-01
       -1   -1    0    0    0  501  0.00000000000E+00  0.00000000000E+00  0.53343438152E+03  0.53343438154E+03  0.50400001928E-02 0.  1.
        1   -1    0    0  501    0  0.00000000000E+00  0.00000000000E+00 -0.55302714131E+03  0.55302714134E+03  0.50400001928E-02 0. -1.
    10030    2    1    2    0    0  0.00000000000E+00  0.00000000000E+00 -0.19592759795E+02  0.10864615229E+04  0.10862848450E+04 0.  0.
        2    1    3    3  502    0 -0.53777321889E+02 -0.29565245557E+03 -0.46230926219E+03  0.55139117579E+03  0.25500000920E-02 0. -1.
       -2    1    3    3    0  502  0.53777321889E+02  0.29565245557E+03  0.44271650239E+03  0.53507034709E+03  0.25500000920E-02 0.  1.
</event>
<event>
 5   0  0.9208078E-04  0.1191341E+04  0.7818609E-02  0.9120470E-01
       -1   -1    0    0    0  501  0.00000000000E+00  0.00000000000E+00  0.10194078764E+04  0.10194078764E+04  0.50400001928E-02 0.  1.
        1   -1    0    0  501    0  0.00000000000E+00  0.00000000000E+00 -0.34806793885E+03  0.34806793889E+03  0.50400001928E-02 0. -1.
    10030    2    1    2    0    0  0.00000000000E+00  0.00000000000E+00  0.67133993755E+03  0.13674758153E+04  0.11913407546E+04 0.  0.
        3    1    3    3  502    0  0.15468260886E+03  0.38550904386E+03 -0.15439344264E+03  0.44314927249E+03  0.10100000352E+00 0. -1.
       -3    1    3    3    0  502 -0.15468260886E+03 -0.38550904386E+03  0.82573338019E+03  0.92432654281E+03  0.10100000352E+00 0.  1.
</event>
<event>
 5   0  0.1597352E-03  0.1179556E+04  0.7818609E-02  0.9130942E-01
        2   -1    0    0  501    0  0.00000000000E+00  0.00000000000E+00  0.66857464107E+03  0.66857464108E+03  0.25500000920E-02 0. -1.
       -2   -1    0    0    0  501  0.00000000000E+00  0.00000000000E+00 -0.52026827110E+03  0.52026827110E+03  0.25500000920E-02 0.  1.
    10030    2    1    2    0    0  0.00000000000E+00  0.00000000000E+00  0.14830636997E+03  0.11888429122E+04  0.11795561413E+04 0.  0.
        1    1    3    3  502    0  0.46499108070E+03  0.36097437320E+03  0.37549634815E+02  0.58985521811E+03  0.50400001928E-02 0.  1.
       -1    1    3    3    0  502 -0.46499108070E+03 -0.36097437320E+03  0.11075673516E+03  0.59898769407E+03  0.50400001928E-02 0. -1.
</event>
<event>
 5   0  0.9170776E-04  0.1204898E+04  0.7818609E-02  0.9108580E-01
       -1   -1    0    0    0  501  0.00000000000E+00  0.00000000000E+00  0.83452254545E+03  0.83452254547E+03  0.50400001928E-02 0.  1.
        1   -1    0    0  501    0  0.00000000000E+00  0.00000000000E+00 -0.43491326319E+03  0.43491326322E+03  0.50400001928E-02 0. -1.
    10030    2    1    2    0    0  0.00000000000E+00  0.00000000000E+00  0.39960928226E+03  0.12694358087E+04  0.12048982089E+04 0.  0.
        5    1    3    3  502    0  0.19585812837E+03 -0.17035157320E+03 -0.37295255546E+03  0.45441804934E+03  0.46999998093E+01 0. -1.
       -5    1    3    3    0  502 -0.19585812837E+03  0.17035157320E+03  0.77256183773E+03  0.81501775935E+03  0.46999998093E+01 0.  1.
</event>
<event>
 5   0  0.1537557E-03  0.1212266E+04  0.7818609E-02  0.9102188E-01
       -2   -1    0    0    0  501  0.00000000000E+00  0.00000000000E+00  0.39518824450E+03  0.39518824450E+03  0.25500000920E-02 0.  1.
        2   -1    0    0  501    0  0.00000000000E+00  0.00000000000E+00 -0.92967616664E+03  0.92967616664E+03  0.25500000920E-02 0. -1.
    10030    2    1    2    0    0  0.00000000000E+00  0.00000000000E+00 -0.53448792214E+03  0.13248644111E+04  0.12122657997E+04 0.  0.
        2    1    3    3  502    0  0.11790383090E+03 -0.27472884383E+03 -0.84349467519E+03  0.89490810592E+03  0.25500000920E-02 0. -1.
       -2    1    3    3    0  502 -0.11790383090E+03  0.27472884383E+03  0.30900675304E+03  0.42995630523E+03  0.25500000920E-02 0.  1.
</event>
<event>
 5   0  0.9358428E-04  0.1235692E+04  0.7818609E-02  0.9082176E-01
        1   -1    0    0  501    0  0.00000000000E+00  0.00000000000E+00  0.75951731931E+03  0.75951731932E+03  0.50400001928E-02 0.  1.
       -1   -1    0    0    0  501  0.00000000000E+00  0.00000000000E+00 -0.50260042242E+03  0.50260042245E+03  0.50400001928E-02 0. -1.
    10030    2    1    2    0    0  0.00000000000E+00  0.00000000000E+00  0.25691689689E+03  0.12621177418E+04  0.12356920742E+04 0.  0.
        2    1    3    3  502    0  0.44812242728E+02  0.66275426301E+02 -0.49728754291E+03  0.50368191308E+03  0.25500000920E-02 0. -1.
       -2    1    3    3    0  502 -0.44812242728E+02 -0.66275426301E+02  0.75420443979E+03  0.75843582869E+03  0.25500000920E-02 0.  1.
</event>
<event>
 5   0  0.1647550E-03  0.1158643E+04  0.7818609E-02  0.9149847E-01
       -2   -1    0    0    0  501  0.00000000000E+00  0.00000000000E+00  0.58844810847E+03  0.58844810848E+03  0.25500000920E-02 0. -1.
        2   -1    0    0  501    0  0.00000000000E+00  0.00000000000E+00 -0.57033654810E+03  0.57033654810E+03  0.25500000920E-02 0.  1.
    10030    2    1    2    0    0  0.00000000000E+00  0.00000000000E+00  0.18111560376E+02  0.11587846566E+04  0.11586431080E+04 0.  0.
        3    1    3    3  502    0 -0.32653330811E+03  0.44422000349E+03 -0.16889302020E+03  0.57661102598E+03  0.10100000352E+00 0.  1.
       -3    1    3    3    0  502  0.32653330811E+03 -0.44422000349E+03  0.18700458058E+03  0.58217363060E+03  0.10100000352E+00 0. -1.
</event>
<event>
 5   0  0.9169078E-04  0.1202215E+04  0.7818609E-02  0.9110920E-01
       -1   -1    0    0    0  501  0.00000000000E+00  0.00000000000E+00  0.18720270562E+04  0.18720270562E+04  0.50400001928E-02 0. -1.
        1   -1    0    0  501    0  0.00000000000E+00  0.00000000000E+00 -0.19301543772E+03  0.19301543779E+03  0.50400001928E-02 0.  1.
    10030    2    1    2    0    0  0.00000000000E+00  0.00000000000E+00  0.16790116184E+04  0.20650424940E+04  0.12022148257E+04 0.  0.
        1    1    3    3  502    0 -0.45196062094E+03  0.17010201720E+03  0.22465849454E+03  0.53261105727E+03  0.50400001928E-02 0.  1.
       -1    1    3    3    0  502  0.45196062094E+03 -0.17010201720E+03  0.14543531239E+04  0.15324314367E+04  0.50400001928E-02 0. -1.
</event>
<event>
 5   0  0.1647550E-03  0.1202816E+04  0.7818609E-02  0.9110395E-01
       -2   -1    0    0    0  501  0.00000000000E+00  0.00000000000E+00  0.43241451419E+03  0.43241451419E+03  0.25500000920E-02 0. -1.
        2   -1    0    0  501    0  0.00000000000E+00  0.00000000000E+00 -0.83644607482E+03  0.83644607483E+03  0.25500000920E-02 0.  1.
    10030    2    1    2    0    0  0.00000000000E+00  0.00000000000E+00 -0.40403156064E+03  0.12688605890E+04  0.12028157350E+04 0.  0.
        3    1    3    3  502    0 -0.44017774716E+03  0.93754728699E+02 -0.62285027134E+03  0.76843273548E+03  0.10100000352E+00 0.  1.
       -3    1    3    3    0  502  0.44017774716E+03 -0.93754728699E+02  0.21881871070E+03  0.50042785354E+03  0.10100000352E+00 0. -1.
</event>
<event>
 5   0  0.9208078E-04  0.1207636E+04  0.7818609E-02  0.9106199E-01
       -1   -1    0    0    0  501  0.00000000000E+00  0.00000000000E+00  0.33282146674E+03  0.33282146678E+03  0.50400001928E-02 0. -1.
        1   -1    0    0  501    0  0.00000000000E+00  0.00000000000E+00 -0.10954712318E+04  0.10954712318E+04  0.50400001928E-02 0.  1.
    10030    2    1    2    0    0  0.00000000000E+00  0.00000000000E+00 -0.76264976501E+03  0.14282926985E+04  0.12076362733E+04 0.  0.
        3    1    3    3  502    0  0.14042275323E+02  0.34013485668E+02  0.33149406130E+03  0.33353024688E+03  0.10100000352E+00 0. -1.
       -3    1    3    3    0  502 -0.14042275323E+02 -0.34013485668E+02 -0.10941438263E+04  0.10947624517E+04  0.10100000352E+00 0.  1.
</event>
<event>
 5   0  0.9170776E-04  0.1192706E+04  0.7818609E-02  0.9119265E-01
        1   -1    0    0  501    0  0.00000000000E+00  0.00000000000E+00  0.91937724544E+03  0.91937724545E+03  0.50400001928E-02 0.  1.
       -1   -1    0    0    0  501  0.00000000000E+00  0.00000000000E+00 -0.38682355589E+03  0.38682355592E+03  0.50400001928E-02 0. -1.
    10030    2    1    2    0    0  0.00000000000E+00  0.00000000000E+00  0.53255368955E+03  0.13062008014E+04  0.11927057899E+04 0.  0.
        5    1    3    3  502    0 -0.40647999000E+03 -0.53119759245E+02 -0.20802501526E+03  0.45972185946E+03  0.46999998093E+01 0. -1.
       -5    1    3    3    0  502  0.40647999000E+03  0.53119759245E+02  0.74057870481E+03  0.84647894191E+03  0.46999998093E+01 0.  1.
</event>
<event>
 5   0  0.9208078E-04  0.1181065E+04  0.7818609E-02  0.9129594E-01
        1   -1    0    0  501    0  0.00000000000E+00  0.00000000000E+00  0.12285041068E+04  0.12285041068E+04  0.50400001928E-02 0.  1.
       -1   -1    0    0    0  501  0.00000000000E+00  0.00000000000E+00 -0.28386446670E+03  0.28386446675E+03  0.50400001928E-02 0. -1.
    10030    2    1    2    0    0  0.00000000000E+00  0.00000000000E+00  0.94463964006E+03  0.15123685735E+04  0.11810650501E+04 0.  0.
        3    1    3    3  502    0  0.52999880986E+03 -0.19976060353E+03  0.25833389657E+03  0.62252666569E+03  0.10100000352E+00 0. -1.
       -3    1    3    3    0  502 -0.52999880986E+03  0.19976060353E+03  0.68630574349E+03  0.88984190783E+03  0.10100000352E+00 0.  1.
</event>
<event>
 5   0  0.1567019E-03  0.1189879E+04  0.7818609E-02  0.9121762E-01
       -2   -1    0    0    0  501  0.00000000000E+00  0.00000000000E+00  0.72738892981E+03  0.72738892981E+03  0.25500000920E-02 0. -1.
        2   -1    0    0  501    0  0.00000000000E+00  0.00000000000E+00 -0.48660785240E+03  0.48660785240E+03  0.25500000920E-02 0.  1.
    10030    2    1    2    0    0  0.00000000000E+00  0.00000000000E+00  0.24078107741E+03  0.12139967822E+04  0.11898792628E+04 0.  0.
        5    1    3    3  502    0  0.51763567431E+03 -0.19581355695E+03 -0.10230271221E+03  0.56282997018E+03  0.46999998093E+01 0.  1.
       -5    1    3    3    0  502 -0.51763567431E+03  0.19581355695E+03  0.34308378962E+03  0.65116681204E+03  0.46999998093E+01 0. -1.
</event>
<event>
 5   0  0.1597352E-03  0.1198745E+04  0.7818609E-02  0.9113955E-01
       -2   -1    0    0    0  501  0.00000000000E+00  0.00000000000E+00  0.30986102781E+04  0.30986102781E+04  0.25500000920E-02 0.  1.
        2   -1    0    0  501    0  0.00000000000E+00  0.00000000000E+00 -0.11593829391E+03  0.11593829394E+03  0.25500000920E-02 0. -1.
    10030    2    1    2    0    0  0.00000000000E+00  0.00000000000E+00  0.29826719842E+04  0.32145485720E+04  0.11987453261E+04 0.  0.
        1    1    3    3  502    0 -0.21834809949E+03  0.38755432612E+03  0.41410469979E+03  0.60774743986E+03  0.50400001928E-02 0. -1.
       -1    1    3    3    0  502  0.21834809949E+03 -0.38755432612E+03  0.25685672844E+04  0.26068011322E+04  0.50400001928E-02 0.  1.
</event>
<event>
 5   0  0.1597352E-03  0.1199847E+04  0.7818609E-02  0.9112991E-01
       -2   -1    0    0    0  501  0.00000000000E+00  0.00000000000E+00  0.62521246504E+03  0.62521246504E+03  0.25500000920E-02 0. -1.
        2   -1    0    0  501    0  0.00000000000E+00  0.00000000000E+00 -0.57565731560E+03  0.57565731561E+03  0.25500000920E-02 0.  1.
    10030    2    1    2    0    0  0.00000000000E+00  0.00000000000E+00  0.49555149434E+02  0.12008697807E+04  0.11998468724E+04 0.  0.
        1    1    3    3  502    0  0.18108332654E+03 -0.57145280137E+03  0.11215629790E+01  0.59945870022E+03  0.50400001928E-02 0. -1.
       -1    1    3    3    0  502 -0.18108332654E+03  0.57145280137E+03  0.48433586455E+02  0.60141108043E+03  0.50400001928E-02 0.  1.
</event>
<event>
 5   0  0.9358428E-04  0.1198451E+04  0.7818609E-02  0.9114214E-01
        1   -1    0    0  501    0  0.00000000000E+00  0.00000000000E+00  0.91237620389E+03  0.91237620390E+03  0.50400001928E-02 0.  1.
       -1   -1    0    0    0  501  0.00000000000E+00  0.00000000000E+00 -0.39355581144E+03  0.39355581148E+03  0.50400001928E-02 0. -1.
    10030    2    1    2    0    0  0.00000000000E+00  0.00000000000E+00  0.51882039245E+03  0.13059320154E+04  0.11984505952E+04 0.  0.
        2    1    3    3  502    0 -0.58725232883E+03  0.24775037979E+02  0.13237038702E+03  0.60249565939E+03  0.25500000920E-02 0. -1.
       -2    1    3    3    0  502  0.58725232883E+03 -0.24775037979E+02  0.38645000542E+03  0.70343635598E+03  0.25500000920E-02 0.  1.
</event>
<event>
 5   0  0.1567019E-03  0.1205742E+04  0.7818609E-02  0.9107846E-01
        2   -1    0    0  501    0  0.00000000000E+00  0.00000000000E+00  0.90631483501E+03  0.90631483501E+03  0.25500000920E-02 0. -1.
       -2   -1    0    0    0  501  0.00000000000E+00  0.00000000000E+00 -0.40102312895E+03  0.40102312895E+03  0.25500000920E-02 0.  1.
    10030    2    1    2    0    0  0.00000000000E+00  0.00000000000E+00  0.50529170606E+03  0.13073379640E+04  0.12057416157E+04 0.  0.
        5    1    3    3  502    0 -0.51984967324E+03  0.28221916879E+03  0.12648070273E+03  0.60490561260E+03  0.46999998093E+01 0.  1.
       -5    1    3    3    0  502  0.51984967324E+03 -0.28221916879E+03  0.37881100333E+03  0.70243235136E+03  0.46999998093E+01 0. -1.
</event>
<event>
 5   0  0.1537557E-03  0.1207166E+04  0.7818609E-02  0.9106607E-01
        2   -1    0    0  501    0  0.00000000000E+00  0.00000000000E+00  0.14766878640E+04  0.14766878640E+04  0.25500000920E-02 0.  1.
       -2   -1    0    0    0  501  0.00000000000E+00  0.00000000000E+00 -0.24670903299E+03  0.24670903301E+03  0.25500000920E-02 0. -1.
    10030    2    1    2    0    0  0.00000000000E+00  0.00000000000E+00  0.12299788310E+04  0.17233968970E+04  0.12071656638E+04 0.  0.
        2    1    3    3  502    0  0.92975771064E+02 -0.49479063962E+03  0.13966928176E+03  0.52246509867E+03  0.25500000920E-02 0. -1.
       -2    1    3    3    0  502 -0.92975771064E+02  0.49479063962E+03  0.10903095492E+04  0.12009317983E+04  0.25500000920E-02 0.  1.
</event>
<event>
 5   0  0.9170776E-04  0.1198200E+04  0.7818609E-02  0.9114433E-01
        1   -1    0    0  501    0  0.00000000000E+00  0.00000000000E+00  0.22529742291E+04  0.22529742291E+04  0.50400001928E-02 0. -1.
       -1   -1    0    0    0  501  0.00000000000E+00  0.00000000000E+00 -0.15930984913E+03  0.15930984921E+03  0.50400001928E-02 0.  1.
    10030    2    1    2    0    0  0.00000000000E+00  0.00000000000E+00  0.20936643800E+04  0.24122840784E+04  0.11982002915E+04 0.  0.
        5    1    3    3  502    0  0.10979485598E+03 -0.37169679748E+03  0.19665299751E+04  0.20043641517E+04  0.46999998093E+01 0. -1.
       -5    1    3    3    0  502 -0.10979485598E+03  0.37169679748E+03  0.12713440492E+03  0.40791992666E+03  0.46999998093E+01 0.  1.
</event>
<event>
 5   0  0.8908478E-04  0.1208850E+04  0.7818609E-02  0.9105145E-01
        1   -1    0    0  501    0  0.00000000000E+00  0.00000000000E+00  0.80408793653E+03  0.80408793654E+03  0.50400001928E-02 0. -1.
       -1   -1    0    0    0  501  0.00000000000E+00  0.00000000000E+00 -0.45434061968E+03  0.45434061971E+03  0.50400001928E-02 0.  1.
    10030    2    1    2    0    0  0.00000000000E+00  0.00000000000E+00  0.34974731685E+03  0.12584285563E+04  0.12088503818E+04 0.  0.
        4    1    3    3  502    0  0.57235013880E+03  0.14288570587E+03  0.37842254032E+02  0.59112998183E+03  0.12699999809E+01 0.  1.
       -4    1    3    3    0  502 -0.57235013880E+03 -0.14288570587E+03  0.31190506282E+03  0.66729857443E+03  0.12699999809E+01 0. -1.
</event>
<event>
 5   0  0.9208078E-04  0.1193854E+04  0.7818609E-02  0.9118253E-01
        1   -1    0    0  501    0  0.00000000000E+00  0.00000000000E+00  0.13503989270E+04  0.13503989270E+04  0.50400001928E-02 0. -1.
       -1   -1    0    0    0  501  0.00000000000E+00  0.00000000000E+00 -0.26386408629E+03  0.26386408634E+03  0.50400001928E-02 0.  1.
    10030    2    1    2    0    0  0.00000000000E+00  0.00000000000E+00  0.10865348407E+04  0.16142630134E+04  0.11938538923E+04 0.  0.
        3    1    3    3  502    0  0.33662144056E+03  0.35931673220E+03  0.86932641873E+02  0.49997980231E+03  0.10100000352E+00 0.  1.
       -3    1    3    3    0  502 -0.33662144056E+03 -0.35931673220E+03  0.99960219886E+03  0.11142832111E+04  0.10100000352E+00 0. -1.
</event>
<event>
 5   0  0.9208078E-04  0.1191535E+04  0.7818609E-02  0.9120299E-01
       -1   -1    0    0    0  501  0.00000000000E+00  0.00000000000E+00  0.13329233344E+03  0.13329233353E+03  0.50400001928E-02 0.  1.
        1   -1    0    0  501    0  0.00000000000E+00  0.00000000000E+00 -0.26628598388E+04  0.26628598388E+04  0.50400001928E-02 0. -1.
    10030    2    1    2    0    0  0.00000000000E+00  0.00000000000E+00 -0.25295675054E+04  0.27961521724E+04  0.11915348114E+04 0.  0.
        3    1    3    3  502    0 -0.12172691286E+03 -0.51158229070E+03 -0.60769248126E+03  0.80363178350E+03  0.10100000352E+00 0.  1.
       -3    1    3    3    0  502  0.12172691286E+03  0.51158229070E+03 -0.19218750241E+04  0.19925203889E+04  0.10100000352E+00 0. -1.
</event>
<event>
 5   0  0.1537557E-03  0.1205064E+04  0.7818609E-02  0.9108436E-01
        2   -1    0    0  501    0  0.00000000000E+00  0.00000000000E+00  0.20345398385E+03  0.20345398387E+03  0.25500000920E-02 0. -1.
       -2   -1    0    0    0  501  0.00000000000E+00  0.00000000000E+00 -0.17844075030E+04  0.17844075031E+04  0.25500000920E-02 0.  1.
    10030    2    1    2    0    0  0.00000000000E+00  0.00000000000E+00 -0.15809535192E+04  0.19878614869E+04  0.12050640071E+04 0.  0.
        2    1    3    3  502    0 -0.20835093258E+03  0.14089238128E+03 -0.16936691281E+04  0.17122429413E+04  0.25500000920E-02 0.  1.
       -2    1    3    3    0  502  0.20835093258E+03 -0.14089238128E+03  0.11271560895E+03  0.27561854567E+03  0.25500000920E-02 0. -1.
</event>
<event>
 5   0  0.1537557E-03  0.1202125E+04  0.7818609E-02  0.9110999E-01
       -2   -1    0    0    0  501  0.00000000000E+00  0.00000000000E+00  0.34650177659E+03  0.34650177660E+03  0.25500000920E-02 0. -1.
        2   -1    0    0  501    0  0.00000000000E+00  0.00000000000E+00 -0.10426382651E+04  0.10426382651E+04  0.25500000920E-02 0.  1.
    10030    2    1    2    0    0  0.00000000000E+00  0.00000000000E+00 -0.69613648850E+03  0.13891400417E+04  0.12021248042E+04 0.  0.
        2    1    3    3  502    0 -0.49851208219E+03  0.19620713688E+03 -0.66297866191E+03  0.85238033929E+03  0.25500000920E-02 0.  1.
       -2    1    3    3    0  502  0.49851208219E+03 -0.19620713688E+03 -0.33157826596E+02  0.53675970240E+03  0.25500000920E-02 0. -1.
</event>
<event>
 5   0  0.8908478E-04  0.1163505E+04  0.7818609E-02  0.9145414E-01
       -1   -1    0    0    0  501  0.00000000000E+00  0.00000000000E+00  0.49503123076E+03  0.49503123078E+03  0.50400001928E-02 0.  1.
        1   -1    0    0  501    0  0.00000000000E+00  0.00000000000E+00 -0.68366562015E+03  0.68366562017E+03  0.50400001928E-02 0. -1.
    10030    2    1    2    0    0  0.00000000000E+00  0.00000000000E+00 -0.18863438939E+03  0.11786968509E+04  0.11635047630E+04 0.  0.
        4    1    3    3  502    0 -0.16402233595E+03 -0.34007223987E+03 -0.54268142966E+03  0.66110301922E+03  0.12699999809E+01 0. -1.
       -4    1    3    3    0  502  0.16402233595E+03  0.34007223987E+03  0.35404704027E+03  0.51759383173E+03  0.12699999809E+01 0.  1.
</event>
<event>
 5   0  0.9169078E-04  0.1181534E+04  0.7818609E-02  0.9129175E-01
        1   -1    0    0  501    0  0.00000000000E+00  0.00000000000E+00  0.35040220661E+03  0.35040220665E+03  0.50400001928E-02 0. -1.
       -1   -1    0    0    0  501  0.00000000000E+00  0.00000000000E+00 -0.99601382930E+03  0.99601382931E+03  0.50400001928E-02 0.  1.
    10030    2    1    2    0    0  0.00000000000E+00  0.00000000000E+00 -0.64561162269E+03  0.13464160360E+04  0.11815336536E+04 0.  0.
        1    1    3    3  502    0  0.47035431115E+02 -0.59739991445E+02  0.34480315169E+03  0.35308697483E+03  0.50400001928E-02 0. -1.
       -1    1    3    3    0  502 -0.47035431115E+02  0.59739991445E+02 -0.99041477437E+03  0.99332906113E+03  0.50400001928E-02 0.  1.
</event>
<event>
 5   0  0.9169078E-04  0.1195568E+04  0.7818609E-02  0.9116745E-01
       -1   -1    0    0    0  501  0.00000000000E+00  0.00000000000E+00  0.33949128647E+03  0.33949128651E+03  0.50400001928E-02 0. -1.
        1   -1    0    0  501    0  0.00000000000E+00  0.00000000000E+00 -0.10525914439E+04  0.10525914439E+04  0.50400001928E-02 0.  1.
    10030    2    1    2    0    0  0.00000000000E+00  0.00000000000E+00 -0.71310015746E+03  0.13920827305E+04  0.11955678541E+04 0.  0.
        1    1    3    3  502    0  0.23190729672E+03 -0.26516210071E+03 -0.91889797838E+03  0.98410641123E+03  0.50400001928E-02 0.  1.
       -1    1    3    3    0  502 -0.23190729672E+03  0.26516210071E+03  0.20579782092E+03  0.40797631922E+03  0.50400001928E-02 0. -1.
</event>
<event>
 5   0  0.6137750E-04  0.1209393E+04  0.7818609E-02  0.9104675E-01
        3   -1    0    0  501    0  0.00000000000E+00  0.00000000000E+00  0.31334811574E+03  0.31334813202E+03  0.10100000352E+00 0. -1.
       -3   -1    0    0    0  501  0.00000000000E+00  0.00000000000E+00 -0.11669376259E+04  0.11669376302E+04  0.10100000352E+00 0.  1.
    10030    2    1    2    0    0  0.00000000000E+00  0.00000000000E+00 -0.85358951013E+03  0.14802857623E+04  0.12093927758E+04 0.  0.
        1    1    3    3  502    0  0.54733592697E+03  0.16585514907E+03 -0.66718723658E+03  0.87876240026E+03  0.50400001928E-02 0.  1.
       -1    1    3    3    0  502 -0.54733592697E+03 -0.16585514907E+03 -0.18640227354E+03  0.60152336200E+03  0.50400001928E-02 0. -1.
</event>
<event>
 5   0  0.9170776E-04  0.1189274E+04  0.7818609E-02  0.9122297E-01
       -1   -1    0    0    0  501  0.00000000000E+00  0.00000000000E+00  0.23568787497E+03  0.23568787503E+03  0.50400001928E-02 0.  1.
        1   -1    0    0  501    0  0.00000000000E+00  0.00000000000E+00 -0.15002595335E+04  0.15002595335E+04  0.50400001928E-02 0. -1.
    10030    2    1    2    0    0  0.00000000000E+00  0.00000000000E+00 -0.12645716585E+04  0.17359474085E+04  0.11892736967E+04 0.  0.
        5    1    3    3  502    0  0.28202656421E+03  0.30698191702E+03 -0.12512170080E+04  0.13188415263E+04  0.46999998093E+01 0. -1.
       -5    1    3    3    0  502 -0.28202656421E+03 -0.30698191702E+03 -0.13354650478E+02  0.41710588222E+03  0.46999998093E+01 0.  1.
</event>
<event>
 5   0  0.1551501E-03  0.1198957E+04  0.7818609E-02  0.9113770E-01
       -2   -1    0    0    0  501  0.00000000000E+00  0.00000000000E+00  0.94646427886E+03  0.94646427886E+03  0.25500000920E-02 0.  1.
        2   -1    0    0  501    0  0.00000000000E+00  0.00000000000E+00 -0.37970194452E+03  0.37970194453E+03  0.25500000920E-02 0. -1.
    10030    2    1    2    0    0  0.00000000000E+00  0.00000000000E+00  0.56676233434E+03  0.13261662234E+04  0.11989567584E+04 0.  0.
        4    1    3    3  502    0  0.39693848852E+03 -0.34264540680E+03 -0.37972189478E+02  0.52574664863E+03  0.12699999809E+01 0. -1.
       -4    1    3    3    0  502 -0.39693848852E+03  0.34264540680E+03  0.60473452382E+03  0.80041957476E+03  0.12699999809E+01 0.  1.
</event>
<event>
 5   0  0.1647550E-03  0.1192581E+04  0.7818609E-02  0.9119375E-01
        2   -1    0    0  501    0  0.00000000000E+00  0.00000000000E+00  0.11843831994E+04  0.11843831994E+04  0.25500000920E-02 0. -1.
       -2   -1    0    0    0  501  0.00000000000E+00  0.00000000000E+00 -0.30020876484E+03  0.30020876485E+03  0.25500000920E-02 0.  1.
    10030    2    1    2    0    0  0.00000000000E+00  0.00000000000E+00  0.88417443456E+03  0.14845919643E+04  0.11925807602E+04 0.  0.
        3    1    3    3  502    0 -0.43955564638E+03  0.10649828375E+03  0.92584038693E+03  0.10304035535E+04  0.10100000352E+00 0. -1.
       -3    1    3    3    0  502  0.43955564638E+03 -0.10649828375E+03 -0.41665952373E+02  0.45418841079E+03  0.10100000352E+00 0.  1.
</event>
<event>
 5   0  0.1597352E-03  0.1202251E+04  0.7818609E-02  0.9110889E-01
        2   -1    0    0  501    0  0.00000000000E+00  0.00000000000E+00  0.62295210911E+03  0.62295210912E+03  0.25500000920E-02 0.  1.
       -2   -1    0    0    0  501  0.00000000000E+00  0.00000000000E+00 -0.58006336167E+03  0.58006336168E+03  0.25500000920E-02 0. -1.
    10030    2    1    2    0    0  0.00000000000E+00  0.00000000000E+00  0.42888747438E+02  0.12030154708E+04  0.12022507136E+04 0.  0.
        1    1    3    3  502    0 -0.33203529101E+03 -0.31123610502E+03 -0.37153479917E+03  0.58749762090E+03  0.50400001928E-02 0. -1.
       -1    1    3    3    0  502  0.33203529101E+03  0.31123610502E+03  0.41442354661E+03  0.61551784990E+03  0.50400001928E-02 0.  1.
</event>
<event>
 5   0  0.1647550E-03  0.1195416E+04  0.7818609E-02  0.9116878E-01
       -2   -1    0    0    0  501  0.00000000000E+00  0.00000000000E+00  0.30905139394E+03  0.30905139396E+03  0.25500000920E-02 0.  1.
        2   -1    0    0  501    0  0.00000000000E+00  0.00000000000E+00 -0.11559727699E+04  0.11559727699E+04  0.25500000920E-02 0. -1.
    10030    2    1    2    0    0  0.00000000000E+00  0.00000000000E+00 -0.84692137599E+03  0.14650241639E+04  0.11954162387E+04 0.  0.
        3    1    3    3  502    0 -0.32609579921E+03  0.23864005437E+03 -0.96320746011E+03  0.10445363408E+04  0.10100000352E+00 0. -1.
       -3    1    3    3    0  502  0.32609579921E+03 -0.23864005437E+03  0.11628608412E+03  0.42048782310E+03  0.10100000352E+00 0.  1.
</event>
<event>
 5   0  0.1567019E-03  0.1197583E+04  0.7818609E-02  0.9114974E-01
        2   -1    0    0  501    0  0.00000000000E+00  0.00000000000E+00  0.12740562128E+04  0.12740562128E+04  0.25500000920E-02 0. -1.
       -2   -1    0    0    0  501  0.00000000000E+00  0.00000000000E+00 -0.28142519848E+03  0.28142519849E+03  0.25500000920E-02 0.  1.
    10030    2    1    2    0    0  0.00000000000E+00  0.00000000000E+00  0.99263101429E+03  0.15554814113E+04  0.11975834377E+04 0.  0.
        5    1    3    3  502    0  0.35958319946E+03  0.15983300005E+03 -0.89871499518E+02  0.40366525942E+03  0.46999998093E+01 0.  1.
       -5    1    3    3    0  502 -0.35958319946E+03 -0.15983300005E+03  0.10825025138E+04  0.11518161518E+04  0.46999998093E+01 0. -1.
</event>
<event>
 5   0  0.1567019E-03  0.1184529E+04  0.7818609E-02  0.9126507E-01
        2   -1    0    0  501    0  0.00000000000E+00  0.00000000000E+00  0.57012097103E+03  0.57012097104E+03  0.25500000920E-02 0.  1.
       -2   -1    0    0    0  501  0.00000000000E+00  0.00000000000E+00 -0.61526771005E+03  0.61526771006E+03  0.25500000920E-02 0. -1.
    10030    2    1    2    0    0  0.00000000000E+00  0.00000000000E+00 -0.45146739021E+02  0.11853886811E+04  0.11845286393E+04 0.  0.
        5    1    3    3  502    0 -0.24550597253E+02 -0.12915612793E+03 -0.60046203900E+03  0.61470382095E+03  0.46999998093E+01 0. -1.
       -5    1    3    3    0  502  0.24550597253E+02  0.12915612793E+03  0.55531529998E+03  0.57068486015E+03  0.46999998093E+01 0.  1.
</event>
<event>
 5   0  0.9169078E-04  0.1201431E+04  0.7818609E-02  0.9111605E-01
       -1   -1    0    0    0  501  0.00000000000E+00  0.00000000000E+00  0.21020858711E+03  0.21020858717E+03  0.50400001928E-02 0. -1.
        1   -1    0    0  501    0  0.00000000000E+00  0.00000000000E+00 -0.17166719862E+04  0.17166719862E+04  0.50400001928E-02 0.  1.
    10030    2    1    2    0    0  0.00000000000E+00  0.00000000000E+00 -0.15064633990E+04  0.19268805733E+04  0.12014311346E+04 0.  0.
        1    1    3    3  502    0  0.62814086790E+02 -0.12248874451E+03  0.18457185617E+03  0.23025175818E+03  0.50400001928E-02 0. -1.
       -1    1    3    3    0  502 -0.62814086790E+02  0.12248874451E+03 -0.16910352552E+04  0.16966288152E+04  0.50400001928E-02 0.  1.
</event>
<event>
 5   0  0.1551501E-03  0.1189596E+04  0.7818609E-02  0.9122012E-01
        2   -1    0    0  501    0  0.00000000000E+00  0.00000000000E+00  0.65505457856E+03  0.65505457856E+03  0.25500000920E-02 0.  1.
       -2   -1    0    0    0  501  0.00000000000E+00  0.00000000000E+00 -0.54008427851E+03  0.54008427852E+03  0.25500000920E-02 0. -1.
    10030    2    1    2    0    0  0.00000000000E+00  0.00000000000E+00  0.11497030004E+03  0.11951388571E+04  0.11895960314E+04 0.  0.
        4    1    3    3  502    0 -0.57146613257E+03  0.15176994081E+03  0.12240364947E+03  0.60381447640E+03  0.12699999809E+01 0.  1.
       -4    1    3    3    0  502  0.57146613257E+03 -0.15176994081E+03 -0.74333494272E+01  0.59132438068E+03  0.12699999809E+01 0. -1.
</event>
<event>
 5   0  0.9208078E-04  0.1213073E+04  0.7818609E-02  0.9101490E-01
        1   -1    0    0  501    0  0.00000000000E+00  0.00000000000E+00  0.68646617248E+03  0.68646617250E+03  0.50400001928E-02 0. -1.
       -1   -1    0    0    0  501  0.00000000000E+00  0.00000000000E+00 -0.53591336285E+03  0.53591336287E+03  0.50400001928E-02 0.  1.
    10030    2    1    2    0    0  0.00000000000E+00  0.00000000000E+00  0.15055280963E+03  0.12223795354E+04  0.12130727843E+04 0.  0.
        3    1    3    3  502    0 -0.23411888436E+03  0.23109849640E+03  0.58876240783E+03  0.67443261348E+03  0.10100000352E+00 0. -1.
       -3    1    3    3    0  502  0.23411888436E+03 -0.23109849640E+03 -0.43820959819E+03  0.54794692189E+03  0.10100000352E+00 0.  1.
</event>
<event>
 5   0  0.9358428E-04  0.1189810E+04  0.7818609E-02  0.9121822E-01
       -1   -1    0    0    0  501  0.00000000000E+00  0.00000000000E+00  0.43954725127E+03  0.43954725130E+03  0.50400001928E-02 0. -1.
        1   -1    0    0  501    0  0.00000000000E+00  0.00000000000E+00 -0.80517451996E+03  0.80517451997E+03  0.50400001928E-02 0.  1.
    10030    2    1    2    0    0  0.00000000000E+00  0.00000000000E+00 -0.36562726868E+03  0.12447217713E+04  0.11898104842E+04 0.  0.
        2    1    3    3  502    0 -0.26445057479E+03  0.60084532603E+02 -0.73674850860E+03  0.78507491521E+03  0.25500000920E-02 0. -1.
       -2    1    3    3    0  502  0.26445057479E+03 -0.60084532603E+02  0.37112123992E+03  0.45964685606E+03  0.25500000920E-02 0.  1.
</event>
<event>
 5   0  0.8908478E-04  0.1197965E+04  0.7818609E-02  0.9114639E-01
       -1   -1    0    0    0  501  0.00000000000E+00  0.00000000000E+00  0.65586630110E+03  0.65586630112E+03  0.50400001928E-02 0. -1.
        1   -1    0    0  501    0  0.00000000000E+00  0.00000000000E+00 -0.54703247104E+03  0.54703247106E+03  0.50400001928E-02 0.  1.
    10030    2    1    2    0    0  0.00000000000E+00  0.00000000000E+00  0.10883383007E+03  0.12028987722E+04  0.11979652138E+04 0.  0.
        4    1    3    3  502    0  0.10320653638E+03  0.32044442010E+03 -0.44304474091E+03  0.55644089612E+03  0.12699999809E+01 0.  1.
       -4    1    3    3    0  502 -0.10320653638E+03 -0.32044442010E+03  0.55187857097E+03  0.64645787606E+03  0.12699999809E+01 0. -1.
</event>
<event>
 5   0  0.1551501E-03  0.1195290E+04  0.7818609E-02  0.9116989E-01
        2   -1    0    0  501    0  0.00000000000E+00  0.00000000000E+00  0.13001189777E+04  0.13001189777E+04  0.25500000920E-02 0.  1.
       -2   -1    0    0    0  501  0.00000000000E+00  0.00000000000E+00 -0.27472855224E+03  0.27472855225E+03  0.25500000920E-02 0. -1.
    10030    2    1    2    0    0  0.00000000000E+00  0.00000000000E+00  0.10253904254E+04  0.15748475299E+04  0.11952904325E+04 0.  0.
        4    1    3    3  502    0 -0.53894903166E+03  0.25765957833E+03  0.53639908779E+03  0.80285746637E+03  0.12699999809E+01 0.  1.
       -4    1    3    3    0  502  0.53894903166E+03 -0.25765957833E+03  0.48899133763E+03  0.77199006354E+03  0.12699999809E+01 0. -1.
</event>
<event>
 5   0  0.9170776E-04  0.1202843E+04  0.7818609E-02  0.9110372E-01
        1   -1    0    0  501    0  0.00000000000E+00  0.00000000000E+00  0.57257756793E+03  0.57257756795E+03  0.50400001928E-02 0.  1.
       -1   -1    0    0    0  501  0.00000000000E+00  0.00000000000E+00 -0.63171845799E+03  0.63171845801E+03  0.50400001928E-02 0. -1.
    10030    2    1    2    0    0  0.00000000000E+00  0.00000000000E+00 -0.59140890059E+02  0.12042960260E+04  0.12028429961E+04 0.  0.
        5    1    3    3  502    0 -0.50269741863E+03  0.32625654934E+03  0.20865974318E+02  0.59967116786E+03  0.46999998093E+01 0.  1.
       -5    1    3    3    0  502  0.50269741863E+03 -0.32625654934E+03 -0.80006864377E+02  0.60462485810E+03  0.46999998093E+01 0. -1.
</event>
<event>
 5   0  0.9208078E-04  0.1210385E+04  0.7818609E-02  0.9103815E-01
       -1   -1    0    0    0  501  0.00000000000E+00  0.00000000000E+00  0.43544764687E+03  0.43544764690E+03  0.50400001928E-02 0. -1.
        1   -1    0    0  501    0  0.00000000000E+00  0.00000000000E+00 -0.84110704487E+03  0.84110704489E+03  0.50400001928E-02 0.  1.
    10030    2    1    2    0    0  0.00000000000E+00  0.00000000000E+00 -0.40565939800E+03  0.12765546918E+04  0.12103852006E+04 0.  0.
        3    1    3    3  502    0 -0.41422256929E+03  0.40955514424E+03 -0.37594414804E+03  0.69328909246E+03  0.10100000352E+00 0. -1.
       -3    1    3    3    0  502  0.41422256929E+03 -0.40955514424E+03 -0.29715249956E+02  0.58326559933E+03  0.10100000352E+00 0.  1.
</event>
<event>
 5   0  0.9170776E-04  0.1221105E+04  0.7818609E-02  0.9094582E-01
        1   -1    0    0  501    0  0.00000000000E+00  0.00000000000E+00  0.59209254253E+03  0.59209254255E+03  0.50400001928E-02 0.  1.
       -1   -1    0    0    0  501  0.00000000000E+00  0.00000000000E+00 -0.62958753322E+03  0.62958753324E+03  0.50400001928E-02 0. -1.
    10030    2    1    2    0    0  0.00000000000E+00  0.00000000000E+00 -0.37494990693E+02  0.12216800758E+04  0.12211045546E+04 0.  0.
        5    1    3    3  502    0  0.65174344104E+01  0.52518170419E+03  0.29267673267E+03  0.60128201304E+03  0.46999998093E+01 0.  1.
       -5    1    3    3    0  502 -0.65174344104E+01 -0.52518170419E+03 -0.33017172336E+03  0.62039806276E+03  0.46999998093E+01 0. -1.
</event>
<event>
 5   0  0.1567019E-03  0.1202694E+04  0.7818609E-02  0.9110501E-01
       -2   -1    0    0    0  501  0.00000000000E+00  0.00000000000E+00  0.12556126673E+04  0.12556126673E+04  0.25500000920E-02 0. -1.
        2   -1    0    0  501    0  0.00000000000E+00  0.00000000000E+00 -0.28800160480E+03  0.28800160481E+03  0.25500000920E-02 0.  1.
    10030    2    1    2    0    0  0.00000000000E+00  0.00000000000E+00  0.96761106251E+03  0.15436142721E+04  0.12026944137E+04 0.  0.
        5    1    3    3  502    0 -0.21997437777E+03  0.55072896534E+03  0.35606865855E+03  0.69173557068E+03  0.46999998093E+01 0. -1.
       -5    1    3    3    0  502  0.21997437777E+03 -0.55072896534E+03  0.61154240396E+03  0.85187870145E+03  0.46999998093E+01 0.  1.
</event>
<event>
 5   0  0.1597352E-03  0.1194614E+04  0.7818609E-02  0.9117584E-01
        2   -1    0    0  501    0  0.00000000000E+00  0.00000000000E+00  0.10700506069E+04  0.10700506069E+04  0.25500000920E-02 0. -1.
       -2   -1    0    0    0  501  0.00000000000E+00  0.00000000000E+00 -0.33341927069E+03  0.33341927070E+03  0.25500000920E-02 0.  1.
    10030    2    1    2    0    0  0.00000000000E+00  0.00000000000E+00  0.73663133617E+03  0.14034698776E+04  0.11946137333E+04 0.  0.
        1    1    3    3  502    0 -0.79333477367E+02 -0.53371993628E+02 -0.32436994496E+03  0.33816893937E+03  0.50400001928E-02 0.  1.
       -1    1    3    3    0  502  0.79333477367E+02  0.53371993628E+02  0.10610012811E+04  0.10653009382E+04  0.50400001928E-02 0. -1.
</event>
<event>
 5   0  0.9358428E-04  0.1210486E+04  0.7818609E-02  0.9103727E-01
       -1   -1    0    0    0  501  0.00000000000E+00  0.00000000000E+00  0.45435305226E+03  0.45435305229E+03  0.50400001928E-02 0.  1.
        1   -1    0    0  501    0  0.00000000000E+00  0.00000000000E+00 -0.80624308427E+03  0.80624308429E+03  0.50400001928E-02 0. -1.
    10030    2    1    2    0    0  0.00000000000E+00  0.00000000000E+00 -0.35189003201E+03  0.12605961366E+04  0.12104858632E+04 0.  0.
        2    1    3    3  502    0  0.36900615331E+03 -0.43602015617E+03 -0.38432820475E+03  0.68846734616E+03  0.25500000920E-02 0.  1.
       -2    1    3    3    0  502 -0.36900615331E+03  0.43602015617E+03  0.32438172738E+02  0.57212879042E+03  0.25500000920E-02 0. -1.
</event>
<event>
 5   0  0.1567019E-03  0.1203999E+04  0.7818609E-02  0.9109363E-01
       -2   -1    0    0    0  501  0.00000000000E+00  0.00000000000E+00  0.18506480778E+04  0.18506480778E+04  0.25500000920E-02 0.  1.
        2   -1    0    0  501    0  0.00000000000E+00  0.00000000000E+00 -0.19582523224E+03  0.19582523225E+03  0.25500000920E-02 0. -1.
    10030    2    1    2    0    0  0.00000000000E+00  0.00000000000E+00  0.16548228456E+04  0.20464733101E+04  0.12039993183E+04 0.  0.
        5    1    3    3  502    0 -0.18944314845E+03 -0.53181194012E+03  0.11826055192E+04  0.13104543297E+04  0.46999998093E+01 0. -1.
       -5    1    3    3    0  502  0.18944314845E+03  0.53181194012E+03  0.47221732635E+03  0.73601898036E+03  0.46999998093E+01 0.  1.
</event>
<event>
 5   0  0.1597352E-03  0.1193034E+04  0.7818609E-02  0.9118976E-01
       -2   -1    0    0    0  501  0.00000000000E+00  0.00000000000E+00  0.22501245623E+03  0.22501245625E+03  0.25500000920E-02 0. -1.
        2   -1    0    0  501    0  0.00000000000E+00  0.00000000000E+00 -0.15813897319E+04  0.15813897319E+04  0.25500000920E-02 0.  1.
    10030    2    1    2    0    0  0.00000000000E+00  0.00000000000E+00 -0.13563772756E+04  0.18064021881E+04  0.11930337595E+04 0.  0.
        1    1    3    3  502    0  0.37993127451E+03  0.34368364705E+03 -0.11408428050E+04  0.12505952696E+04  0.50400001928E-02 0.  1.
       -1    1    3    3    0  502 -0.37993127451E+03 -0.34368364705E+03 -0.21553447061E+03  0.55580691850E+03  0.50400001928E-02 0. -1.
</event>
<event>
 5   0  0.6137750E-04  0.1201584E+04  0.7818609E-02  0.9111472E-01
       -3   -1    0    0    0  501  0.00000000000E+00  0.00000000000E+00  0.12698488313E+04  0.12698488353E+04  0.10100000352E+00 0.  1.
        3   -1    0    0  501    0  0.00000000000E+00  0.00000000000E+00 -0.28424704449E+03  0.28424706244E+03  0.10100000352E+00 0. -1.
    10030    2    1    2    0    0  0.00000000000E+00  0.00000000000E+00  0.98560178682E+03  0.15540958978E+04  0.12015836123E+04 0.  0.
        4    1    3    3  502    0  0.46011586021E+03  0.36985946257E+03  0.34850685414E+03  0.68553721062E+03  0.12699999809E+01 0. -1.
       -4    1    3    3    0  502 -0.46011586021E+03 -0.36985946257E+03  0.63709493268E+03  0.86855868715E+03  0.12699999809E+01 0.  1.
</event>
<event>
 5   0  0.1597352E-03  0.1200361E+04  0.7818609E-02  0.9112541E-01
       -2   -1    0    0    0  501  0.00000000000E+00  0.00000000000E+00  0.36717813183E+03  0.36717813184E+03  0.25500000920E-02 0.  1.
        2   -1    0    0  501    0  0.00000000000E+00  0.00000000000E+00 -0.98104047724E+03  0.98104047724E+03  0.25500000920E-02 0. -1.
    10030    2    1    2    0    0  0.00000000000E+00  0.00000000000E+00 -0.61386234540E+03  0.13482186091E+04  0.12003609619E+04 0.  0.
        1    1    3    3  502    0  0.40432552197E+03  0.35715762286E+03 -0.60234165976E+03  0.80861373373E+03  0.50400001928E-02 0. -1.
       -1    1    3    3    0  502 -0.40432552197E+03 -0.35715762286E+03 -0.11520685643E+02  0.53960487535E+03  0.50400001928E-02 0.  1.
</event>
<event>
 5   0  0.1647550E-03  0.1209166E+04  0.7818609E-02  0.9104872E-01
        2   -1    0    0  501    0  0.00000000000E+00  0.00000000000E+00  0.87355270056E+03  0.87355270057E+03  0.25500000920E-02 0. -1.
       -2   -1    0    0    0  501  0.00000000000E+00  0.00000000000E+00 -0.41842968408E+03  0.41842968409E+03  0.25500000920E-02 0.  1.
    10030    2    1    2    0    0  0.00000000000E+00  0.00000000000E+00  0.45512301648E+03  0.12919823847E+04  0.12091656306E+04 0.  0.
        3    1    3    3  502    0 -0.66241783854E+01 -0.42291077698E+03  0.68914826594E+03  0.80859306680E+03  0.10100000352E+00 0. -1.
       -3    1    3    3    0  502  0.66241783854E+01  0.42291077698E+03 -0.23402524946E+03  0.48338931785E+03  0.10100000352E+00 0.  1.
</event>
<event>
 5   0  0.8908478E-04  0.1210803E+04  0.7818609E-02  0.9103453E-01
       -1   -1    0    0    0  501  0.00000000000E+00  0.00000000000E+00  0.59065492792E+03  0.59065492794E+03  0.50400001928E-02 0. -1.
        1   -1    0    0  501    0  0.00000000000E+00  0.00000000000E+00 -0.62051597221E+03  0.62051597223E+03  0.50400001928E-02 0.  1.
    10030    2    1    2    0    0  0.00000000000E+00  0.00000000000E+00 -0.29861044289E+02  0.12111709002E+04  0.12108027368E+04 0.  0.
        4    1    3    3  502    0  0.42388339745E+02 -0.13495316511E+03 -0.60375207859E+03  0.62010266361E+03  0.12699999809E+01 0.  1.
       -4    1    3    3    0  502 -0.42388339745E+02  0.13495316511E+03  0.57389103430E+03  0.59106823656E+03  0.12699999809E+01 0. -1.
</event>
<event>
 5   0  0.8908478E-04  0.1198095E+04  0.7818609E-02  0.9114526E-01
       -1   -1    0    0    0  501  0.00000000000E+00  0.00000000000E+00  0.48798280717E+03  0.48798280720E+03  0.50400001928E-02 0.  1.
        1   -1    0    0  501    0  0.00000000000E+00  0.00000000000E+00 -0.73539025811E+03  0.73539025813E+03  0.50400001928E-02 0. -1.
    10030    2    1    2    0    0  0.00000000000E+00  0.00000000000E+00 -0.24740745094E+03  0.12233730653E+04  0.11980948252E+04 0.  0.
        4    1    3    3  502    0 -0.56575025087E+03 -0.69878155819E+02 -0.31170761964E+03  0.64970728491E+03  0.12699999809E+01 0. -1.
       -4    1    3    3    0  502  0.56575025087E+03  0.69878155819E+02  0.64300168707E+02  0.57366578042E+03  0.12699999809E+01 0.  1.
</event>
<event>
 5   0  0.9169078E-04  0.1205360E+04  0.7818609E-02  0.9108178E-01
       -1   -1    0    0    0  501  0.00000000000E+00  0.00000000000E+00  0.19450714481E+03  0.19450714488E+03  0.50400001928E-02 0. -1.
        1   -1    0    0  501    0  0.00000000000E+00  0.00000000000E+00 -0.18674029603E+04  0.18674029603E+04  0.50400001928E-02 0.  1.
    10030    2    1    2    0    0  0.00000000000E+00  0.00000000000E+00 -0.16728958155E+04  0.20619101052E+04  0.12053600592E+04 0.  0.
        1    1    3    3  502    0 -0.58674688799E+03 -0.87256943043E+02 -0.10185907966E+04  0.11787335982E+04  0.50400001928E-02 0.  1.
       -1    1    3    3    0  502  0.58674688799E+03  0.87256943043E+02 -0.65430501894E+03  0.88317650699E+03  0.50400001928E-02 0. -1.
</event>
<event>
 5   0  0.1567019E-03  0.1196389E+04  0.7818609E-02  0.9116023E-01
       -2   -1    0    0    0  501  0.00000000000E+00  0.00000000000E+00  0.47229512432E+03  0.47229512433E+03  0.25500000920E-02 0.  1.
        2   -1    0    0  501    0  0.00000000000E+00  0.00000000000E+00 -0.75765453735E+03  0.75765453735E+03  0.25500000920E-02 0. -1.
    10030    2    1    2    0    0  0.00000000000E+00  0.00000000000E+00 -0.28535941303E+03  0.12299496617E+04  0.11963888062E+04 0.  0.
        5    1    3    3  502    0 -0.56733659924E+02 -0.51089226865E+03  0.17181818433E+03  0.54200848407E+03  0.46999998093E+01 0.  1.
       -5    1    3    3    0  502  0.56733659924E+02  0.51089226865E+03 -0.45717759736E+03  0.68794117762E+03  0.46999998093E+01 0. -1.
</event>
<event>
 5   0  0.9169078E-04  0.1194170E+04  0.7818609E-02  0.9117974E-01
        1   -1    0    0  501    0  0.00000000000E+00  0.00000000000E+00  0.10916976801E+04  0.10916976801E+04  0.50400001928E-02 0.  1.
       -1   -1    0    0    0  501  0.00000000000E+00  0.00000000000E+00 -0.32656546067E+03  0.32656546071E+03  0.50400001928E-02 0. -1.
    10030    2    1    2    0    0  0.00000000000E+00  0.00000000000E+00  0.76513221941E+03  0.14182631408E+04  0.11941704331E+04 0.  0.
        1    1    3    3  502    0 -0.47579705869E+03 -0.21427802139E+03  0.72721721058E+03  0.89506579808E+03  0.50400001928E-02 0.  1.
       -1    1    3    3    0  502  0.47579705869E+03  0.21427802139E+03  0.37915008828E+02  0.52319734272E+03  0.50400001928E-02 0. -1.
</event>
<event>
 5   0  0.6137750E-04  0.1211042E+04  0.7818609E-02  0.9103246E-01
        3   -1    0    0  501    0  0.00000000000E+00  0.00000000000E+00  0.43787160567E+03  0.43787161732E+03  0.10100000352E+00 0. -1.
       -3   -1    0    0    0  501  0.00000000000E+00  0.00000000000E+00 -0.83735832957E+03  0.83735833566E+03  0.10100000352E+00 0.  1.
    10030    2    1    2    0    0  0.00000000000E+00  0.00000000000E+00 -0.39948672390E+03  0.12752299530E+04  0.12110416138E+04 0.  0.
        1    1    3    3  502    0  0.22983615433E+03  0.75295584912E+02  0.38480242227E+03  0.45449641049E+03  0.50400001928E-02 0. -1.
       -1    1    3    3    0  502 -0.22983615433E+03 -0.75295584912E+02 -0.78428914617E+03  0.82073354249E+03  0.50400001928E-02 0.  1.
</event>
<event>
 5   0  0.1567019E-03  0.1203085E+04  0.7818609E-02  0.9110161E-01
        2   -1    0    0  501    0  0.00000000000E+00  0.00000000000E+00  0.46712380371E+03  0.46712380372E+03  0.25500000920E-02 0. -1.
       -2   -1    0    0    0  501  0.00000000000E+00  0.00000000000E+00 -0.77464122744E+03  0.77464122744E+03  0.25500000920E-02 0.  1.
    10030    2    1    2    0    0  0.00000000000E+00  0.00000000000E+00 -0.30751742373E+03  0.12417650312E+04  0.12030849624E+04 0.  0.
        5    1    3    3  502    0 -0.72096682444E+02 -0.15697130844E+03 -0.74847223666E+03  0.76816059671E+03  0.46999998093E+01 0.  1.
       -5    1    3    3    0  502  0.72096682444E+02  0.15697130844E+03  0.44095481292E+03  0.47360443445E+03  0.46999998093E+01 0. -1.
</event>
<event>
 5   0  0.1597352E-03  0.1198799E+04  0.7818609E-02  0.9113908E-01
       -2   -1    0    0    0  501  0.00000000000E+00  0.00000000000E+00  0.70970884044E+03  0.70970884044E+03  0.25500000920E-02 0. -1.
        2   -1    0    0  501    0  0.00000000000E+00  0.00000000000E+00 -0.50623579004E+03  0.50623579005E+03  0.25500000920E-02 0.  1.
    10030    2    1    2    0    0  0.00000000000E+00  0.00000000000E+00  0.20347305040E+03  0.12159446305E+04  0.11987994253E+04 0.  0.
        1    1    3    3  502    0 -0.87932652971E+01  0.46614241880E+03 -0.28036590610E+03  0.54403227611E+03  0.50400001928E-02 0.  1.
       -1    1    3    3    0  502  0.87932652971E+01 -0.46614241880E+03  0.48383895650E+03  0.67191235438E+03  0.50400001928E-02 0. -1.
</event>
<event>
 5   0  0.1551501E-03  0.1345746E+04  0.7818609E-02  0.8994055E-01
        2   -1    0    0  501    0  0.00000000000E+00  0.00000000000E+00  0.92213587450E+03  0.92213587451E+03  0.25500000920E-02 0.  1.
       -2   -1    0    0    0  501  0.00000000000E+00  0.00000000000E+00 -0.49098837983E+03  0.49098837983E+03  0.25500000920E-02 0. -1.
    10030    2    1    2    0    0  0.00000000000E+00  0.00000000000E+00  0.43114749468E+03  0.14131242543E+04  0.13457458884E+04 0.  0.
        4    1    3    3  502    0 -0.12703968473E+02 -0.34794784008E+02  0.92106319541E+03  0.92180859762E+03  0.12699999809E+01 0.  1.
       -4    1    3    3    0  502  0.12703968473E+02  0.34794784008E+02 -0.48991570073E+03  0.49131565672E+03  0.12699999809E+01 0. -1.
</event>
<event>
 5   0  0.1567019E-03  0.1182137E+04  0.7818609E-02  0.9128637E-01
       -2   -1    0    0    0  501  0.00000000000E+00  0.00000000000E+00  0.46600125509E+03  0.46600125510E+03  0.25500000920E-02 0. -1.
        2   -1    0    0  501    0  0.00000000000E+00  0.00000000000E+00 -0.74970182439E+03  0.74970182439E+03  0.25500000920E-02 0.  1.
    10030    2    1    2    0    0  0.00000000000E+00  0.00000000000E+00 -0.28370056930E+03  0.12157030795E+04  0.11821370329E+04 0.  0.
        5    1    3    3  502    0 -0.15490343224E+03 -0.41377635833E+02 -0.72689074900E+03  0.74437855494E+03  0.46999998093E+01 0.  1.
       -5    1    3    3    0  502  0.15490343224E+03  0.41377635833E+02  0.44319017970E+03  0.47132452456E+03  0.46999998093E+01 0. -1.
</event>
<event>
 5   0  0.8908478E-04  0.1207707E+04  0.7818609E-02  0.9106137E-01
       -1   -1    0    0    0  501  0.00000000000E+00  0.00000000000E+00  0.33480332464E+03  0.33480332468E+03  0.50400001928E-02 0.  1.
        1   -1    0    0  501    0  0.00000000000E+00  0.00000000000E+00 -0.10891148556E+04  0.10891148556E+04  0.50400001928E-02 0. -1.
    10030    2    1    2    0    0  0.00000000000E+00  0.00000000000E+00 -0.75431153093E+03  0.14239181803E+04  0.12077073728E+04 0.  0.
        4    1    3    3  502    0 -0.32104984544E+03 -0.11160142730E+03 -0.96561814884E+03  0.10236932666E+04  0.12699999809E+01 0. -1.
       -4    1    3    3    0  502  0.32104984544E+03  0.11160142730E+03  0.21130661791E+03  0.40022491365E+03  0.12699999809E+01 0.  1.
</event>
<event>
 5   0  0.1597352E-03  0.1189162E+04  0.7818609E-02  0.9122397E-01
       -2   -1    0    0    0  501  0.00000000000E+00  0.00000000000E+00  0.21560011950E+03  0.21560011952E+03  0.25500000920E-02 0.  1.
        2   -1    0    0  501    0  0.00000000000E+00  0.00000000000E+00 -0.16397314842E+04  0.16397314842E+04  0.25500000920E-02 0. -1.
    10030    2    1    2    0    0  0.00000000000E+00  0.00000000000E+00 -0.14241313647E+04  0.18553316038E+04  0.11891615600E+04 0.  0.
        1    1    3    3  502    0 -0.28102094794E+03  0.85306358406E+02  0.94539394378E+02  0.30852495050E+03  0.50400001928E-02 0.  1.
       -1    1    3    3    0  502  0.28102094794E+03 -0.85306358406E+02 -0.15186707591E+04  0.15468066533E+04  0.50400001928E-02 0. -1.
</event>
<event>
 5   0  0.8908478E-04  0.1199871E+04  0.7818609E-02  0.9112970E-01
        1   -1    0    0  501    0  0.00000000000E+00  0.00000000000E+00  0.82951936283E+03  0.82951936284E+03  0.50400001928E-02 0.  1.
       -1   -1    0    0    0  501  0.00000000000E+00  0.00000000000E+00 -0.43389285711E+03  0.43389285714E+03  0.50400001928E-02 0. -1.
    10030    2    1    2    0    0  0.00000000000E+00  0.00000000000E+00  0.39562650572E+03  0.12634122200E+04  0.11998708704E+04 0.  0.
        4    1    3    3  502    0  0.43788927829E+03 -0.40405049578E+03  0.27164865693E+03  0.65482702211E+03  0.12699999809E+01 0.  1.
       -4    1    3    3    0  502 -0.43788927829E+03  0.40405049578E+03  0.12397784878E+03  0.60858519787E+03  0.12699999809E+01 0. -1.
</event>
<event>
 5   0  0.9358428E-04  0.1211000E+04  0.7818609E-02  0.9103283E-01
        1   -1    0    0  501    0  0.00000000000E+00  0.00000000000E+00  0.27759895592E+03  0.27759895596E+03  0.50400001928E-02 0. -1.
       -1   -1    0    0    0  501  0.00000000000E+00  0.00000000000E+00 -0.13207188282E+04  0.13207188283E+04  0.50400001928E-02 0.  1.
    10030    2    1    2    0    0  0.00000000000E+00  0.00000000000E+00 -0.10431198723E+04  0.15983177842E+04  0.12109998643E+04 0.  0.
        2    1    3    3  502    0 -0.38632940747E+02 -0.55389774990E+03 -0.84033433750E+03  0.10072025716E+04  0.25500000920E-02 0.  1.
       -2    1    3    3    0  502  0.38632940747E+02  0.55389774990E+03 -0.20278553483E+03  0.59111521262E+03  0.25500000920E-02 0. -1.
</event>
<event>
 5   0  0.6137750E-04  0.1207351E+04  0.7818609E-02  0.9106446E-01
       -4   -1    0    0    0  501  0.00000000000E+00  0.00000000000E+00  0.90056653992E+03  0.90056743541E+03  0.12699999809E+01 0.  1.
        4   -1    0    0  501    0  0.00000000000E+00  0.00000000000E+00 -0.40465912272E+03  0.40466111563E+03  0.12699999809E+01 0. -1.
    10030    2    1    2    0    0  0.00000000000E+00  0.00000000000E+00  0.49590741720E+03  0.13052285510E+04  0.12073514004E+04 0.  0.
        4    1    3    3  502    0 -0.35963765392E+03  0.15966824871E+03  0.74287676217E+03  0.84065491638E+03  0.12699999809E+01 0.  1.
       -4    1    3    3    0  502  0.35963765392E+03 -0.15966824871E+03 -0.24696934497E+03  0.46457363466E+03  0.12699999809E+01 0. -1.
</event>
<event>
 5   0  0.9169078E-04  0.1195986E+04  0.7818609E-02  0.9116377E-01
        1   -1    0    0  501    0  0.00000000000E+00  0.00000000000E+00  0.42383339707E+03  0.42383339710E+03  0.50400001928E-02 0. -1.
       -1   -1    0    0    0  501  0.00000000000E+00  0.00000000000E+00 -0.84371729957E+03  0.84371729958E+03  0.50400001928E-02 0.  1.
    10030    2    1    2    0    0  0.00000000000E+00  0.00000000000E+00 -0.41988390250E+03  0.12675506967E+04  0.11959859017E+04 0.  0.
        1    1    3    3  502    0 -0.17735400033E+03 -0.23333115893E+03 -0.76237831445E+03  0.81677326446E+03  0.50400001928E-02 0.  1.
       -1    1    3    3    0  502  0.17735400033E+03  0.23333115893E+03  0.34249441195E+03  0.45077743222E+03  0.50400001928E-02 0. -1.
</event>
<event>
 5   0  0.8908478E-04  0.1196568E+04  0.7818609E-02  0.9115866E-01
        1   -1    0    0  501    0  0.00000000000E+00  0.00000000000E+00  0.11709200669E+04  0.11709200669E+04  0.50400001928E-02 0.  1.
       -1   -1    0    0    0  501  0.00000000000E+00  0.00000000000E+00 -0.30569417993E+03  0.30569417997E+03  0.50400001928E-02 0. -1.
    10030    2    1    2    0    0  0.00000000000E+00  0.00000000000E+00  0.86522588694E+03  0.14766142469E+04  0.11965675069E+04 0.  0.
        4    1    3    3  502    0 -0.22048343035E+03 -0.14977931723E+03  0.10935975972E+04  0.11256127684E+04  0.12699999809E+01 0.  1.
       -4    1    3    3    0  502  0.22048343035E+03  0.14977931723E+03 -0.22837171025E+03  0.35100147844E+03  0.12699999809E+01 0. -1.
</event>
<event>
 5   0  0.1551501E-03  0.1206576E+04  0.7818609E-02  0.9107120E-01
       -2   -1    0    0    0  501  0.00000000000E+00  0.00000000000E+00  0.59105389836E+03  0.59105389836E+03  0.25500000920E-02 0.  1.
        2   -1    0    0  501    0  0.00000000000E+00  0.00000000000E+00 -0.61577502273E+03  0.61577502274E+03  0.25500000920E-02 0. -1.
    10030    2    1    2    0    0  0.00000000000E+00  0.00000000000E+00 -0.24721124371E+02  0.12068289211E+04  0.12065756963E+04 0.  0.
        4    1    3    3  502    0 -0.35669025764E+03 -0.73921695204E+01  0.47423103473E+03  0.59344694057E+03  0.12699999809E+01 0.  1.
       -4    1    3    3    0  502  0.35669025764E+03  0.73921695204E+01 -0.49895215910E+03  0.61338198053E+03  0.12699999809E+01 0. -1.
</event>
<event>
 5   0  0.1537557E-03  0.1276369E+04  0.7818609E-02  0.9048518E-01
        2   -1    0    0  501    0  0.00000000000E+00  0.00000000000E+00  0.10851218458E+04  0.10851218458E+04  0.25500000920E-02 0.  1.
       -2   -1    0    0    0  501  0.00000000000E+00  0.00000000000E+00 -0.37533063438E+03  0.37533063439E+03  0.25500000920E-02 0. -1.
    10030    2    1    2    0    0  0.00000000000E+00  0.00000000000E+00  0.70979121145E+03  0.14604524802E+04  0.12763690231E+04 0.  0.
        2    1    3    3  502    0 -0.28924298462E+03 -0.53091673507E+03  0.12111126332E+03  0.61660523987E+03  0.25500000920E-02 0. -1.
       -2    1    3    3    0  502  0.28924298462E+03  0.53091673507E+03  0.58867994812E+03  0.84384724036E+03  0.25500000920E-02 0.  1.
</event>
<event>
 5   0  0.9208078E-04  0.1198474E+04  0.7818609E-02  0.9114193E-01
       -1   -1    0    0    0  501  0.00000000000E+00  0.00000000000E+00  0.84649034517E+03  0.84649034518E+03  0.50400001928E-02 0.  1.
        1   -1    0    0  501    0  0.00000000000E+00  0.00000000000E+00 -0.42420469086E+03  0.42420469089E+03  0.50400001928E-02 0. -1.
    10030    2    1    2    0    0  0.00000000000E+00  0.00000000000E+00  0.42228565431E+03  0.12706950361E+04  0.11984743222E+04 0.  0.
        3    1    3    3  502    0  0.75143893262E+02 -0.96462852779E+02 -0.41083666002E+03  0.42864724201E+03  0.10100000352E+00 0. -1.
       -3    1    3    3    0  502 -0.75143893262E+02  0.96462852779E+02  0.83312231433E+03  0.84204779407E+03  0.10100000352E+00 0.  1.
</event>
<event>
 5   0  0.1537557E-03  0.1196734E+04  0.7818609E-02  0.9115720E-01
       -2   -1    0    0    0  501  0.00000000000E+00  0.00000000000E+00  0.72137341957E+03  0.72137341957E+03  0.25500000920E-02 0. -1.
        2   -1    0    0  501    0  0.00000000000E+00  0.00000000000E+00 -0.49633522809E+03  0.49633522810E+03  0.25500000920E-02 0.  1.
    10030    2    1    2    0    0  0.00000000000E+00  0.00000000000E+00  0.22503819148E+03  0.12177086477E+04  0.11967339566E+04 0.  0.
        2    1    3    3  502    0 -0.37536289637E+03 -0.25819016236E+03  0.50724018340E+03  0.68180060690E+03  0.25500000920E-02 0. -1.
       -2    1    3    3    0  502  0.37536289637E+03  0.25819016236E+03 -0.28220199192E+03  0.53590804077E+03  0.25500000920E-02 0.  1.
</event>
<event>
 5   0  0.9170776E-04  0.1174639E+04  0.7818609E-02  0.9135350E-01
       -1   -1    0    0    0  501  0.00000000000E+00  0.00000000000E+00  0.91580787409E+03  0.91580787410E+03  0.50400001928E-02 0. -1.
        1   -1    0    0  501    0  0.00000000000E+00  0.00000000000E+00 -0.37665541787E+03  0.37665541791E+03  0.50400001928E-02 0.  1.
    10030    2    1    2    0    0  0.00000000000E+00  0.00000000000E+00  0.53915245622E+03  0.12924632920E+04  0.11746386637E+04 0.  0.
        5    1    3    3  502    0  0.45077442192E+03 -0.37158774154E+03  0.33602310417E+03  0.67395003202E+03  0.46999998093E+01 0.  1.
       -5    1    3    3    0  502 -0.45077442192E+03  0.37158774154E+03  0.20312935205E+03  0.61851325999E+03  0.46999998093E+01 0. -1.
</event>
<event>
 5   0  0.1597352E-03  0.1200426E+04  0.7818609E-02  0.9112484E-01
       -2   -1    0    0    0  501  0.00000000000E+00  0.00000000000E+00  0.77675995803E+03  0.77675995803E+03  0.25500000920E-02 0. -1.
        2   -1    0    0  501    0  0.00000000000E+00  0.00000000000E+00 -0.46379272588E+03  0.46379272589E+03  0.25500000920E-02 0.  1.
    10030    2    1    2    0    0  0.00000000000E+00  0.00000000000E+00  0.31296723215E+03  0.12405526839E+04  0.12004259549E+04 0.  0.
        1    1    3    3  502    0  0.32895299479E+02  0.12033674753E+03 -0.45024685439E+03  0.46721008491E+03  0.50400001928E-02 0.  1.
       -1    1    3    3    0  502 -0.32895299479E+02 -0.12033674753E+03  0.76321408653E+03  0.77334259901E+03  0.50400001928E-02 0. -1.
</event>
<event>
 5   0  0.1551501E-03  0.1202069E+04  0.7818609E-02  0.9111047E-01
        2   -1    0    0  501    0  0.00000000000E+00  0.00000000000E+00  0.15177996412E+04  0.15177996412E+04  0.25500000920E-02 0.  1.
       -2   -1    0    0    0  501  0.00000000000E+00  0.00000000000E+00 -0.23800415123E+03  0.23800415125E+03  0.25500000920E-02 0. -1.
    10030    2    1    2    0    0  0.00000000000E+00  0.00000000000E+00  0.12797954900E+04  0.17558037925E+04  0.12020692415E+04 0.  0.
        4    1    3    3  502    0  0.51998569142E+03  0.32845690702E+02  0.10775499778E+04  0.11969041425E+04  0.12699999809E+01 0.  1.
       -4    1    3    3    0  502 -0.51998569142E+03 -0.32845690702E+02  0.20224551219E+03  0.55889965001E+03  0.12699999809E+01 0. -1.
</event>
<event>
 5   0  0.9208078E-04  0.1198390E+04  0.7818609E-02  0.9114267E-01
       -1   -1    0    0    0  501  0.00000000000E+00  0.00000000000E+00  0.10596806547E+04  0.10596806547E+04  0.50400001928E-02 0. -1.
        1   -1    0    0  501    0  0.00000000000E+00  0.00000000000E+00 -0.33881423332E+03  0.33881423336E+03  0.50400001928E-02 0.  1.
    10030    2    1    2    0    0  0.00000000000E+00  0.00000000000E+00  0.72086642141E+03  0.13984948881E+04  0.11983904016E+04 0.  0.
        3    1    3    3  502    0  0.36497957440E+03  0.69670445594E+02  0.90900064575E+03  0.98201132626E+03  0.10100000352E+00 0. -1.
       -3    1    3    3    0  502 -0.36497957440E+03 -0.69670445594E+02 -0.18813422435E+03  0.41648356185E+03  0.10100000352E+00 0.  1.
</event>
<event>
 5   0  0.1551501E-03  0.1212846E+04  0.7818609E-02  0.9101686E-01
       -2   -1    0    0    0  501  0.00000000000E+00  0.00000000000E+00  0.65959600442E+03  0.65959600443E+03  0.25500000920E-02 0.  1.
        2   -1    0    0  501    0  0.00000000000E+00  0.00000000000E+00 -0.55753620974E+03  0.55753620974E+03  0.25500000920E-02 0. -1.
    10030    2    1    2    0    0  0.00000000000E+00  0.00000000000E+00  0.10205979468E+03  0.12171322142E+04  0.12128456724E+04 0.  0.
        4    1    3    3  502    0 -0.56284316746E+02 -0.72217019415E+02  0.65261821011E+03  0.65901089769E+03  0.12699999809E+01 0.  1.
       -4    1    3    3    0  502  0.56284316746E+02  0.72217019415E+02 -0.55055841543E+03  0.55812131648E+03  0.12699999809E+01 0. -1.
</event>
<event>
 5   0  0.1567019E-03  0.1199148E+04  0.7818609E-02  0.9113603E-01
       -2   -1    0    0    0  501  0.00000000000E+00  0.00000000000E+00  0.70674424058E+03  0.70674424059E+03  0.25500000920E-02 0.  1.
        2   -1    0    0  501    0  0.00000000000E+00  0.00000000000E+00 -0.50865478625E+03  0.50865478626E+03  0.25500000920E-02 0. -1.
    10030    2    1    2    0    0  0.00000000000E+00  0.00000000000E+00  0.19808945433E+03  0.12153990268E+04  0.11991477651E+04 0.  0.
        5    1    3    3  502    0 -0.55202797043E+03 -0.21623619212E+03  0.85385338833E+01  0.59294853696E+03  0.46999998093E+01 0.  1.
       -5    1    3    3    0  502  0.55202797043E+03  0.21623619212E+03  0.18955092045E+03  0.62245048989E+03  0.46999998093E+01 0. -1.
</event>
<event>
 5   0  0.1597352E-03  0.1195259E+04  0.7818609E-02  0.9117016E-01
        2   -1    0    0  501    0  0.00000000000E+00  0.00000000000E+00  0.62492376246E+03  0.62492376247E+03  0.25500000920E-02 0. -1.
       -2   -1    0    0    0  501  0.00000000000E+00  0.00000000000E+00 -0.57152743535E+03  0.57152743536E+03  0.25500000920E-02 0.  1.
    10030    2    1    2    0    0  0.00000000000E+00  0.00000000000E+00  0.53396327112E+02  0.11964511978E+04  0.11952590937E+04 0.  0.
        1    1    3    3  502    0 -0.97192470224E+02  0.14444907464E+03  0.59897559783E+03  0.62376572385E+03  0.50400001928E-02 0. -1.
       -1    1    3    3    0  502  0.97192470224E+02 -0.14444907464E+03 -0.54557927072E+03  0.57268547397E+03  0.50400001928E-02 0.  1.
</event>
<event>
 5   0  0.8908478E-04  0.1212244E+04  0.7818609E-02  0.9102207E-01
       -1   -1    0    0    0  501  0.00000000000E+00  0.00000000000E+00  0.47929216397E+03  0.47929216400E+03  0.50400001928E-02 0. -1.
        1   -1    0    0  501    0  0.00000000000E+00  0.00000000000E+00 -0.76651304746E+03  0.76651304748E+03  0.50400001928E-02 0.  1.
    10030    2    1    2    0    0  0.00000000000E+00  0.00000000000E+00 -0.28722088349E+03  0.12458052115E+04  0.12122437003E+04 0.  0.
        4    1    3    3  502    0  0.50478822903E+03  0.29439930311E+03  0.21779810416E+02  0.58477181779E+03  0.12699999809E+01 0.  1.
       -4    1    3    3    0  502 -0.50478822903E+03 -0.29439930311E+03 -0.30900069390E+03  0.66103339369E+03  0.12699999809E+01 0. -1.
</event>
<event>
 5   0  0.1597352E-03  0.1202828E+04  0.7818609E-02  0.9110385E-01
        2   -1    0    0  501    0  0.00000000000E+00  0.00000000000E+00  0.12102282401E+04  0.12102282401E+04  0.25500000920E-02 0. -1.
       -2   -1    0    0    0  501  0.00000000000E+00  0.00000000000E+00 -0.29886833005E+03  0.29886833006E+03  0.25500000920E-02 0.  1.
    10030    2    1    2    0    0  0.00000000000E+00  0.00000000000E+00  0.91135991007E+03  0.15090965702E+04  0.12028281558E+04 0.  0.
        1    1    3    3  502    0  0.48660357640E+03  0.33339420725E+03  0.60287331717E+03  0.84343996501E+03  0.50400001928E-02 0.  1.
       -1    1    3    3    0  502 -0.48660357640E+03 -0.33339420725E+03  0.30848659290E+03  0.66565660518E+03  0.50400001928E-02 0. -1.
</event>
<event>
 5   0  0.9358428E-04  0.1206858E+04  0.7818609E-02  0.9106875E-01
        1   -1    0    0  501    0  0.00000000000E+00  0.00000000000E+00  0.84741158703E+03  0.84741158704E+03  0.50400001928E-02 0.  1.
       -1   -1    0    0    0  501  0.00000000000E+00  0.00000000000E+00 -0.42969289778E+03  0.42969289781E+03  0.50400001928E-02 0. -1.
    10030    2    1    2    0    0  0.00000000000E+00  0.00000000000E+00  0.41771868925E+03  0.12771044849E+04  0.12068583023E+04 0.  0.
        2    1    3    3  502    0  0.35002164462E+03  0.25774505449E+03  0.65176503781E+03  0.78341899985E+03  0.25500000920E-02 0.  1.
       -2    1    3    3    0  502 -0.35002164462E+03 -0.25774505449E+03 -0.23404634857E+03  0.49368548500E+03  0.25500000920E-02 0. -1.
</event>
<event>
 5   0  0.1647550E-03  0.1199592E+04  0.7818609E-02  0.9113213E-01
        2   -1    0    0  501    0  0.00000000000E+00  0.00000000000E+00  0.12251444000E+04  0.12251444000E+04  0.25500000920E-02 0.  1.
       -2   -1    0    0    0  501  0.00000000000E+00  0.00000000000E+00 -0.29364328382E+03  0.29364328383E+03  0.25500000920E-02 0. -1.
    10030    2    1    2    0    0  0.00000000000E+00  0.00000000000E+00  0.93150111617E+03  0.15187876838E+04  0.11995923054E+04 0.  0.
        3    1    3    3  502    0 -0.37532817968E+03 -0.45639905260E+03  0.33549691207E+03  0.67950682549E+03  0.10100000352E+00 0. -1.
       -3    1    3    3    0  502  0.37532817968E+03  0.45639905260E+03  0.59600420410E+03  0.83928085834E+03  0.10100000352E+00 0.  1.
</event>
<event>
 5   0  0.8908478E-04  0.1205162E+04  0.7818609E-02  0.9108350E-01
        1   -1    0    0  501    0  0.00000000000E+00  0.00000000000E+00  0.76500934232E+03  0.76500934234E+03  0.50400001928E-02 0.  1.
       -1   -1    0    0    0  501  0.00000000000E+00  0.00000000000E+00 -0.47463989517E+03  0.47463989520E+03  0.50400001928E-02 0. -1.
    10030    2    1    2    0    0  0.00000000000E+00  0.00000000000E+00  0.29036944715E+03  0.12396492375E+04  0.12051621535E+04 0.  0.
        4    1    3    3  502    0  0.20382716185E+03 -0.20784389555E+03  0.68787868240E+03  0.74694262927E+03  0.12699999809E+01 0.  1.
       -4    1    3    3    0  502 -0.20382716185E+03  0.20784389555E+03 -0.39750923524E+03  0.49270660827E+03  0.12699999809E+01 0. -1.
</event>
<event>
 5   0  0.8908478E-04  0.1188405E+04  0.7818609E-02  0.9123066E-01
       -1   -1    0    0    0  501  0.00000000000E+00  0.00000000000E+00  0.38409212080E+03  0.38409212084E+03  0.50400001928E-02 0. -1.
        1   -1    0    0  501    0  0.00000000000E+00  0.00000000000E+00 -0.91924993629E+03  0.91924993631E+03  0.50400001928E-02 0.  1.
    10030    2    1    2    0    0  0.00000000000E+00  0.00000000000E+00 -0.53515781549E+03  0.13033420571E+04  0.11884050784E+04 0.  0.
        4    1    3    3  502    0  0.58626200659E+03 -0.88567290694E+02 -0.22471235649E+03  0.63406983953E+03  0.12699999809E+01 0. -1.
       -4    1    3    3    0  502 -0.58626200659E+03  0.88567290694E+02 -0.31044545901E+03  0.66927221761E+03  0.12699999809E+01 0.  1.
</event>
<event>
 5   0  0.1597352E-03  0.1140308E+04  0.7818609E-02  0.9166772E-01
       -2   -1    0    0    0  501  0.00000000000E+00  0.00000000000E+00  0.45674775080E+03  0.45674775081E+03  0.25500000920E-02 0.  1.
        2   -1    0    0  501    0  0.00000000000E+00  0.00000000000E+00 -0.71171816857E+03  0.71171816858E+03  0.25500000920E-02 0. -1.
    10030    2    1    2    0    0  0.00000000000E+00  0.00000000000E+00 -0.25497041777E+03  0.11684659194E+04  0.11403081561E+04 0.  0.
        1    1    3    3  502    0  0.23925897620E+03  0.51695356572E+03 -0.10259917248E+03  0.57880258899E+03  0.50400001928E-02 0.  1.
       -1    1    3    3    0  502 -0.23925897620E+03 -0.51695356572E+03 -0.15237124529E+03  0.58966333040E+03  0.50400001928E-02 0. -1.
</event>
<event>
 5   0  0.1551501E-03  0.1205234E+04  0.7818609E-02  0.9108287E-01
       -2   -1    0    0    0  501  0.00000000000E+00  0.00000000000E+00  0.11307899288E+04  0.11307899288E+04  0.25500000920E-02 0. -1.
        2   -1    0    0  501    0  0.00000000000E+00  0.00000000000E+00 -0.32114487730E+03  0.32114487731E+03  0.25500000920E-02 0.  1.
    10030    2    1    2    0    0  0.00000000000E+00  0.00000000000E+00  0.80964505147E+03  0.14519348061E+04  0.12052342394E+04 0.  0.
        4    1    3    3  502    0  0.37081769762E+03 -0.96450578680E+02  0.96514927938E+03  0.10384234316E+04  0.12699999809E+01 0. -1.
       -4    1    3    3    0  502 -0.37081769762E+03  0.96450578680E+02 -0.15550422792E+03  0.41351137444E+03  0.12699999809E+01 0.  1.
</event>
<event>
 5   0  0.9170776E-04  0.1197259E+04  0.7818609E-02  0.9115259E-01
       -1   -1    0    0    0  501  0.00000000000E+00  0.00000000000E+00  0.21732684967E+03  0.21732684973E+03  0.50400001928E-02 0. -1.
        1   -1    0    0  501    0  0.00000000000E+00  0.00000000000E+00 -0.16489336437E+04  0.16489336437E+04  0.50400001928E-02 0.  1.
    10030    2    1    2    0    0  0.00000000000E+00  0.00000000000E+00 -0.14316067940E+04  0.18662604934E+04  0.11972594609E+04 0.  0.
        5    1    3    3  502    0  0.53087979757E+03  0.25198429823E+02 -0.28645400493E+03  0.60377670316E+03  0.46999998093E+01 0. -1.
       -5    1    3    3    0  502 -0.53087979757E+03 -0.25198429823E+02 -0.11451527891E+04  0.12624837903E+04  0.46999998093E+01 0.  1.
</event>
<event>
 5   0  0.1597352E-03  0.1191847E+04  0.7818609E-02  0.9120023E-01
       -2   -1    0    0    0  501  0.00000000000E+00  0.00000000000E+00  0.24718063060E+03  0.24718063061E+03  0.25500000920E-02 0. -1.
        2   -1    0    0  501    0  0.00000000000E+00  0.00000000000E+00 -0.14367024856E+04  0.14367024856E+04  0.25500000920E-02 0.  1.
    10030    2    1    2    0    0  0.00000000000E+00  0.00000000000E+00 -0.11895218550E+04  0.16838831163E+04  0.11918473499E+04 0.  0.
        1    1    3    3  502    0 -0.72437658146E+02  0.39646971111E+03  0.25422879415E+02  0.40383383831E+03  0.50400001928E-02 0. -1.
       -1    1    3    3    0  502  0.72437658146E+02 -0.39646971111E+03 -0.12149447345E+04  0.12800492779E+04  0.50400001928E-02 0.  1.
</event>
<event>
 5   0  0.1647550E-03  0.1206410E+04  0.7818609E-02  0.9107264E-01
        2   -1    0    0  501    0  0.00000000000E+00  0.00000000000E+00  0.82264023661E+03  0.82264023662E+03  0.25500000920E-02 0. -1.
       -2   -1    0    0    0  501  0.00000000000E+00  0.00000000000E+00 -0.44230333034E+03  0.44230333035E+03  0.25500000920E-02 0.  1.
    10030    2    1    2    0    0  0.00000000000E+00  0.00000000000E+00  0.38033690627E+03  0.12649435670E+04  0.12064104050E+04 0.  0.
        3    1    3    3  502    0 -0.56590292268E+03 -0.17122558327E+03  0.31551876958E+03  0.67016148981E+03  0.10100000352E+00 0. -1.
       -3    1    3    3    0  502  0.56590292268E+03  0.17122558327E+03  0.64818136690E+02  0.59478207716E+03  0.10100000352E+00 0.  1.
</event>
<event>
 5   0  0.9169078E-04  0.1201549E+04  0.7818609E-02  0.9111502E-01
        1   -1    0    0  501    0  0.00000000000E+00  0.00000000000E+00  0.12219542392E+04  0.12219542392E+04  0.50400001928E-02 0. -1.
       -1   -1    0    0    0  501  0.00000000000E+00  0.00000000000E+00 -0.29537099539E+03  0.29537099543E+03  0.50400001928E-02 0.  1.
    10030    2    1    2    0    0  0.00000000000E+00  0.00000000000E+00  0.92658324378E+03  0.15173252346E+04  0.12015487339E+04 0.  0.
        1    1    3    3  502    0 -0.23292256424E+03 -0.98079156769E+02 -0.22497621754E+03  0.33835889290E+03  0.50400001928E-02 0.  1.
       -1    1    3    3    0  502  0.23292256424E+03  0.98079156769E+02  0.11515594613E+04  0.11789663417E+04  0.50400001928E-02 0. -1.
</event>
<event>
 5   0  0.8908478E-04  0.1156194E+04  0.7818609E-02  0.9152088E-01
       -1   -1    0    0    0  501  0.00000000000E+00  0.00000000000E+00  0.33167470307E+03  0.33167470311E+03  0.50400001928E-02 0.  1.
        1   -1    0    0  501    0  0.00000000000E+00  0.00000000000E+00 -0.10076021549E+04  0.10076021549E+04  0.50400001928E-02 0. -1.
    10030    2    1    2    0    0  0.00000000000E+00  0.00000000000E+00 -0.67592745183E+03  0.13392768580E+04  0.11561940072E+04 0.  0.
        4    1    3    3  502    0  0.55225454483E+03  0.51217102960E+02 -0.52683602381E+03  0.76496149106E+03  0.12699999809E+01 0.  1.
       -4    1    3    3    0  502 -0.55225454483E+03 -0.51217102960E+02 -0.14909142802E+03  0.57431536697E+03  0.12699999809E+01 0. -1.
</event>
<event>
 5   0  0.9208078E-04  0.1198277E+04  0.7818609E-02  0.9114366E-01
        1   -1    0    0  501    0  0.00000000000E+00  0.00000000000E+00  0.94861282883E+03  0.94861282884E+03  0.50400001928E-02 0. -1.
       -1   -1    0    0    0  501  0.00000000000E+00  0.00000000000E+00 -0.37841278909E+03  0.37841278913E+03  0.50400001928E-02 0.  1.
    10030    2    1    2    0    0  0.00000000000E+00  0.00000000000E+00  0.57020003973E+03  0.13270256180E+04  0.11982774743E+04 0.  0.
        3    1    3    3  502    0 -0.15458592485E+02  0.50505288794E+03  0.64163833299E+03  0.81671117800E+03  0.10100000352E+00 0. -1.
       -3    1    3    3    0  502  0.15458592485E+02 -0.50505288794E+03 -0.71438293261E+02  0.51031443997E+03  0.10100000352E+00 0.  1.
</event>
<event>
 5   0  0.9170776E-04  0.1198925E+04  0.7818609E-02  0.9113798E-01
       -1   -1    0    0    0  501  0.00000000000E+00  0.00000000000E+00  0.24526838049E+03  0.24526838054E+03  0.50400001928E-02 0. -1.
        1   -1    0    0  501    0  0.00000000000E+00  0.00000000000E+00 -0.14651508752E+04  0.14651508752E+04  0.50400001928E-02 0.  1.
    10030    2    1    2    0    0  0.00000000000E+00  0.00000000000E+00 -0.12198824947E+04  0.17104192558E+04  0.11989248223E+04 0.  0.
        5    1    3    3  502    0  0.47470873855E+03  0.29175149861E+03 -0.92530588541E+03  0.10801298047E+04  0.46999998093E+01 0.  1.
       -5    1    3    3    0  502 -0.47470873855E+03 -0.29175149861E+03 -0.29457660932E+03  0.63028945109E+03  0.46999998093E+01 0. -1.
</event>
<event>
 5   0  0.6137750E-04  0.1194344E+04  0.7818609E-02  0.9117822E-01
        3   -1    0    0  501    0  0.00000000000E+00  0.00000000000E+00  0.46381233560E+03  0.46381234660E+03  0.10100000352E+00 0. -1.
       -3   -1    0    0    0  501  0.00000000000E+00  0.00000000000E+00 -0.76887613804E+03  0.76887614467E+03  0.10100000352E+00 0.  1.
    10030    2    1    2    0    0  0.00000000000E+00  0.00000000000E+00 -0.30506380244E+03  0.12326884913E+04  0.11943437499E+04 0.  0.
        3    1    3    3  502    0 -0.10074896316E+01  0.14014772669E+03 -0.75166153827E+03  0.76461590269E+03  0.10100000352E+00 0.  1.
       -3    1    3    3    0  502  0.10074896316E+01 -0.14014772669E+03  0.44659773583E+03  0.46807258858E+03  0.10100000352E+00 0. -1.
</event>
<event>
 5   0  0.9208078E-04  0.1188083E+04  0.7818609E-02  0.9123352E-01
        1   -1    0    0  501    0  0.00000000000E+00  0.00000000000E+00  0.84548449395E+03  0.84548449396E+03  0.50400001928E-02 0.  1.
       -1   -1    0    0    0  501  0.00000000000E+00  0.00000000000E+00 -0.41737660822E+03  0.41737660825E+03  0.50400001928E-02 0. -1.
    10030    2    1    2    0    0  0.00000000000E+00  0.00000000000E+00  0.42810788573E+03  0.12628611022E+04  0.11880832469E+04 0.  0.
        3    1    3    3  502    0  0.31380373354E+03 -0.48014169744E+03  0.37830002691E+03  0.68710970985E+03  0.10100000352E+00 0.  1.
       -3    1    3    3    0  502 -0.31380373354E+03  0.48014169744E+03  0.49807858823E+02  0.57575139236E+03  0.10100000352E+00 0. -1.
</event>
<event>
 5   0  0.1551501E-03  0.1196345E+04  0.7818609E-02  0.9116062E-01
       -2   -1    0    0    0  501  0.00000000000E+00  0.00000000000E+00  0.28133461123E+03  0.28133461124E+03  0.25500000920E-02 0. -1.
        2   -1    0    0  501    0  0.00000000000E+00  0.00000000000E+00 -0.12718316497E+04  0.12718316497E+04  0.25500000920E-02 0.  1.
    10030    2    1    2    0    0  0.00000000000E+00  0.00000000000E+00 -0.99049703850E+03  0.15531662610E+04  0.11963448712E+04 0.  0.
        4    1    3    3  502    0  0.42506703444E+03 -0.30166090688E+03 -0.11424224118E+03  0.53360489979E+03  0.12699999809E+01 0. -1.
       -4    1    3    3    0  502 -0.42506703444E+03  0.30166090688E+03 -0.87625479732E+03  0.10195613612E+04  0.12699999809E+01 0.  1.
</event>
<event>
 5   0  0.1597352E-03  0.1181266E+04  0.7818609E-02  0.9129414E-01
       -2   -1    0    0    0  501  0.00000000000E+00  0.00000000000E+00  0.44574512660E+03  0.44574512660E+03  0.25500000920E-02 0. -1.
        2   -1    0    0  501    0  0.00000000000E+00  0.00000000000E+00 -0.78261581076E+03  0.78261581076E+03  0.25500000920E-02 0.  1.
    10030    2    1    2    0    0  0.00000000000E+00  0.00000000000E+00 -0.33687068416E+03  0.12283609374E+04  0.11812657341E+04 0.  0.
        1    1    3    3  502    0  0.52574224630E+03 -0.25264385888E+03 -0.71927066477E+02  0.58771364786E+03  0.50400001928E-02 0. -1.
       -1    1    3    3    0  502 -0.52574224630E+03  0.25264385888E+03 -0.26494361768E+03  0.64064728950E+03  0.50400001928E-02 0.  1.
</event>
<event>
 5   0  0.9358428E-04  0.1207882E+04  0.7818609E-02  0.9105986E-01
       -1   -1    0    0    0  501  0.00000000000E+00  0.00000000000E+00  0.26119877156E+03  0.26119877160E+03  0.50400001928E-02 0. -1.
        1   -1    0    0  501    0  0.00000000000E+00  0.00000000000E+00 -0.13964252509E+04  0.13964252509E+04  0.50400001928E-02 0.  1.
    10030    2    1    2    0    0  0.00000000000E+00  0.00000000000E+00 -0.11352264793E+04  0.16576240225E+04  0.12078817163E+04 0.  0.
        2    1    3    3  502    0  0.27682242759E+03  0.16605888899E+03 -0.12680960028E+04  0.13085387588E+04  0.25500000920E-02 0.  1.
       -2    1    3    3    0  502 -0.27682242759E+03 -0.16605888899E+03  0.13286952348E+03  0.34908526366E+03  0.25500000920E-02 0. -1.
</event>
<event>
 5   0  0.1567019E-03  0.1196591E+04  0.7818609E-02  0.9115846E-01
       -2   -1    0    0    0  501  0.00000000000E+00  0.00000000000E+00  0.19485700042E+03  0.19485700044E+03  0.25500000920E-02 0.  1.
        2   -1    0    0  501    0  0.00000000000E+00  0.00000000000E+00 -0.18370257732E+04  0.18370257732E+04  0.25500000920E-02 0. -1.
    10030    2    1    2    0    0  0.00000000000E+00  0.00000000000E+00 -0.16421687728E+04  0.20318827736E+04  0.11965907101E+04 0.  0.
        5    1    3    3  502    0  0.10555809031E+03  0.23307112816E+03  0.97235766638E+02  0.27375453516E+03  0.46999998093E+01 0.  1.
       -5    1    3    3    0  502 -0.10555809031E+03 -0.23307112816E+03 -0.17394045394E+04  0.17581282385E+04  0.46999998093E+01 0. -1.
</event>
<event>
 5   0  0.9358428E-04  0.1194348E+04  0.7818609E-02  0.9117818E-01
        1   -1    0    0  501    0  0.00000000000E+00  0.00000000000E+00  0.67286887108E+03  0.67286887110E+03  0.50400001928E-02 0. -1.
       -1   -1    0    0    0  501  0.00000000000E+00  0.00000000000E+00 -0.52999463252E+03  0.52999463255E+03  0.50400001928E-02 0.  1.
    10030    2    1    2    0    0  0.00000000000E+00  0.00000000000E+00  0.14287423856E+03  0.12028635037E+04  0.11943481738E+04 0.  0.
        2    1    3    3  502    0 -0.31541152778E+03  0.26733265090E+03  0.50539866944E+03  0.65297702347E+03  0.25500000920E-02 0. -1.
       -2    1    3    3    0  502  0.31541152778E+03 -0.26733265090E+03 -0.36252443088E+03  0.54988648018E+03  0.25500000920E-02 0.  1.
</event>
<event>
 5   0  0.1537557E-03  0.1216533E+04  0.7818609E-02  0.9098507E-01
       -2   -1    0    0    0  501  0.00000000000E+00  0.00000000000E+00  0.24382442641E+03  0.24382442642E+03  0.25500000920E-02 0.  1.
        2   -1    0    0  501    0  0.00000000000E+00  0.00000000000E+00 -0.15174355464E+04  0.15174355464E+04  0.25500000920E-02 0. -1.
    10030    2    1    2    0    0  0.00000000000E+00  0.00000000000E+00 -0.12736111200E+04  0.17612599728E+04  0.12165325343E+04 0.  0.
        2    1    3    3  502    0  0.28368194592E+03  0.26852264118E+03  0.38246853276E+02  0.39248270925E+03  0.25500000920E-02 0.  1.
       -2    1    3    3    0  502 -0.28368194592E+03 -0.26852264118E+03 -0.13118579733E+04  0.13687772636E+04  0.25500000920E-02 0. -1.
</event>
<event>
 5   0  0.1647550E-03  0.1196258E+04  0.7818609E-02  0.9116138E-01
       -2   -1    0    0    0  501  0.00000000000E+00  0.00000000000E+00  0.43270609260E+03  0.43270609260E+03  0.25500000920E-02 0.  1.
        2   -1    0    0  501    0  0.00000000000E+00  0.00000000000E+00 -0.82679332900E+03  0.82679332900E+03  0.25500000920E-02 0. -1.
    10030    2    1    2    0    0  0.00000000000E+00  0.00000000000E+00 -0.39408723640E+03  0.12594994216E+04  0.11962583513E+04 0.  0.
        3    1    3    3  502    0  0.63046842472E+02  0.55633121884E+03  0.24506880166E+02  0.56042834223E+03  0.10100000352E+00 0.  1.
       -3    1    3    3    0  502 -0.63046842472E+02 -0.55633121884E+03 -0.41859411657E+03  0.69907107938E+03  0.10100000352E+00 0. -1.
</event>
<event>
 5   0  0.6137750E-04  0.1213899E+04  0.7818609E-02  0.9100777E-01
       -3   -1    0    0    0  501  0.00000000000E+00  0.00000000000E+00  0.61361236490E+03  0.61361237321E+03  0.10100000352E+00 0. -1.
        3   -1    0    0  501    0  0.00000000000E+00  0.00000000000E+00 -0.60035930053E+03  0.60035930903E+03  0.10100000352E+00 0.  1.
    10030    2    1    2    0    0  0.00000000000E+00  0.00000000000E+00  0.13253064363E+02  0.12139716822E+04  0.12138993375E+04 0.  0.
        4    1    3    3  502    0 -0.27659659997E+03 -0.23876610209E+03 -0.47803763294E+03  0.60169470833E+03  0.12699999809E+01 0.  1.
       -4    1    3    3    0  502  0.27659659997E+03  0.23876610209E+03  0.49129069730E+03  0.61227697391E+03  0.12699999809E+01 0. -1.
</event>
<event>
 5   0  0.1597352E-03  0.1201969E+04  0.7818609E-02  0.9111135E-01
       -2   -1    0    0    0  501  0.00000000000E+00  0.00000000000E+00  0.44698430659E+03  0.44698430660E+03  0.25500000920E-02 0. -1.
        2   -1    0    0  501    0  0.00000000000E+00  0.00000000000E+00 -0.80804270910E+03  0.80804270911E+03  0.25500000920E-02 0.  1.
    10030    2    1    2    0    0  0.00000000000E+00  0.00000000000E+00 -0.36105840251E+03  0.12550270157E+04  0.12019690679E+04 0.  0.
        1    1    3    3  502    0 -0.11109314711E+03 -0.33621231954E+03  0.32650064434E+03  0.48164622071E+03  0.50400001928E-02 0. -1.
       -1    1    3    3    0  502  0.11109314711E+03  0.33621231954E+03 -0.68755904684E+03  0.77338079500E+03  0.50400001928E-02 0.  1.
</event>
<event>
 5   0  0.1551501E-03  0.1145193E+04  0.7818609E-02  0.9162230E-01
       -2   -1    0    0    0  501  0.00000000000E+00  0.00000000000E+00  0.36241815673E+03  0.36241815674E+03  0.25500000920E-02 0. -1.
        2   -1    0    0  501    0  0.00000000000E+00  0.00000000000E+00 -0.90466449744E+03  0.90466449745E+03  0.25500000920E-02 0.  1.
    10030    2    1    2    0    0  0.00000000000E+00  0.00000000000E+00 -0.54224634071E+03  0.12670826542E+04  0.11451931534E+04 0.  0.
        4    1    3    3  502    0 -0.19484290142E+03 -0.36235683001E+03  0.16950922430E+03  0.44497327842E+03  0.12699999809E+01 0. -1.
       -4    1    3    3    0  502  0.19484290142E+03  0.36235683001E+03 -0.71175556501E+03  0.82210937576E+03  0.12699999809E+01 0.  1.
</event>
<event>
 5   0  0.9170776E-04  0.1202809E+04  0.7818609E-02  0.9110401E-01
       -1   -1    0    0    0  501  0.00000000000E+00  0.00000000000E+00  0.88995638060E+03  0.88995638062E+03  0.50400001928E-02 0.  1.
        1   -1    0    0  501    0  0.00000000000E+00  0.00000000000E+00 -0.40641031498E+03  0.40641031501E+03  0.50400001928E-02 0. -1.
    10030    2    1    2    0    0  0.00000000000E+00  0.00000000000E+00  0.48354606562E+03  0.12963666956E+04  0.12028091336E+04 0.  0.
        5    1    3    3  502    0  0.35738474779E+03 -0.42238254188E+03  0.49576065660E+03  0.74292098387E+03  0.46999998093E+01 0.  1.
       -5    1    3    3    0  502 -0.35738474779E+03  0.42238254188E+03 -0.12214590982E+02  0.55344571176E+03  0.46999998093E+01 0. -1.
</event>
<event>
 5   0  0.9358428E-04  0.1199101E+04  0.7818609E-02  0.9113644E-01
       -1   -1    0    0    0  501  0.00000000000E+00  0.00000000000E+00  0.13213517244E+04  0.13213517244E+04  0.50400001928E-02 0. -1.
        1   -1    0    0  501    0  0.00000000000E+00  0.00000000000E+00 -0.27204019816E+03  0.27204019821E+03  0.50400001928E-02 0.  1.
    10030    2    1    2    0    0  0.00000000000E+00  0.00000000000E+00  0.10493115262E+04  0.15933919226E+04  0.11991009715E+04 0.  0.
        2    1    3    3  502    0 -0.12174305815E+03 -0.55872228692E+03  0.28521388981E+03  0.63901402885E+03  0.25500000920E-02 0.  1.
       -2    1    3    3    0  502  0.12174305815E+03  0.55872228692E+03  0.76409763640E+03  0.95437789375E+03  0.25500000920E-02 0. -1.
</event>
<event>
 5   0  0.9170776E-04  0.1266946E+04  0.7818609E-02  0.9056196E-01
       -1   -1    0    0    0  501  0.00000000000E+00  0.00000000000E+00  0.40813643261E+03  0.40813643264E+03  0.50400001928E-02 0.  1.
        1   -1    0    0  501    0  0.00000000000E+00  0.00000000000E+00 -0.98322066262E+03  0.98322066263E+03  0.50400001928E-02 0. -1.
    10030    2    1    2    0    0  0.00000000000E+00  0.00000000000E+00 -0.57508423001E+03  0.13913570953E+04  0.12669462084E+04 0.  0.
        5    1    3    3  502    0 -0.12232345344E+03 -0.12882958116E+03  0.38019986058E+03  0.41968334757E+03  0.46999998093E+01 0.  1.
       -5    1    3    3    0  502  0.12232345344E+03  0.12882958116E+03 -0.95528409059E+03  0.97167374771E+03  0.46999998093E+01 0. -1.
</event>
<event>
 5   0  0.1647550E-03  0.1205735E+04  0.7818609E-02  0.9107851E-01
        2   -1    0    0  501    0  0.00000000000E+00  0.00000000000E+00  0.10597948046E+04  0.10597948046E+04  0.25500000920E-02 0.  1.
       -2   -1    0    0    0  501  0.00000000000E+00  0.00000000000E+00 -0.34294320761E+03  0.34294320762E+03  0.25500000920E-02 0. -1.
    10030    2    1    2    0    0  0.00000000000E+00  0.00000000000E+00  0.71685159701E+03  0.14027380123E+04  0.12057353436E+04 0.  0.
        3    1    3    3  502    0  0.59603194672E+03 -0.87755156079E+02  0.38429308587E+03  0.71458815760E+03  0.10100000352E+00 0.  1.
       -3    1    3    3    0  502 -0.59603194672E+03  0.87755156079E+02  0.33255851114E+03  0.68814985466E+03  0.10100000352E+00 0. -1.
</event>
<event>
 5   0  0.1537557E-03  0.1205386E+04  0.7818609E-02  0.9108155E-01
        2   -1    0    0  501    0  0.00000000000E+00  0.00000000000E+00  0.87985610861E+03  0.87985610862E+03  0.25500000920E-02 0. -1.
       -2   -1    0    0    0  501  0.00000000000E+00  0.00000000000E+00 -0.41283901212E+03  0.41283901213E+03  0.25500000920E-02 0.  1.
    10030    2    1    2    0    0  0.00000000000E+00  0.00000000000E+00  0.46701709650E+03  0.12926951207E+04  0.12053861235E+04 0.  0.
        2    1    3    3  502    0  0.50580374084E+03 -0.13158693192E+03  0.55539262579E+03  0.76263589850E+03  0.25500000920E-02 0. -1.
       -2    1    3    3    0  502 -0.50580374084E+03  0.13158693192E+03 -0.88375529293E+02  0.53005922224E+03  0.25500000920E-02 0.  1.
</event>
<event>
 5   0  0.1567019E-03  0.1242979E+04  0.7818609E-02  0.9076047E-01
        2   -1    0    0  501    0  0.00000000000E+00  0.00000000000E+00  0.99652830392E+03  0.99652830392E+03  0.25500000920E-02 0.  1.
       -2   -1    0    0    0  501  0.00000000000E+00  0.00000000000E+00 -0.38759491273E+03  0.38759491274E+03  0.25500000920E-02 0. -1.
    10030    2    1    2    0    0  0.00000000000E+00  0.00000000000E+00  0.60893339119E+03  0.13841232167E+04  0.12429791648E+04 0.  0.
        5    1    3    3  502    0  0.70625465616E+02  0.46110506421E+03 -0.15279752102E+03  0.49089205439E+03  0.46999998093E+01 0. -1.
       -5    1    3    3    0  502 -0.70625465616E+02 -0.46110506421E+03  0.76173091221E+03  0.89323116227E+03  0.46999998093E+01 0.  1.
</event>
<event>
 5   0  0.8908478E-04  0.1211118E+04  0.7818609E-02  0.9103180E-01
       -1   -1    0    0    0  501  0.00000000000E+00  0.00000000000E+00  0.45060632295E+03  0.45060632297E+03  0.50400001928E-02 0.  1.
        1   -1    0    0  501    0  0.00000000000E+00  0.00000000000E+00 -0.81379588582E+03  0.81379588583E+03  0.50400001928E-02 0. -1.
    10030    2    1    2    0    0  0.00000000000E+00  0.00000000000E+00 -0.36318956287E+03  0.12644022088E+04  0.12111177841E+04 0.  0.
        4    1    3    3  502    0  0.37411727558E+03 -0.37809234248E+03  0.12059186708E+03  0.54540037279E+03  0.12699999809E+01 0.  1.
       -4    1    3    3    0  502 -0.37411727558E+03  0.37809234248E+03 -0.48378142995E+03  0.71900183602E+03  0.12699999809E+01 0. -1.
</event>
<event>
 5   0  0.9169078E-04  0.1203007E+04  0.7818609E-02  0.9110228E-01
       -1   -1    0    0    0  501  0.00000000000E+00  0.00000000000E+00  0.50631579398E+03  0.50631579400E+03  0.50400001928E-02 0. -1.
        1   -1    0    0  501    0  0.00000000000E+00  0.00000000000E+00 -0.71458696467E+03  0.71458696469E+03  0.50400001928E-02 0.  1.
    10030    2    1    2    0    0  0.00000000000E+00  0.00000000000E+00 -0.20827117069E+03  0.12209027587E+04  0.12030073423E+04 0.  0.
        1    1    3    3  502    0 -0.57844705865E+03  0.60066726830E+02  0.51764811711E+02  0.58385666656E+03  0.50400001928E-02 0. -1.
       -1    1    3    3    0  502  0.57844705865E+03 -0.60066726830E+02 -0.26003598240E+03  0.63704609213E+03  0.50400001928E-02 0.  1.
</event>
<event>
 5   0  0.1537557E-03  0.1203678E+04  0.7818609E-02  0.9109643E-01
        2   -1    0    0  501    0  0.00000000000E+00  0.00000000000E+00  0.17948725608E+04  0.17948725608E+04  0.25500000920E-02 0. -1.
       -2   -1    0    0    0  501  0.00000000000E+00  0.00000000000E+00 -0.20180284819E+03  0.20180284820E+03  0.25500000920E-02 0.  1.
    10030    2    1    2    0    0  0.00000000000E+00  0.00000000000E+00  0.15930697126E+04  0.19966754090E+04  0.12036783539E+04 0.  0.
        2    1    3    3  502    0  0.22722527147E+02 -0.53271248528E+03  0.12595527477E+04  0.13677616859E+04  0.25500000920E-02 0. -1.
       -2    1    3    3    0  502 -0.22722527147E+02  0.53271248528E+03  0.33351696495E+03  0.62891372312E+03  0.25500000920E-02 0.  1.
</event>
<event>
 5   0  0.6137750E-04  0.1199453E+04  0.7818609E-02  0.9113336E-01
        3   -1    0    0  501    0  0.00000000000E+00  0.00000000000E+00  0.34027040113E+03  0.34027041612E+03  0.10100000352E+00 0. -1.
       -3   -1    0    0    0  501  0.00000000000E+00  0.00000000000E+00 -0.10570171785E+04  0.10570171833E+04  0.10100000352E+00 0.  1.
    10030    2    1    2    0    0  0.00000000000E+00  0.00000000000E+00 -0.71674677734E+03  0.13972875994E+04  0.11994526638E+04 0.  0.
        2    1    3    3  502    0  0.33664388802E+03  0.11701708351E+03 -0.92026664097E+03  0.98687020203E+03  0.25500000920E-02 0.  1.
       -2    1    3    3    0  502 -0.33664388802E+03 -0.11701708351E+03  0.20351986362E+03  0.41041739738E+03  0.25500000920E-02 0. -1.
</event>
<event>
 5   0  0.8908478E-04  0.1206442E+04  0.7818609E-02  0.9107236E-01
        1   -1    0    0  501    0  0.00000000000E+00  0.00000000000E+00  0.50462143270E+03  0.50462143273E+03  0.50400001928E-02 0.  1.
       -1   -1    0    0    0  501  0.00000000000E+00  0.00000000000E+00 -0.72108675663E+03  0.72108675665E+03  0.50400001928E-02 0. -1.
    10030    2    1    2    0    0  0.00000000000E+00  0.00000000000E+00 -0.21646532393E+03  0.12257081894E+04  0.12064424267E+04 0.  0.
        4    1    3    3  502    0  0.23944928018E+03  0.26242253484E+03  0.38706937394E+03  0.52538163054E+03  0.12699999809E+01 0.  1.
       -4    1    3    3    0  502 -0.23944928018E+03 -0.26242253484E+03 -0.60353469787E+03  0.70032655883E+03  0.12699999809E+01 0. -1.
</event>
<event>
 5   0  0.1551501E-03  0.1218788E+04  0.7818609E-02  0.9096568E-01
        2   -1    0    0  501    0  0.00000000000E+00  0.00000000000E+00  0.14826166542E+04  0.14826166542E+04  0.25500000920E-02 0.  1.
       -2   -1    0    0    0  501  0.00000000000E+00  0.00000000000E+00 -0.25047695820E+03  0.25047695821E+03  0.25500000920E-02 0. -1.
    10030    2    1    2    0    0  0.00000000000E+00  0.00000000000E+00  0.12321396960E+04  0.17330936124E+04  0.12187884307E+04 0.  0.
        4    1    3    3  502    0  0.26238845386E+03 -0.27461591227E+03  0.12937120513E+04  0.13483152764E+04  0.12699999809E+01 0.  1.
       -4    1    3    3    0  502 -0.26238845386E+03  0.27461591227E+03 -0.61572355332E+02  0.38477833597E+03  0.12699999809E+01 0. -1.
</event>
<event>
 5   0  0.9170776E-04  0.1198597E+04  0.7818609E-02  0.9114086E-01
        1   -1    0    0  501    0  0.00000000000E+00  0.00000000000E+00  0.55058494602E+03  0.55058494604E+03  0.50400001928E-02 0. -1.
       -1   -1    0    0    0  501  0.00000000000E+00  0.00000000000E+00 -0.65232195771E+03  0.65232195773E+03  0.50400001928E-02 0.  1.
    10030    2    1    2    0    0  0.00000000000E+00  0.00000000000E+00 -0.10173701170E+03  0.12029069038E+04  0.11985969296E+04 0.  0.
        5    1    3    3  502    0  0.28376163225E+02  0.51363271187E+03 -0.35940330157E+03  0.62754807984E+03  0.46999998093E+01 0. -1.
       -5    1    3    3    0  502 -0.28376163225E+02 -0.51363271187E+03  0.25766628987E+03  0.57535882393E+03  0.46999998093E+01 0.  1.
</event>
<event>
 5   0  0.1647550E-03  0.1205733E+04  0.7818609E-02  0.9107853E-01
        2   -1    0    0  501    0  0.00000000000E+00  0.00000000000E+00  0.64415699017E+03  0.64415699017E+03  0.25500000920E-02 0. -1.
       -2   -1    0    0    0  501  0.00000000000E+00  0.00000000000E+00 -0.56422255752E+03  0.56422255753E+03  0.25500000920E-02 0.  1.
    10030    2    1    2    0    0  0.00000000000E+00  0.00000000000E+00  0.79934432648E+02  0.12083795477E+04  0.12057328136E+04 0.  0.
        3    1    3    3  502    0  0.30190894565E+03  0.31775002342E+03 -0.37486627941E+03  0.57674849500E+03  0.10100000352E+00 0.  1.
       -3    1    3    3    0  502 -0.30190894565E+03 -0.31775002342E+03  0.45480071206E+03  0.63163105270E+03  0.10100000352E+00 0. -1.
</event>
<event>
 5   0  0.1597352E-03  0.1170566E+04  0.7818609E-02  0.9139018E-01
        2   -1    0    0  501    0  0.00000000000E+00  0.00000000000E+00  0.11860773975E+04  0.11860773975E+04  0.25500000920E-02 0.  1.
       -2   -1    0    0    0  501  0.00000000000E+00  0.00000000000E+00 -0.28881428145E+03  0.28881428146E+03  0.25500000920E-02 0. -1.
    10030    2    1    2    0    0  0.00000000000E+00  0.00000000000E+00  0.89726311609E+03  0.14748916790E+04  0.11705658312E+04 0.  0.
        1    1    3    3  502    0  0.79213123128E+02  0.29104278664E+03 -0.18334130173E+03  0.35297968139E+03  0.50400001928E-02 0. -1.
       -1    1    3    3    0  502 -0.79213123128E+02 -0.29104278664E+03  0.10806044178E+04  0.11219119976E+04  0.50400001928E-02 0.  1.
</event>
<event>
 5   0  0.9169078E-04  0.1202071E+04  0.7818609E-02  0.9111046E-01
        1   -1    0    0  501    0  0.00000000000E+00  0.00000000000E+00  0.22645695178E+04  0.22645695178E+04  0.50400001928E-02 0. -1.
       -1   -1    0    0    0  501  0.00000000000E+00  0.00000000000E+00 -0.15951972875E+03  0.15951972883E+03  0.50400001928E-02 0.  1.
    10030    2    1    2    0    0  0.00000000000E+00  0.00000000000E+00  0.21050497891E+04  0.24240892467E+04  0.12020707389E+04 0.  0.
        1    1    3    3  502    0  0.28160296942E+03  0.42845704755E+02 -0.14761492721E+02  0.28522603054E+03  0.50400001928E-02 0.  1.
       -1    1    3    3    0  502 -0.28160296942E+03 -0.42845704755E+02  0.21198112818E+04  0.21388632161E+04  0.50400001928E-02 0. -1.
</event>
<event>
 5   0  0.6137750E-04  0.1183796E+04  0.7818609E-02  0.9127160E-01
       -3   -1    0    0    0  501  0.00000000000E+00  0.00000000000E+00  0.95148719112E+03  0.95148719648E+03  0.10100000352E+00 0.  1.
        3   -1    0    0  501    0  0.00000000000E+00  0.00000000000E+00 -0.36820570434E+03  0.36820571819E+03  0.10100000352E+00 0. -1.
    10030    2    1    2    0    0  0.00000000000E+00  0.00000000000E+00  0.58328148678E+03  0.13196929147E+04  0.11837956311E+04 0.  0.
        3    1    3    3  502    0 -0.29200080140E+02 -0.52162124519E+03 -0.18508873914E+02  0.52276568052E+03  0.10100000352E+00 0. -1.
       -3    1    3    3    0  502  0.29200080140E+02  0.52162124519E+03  0.60179036070E+03  0.79692723415E+03  0.10100000352E+00 0.  1.
</event>
<event>
 5   0  0.9358428E-04  0.1200986E+04  0.7818609E-02  0.9111994E-01
       -1   -1    0    0    0  501  0.00000000000E+00  0.00000000000E+00  0.15197667409E+03  0.15197667417E+03  0.50400001928E-02 0. -1.
        1   -1    0    0  501    0  0.00000000000E+00  0.00000000000E+00 -0.23726771312E+04  0.23726771312E+04  0.50400001928E-02 0.  1.
    10030    2    1    2    0    0  0.00000000000E+00  0.00000000000E+00 -0.22207004571E+04  0.25246538054E+04  0.12009855606E+04 0.  0.
        2    1    3    3  502    0  0.55110553775E+03 -0.22036536021E+03 -0.13020195889E+04  0.14309204085E+04  0.25500000920E-02 0.  1.
       -2    1    3    3    0  502 -0.55110553775E+03  0.22036536021E+03 -0.91868086824E+03  0.10937333969E+04  0.25500000920E-02 0. -1.
</event>
<event>
 5   0  0.8908478E-04  0.1213627E+04  0.7818609E-02  0.9101011E-01
       -1   -1    0    0    0  501  0.00000000000E+00  0.00000000000E+00  0.69594318807E+03  0.69594318809E+03  0.50400001928E-02 0.  1.
        1   -1    0    0  501    0  0.00000000000E+00  0.00000000000E+00 -0.52909911786E+03  0.52909911788E+03  0.50400001928E-02 0. -1.
    10030    2    1    2    0    0  0.00000000000E+00  0.00000000000E+00  0.16684407021E+03  0.12250423060E+04  0.12136274995E+04 0.  0.
        4    1    3    3  502    0  0.27973310410E+03 -0.24754833581E+03 -0.39929182082E+03  0.54677816266E+03  0.12699999809E+01 0. -1.
       -4    1    3    3    0  502 -0.27973310410E+03  0.24754833581E+03  0.56613589102E+03  0.67826414331E+03  0.12699999809E+01 0.  1.
</event>
<event>
 5   0  0.8908478E-04  0.1188861E+04  0.7818609E-02  0.9122663E-01
        1   -1    0    0  501    0  0.00000000000E+00  0.00000000000E+00  0.39386331272E+03  0.39386331275E+03  0.50400001928E-02 0. -1.
       -1   -1    0    0    0  501  0.00000000000E+00  0.00000000000E+00 -0.89713242346E+03  0.89713242348E+03  0.50400001928E-02 0.  1.
    10030    2    1    2    0    0  0.00000000000E+00  0.00000000000E+00 -0.50326911074E+03  0.12909957362E+04  0.11888608805E+04 0.  0.
        4    1    3    3  502    0  0.13208798180E+03  0.25378214784E+03  0.31417899876E+03  0.42492666386E+03  0.12699999809E+01 0. -1.
       -4    1    3    3    0  502 -0.13208798180E+03 -0.25378214784E+03 -0.81744810950E+03  0.86606907237E+03  0.12699999809E+01 0.  1.
</event>
<event>
 5   0  0.9169078E-04  0.1210165E+04  0.7818609E-02  0.9104005E-01
       -1   -1    0    0    0  501  0.00000000000E+00  0.00000000000E+00  0.46200550883E+03  0.46200550886E+03  0.50400001928E-02 0. -1.
        1   -1    0    0  501    0  0.00000000000E+00  0.00000000000E+00 -0.79246846524E+03  0.79246846526E+03  0.50400001928E-02 0.  1.
    10030    2    1    2    0    0  0.00000000000E+00  0.00000000000E+00 -0.33046295641E+03  0.12544739741E+04  0.12101649417E+04 0.  0.
        1    1    3    3  502    0  0.32330518164E+02 -0.74934673633E+02  0.45627403901E+03  0.46351533569E+03  0.50400001928E-02 0. -1.
       -1    1    3    3    0  502 -0.32330518164E+02  0.74934673633E+02 -0.78673699542E+03  0.79095863843E+03  0.50400001928E-02 0.  1.
</event>
<event>
 5   0  0.1567019E-03  0.1202205E+04  0.7818609E-02  0.9110929E-01
        2   -1    0    0  501    0  0.00000000000E+00  0.00000000000E+00  0.11877454028E+04  0.11877454028E+04  0.25500000920E-02 0.  1.
       -2   -1    0    0    0  501  0.00000000000E+00  0.00000000000E+00 -0.30421005912E+03  0.30421005913E+03  0.25500000920E-02 0. -1.
    10030    2    1    2    0    0  0.00000000000E+00  0.00000000000E+00  0.88353534371E+03  0.14919554620E+04  0.12022048066E+04 0.  0.
        5    1    3    3  502    0  0.25745807298E+03  0.10103399336E+02 -0.23217977056E+03  0.34686636314E+03  0.46999998093E+01 0. -1.
       -5    1    3    3    0  502 -0.25745807298E+03 -0.10103399336E+02  0.11157151143E+04  0.11450890988E+04  0.46999998093E+01 0.  1.
</event>
<event>
 5   0  0.1537557E-03  0.1214016E+04  0.7818609E-02  0.9100676E-01
        2   -1    0    0  501    0  0.00000000000E+00  0.00000000000E+00  0.91082638237E+03  0.91082638237E+03  0.25500000920E-02 0. -1.
       -2   -1    0    0    0  501  0.00000000000E+00  0.00000000000E+00 -0.40453249627E+03  0.40453249628E+03  0.25500000920E-02 0.  1.
    10030    2    1    2    0    0  0.00000000000E+00  0.00000000000E+00  0.50629388609E+03  0.13153588786E+04  0.12140162604E+04 0.  0.
        2    1    3    3  502    0  0.33177275730E+03  0.29067491346E+03 -0.19866926759E+03  0.48377117079E+03  0.25500000920E-02 0.  1.
       -2    1    3    3    0  502 -0.33177275730E+03 -0.29067491346E+03  0.70496315368E+03  0.83158770786E+03  0.25500000920E-02 0. -1.
</event>
<event>
 5   0  0.9358428E-04  0.1212581E+04  0.7818609E-02  0.9101915E-01
        1   -1    0    0  501    0  0.00000000000E+00  0.00000000000E+00  0.59129439164E+03  0.59129439167E+03  0.50400001928E-02 0.  1.
       -1   -1    0    0    0  501  0.00000000000E+00  0.00000000000E+00 -0.62166714689E+03  0.62166714691E+03  0.50400001928E-02 0. -1.
    10030    2    1    2    0    0  0.00000000000E+00  0.00000000000E+00 -0.30372755247E+02  0.12129615386E+04  0.12125812096E+04 0.  0.
        2    1    3    3  502    0 -0.40253470169E+02  0.37008774473E+03  0.46350631504E+03  0.59449422600E+03  0.25500000920E-02 0.  1.
       -2    1    3    3    0  502  0.40253470169E+02 -0.37008774473E+03 -0.49387907028E+03  0.61846731258E+03  0.25500000920E-02 0. -1.
</event>
<event>
 5   0  0.8908478E-04  0.1201339E+04  0.7818609E-02  0.9111685E-01
        1   -1    0    0  501    0  0.00000000000E+00  0.00000000000E+00  0.95035779527E+03  0.95035779528E+03  0.50400001928E-02 0.  1.
       -1   -1    0    0    0  501  0.00000000000E+00  0.00000000000E+00 -0.37965054243E+03  0.37965054246E+03  0.50400001928E-02 0. -1.
    10030    2    1    2    0    0  0.00000000000E+00  0.00000000000E+00  0.57070725284E+03  0.13300083377E+04  0.12013390071E+04 0.  0.
        4    1    3    3  502    0  0.49254512938E+03 -0.87466990204E+02 -0.82750123639E+02  0.50705066287E+03  0.12699999809E+01 0. -1.
       -4    1    3    3    0  502 -0.49254512938E+03  0.87466990204E+02  0.65345737648E+03  0.82295767487E+03  0.12699999809E+01 0.  1.
</event>
<event>
 5   0  0.9208078E-04  0.1189328E+04  0.7818609E-02  0.9122250E-01
        1   -1    0    0  501    0  0.00000000000E+00  0.00000000000E+00  0.38711524378E+03  0.38711524381E+03  0.50400001928E-02 0. -1.
       -1   -1    0    0    0  501  0.00000000000E+00  0.00000000000E+00 -0.91348796022E+03  0.91348796023E+03  0.50400001928E-02 0.  1.
    10030    2    1    2    0    0  0.00000000000E+00  0.00000000000E+00 -0.52637271644E+03  0.13006032040E+04  0.11893277335E+04 0.  0.
        3    1    3    3  502    0  0.10448038002E+03  0.76240106381E+02 -0.89791991487E+03  0.90718734964E+03  0.10100000352E+00 0.  1.
       -3    1    3    3    0  502 -0.10448038002E+03 -0.76240106381E+02  0.37154719843E+03  0.39341585440E+03  0.10100000352E+00 0. -1.
</event>
<event>
 5   0  0.9169078E-04  0.1200589E+04  0.7818609E-02  0.9112341E-01
        1   -1    0    0  501    0  0.00000000000E+00  0.00000000000E+00  0.80788567057E+03  0.80788567058E+03  0.50400001928E-02 0. -1.
       -1   -1    0    0    0  501  0.00000000000E+00  0.00000000000E+00 -0.44604532496E+03  0.44604532499E+03  0.50400001928E-02 0.  1.
    10030    2    1    2    0    0  0.00000000000E+00  0.00000000000E+00  0.36184034561E+03  0.12539309956E+04  0.12005892328E+04 0.  0.
        1    1    3    3  502    0  0.21759368723E+03 -0.12531374366E+03 -0.38856037917E+03  0.46263345681E+03  0.50400001928E-02 0.  1.
       -1    1    3    3    0  502 -0.21759368723E+03  0.12531374366E+03  0.75040072478E+03  0.79129753876E+03  0.50400001928E-02 0. -1.
</event>
<event>
 5   0  0.8908478E-04  0.1235578E+04  0.7818609E-02  0.9082273E-01
       -1   -1    0    0    0  501  0.00000000000E+00  0.00000000000E+00  0.17860458206E+03  0.17860458213E+03  0.50400001928E-02 0.  1.
        1   -1    0    0  501    0  0.00000000000E+00  0.00000000000E+00 -0.21369163531E+04  0.21369163531E+04  0.50400001928E-02 0. -1.
    10030    2    1    2    0    0  0.00000000000E+00  0.00000000000E+00 -0.19583117710E+04  0.23155209352E+04  0.12355776823E+04 0.  0.
        4    1    3    3  502    0 -0.61641629167E+03  0.28947089272E+02 -0.92437554738E+03  0.11114309444E+04  0.12699999809E+01 0.  1.
       -4    1    3    3    0  502  0.61641629167E+03 -0.28947089272E+02 -0.10339362237E+04  0.12040899909E+04  0.12699999809E+01 0. -1.
</event>
<event>
 5   0  0.8908478E-04  0.1212436E+04  0.7818609E-02  0.9102040E-01
       -1   -1    0    0    0  501  0.00000000000E+00  0.00000000000E+00  0.18949144826E+03  0.18949144833E+03  0.50400001928E-02 0.  1.
        1   -1    0    0  501    0  0.00000000000E+00  0.00000000000E+00 -0.19394037853E+04  0.19394037853E+04  0.50400001928E-02 0. -1.
    10030    2    1    2    0    0  0.00000000000E+00  0.00000000000E+00 -0.17499123370E+04  0.21288952336E+04  0.12124362781E+04 0.  0.
        4    1    3    3  502    0  0.57848541670E+03  0.12508451317E+03 -0.11052868611E+04  0.12537751676E+04  0.12699999809E+01 0. -1.
       -4    1    3    3    0  502 -0.57848541670E+03 -0.12508451317E+03 -0.64462547590E+03  0.87512006596E+03  0.12699999809E+01 0.  1.
</event>
<event>
 5   0  0.9208078E-04  0.1195729E+04  0.7818609E-02  0.9116603E-01
       -1   -1    0    0    0  501  0.00000000000E+00  0.00000000000E+00  0.14053676301E+03  0.14053676310E+03  0.50400001928E-02 0. -1.
        1   -1    0    0  501    0  0.00000000000E+00  0.00000000000E+00 -0.25434068208E+04  0.25434068208E+04  0.50400001928E-02 0.  1.
    10030    2    1    2    0    0  0.00000000000E+00  0.00000000000E+00 -0.24028700578E+04  0.26839435839E+04  0.11957293368E+04 0.  0.
        3    1    3    3  502    0 -0.16264137851E+03 -0.17674103956E+03 -0.24303502772E+04  0.24421900199E+04  0.10100000352E+00 0.  1.
       -3    1    3    3    0  502  0.16264137851E+03  0.17674103956E+03  0.27480219411E+02  0.24175356404E+03  0.10100000352E+00 0. -1.
</event>
<event>
 5   0  0.1537557E-03  0.1199684E+04  0.7818609E-02  0.9113133E-01
        2   -1    0    0  501    0  0.00000000000E+00  0.00000000000E+00  0.74511032056E+03  0.74511032057E+03  0.25500000920E-02 0.  1.
       -2   -1    0    0    0  501  0.00000000000E+00  0.00000000000E+00 -0.48289538805E+03  0.48289538805E+03  0.25500000920E-02 0. -1.
    10030    2    1    2    0    0  0.00000000000E+00  0.00000000000E+00  0.26221493251E+03  0.12280057086E+04  0.11996838540E+04 0.  0.
        2    1    3    3  502    0  0.13145047416E+03 -0.44301878089E+03  0.52258286696E+03  0.69759423752E+03  0.25500000920E-02 0.  1.
       -2    1    3    3    0  502 -0.13145047416E+03  0.44301878089E+03 -0.26036793445E+03  0.53041147110E+03  0.25500000920E-02 0. -1.
</event>
<event>
 5   0  0.9170776E-04  0.1197922E+04  0.7818609E-02  0.9114677E-01
       -1   -1    0    0    0  501  0.00000000000E+00  0.00000000000E+00  0.22446270053E+03  0.22446270059E+03  0.50400001928E-02 0.  1.
        1   -1    0    0  501    0  0.00000000000E+00  0.00000000000E+00 -0.15982806957E+04  0.15982806957E+04  0.50400001928E-02 0. -1.
    10030    2    1    2    0    0  0.00000000000E+00  0.00000000000E+00 -0.13738179952E+04  0.18227433963E+04  0.11979222032E+04 0.  0.
        5    1    3    3  502    0  0.47574564772E+02 -0.50523284943E+03 -0.20284149493E+03  0.54652569329E+03  0.46999998093E+01 0.  1.
       -5    1    3    3    0  502 -0.47574564772E+02  0.50523284943E+03 -0.11709765003E+04  0.12762177030E+04  0.46999998093E+01 0. -1.
</event>
<event>
 5   0  0.1597352E-03  0.1201824E+04  0.7818609E-02  0.9111261E-01
        2   -1    0    0  501    0  0.00000000000E+00  0.00000000000E+00  0.11857821230E+04  0.11857821230E+04  0.25500000920E-02 0.  1.
       -2   -1    0    0    0  501  0.00000000000E+00  0.00000000000E+00 -0.30452082596E+03  0.30452082597E+03  0.25500000920E-02 0. -1.
    10030    2    1    2    0    0  0.00000000000E+00  0.00000000000E+00  0.88126129705E+03  0.14903029490E+04  0.12018241993E+04 0.  0.
        1    1    3    3  502    0  0.21075687757E+03  0.15924323901E+03  0.11099257318E+04  0.11409259401E+04  0.50400001928E-02 0.  1.
       -1    1    3    3    0  502 -0.21075687757E+03 -0.15924323901E+03 -0.22866443474E+03  0.34937700891E+03  0.50400001928E-02 0. -1.
</event>
<event>
 5   0  0.9208078E-04  0.1199505E+04  0.7818609E-02  0.9113290E-01
        1   -1    0    0  501    0  0.00000000000E+00  0.00000000000E+00  0.98024195939E+03  0.98024195941E+03  0.50400001928E-02 0.  1.
       -1   -1    0    0    0  501  0.00000000000E+00  0.00000000000E+00 -0.36695322924E+03  0.36695322927E+03  0.50400001928E-02 0. -1.
    10030    2    1    2    0    0  0.00000000000E+00  0.00000000000E+00  0.61328873016E+03  0.13471951887E+04  0.11995048186E+04 0.  0.
        3    1    3    3  502    0 -0.21109124438E+03  0.10760997895E+03  0.92544865685E+03  0.95529819831E+03  0.10100000352E+00 0.  1.
       -3    1    3    3    0  502  0.21109124438E+03 -0.10760997895E+03 -0.31215992669E+03  0.39189699037E+03  0.10100000352E+00 0. -1.
</event>
<event>
 5   0  0.1597352E-03  0.1191928E+04  0.7818609E-02  0.9119951E-01
       -2   -1    0    0    0  501  0.00000000000E+00  0.00000000000E+00  0.60733345060E+03  0.60733345060E+03  0.25500000920E-02 0.  1.
        2   -1    0    0  501    0  0.00000000000E+00  0.00000000000E+00 -0.58480778186E+03  0.58480778187E+03  0.25500000920E-02 0. -1.
    10030    2    1    2    0    0  0.00000000000E+00  0.00000000000E+00  0.22525668733E+02  0.11921412325E+04  0.11919284007E+04 0.  0.
        1    1    3    3  502    0 -0.42245400148E+03 -0.36861347889E+03  0.21336337986E+03  0.59988933319E+03  0.50400001928E-02 0.  1.
       -1    1    3    3    0  502  0.42245400148E+03  0.36861347889E+03 -0.19083771112E+03  0.59225189928E+03  0.50400001928E-02 0. -1.
</event>
<event>
 5   0  0.9169078E-04  0.1182545E+04  0.7818609E-02  0.9128274E-01
        1   -1    0    0  501    0  0.00000000000E+00  0.00000000000E+00  0.11187071778E+04  0.11187071778E+04  0.50400001928E-02 0. -1.
       -1   -1    0    0    0  501  0.00000000000E+00  0.00000000000E+00 -0.31250641541E+03  0.31250641545E+03  0.50400001928E-02 0.  1.
    10030    2    1    2    0    0  0.00000000000E+00  0.00000000000E+00  0.80620076238E+03  0.14312135933E+04  0.11825450014E+04 0.  0.
        1    1    3    3  502    0 -0.19256299818E+03 -0.17931091361E+03  0.10439450066E+04  0.10765937437E+04  0.50400001928E-02 0. -1.
       -1    1    3    3    0  502  0.19256299818E+03  0.17931091361E+03 -0.23774424426E+03  0.35461984958E+03  0.50400001928E-02 0.  1.
</event>
<event>
 5   0  0.1567019E-03  0.1198684E+04  0.7818609E-02  0.9114009E-01
        2   -1    0    0  501    0  0.00000000000E+00  0.00000000000E+00  0.13395218050E+04  0.13395218050E+04  0.25500000920E-02 0. -1.
       -2   -1    0    0    0  501  0.00000000000E+00  0.00000000000E+00 -0.26816359753E+03  0.26816359754E+03  0.25500000920E-02 0.  1.
    10030    2    1    2    0    0  0.00000000000E+00  0.00000000000E+00  0.10713582075E+04  0.16076854026E+04  0.11986842557E+04 0.  0.
        5    1    3    3  502    0  0.11313120487E+03 -0.44485276172E+03  0.18841616447E+02  0.45942327503E+03  0.46999998093E+01 0.  1.
       -5    1    3    3    0  502 -0.11313120487E+03  0.44485276172E+03  0.10525165911E+04  0.11482621276E+04  0.46999998093E+01 0. -1.
</event>
<event>
 5   0  0.9358428E-04  0.1201995E+04  0.7818609E-02  0.9111112E-01
       -1   -1    0    0    0  501  0.00000000000E+00  0.00000000000E+00  0.47534324917E+03  0.47534324920E+03  0.50400001928E-02 0.  1.
        1   -1    0    0  501    0  0.00000000000E+00  0.00000000000E+00 -0.75986720226E+03  0.75986720227E+03  0.50400001928E-02 0. -1.
    10030    2    1    2    0    0  0.00000000000E+00  0.00000000000E+00 -0.28452395309E+03  0.12352104515E+04  0.12019945838E+04 0.  0.
        2    1    3    3  502    0  0.50107966834E+02 -0.35504390092E+03 -0.63790845096E+03  0.73177467278E+03  0.25500000920E-02 0. -1.
       -2    1    3    3    0  502 -0.50107966834E+02  0.35504390092E+03  0.35338449787E+03  0.50343577868E+03  0.25500000920E-02 0.  1.
</event>
<event>
 5   0  0.1647550E-03  0.1202083E+04  0.7818609E-02  0.9111036E-01
        2   -1    0    0  501    0  0.00000000000E+00  0.00000000000E+00  0.31942661457E+03  0.31942661458E+03  0.25500000920E-02 0.  1.
       -2   -1    0    0    0  501  0.00000000000E+00  0.00000000000E+00 -0.11309347388E+04  0.11309347388E+04  0.25500000920E-02 0. -1.
    10030    2    1    2    0    0  0.00000000000E+00  0.00000000000E+00 -0.81150812425E+03  0.14503613534E+04  0.12020826177E+04 0.  0.
        3    1    3    3  502    0 -0.14510971311E+03  0.58304462096E+03 -0.42493713978E+03  0.73591401797E+03  0.10100000352E+00 0. -1.
       -3    1    3    3    0  502  0.14510971311E+03 -0.58304462096E+03 -0.38657098447E+03  0.71444733544E+03  0.10100000352E+00 0.  1.
</event>
<event>
 5   0  0.1537557E-03  0.1188469E+04  0.7818609E-02  0.9123010E-01
       -2   -1    0    0    0  501  0.00000000000E+00  0.00000000000E+00  0.12631687068E+04  0.12631687068E+04  0.25500000920E-02 0.  1.
        2   -1    0    0  501    0  0.00000000000E+00  0.00000000000E+00 -0.27954684417E+03  0.27954684418E+03  0.25500000920E-02 0. -1.
    10030    2    1    2    0    0  0.00000000000E+00  0.00000000000E+00  0.98362186265E+03  0.15427155510E+04  0.11884693108E+04 0.  0.
        2    1    3    3  502    0  0.50468130680E+03  0.31368113554E+03  0.49696238999E+03  0.77464230023E+03  0.25500000920E-02 0. -1.
       -2    1    3    3    0  502 -0.50468130680E+03 -0.31368113554E+03  0.48665947266E+03  0.76807325078E+03  0.25500000920E-02 0.  1.
</event>
<event>
 5   0  0.6137750E-04  0.1194269E+04  0.7818609E-02  0.9117888E-01
       -4   -1    0    0    0  501  0.00000000000E+00  0.00000000000E+00  0.10159061855E+04  0.10159069794E+04  0.12699999809E+01 0.  1.
        4   -1    0    0  501    0  0.00000000000E+00  0.00000000000E+00 -0.35098455152E+03  0.35098684920E+03  0.12699999809E+01 0. -1.
    10030    2    1    2    0    0  0.00000000000E+00  0.00000000000E+00  0.66492163401E+03  0.13668938286E+04  0.11942687969E+04 0.  0.
        1    1    3    3  502    0  0.67513045896E+02 -0.58871724132E+03  0.24817159483E+03  0.64244466072E+03  0.50400001928E-02 0.  1.
       -1    1    3    3    0  502 -0.67513045896E+02  0.58871724132E+03  0.41675003919E+03  0.72444916783E+03  0.50400001928E-02 0. -1.
</event>
<event>
 5   0  0.1567019E-03  0.1204726E+04  0.7818609E-02  0.9108730E-01
        2   -1    0    0  501    0  0.00000000000E+00  0.00000000000E+00  0.74369664667E+03  0.74369664667E+03  0.25500000920E-02 0.  1.
       -2   -1    0    0    0  501  0.00000000000E+00  0.00000000000E+00 -0.48788838490E+03  0.48788838491E+03  0.25500000920E-02 0. -1.
    10030    2    1    2    0    0  0.00000000000E+00  0.00000000000E+00  0.25580826177E+03  0.12315850316E+04  0.12047256216E+04 0.  0.
        5    1    3    3  502    0 -0.15676412609E+03 -0.35466429663E+03 -0.34330304027E+03  0.51791970612E+03  0.46999998093E+01 0. -1.
       -5    1    3    3    0  502  0.15676412609E+03  0.35466429663E+03  0.59911130204E+03  0.71366532546E+03  0.46999998093E+01 0.  1.
</event>
<event>
 5   0  0.1567019E-03  0.1195816E+04  0.7818609E-02  0.9116527E-01
        2   -1    0    0  501    0  0.00000000000E+00  0.00000000000E+00  0.13279398194E+04  0.13279398194E+04  0.25500000920E-02 0.  1.
       -2   -1    0    0    0  501  0.00000000000E+00  0.00000000000E+00 -0.26920938570E+03  0.26920938571E+03  0.25500000920E-02 0. -1.
    10030    2    1    2    0    0  0.00000000000E+00  0.00000000000E+00  0.10587304337E+04  0.15971492051E+04  0.11958158103E+04 0.  0.
        5    1    3    3  502    0  0.10516310904E+03  0.58555010465E+03  0.44985890393E+03  0.74587085209E+03  0.46999998093E+01 0.  1.
       -5    1    3    3    0  502 -0.10516310904E+03 -0.58555010465E+03  0.60887152981E+03  0.85127835305E+03  0.46999998093E+01 0. -1.
</event>
<event>
 5   0  0.1647550E-03  0.1200990E+04  0.7818609E-02  0.9111990E-01
       -2   -1    0    0    0  501  0.00000000000E+00  0.00000000000E+00  0.35983412336E+03  0.35983412337E+03  0.25500000920E-02 0.  1.
        2   -1    0    0  501    0  0.00000000000E+00  0.00000000000E+00 -0.10021130320E+04  0.10021130320E+04  0.25500000920E-02 0. -1.
    10030    2    1    2    0    0  0.00000000000E+00  0.00000000000E+00 -0.64227890867E+03  0.13619471554E+04  0.12009903653E+04 0.  0.
        3    1    3    3  502    0  0.51226148025E+03  0.23112383788E+03 -0.81208033818E+02  0.56782462745E+03  0.10100000352E+00 0.  1.
       -3    1    3    3    0  502 -0.51226148025E+03 -0.23112383788E+03 -0.56107087485E+03  0.79412252794E+03  0.10100000352E+00 0. -1.
</event>
<event>
 5   0  0.1597352E-03  0.1203022E+04  0.7818609E-02  0.9110215E-01
        2   -1    0    0  501    0  0.00000000000E+00  0.00000000000E+00  0.73043591819E+03  0.73043591820E+03  0.25500000920E-02 0.  1.
       -2   -1    0    0    0  501  0.00000000000E+00  0.00000000000E+00 -0.49534189459E+03  0.49534189459E+03  0.25500000920E-02 0. -1.
    10030    2    1    2    0    0  0.00000000000E+00  0.00000000000E+00  0.23509402361E+03  0.12257778128E+04  0.12030220473E+04 0.  0.
        1    1    3    3  502    0  0.34104608498E+03  0.14001230827E+03  0.60182634111E+03  0.70576966740E+03  0.50400001928E-02 0.  1.
       -1    1    3    3    0  502 -0.34104608498E+03 -0.14001230827E+03 -0.36673231750E+03  0.52000814539E+03  0.50400001928E-02 0. -1.
</event>
<event>
 5   0  0.9170776E-04  0.1197890E+04  0.7818609E-02  0.9114706E-01
        1   -1    0    0  501    0  0.00000000000E+00  0.00000000000E+00  0.65890525590E+03  0.65890525592E+03  0.50400001928E-02 0. -1.
       -1   -1    0    0    0  501  0.00000000000E+00  0.00000000000E+00 -0.54444092414E+03  0.54444092416E+03  0.50400001928E-02 0.  1.
    10030    2    1    2    0    0  0.00000000000E+00  0.00000000000E+00  0.11446433176E+03  0.12033461801E+04  0.11978897887E+04 0.  0.
        5    1    3    3  502    0  0.10455004526E+03 -0.46340899489E+01 -0.53516637152E+03  0.54532313536E+03  0.46999998093E+01 0.  1.
       -5    1    3    3    0  502 -0.10455004526E+03  0.46340899489E+01  0.64963070327E+03  0.65802304472E+03  0.46999998093E+01 0. -1.
</event>
<event>
 5   0  0.9169078E-04  0.1193246E+04  0.7818609E-02  0.9118789E-01
       -1   -1    0    0    0  501  0.00000000000E+00  0.00000000000E+00  0.23682417989E+03  0.23682417995E+03  0.50400001928E-02 0.  1.
        1   -1    0    0  501    0  0.00000000000E+00  0.00000000000E+00 -0.15030524638E+04  0.15030524638E+04  0.50400001928E-02 0. -1.
    10030    2    1    2    0    0  0.00000000000E+00  0.00000000000E+00 -0.12662282839E+04  0.17398766437E+04  0.11932462732E+04 0.  0.
        1    1    3    3  502    0 -0.79436026386E+02 -0.59110208382E+03 -0.65604911041E+03  0.88662968091E+03  0.50400001928E-02 0.  1.
       -1    1    3    3    0  502  0.79436026386E+02  0.59110208382E+03 -0.61017917345E+03  0.85324696279E+03  0.50400001928E-02 0. -1.
</event>
<event>
 5   0  0.6137750E-04  0.1189900E+04  0.7818609E-02  0.9121743E-01
       -3   -1    0    0    0  501  0.00000000000E+00  0.00000000000E+00  0.17769742578E+04  0.17769742606E+04  0.10100000352E+00 0.  1.
        3   -1    0    0  501    0  0.00000000000E+00  0.00000000000E+00 -0.19919573042E+03  0.19919575603E+03  0.10100000352E+00 0. -1.
    10030    2    1    2    0    0  0.00000000000E+00  0.00000000000E+00  0.15777785273E+04  0.19761700167E+04  0.11899003544E+04 0.  0.
        1    1    3    3  502    0 -0.15657091788E+02  0.43159326308E+03  0.14684894136E+04  0.15306792764E+04  0.50400001928E-02 0.  1.
       -1    1    3    3    0  502  0.15657091788E+02 -0.43159326308E+03  0.10928911372E+03  0.44549074026E+03  0.50400001928E-02 0. -1.
</event>
<event>
 5   0  0.1537557E-03  0.1194599E+04  0.7818609E-02  0.9117597E-01
        2   -1    0    0  501    0  0.00000000000E+00  0.00000000000E+00  0.84647051901E+03  0.84647051902E+03  0.25500000920E-02 0.  1.
       -2   -1    0    0    0  501  0.00000000000E+00  0.00000000000E+00 -0.42147550994E+03  0.42147550995E+03  0.25500000920E-02 0. -1.
    10030    2    1    2    0    0  0.00000000000E+00  0.00000000000E+00  0.42499500907E+03  0.12679460290E+04  0.11945988342E+04 0.  0.
        2    1    3    3  502    0  0.31296113477E+03 -0.43928508011E+03  0.48486692841E+03  0.72526684177E+03  0.25500000920E-02 0.  1.
       -2    1    3    3    0  502 -0.31296113477E+03  0.43928508011E+03 -0.59871919341E+02  0.54267918720E+03  0.25500000920E-02 0. -1.
</event>
<event>
 5   0  0.9358428E-04  0.1165148E+04  0.7818609E-02  0.9143922E-01
       -1   -1    0    0    0  501  0.00000000000E+00  0.00000000000E+00  0.69510287883E+03  0.69510287885E+03  0.50400001928E-02 0. -1.
        1   -1    0    0  501    0  0.00000000000E+00  0.00000000000E+00 -0.48826210634E+03  0.48826210636E+03  0.50400001928E-02 0.  1.
    10030    2    1    2    0    0  0.00000000000E+00  0.00000000000E+00  0.20684077250E+03  0.11833649852E+04  0.11651478803E+04 0.  0.
        2    1    3    3  502    0  0.43541707903E+03  0.30799509499E+03  0.34148528692E+03  0.63329393842E+03  0.25500000920E-02 0. -1.
       -2    1    3    3    0  502 -0.43541707903E+03 -0.30799509499E+03 -0.13464451443E+03  0.55007104679E+03  0.25500000920E-02 0.  1.
</event>
<event>
 5   0  0.1597352E-03  0.1202859E+04  0.7818609E-02  0.9110357E-01
        2   -1    0    0  501    0  0.00000000000E+00  0.00000000000E+00  0.71912700360E+03  0.71912700361E+03  0.25500000920E-02 0.  1.
       -2   -1    0    0    0  501  0.00000000000E+00  0.00000000000E+00 -0.50299545072E+03  0.50299545073E+03  0.25500000920E-02 0. -1.
    10030    2    1    2    0    0  0.00000000000E+00  0.00000000000E+00  0.21613155288E+03  0.12221224543E+04  0.12028592791E+04 0.  0.
        1    1    3    3  502    0  0.55057005362E+01 -0.29896687114E+03  0.63825218789E+03  0.70482434560E+03  0.50400001928E-02 0.  1.
       -1    1    3    3    0  502 -0.55057005362E+01  0.29896687114E+03 -0.42212063501E+03  0.51729810874E+03  0.50400001928E-02 0. -1.
</event>
<event>
 5   0  0.1567019E-03  0.1205101E+04  0.7818609E-02  0.9108404E-01
       -2   -1    0    0    0  501  0.00000000000E+00  0.00000000000E+00  0.49663175922E+03  0.49663175923E+03  0.25500000920E-02 0.  1.
        2   -1    0    0  501    0  0.00000000000E+00  0.00000000000E+00 -0.73105846227E+03  0.73105846228E+03  0.25500000920E-02 0. -1.
    10030    2    1    2    0    0  0.00000000000E+00  0.00000000000E+00 -0.23442670305E+03  0.12276902215E+04  0.12051005771E+04 0.  0.
        5    1    3    3  502    0 -0.53310142022E+03 -0.19388429931E+03 -0.32413778236E+03  0.65335720530E+03  0.46999998093E+01 0. -1.
       -5    1    3    3    0  502  0.53310142022E+03  0.19388429931E+03  0.89711079313E+02  0.57433301621E+03  0.46999998093E+01 0.  1.
</event>
<event>
 5   0  0.6137750E-04  0.1196174E+04  0.7818609E-02  0.9116212E-01
        3   -1    0    0  501    0  0.00000000000E+00  0.00000000000E+00  0.77450260624E+03  0.77450261283E+03  0.10100000352E+00 0. -1.
       -3   -1    0    0    0  501  0.00000000000E+00  0.00000000000E+00 -0.46185507767E+03  0.46185508872E+03  0.10100000352E+00 0.  1.
    10030    2    1    2    0    0  0.00000000000E+00  0.00000000000E+00  0.31264752857E+03  0.12363577015E+04  0.11961738540E+04 0.  0.
        3    1    3    3  502    0 -0.33575295737E+03 -0.12066650182E+03  0.65246756789E+03  0.74364264965E+03  0.10100000352E+00 0. -1.
       -3    1    3    3    0  502  0.33575295737E+03  0.12066650182E+03 -0.33982003931E+03  0.49271505189E+03  0.10100000352E+00 0.  1.
</event>
<event>
 5   0  0.9208078E-04  0.1189557E+04  0.7818609E-02  0.9122047E-01
        1   -1    0    0  501    0  0.00000000000E+00  0.00000000000E+00  0.60339462014E+03  0.60339462016E+03  0.50400001928E-02 0.  1.
       -1   -1    0    0    0  501  0.00000000000E+00  0.00000000000E+00 -0.58628525682E+03  0.58628525684E+03  0.50400001928E-02 0. -1.
    10030    2    1    2    0    0  0.00000000000E+00  0.00000000000E+00  0.17109363321E+02  0.11896798770E+04  0.11895568416E+04 0.  0.
        3    1    3    3  502    0 -0.35995273766E+03  0.43422013508E+03 -0.18027231629E+03  0.59212432586E+03  0.10100000352E+00 0. -1.
       -3    1    3    3    0  502  0.35995273766E+03 -0.43422013508E+03  0.19738167961E+03  0.59755555114E+03  0.10100000352E+00 0.  1.
</event>
<event>
 5   0  0.9170776E-04  0.1201179E+04  0.7818609E-02  0.9111825E-01
        1   -1    0    0  501    0  0.00000000000E+00  0.00000000000E+00  0.16869284761E+04  0.16869284761E+04  0.50400001928E-02 0.  1.
       -1   -1    0    0    0  501  0.00000000000E+00  0.00000000000E+00 -0.21382512841E+03  0.21382512846E+03  0.50400001928E-02 0. -1.
    10030    2    1    2    0    0  0.00000000000E+00  0.00000000000E+00  0.14731033477E+04  0.19007536046E+04  0.12011789177E+04 0.  0.
        5    1    3    3  502    0 -0.58489739201E+02 -0.13178076326E+03  0.16591075399E+04  0.16653669680E+04  0.46999998093E+01 0.  1.
       -5    1    3    3    0  502  0.58489739201E+02  0.13178076326E+03 -0.18600419221E+03  0.23538663657E+03  0.46999998093E+01 0. -1.
</event>
<event>
 5   0  0.1597352E-03  0.1199188E+04  0.7818609E-02  0.9113568E-01
       -2   -1    0    0    0  501  0.00000000000E+00  0.00000000000E+00  0.95008406576E+03  0.95008406577E+03  0.25500000920E-02 0. -1.
        2   -1    0    0  501    0  0.00000000000E+00  0.00000000000E+00 -0.37840116203E+03  0.37840116204E+03  0.25500000920E-02 0.  1.
    10030    2    1    2    0    0  0.00000000000E+00  0.00000000000E+00  0.57168290373E+03  0.13284852278E+04  0.11991879161E+04 0.  0.
        1    1    3    3  502    0 -0.27597631573E+01  0.92128560197E+02 -0.37050621945E+03  0.38179856806E+03  0.50400001928E-02 0.  1.
       -1    1    3    3    0  502  0.27597631573E+01 -0.92128560197E+02  0.94218912317E+03  0.94668665975E+03  0.50400001928E-02 0. -1.
</event>
<event>
 5   0  0.1551501E-03  0.1195351E+04  0.7818609E-02  0.9116936E-01
        2   -1    0    0  501    0  0.00000000000E+00  0.00000000000E+00  0.18834411387E+04  0.18834411387E+04  0.25500000920E-02 0.  1.
       -2   -1    0    0    0  501  0.00000000000E+00  0.00000000000E+00 -0.18966130385E+03  0.18966130386E+03  0.25500000920E-02 0. -1.
    10030    2    1    2    0    0  0.00000000000E+00  0.00000000000E+00  0.16937798348E+04  0.20731024425E+04  0.11953508307E+04 0.  0.
        4    1    3    3  502    0  0.26292313650E+03  0.35582813479E+03  0.14998415135E+03  0.46716067447E+03  0.12699999809E+01 0. -1.
       -4    1    3    3    0  502 -0.26292313650E+03 -0.35582813479E+03  0.15437956835E+04  0.16059417681E+04  0.12699999809E+01 0.  1.
</event>
<event>
 5   0  0.6137750E-04  0.1196140E+04  0.7818609E-02  0.9116242E-01
       -4   -1    0    0    0  501  0.00000000000E+00  0.00000000000E+00  0.83610394916E+03  0.83610491369E+03  0.12699999809E+01 0.  1.
        4   -1    0    0  501    0  0.00000000000E+00  0.00000000000E+00 -0.42780063133E+03  0.42780251643E+03  0.12699999809E+01 0. -1.
    10030    2    1    2    0    0  0.00000000000E+00  0.00000000000E+00  0.40830331783E+03  0.12639074301E+04  0.11961397881E+04 0.  0.
        4    1    3    3  502    0 -0.37688264638E+03 -0.28147485487E+03 -0.18612102390E+03  0.50587673548E+03  0.12699999809E+01 0. -1.
       -4    1    3    3    0  502  0.37688264638E+03  0.28147485487E+03  0.59442434173E+03  0.75803069464E+03  0.12699999809E+01 0.  1.
</event>
<event>
 5   0  0.8908478E-04  0.1144979E+04  0.7818609E-02  0.9162429E-01
       -1   -1    0    0    0  501  0.00000000000E+00  0.00000000000E+00  0.14468670454E+03  0.14468670462E+03  0.50400001928E-02 0. -1.
        1   -1    0    0  501    0  0.00000000000E+00  0.00000000000E+00 -0.22651975436E+04  0.22651975436E+04  0.50400001928E-02 0.  1.
    10030    2    1    2    0    0  0.00000000000E+00  0.00000000000E+00 -0.21205108391E+04  0.24098842483E+04  0.11449785462E+04 0.  0.
        4    1    3    3  502    0  0.13566765855E+03  0.92520623051E+02 -0.22145611164E+04  0.22206414232E+04  0.12699999809E+01 0.  1.
       -4    1    3    3    0  502 -0.13566765855E+03 -0.92520623051E+02  0.94050277319E+02  0.18924282504E+03  0.12699999809E+01 0. -1.
</event>
<event>
 5   0  0.1647550E-03  0.1197972E+04  0.7818609E-02  0.9114633E-01
        2   -1    0    0  501    0  0.00000000000E+00  0.00000000000E+00  0.16386944516E+04  0.16386944516E+04  0.25500000920E-02 0. -1.
       -2   -1    0    0    0  501  0.00000000000E+00  0.00000000000E+00 -0.21894517666E+03  0.21894517668E+03  0.25500000920E-02 0.  1.
    10030    2    1    2    0    0  0.00000000000E+00  0.00000000000E+00  0.14197492749E+04  0.18576396283E+04  0.11979720301E+04 0.  0.
        3    1    3    3  502    0  0.21936508053E+03 -0.23069370923E+03 -0.76909955874E+02  0.32749927870E+03  0.10100000352E+00 0.  1.
       -3    1    3    3    0  502 -0.21936508053E+03  0.23069370923E+03  0.14966592308E+04  0.15301403496E+04  0.10100000352E+00 0. -1.
</event>
<event>
 5   0  0.8908478E-04  0.1189871E+04  0.7818609E-02  0.9121769E-01
       -1   -1    0    0    0  501  0.00000000000E+00  0.00000000000E+00  0.20277593848E+03  0.20277593855E+03  0.50400001928E-02 0.  1.
        1   -1    0    0  501    0  0.00000000000E+00  0.00000000000E+00 -0.17455151423E+04  0.17455151423E+04  0.50400001928E-02 0. -1.
    10030    2    1    2    0    0  0.00000000000E+00  0.00000000000E+00 -0.15427392039E+04  0.19482910809E+04  0.11898713732E+04 0.  0.
        4    1    3    3  502    0  0.37380721789E+01  0.52713931874E+03 -0.12229379463E+04  0.13317164368E+04  0.12699999809E+01 0. -1.
       -4    1    3    3    0  502 -0.37380721789E+01 -0.52713931874E+03 -0.31980125754E+03  0.61657464412E+03  0.12699999809E+01 0.  1.
</event>
<event>
 5   0  0.1647550E-03  0.1155453E+04  0.7818609E-02  0.9152767E-01
       -2   -1    0    0    0  501  0.00000000000E+00  0.00000000000E+00  0.20476282711E+03  0.20476282713E+03  0.25500000920E-02 0.  1.
        2   -1    0    0  501    0  0.00000000000E+00  0.00000000000E+00 -0.16300230912E+04  0.16300230912E+04  0.25500000920E-02 0. -1.
    10030    2    1    2    0    0  0.00000000000E+00  0.00000000000E+00 -0.14252602641E+04  0.18347859183E+04  0.11554533940E+04 0.  0.
        3    1    3    3  502    0 -0.15492805136E+03  0.26207005632E+03 -0.14923126564E+04  0.15230497333E+04  0.10100000352E+00 0. -1.
       -3    1    3    3    0  502  0.15492805136E+03 -0.26207005632E+03  0.67052392321E+02  0.31173618500E+03  0.10100000352E+00 0.  1.
</event>
<event>
 5   0  0.9358428E-04  0.1201941E+04  0.7818609E-02  0.9111159E-01
        1   -1    0    0  501    0  0.00000000000E+00  0.00000000000E+00  0.47970940119E+03  0.47970940121E+03  0.50400001928E-02 0. -1.
       -1   -1    0    0    0  501  0.00000000000E+00  0.00000000000E+00 -0.75288443219E+03  0.75288443221E+03  0.50400001928E-02 0.  1.
    10030    2    1    2    0    0  0.00000000000E+00  0.00000000000E+00 -0.27317503101E+03  0.12325938334E+04  0.12019413299E+04 0.  0.
        2    1    3    3  502    0  0.19739848896E+03  0.53058301315E+03  0.70252150550E+02  0.57045583699E+03  0.25500000920E-02 0.  1.
       -2    1    3    3    0  502 -0.19739848896E+03 -0.53058301315E+03 -0.34342718156E+03  0.66213799644E+03  0.25500000920E-02 0. -1.
</event>
<event>
 5   0  0.1597352E-03  0.1301800E+04  0.7818609E-02  0.9028139E-01
       -2   -1    0    0    0  501  0.00000000000E+00  0.00000000000E+00  0.67813347499E+03  0.67813347500E+03  0.25500000920E-02 0. -1.
        2   -1    0    0  501    0  0.00000000000E+00  0.00000000000E+00 -0.62475973995E+03  0.62475973995E+03  0.25500000920E-02 0.  1.
    10030    2    1    2    0    0  0.00000000000E+00  0.00000000000E+00  0.53373735049E+02  0.13028932150E+04  0.13017995137E+04 0.  0.
        1    1    3    3  502    0  0.46181347110E+03 -0.19534675496E+03  0.44205175417E+03  0.66846225784E+03  0.50400001928E-02 0. -1.
       -1    1    3    3    0  502 -0.46181347110E+03  0.19534675496E+03 -0.38867801912E+03  0.63443095711E+03  0.50400001928E-02 0.  1.
</event>
<event>
 5   0  0.1537557E-03  0.1200552E+04  0.7818609E-02  0.9112373E-01
       -2   -1    0    0    0  501  0.00000000000E+00  0.00000000000E+00  0.20583761330E+03  0.20583761332E+03  0.25500000920E-02 0.  1.
        2   -1    0    0  501    0  0.00000000000E+00  0.00000000000E+00 -0.17505623238E+04  0.17505623238E+04  0.25500000920E-02 0. -1.
    10030    2    1    2    0    0  0.00000000000E+00  0.00000000000E+00 -0.15447247105E+04  0.19563999371E+04  0.12005524906E+04 0.  0.
        2    1    3    3  502    0  0.26435162203E+03 -0.51391026590E+03 -0.50785724226E+03  0.76935331285E+03  0.25500000920E-02 0.  1.
       -2    1    3    3    0  502 -0.26435162203E+03  0.51391026590E+03 -0.10368674682E+04  0.11870466242E+04  0.25500000920E-02 0. -1.
</event>
<event>
 5   0  0.9170776E-04  0.1190319E+04  0.7818609E-02  0.9121373E-01
       -1   -1    0    0    0  501  0.00000000000E+00  0.00000000000E+00  0.10580320864E+04  0.10580320864E+04  0.50400001928E-02 0.  1.
        1   -1    0    0  501    0  0.00000000000E+00  0.00000000000E+00 -0.33478660991E+03  0.33478660995E+03  0.50400001928E-02 0. -1.
    10030    2    1    2    0    0  0.00000000000E+00  0.00000000000E+00  0.72324547651E+03  0.13928186964E+04  0.11903192436E+04 0.  0.
        5    1    3    3  502    0  0.40443911015E+03  0.43477333786E+03  0.40834030717E+03  0.72066826321E+03  0.46999998093E+01 0.  1.
       -5    1    3    3    0  502 -0.40443911015E+03 -0.43477333786E+03  0.31490516933E+03  0.67215043316E+03  0.46999998093E+01 0. -1.
</event>
<event>
 5   0  0.8908478E-04  0.1265608E+04  0.7818609E-02  0.9057292E-01
       -1   -1    0    0    0  501  0.00000000000E+00  0.00000000000E+00  0.78513939439E+03  0.78513939440E+03  0.50400001928E-02 0. -1.
        1   -1    0    0  501    0  0.00000000000E+00  0.00000000000E+00 -0.51002513491E+03  0.51002513493E+03  0.50400001928E-02 0.  1.
    10030    2    1    2    0    0  0.00000000000E+00  0.00000000000E+00  0.27511425948E+03  0.12951645293E+04  0.12656078786E+04 0.  0.
        4    1    3    3  502    0 -0.38251601431E+03  0.46283879087E+03 -0.66860087778E+02  0.60416068374E+03  0.12699999809E+01 0.  1.
       -4    1    3    3    0  502  0.38251601431E+03 -0.46283879087E+03  0.34197434726E+03  0.69100384559E+03  0.12699999809E+01 0. -1.
</event>
<event>
 5   0  0.6137750E-04  0.1073512E+04  0.7818609E-02  0.9231400E-01
        3   -1    0    0  501    0  0.00000000000E+00  0.00000000000E+00  0.95966352574E+03  0.95966353105E+03  0.10100000352E+00 0. -1.
       -3   -1    0    0    0  501  0.00000000000E+00  0.00000000000E+00 -0.30021665130E+03  0.30021666829E+03  0.10100000352E+00 0.  1.
    10030    2    1    2    0    0  0.00000000000E+00  0.00000000000E+00  0.65944687444E+03  0.12598801993E+04  0.10735119638E+04 0.  0.
        4    1    3    3  502    0  0.59292244171E+02 -0.53239788891E+03  0.36938870009E+03  0.65070170354E+03  0.12699999809E+01 0.  1.
       -4    1    3    3    0  502 -0.59292244171E+02  0.53239788891E+03  0.29005817435E+03  0.60917849580E+03  0.12699999809E+01 0. -1.
</event>
<event>
 5   0  0.1551501E-03  0.1175262E+04  0.7818609E-02  0.9134790E-01
        2   -1    0    0  501    0  0.00000000000E+00  0.00000000000E+00  0.41987330266E+03  0.41987330267E+03  0.25500000920E-02 0. -1.
       -2   -1    0    0    0  501  0.00000000000E+00  0.00000000000E+00 -0.82241504670E+03  0.82241504671E+03  0.25500000920E-02 0.  1.
    10030    2    1    2    0    0  0.00000000000E+00  0.00000000000E+00 -0.40254174404E+03  0.12422883494E+04  0.11752618803E+04 0.  0.
        4    1    3    3  502    0 -0.48030527381E+03 -0.30820770155E+03 -0.53198337666E+02  0.57316386782E+03  0.12699999809E+01 0. -1.
       -4    1    3    3    0  502  0.48030527381E+03  0.30820770155E+03 -0.34934340638E+03  0.66912448156E+03  0.12699999809E+01 0.  1.
</event>
<event>
 5   0  0.1567019E-03  0.1215915E+04  0.7818609E-02  0.9099039E-01
        2   -1    0    0  501    0  0.00000000000E+00  0.00000000000E+00  0.10521110384E+04  0.10521110384E+04  0.25500000920E-02 0.  1.
       -2   -1    0    0    0  501  0.00000000000E+00  0.00000000000E+00 -0.35130534897E+03  0.35130534898E+03  0.25500000920E-02 0. -1.
    10030    2    1    2    0    0  0.00000000000E+00  0.00000000000E+00  0.70080568939E+03  0.14034163873E+04  0.12159148580E+04 0.  0.
        5    1    3    3  502    0  0.51281090942E+03  0.31937307065E+03  0.27198510460E+03  0.66254975224E+03  0.46999998093E+01 0. -1.
       -5    1    3    3    0  502 -0.51281090942E+03 -0.31937307065E+03  0.42882058479E+03  0.74086663510E+03  0.46999998093E+01 0.  1.
</event>
<event>
 5   0  0.8908478E-04  0.1189390E+04  0.7818609E-02  0.9122194E-01
        1   -1    0    0  501    0  0.00000000000E+00  0.00000000000E+00  0.96037919230E+03  0.96037919231E+03  0.50400001928E-02 0. -1.
       -1   -1    0    0    0  501  0.00000000000E+00  0.00000000000E+00 -0.36825265998E+03  0.36825266002E+03  0.50400001928E-02 0.  1.
    10030    2    1    2    0    0  0.00000000000E+00  0.00000000000E+00  0.59212653231E+03  0.13286318523E+04  0.11893900827E+04 0.  0.
        4    1    3    3  502    0  0.45180973854E+03 -0.23623574633E+03 -0.45915620550E+02  0.51190743772E+03  0.12699999809E+01 0.  1.
       -4    1    3    3    0  502 -0.45180973854E+03  0.23623574633E+03  0.63804215286E+03  0.81672441461E+03  0.12699999809E+01 0. -1.
</event>
<event>
 5   0  0.1551501E-03  0.1187328E+04  0.7818609E-02  0.9124021E-01
        2   -1    0    0  501    0  0.00000000000E+00  0.00000000000E+00  0.11752077206E+04  0.11752077206E+04  0.25500000920E-02 0. -1.
       -2   -1    0    0    0  501  0.00000000000E+00  0.00000000000E+00 -0.29989343163E+03  0.29989343164E+03  0.25500000920E-02 0.  1.
    10030    2    1    2    0    0  0.00000000000E+00  0.00000000000E+00  0.87531428899E+03  0.14751011523E+04  0.11873282212E+04 0.  0.
        4    1    3    3  502    0  0.28773279005E+03  0.21702275925E+03 -0.14842882471E+03  0.38977142713E+03  0.12699999809E+01 0.  1.
       -4    1    3    3    0  502 -0.28773279005E+03 -0.21702275925E+03  0.10237431137E+04  0.10853297251E+04  0.12699999809E+01 0. -1.
</event>
<event>
 5   0  0.6137750E-04  0.1183533E+04  0.7818609E-02  0.9127393E-01
       -3   -1    0    0    0  501  0.00000000000E+00  0.00000000000E+00  0.46285835319E+03  0.46285836421E+03  0.10100000352E+00 0. -1.
        3   -1    0    0  501    0  0.00000000000E+00  0.00000000000E+00 -0.75657606652E+03  0.75657607327E+03  0.10100000352E+00 0.  1.
    10030    2    1    2    0    0  0.00000000000E+00  0.00000000000E+00 -0.29371771333E+03  0.12194344375E+04  0.11835329536E+04 0.  0.
        4    1    3    3  502    0 -0.18353773700E+03 -0.19148462081E+03  0.39818060221E+03  0.47843689844E+03  0.12699999809E+01 0. -1.
       -4    1    3    3    0  502  0.18353773700E+03  0.19148462081E+03 -0.69189831555E+03  0.74099753904E+03  0.12699999809E+01 0.  1.
</event>
<event>
 5   0  0.9208078E-04  0.1146741E+04  0.7818609E-02  0.9160795E-01
       -1   -1    0    0    0  501  0.00000000000E+00  0.00000000000E+00  0.21357912985E+03  0.21357912991E+03  0.50400001928E-02 0.  1.
        1   -1    0    0  501    0  0.00000000000E+00  0.00000000000E+00 -0.15392600201E+04  0.15392600201E+04  0.50400001928E-02 0. -1.
    10030    2    1    2    0    0  0.00000000000E+00  0.00000000000E+00 -0.13256808902E+04  0.17528391500E+04  0.11467411491E+04 0.  0.
        3    1    3    3  502    0  0.16175435359E+03 -0.15953915679E+03  0.14184029006E+03  0.26783556810E+03  0.10100000352E+00 0.  1.
       -3    1    3    3    0  502 -0.16175435359E+03  0.15953915679E+03 -0.14675211803E+04  0.14850035819E+04  0.10100000352E+00 0. -1.
</event>
<event>
 5   0  0.9358428E-04  0.1126914E+04  0.7818609E-02  0.9179349E-01
       -1   -1    0    0    0  501  0.00000000000E+00  0.00000000000E+00  0.35059465202E+03  0.35059465205E+03  0.50400001928E-02 0.  1.
        1   -1    0    0  501    0  0.00000000000E+00  0.00000000000E+00 -0.90555809262E+03  0.90555809264E+03  0.50400001928E-02 0. -1.
    10030    2    1    2    0    0  0.00000000000E+00  0.00000000000E+00 -0.55496344061E+03  0.12561527447E+04  0.11269140595E+04 0.  0.
        2    1    3    3  502    0  0.37223142473E+03 -0.27020439774E+03 -0.64025462911E+03  0.78834804510E+03  0.25500000920E-02 0. -1.
       -2    1    3    3    0  502 -0.37223142473E+03  0.27020439774E+03  0.85291188504E+02  0.46780469959E+03  0.25500000920E-02 0.  1.
</event>
<event>
 5   0  0.9358428E-04  0.1201882E+04  0.7818609E-02  0.9111211E-01
       -1   -1    0    0    0  501  0.00000000000E+00  0.00000000000E+00  0.54629752407E+03  0.54629752409E+03  0.50400001928E-02 0.  1.
        1   -1    0    0  501    0  0.00000000000E+00  0.00000000000E+00 -0.66105020145E+03  0.66105020147E+03  0.50400001928E-02 0. -1.
    10030    2    1    2    0    0  0.00000000000E+00  0.00000000000E+00 -0.11475267738E+03  0.12073477256E+04  0.12018820048E+04 0.  0.
        2    1    3    3  502    0  0.36778871298E+03  0.19066253470E+03 -0.49468276077E+03  0.64523776497E+03  0.25500000920E-02 0. -1.
       -2    1    3    3    0  502 -0.36778871298E+03 -0.19066253470E+03  0.37993008339E+03  0.56210996060E+03  0.25500000920E-02 0.  1.
</event>
<event>
 5   0  0.9169078E-04  0.1194100E+04  0.7818609E-02  0.9118036E-01
       -1   -1    0    0    0  501  0.00000000000E+00  0.00000000000E+00  0.29034379915E+03  0.29034379919E+03  0.50400001928E-02 0.  1.
        1   -1    0    0  501    0  0.00000000000E+00  0.00000000000E+00 -0.12277471763E+04  0.12277471763E+04  0.50400001928E-02 0. -1.
    10030    2    1    2    0    0  0.00000000000E+00  0.00000000000E+00 -0.93740337714E+03  0.15180909755E+04  0.11941001291E+04 0.  0.
        1    1    3    3  502    0  0.59751147241E+01 -0.69156331683E+02 -0.12225998082E+04  0.12245687369E+04  0.50400001928E-02 0. -1.
       -1    1    3    3    0  502 -0.59751147241E+01  0.69156331683E+02  0.28519643111E+03  0.29352223860E+03  0.50400001928E-02 0.  1.
</event>
<event>
 5   0  0.9170776E-04  0.1209034E+04  0.7818609E-02  0.9104986E-01
       -1   -1    0    0    0  501  0.00000000000E+00  0.00000000000E+00  0.62610631048E+03  0.62610631050E+03  0.50400001928E-02 0. -1.
        1   -1    0    0  501    0  0.00000000000E+00  0.00000000000E+00 -0.58367205678E+03  0.58367205680E+03  0.50400001928E-02 0.  1.
    10030    2    1    2    0    0  0.00000000000E+00  0.00000000000E+00  0.42434253705E+02  0.12097783673E+04  0.12090339251E+04 0.  0.
        5    1    3    3  502    0 -0.27492846829E+03 -0.12241999249E+03 -0.50336358092E+03  0.58648896139E+03  0.46999998093E+01 0.  1.
       -5    1    3    3    0  502  0.27492846829E+03  0.12241999249E+03  0.54579783463E+03  0.62328940591E+03  0.46999998093E+01 0. -1.
</event>
<event>
 5   0  0.9358428E-04  0.1199284E+04  0.7818609E-02  0.9113484E-01
       -1   -1    0    0    0  501  0.00000000000E+00  0.00000000000E+00  0.47119830075E+03  0.47119830078E+03  0.50400001928E-02 0.  1.
        1   -1    0    0  501    0  0.00000000000E+00  0.00000000000E+00 -0.76309752493E+03  0.76309752495E+03  0.50400001928E-02 0. -1.
    10030    2    1    2    0    0  0.00000000000E+00  0.00000000000E+00 -0.29189922418E+03  0.12342958257E+04  0.11992835479E+04 0.  0.
        2    1    3    3  502    0  0.55513074534E+03 -0.13524179631E+03 -0.33322273852E+03  0.66143622623E+03  0.25500000920E-02 0. -1.
       -2    1    3    3    0  502 -0.55513074534E+03  0.13524179631E+03  0.41323514348E+02  0.57285959950E+03  0.25500000920E-02 0.  1.
</event>
<event>
 5   0  0.1551501E-03  0.1207250E+04  0.7818609E-02  0.9106534E-01
       -2   -1    0    0    0  501  0.00000000000E+00  0.00000000000E+00  0.56853820407E+03  0.56853820408E+03  0.25500000920E-02 0. -1.
        2   -1    0    0  501    0  0.00000000000E+00  0.00000000000E+00 -0.64087705348E+03  0.64087705348E+03  0.25500000920E-02 0.  1.
    10030    2    1    2    0    0  0.00000000000E+00  0.00000000000E+00 -0.72338849409E+02  0.12094152576E+04  0.12072499145E+04 0.  0.
        4    1    3    3  502    0 -0.26182987504E+03 -0.51531343556E+03  0.13809272829E+03  0.59428447299E+03  0.12699999809E+01 0. -1.
       -4    1    3    3    0  502  0.26182987504E+03  0.51531343556E+03 -0.21043157770E+03  0.61513078457E+03  0.12699999809E+01 0.  1.
</event>
<event>
 5   0  0.1551501E-03  0.1197064E+04  0.7818609E-02  0.9115431E-01
       -2   -1    0    0    0  501  0.00000000000E+00  0.00000000000E+00  0.35675628945E+03  0.35675628945E+03  0.25500000920E-02 0. -1.
        2   -1    0    0  501    0  0.00000000000E+00  0.00000000000E+00 -0.10041597302E+04  0.10041597302E+04  0.25500000920E-02 0.  1.
    10030    2    1    2    0    0  0.00000000000E+00  0.00000000000E+00 -0.64740344072E+03  0.13609160196E+04  0.11970635728E+04 0.  0.
        4    1    3    3  502    0  0.27404087748E+03  0.22039181985E+03 -0.87431698010E+03  0.94239203699E+03  0.12699999809E+01 0.  1.
       -4    1    3    3    0  502 -0.27404087748E+03 -0.22039181985E+03  0.22691353938E+03  0.41852398263E+03  0.12699999809E+01 0. -1.
</event>
<event>
 5   0  0.1551501E-03  0.1197658E+04  0.7818609E-02  0.9114909E-01
       -2   -1    0    0    0  501  0.00000000000E+00  0.00000000000E+00  0.32664360810E+03  0.32664360811E+03  0.25500000920E-02 0.  1.
        2   -1    0    0  501    0  0.00000000000E+00  0.00000000000E+00 -0.10978209731E+04  0.10978209731E+04  0.25500000920E-02 0. -1.
    10030    2    1    2    0    0  0.00000000000E+00  0.00000000000E+00 -0.77117736496E+03  0.14244645812E+04  0.11976580542E+04 0.  0.
        4    1    3    3  502    0 -0.36408115834E+03 -0.16168490143E+03 -0.91735703836E+03  0.10001213156E+04  0.12699999809E+01 0. -1.
       -4    1    3    3    0  502  0.36408115834E+03  0.16168490143E+03  0.14617967340E+03  0.42434326556E+03  0.12699999809E+01 0.  1.
</event>
<event>
 5   0  0.8908478E-04  0.1190283E+04  0.7818609E-02  0.9121404E-01
       -1   -1    0    0    0  501  0.00000000000E+00  0.00000000000E+00  0.68170022657E+03  0.68170022659E+03  0.50400001928E-02 0.  1.
        1   -1    0    0  501    0  0.00000000000E+00  0.00000000000E+00 -0.51957379784E+03  0.51957379786E+03  0.50400001928E-02 0. -1.
    10030    2    1    2    0    0  0.00000000000E+00  0.00000000000E+00  0.16212642873E+03  0.12012740244E+04  0.11902832868E+04 0.  0.
        4    1    3    3  502    0  0.32840365900E+03  0.47636282151E+03  0.22171093847E+03  0.61961912018E+03  0.12699999809E+01 0. -1.
       -4    1    3    3    0  502 -0.32840365900E+03 -0.47636282151E+03 -0.59584509743E+02  0.58165490427E+03  0.12699999809E+01 0.  1.
</event>
<event>
 5   0  0.8908478E-04  0.1195273E+04  0.7818609E-02  0.9117005E-01
        1   -1    0    0  501    0  0.00000000000E+00  0.00000000000E+00  0.11891359935E+04  0.11891359935E+04  0.50400001928E-02 0.  1.
       -1   -1    0    0    0  501  0.00000000000E+00  0.00000000000E+00 -0.30036020050E+03  0.30036020054E+03  0.50400001928E-02 0. -1.
    10030    2    1    2    0    0  0.00000000000E+00  0.00000000000E+00  0.88877579296E+03  0.14894961940E+04  0.11952725638E+04 0.  0.
        4    1    3    3  502    0  0.29458675199E+03 -0.34342442076E+03 -0.42165171007E+02  0.45442403300E+03  0.12699999809E+01 0. -1.
       -4    1    3    3    0  502 -0.29458675199E+03  0.34342442076E+03  0.93094096396E+03  0.10350721610E+04  0.12699999809E+01 0.  1.
</event>
<event>
 5   0  0.1567019E-03  0.1189484E+04  0.7818609E-02  0.9122112E-01
        2   -1    0    0  501    0  0.00000000000E+00  0.00000000000E+00  0.21090974412E+04  0.21090974412E+04  0.25500000920E-02 0. -1.
       -2   -1    0    0    0  501  0.00000000000E+00  0.00000000000E+00 -0.16771049314E+03  0.16771049316E+03  0.25500000920E-02 0.  1.
    10030    2    1    2    0    0  0.00000000000E+00  0.00000000000E+00  0.19413869481E+04  0.22768079344E+04  0.11894835383E+04 0.  0.
        5    1    3    3  502    0  0.42743499202E+03 -0.23030786569E+02  0.18040608389E+03  0.46454228509E+03  0.46999998093E+01 0.  1.
       -5    1    3    3    0  502 -0.42743499202E+03  0.23030786569E+02  0.17609808642E+04  0.18122656493E+04  0.46999998093E+01 0. -1.
</event>
<event>
 5   0  0.9170776E-04  0.1200701E+04  0.7818609E-02  0.9112243E-01
        1   -1    0    0  501    0  0.00000000000E+00  0.00000000000E+00  0.10331832376E+04  0.10331832376E+04  0.50400001928E-02 0.  1.
       -1   -1    0    0    0  501  0.00000000000E+00  0.00000000000E+00 -0.34884488935E+03  0.34884488939E+03  0.50400001928E-02 0. -1.
    10030    2    1    2    0    0  0.00000000000E+00  0.00000000000E+00  0.68433834828E+03  0.13820281270E+04  0.12007009490E+04 0.  0.
        5    1    3    3  502    0  0.40841212983E+03 -0.41221409256E+03  0.51928263442E+03  0.77871526908E+03  0.46999998093E+01 0. -1.
       -5    1    3    3    0  502 -0.40841212983E+03  0.41221409256E+03  0.16505571386E+03  0.60331285795E+03  0.46999998093E+01 0.  1.
</event>
<event>
 5   0  0.9170776E-04  0.1195121E+04  0.7818609E-02  0.9117138E-01
        1   -1    0    0  501    0  0.00000000000E+00  0.00000000000E+00  0.68806809895E+03  0.68806809897E+03  0.50400001928E-02 0.  1.
       -1   -1    0    0    0  501  0.00000000000E+00  0.00000000000E+00 -0.51895806837E+03  0.51895806840E+03  0.50400001928E-02 0. -1.
    10030    2    1    2    0    0  0.00000000000E+00  0.00000000000E+00  0.16911003058E+03  0.12070261674E+04  0.11951209003E+04 0.  0.
        5    1    3    3  502    0  0.11151601733E+03  0.45002595566E+03 -0.29615791982E+03  0.55017341480E+03  0.46999998093E+01 0. -1.
       -5    1    3    3    0  502 -0.11151601733E+03 -0.45002595566E+03  0.46526795039E+03  0.65685275256E+03  0.46999998093E+01 0.  1.
</event>
<event>
 5   0  0.1537557E-03  0.1200783E+04  0.7818609E-02  0.9112172E-01
       -2   -1    0    0    0  501  0.00000000000E+00  0.00000000000E+00  0.20874852495E+03  0.20874852496E+03  0.25500000920E-02 0. -1.
        2   -1    0    0  501    0  0.00000000000E+00  0.00000000000E+00 -0.17268136218E+04  0.17268136218E+04  0.25500000920E-02 0.  1.
    10030    2    1    2    0    0  0.00000000000E+00  0.00000000000E+00 -0.15180650969E+04  0.19355621468E+04  0.12007827388E+04 0.  0.
        2    1    3    3  502    0  0.21924777895E+03  0.41445875592E+03 -0.13634996027E+04  0.14418657412E+04  0.25500000920E-02 0.  1.
       -2    1    3    3    0  502 -0.21924777895E+03 -0.41445875592E+03 -0.15456549416E+03  0.49369640562E+03  0.25500000920E-02 0. -1.
</event>
<event>
 5   0  0.9208078E-04  0.1324341E+04  0.7818609E-02  0.9010482E-01
       -1   -1    0    0    0  501  0.00000000000E+00  0.00000000000E+00  0.95644893741E+03  0.95644893743E+03  0.50400001928E-02 0.  1.
        1   -1    0    0  501    0  0.00000000000E+00  0.00000000000E+00 -0.45843485552E+03  0.45843485555E+03  0.50400001928E-02 0. -1.
    10030    2    1    2    0    0  0.00000000000E+00  0.00000000000E+00  0.49801408189E+03  0.14148837930E+04  0.13243406366E+04 0.  0.
        3    1    3    3  502    0  0.15448993152E+03  0.62367028010E+03  0.42007202893E+03  0.76765374806E+03  0.10100000352E+00 0. -1.
       -3    1    3    3    0  502 -0.15448993152E+03 -0.62367028010E+03  0.77942052955E+02  0.64723004491E+03  0.10100000352E+00 0.  1.
</event>
<event>
 5   0  0.1647550E-03  0.1195053E+04  0.7818609E-02  0.9117198E-01
       -2   -1    0    0    0  501  0.00000000000E+00  0.00000000000E+00  0.19511245283E+03  0.19511245284E+03  0.25500000920E-02 0.  1.
        2   -1    0    0  501    0  0.00000000000E+00  0.00000000000E+00 -0.18299073778E+04  0.18299073778E+04  0.25500000920E-02 0. -1.
    10030    2    1    2    0    0  0.00000000000E+00  0.00000000000E+00 -0.16347949250E+04  0.20250198306E+04  0.11950526632E+04 0.  0.
        3    1    3    3  502    0  0.45911363325E+03 -0.37837707984E+03 -0.91148682948E+03  0.10884680948E+04  0.10100000352E+00 0.  1.
       -3    1    3    3    0  502 -0.45911363325E+03  0.37837707984E+03 -0.72330809549E+03  0.93655173588E+03  0.10100000352E+00 0. -1.
</event>
<event>
 5   0  0.6137750E-04  0.1199850E+04  0.7818609E-02  0.9112988E-01
       -3   -1    0    0    0  501  0.00000000000E+00  0.00000000000E+00  0.17866713818E+03  0.17866716673E+03  0.10100000352E+00 0. -1.
        3   -1    0    0  501    0  0.00000000000E+00  0.00000000000E+00 -0.20144155739E+04  0.20144155764E+04  0.10100000352E+00 0.  1.
    10030    2    1    2    0    0  0.00000000000E+00  0.00000000000E+00 -0.18357484357E+04  0.21930827431E+04  0.11998498235E+04 0.  0.
        4    1    3    3  502    0  0.57293086568E+03  0.81260423135E+02 -0.12071935990E+04  0.13387199227E+04  0.12699999809E+01 0. -1.
       -4    1    3    3    0  502 -0.57293086568E+03 -0.81260423135E+02 -0.62855483669E+03  0.85436282038E+03  0.12699999809E+01 0.  1.
</event>
<event>
 5   0  0.1551501E-03  0.1186451E+04  0.7818609E-02  0.9124799E-01
       -2   -1    0    0    0  501  0.00000000000E+00  0.00000000000E+00  0.30664771529E+03  0.30664771530E+03  0.25500000920E-02 0. -1.
        2   -1    0    0  501    0  0.00000000000E+00  0.00000000000E+00 -0.11476250373E+04  0.11476250373E+04  0.25500000920E-02 0.  1.
    10030    2    1    2    0    0  0.00000000000E+00  0.00000000000E+00 -0.84097732200E+03  0.14542727526E+04  0.11864511717E+04 0.  0.
        4    1    3    3  502    0 -0.10012779428E+03 -0.15648097802E+03  0.27007160715E+03  0.32779895905E+03  0.12699999809E+01 0. -1.
       -4    1    3    3    0  502  0.10012779428E+03  0.15648097802E+03 -0.11110489291E+04  0.11264737935E+04  0.12699999809E+01 0.  1.
</event>
<event>
 5   0  0.1551501E-03  0.1239237E+04  0.7818609E-02  0.9079189E-01
        2   -1    0    0  501    0  0.00000000000E+00  0.00000000000E+00  0.17429729316E+04  0.17429729316E+04  0.25500000920E-02 0. -1.
       -2   -1    0    0    0  501  0.00000000000E+00  0.00000000000E+00 -0.22027127206E+03  0.22027127208E+03  0.25500000920E-02 0.  1.
    10030    2    1    2    0    0  0.00000000000E+00  0.00000000000E+00  0.15227016595E+04  0.19632442037E+04  0.12392366438E+04 0.  0.
        4    1    3    3  502    0 -0.28709892198E+03  0.29848430968E+03  0.31214332624E+02  0.41532471825E+03  0.12699999809E+01 0.  1.
       -4    1    3    3    0  502  0.28709892198E+03 -0.29848430968E+03  0.14914873269E+04  0.15479194854E+04  0.12699999809E+01 0. -1.
</event>
<event>
 5   0  0.9358428E-04  0.1194901E+04  0.7818609E-02  0.9117332E-01
        1   -1    0    0  501    0  0.00000000000E+00  0.00000000000E+00  0.61486441318E+03  0.61486441321E+03  0.50400001928E-02 0.  1.
       -1   -1    0    0    0  501  0.00000000000E+00  0.00000000000E+00 -0.58052939363E+03  0.58052939366E+03  0.50400001928E-02 0. -1.
    10030    2    1    2    0    0  0.00000000000E+00  0.00000000000E+00  0.34335019551E+02  0.11953938069E+04  0.11949006067E+04 0.  0.
        2    1    3    3  502    0  0.15689627110E+03 -0.46523711464E+03 -0.32339164205E+03  0.58791510176E+03  0.25500000920E-02 0. -1.
       -2    1    3    3    0  502 -0.15689627110E+03  0.46523711464E+03  0.35772666160E+03  0.60747870510E+03  0.25500000920E-02 0.  1.
</event>
<event>
 5   0  0.1597352E-03  0.1192211E+04  0.7818609E-02  0.9119702E-01
       -2   -1    0    0    0  501  0.00000000000E+00  0.00000000000E+00  0.59130381970E+03  0.59130381971E+03  0.25500000920E-02 0. -1.
        2   -1    0    0  501    0  0.00000000000E+00  0.00000000000E+00 -0.60094608758E+03  0.60094608758E+03  0.25500000920E-02 0.  1.
    10030    2    1    2    0    0  0.00000000000E+00  0.00000000000E+00 -0.96422678756E+01  0.11922499073E+04  0.11922109159E+04 0.  0.
        1    1    3    3  502    0  0.55887210789E+03 -0.93073487014E+02  0.18049820215E+03  0.59462619179E+03  0.50400001928E-02 0. -1.
       -1    1    3    3    0  502 -0.55887210789E+03  0.93073487014E+02 -0.19014047003E+03  0.59762371550E+03  0.50400001928E-02 0.  1.
</event>
<event>
 5   0  0.9169078E-04  0.1136154E+04  0.7818609E-02  0.9170653E-01
        1   -1    0    0  501    0  0.00000000000E+00  0.00000000000E+00  0.42380724583E+03  0.42380724586E+03  0.50400001928E-02 0. -1.
       -1   -1    0    0    0  501  0.00000000000E+00  0.00000000000E+00 -0.76145797357E+03  0.76145797359E+03  0.50400001928E-02 0.  1.
    10030    2    1    2    0    0  0.00000000000E+00  0.00000000000E+00 -0.33765072773E+03  0.11852652194E+04  0.11361538745E+04 0.  0.
        1    1    3    3  502    0  0.42640481532E+03 -0.33680574179E+03 -0.34167450262E+03  0.64187275997E+03  0.50400001928E-02 0. -1.
       -1    1    3    3    0  502 -0.42640481532E+03  0.33680574179E+03  0.40237748839E+01  0.54339245948E+03  0.50400001928E-02 0.  1.
</event>
<event>
 5   0  0.9170776E-04  0.1194934E+04  0.7818609E-02  0.9117302E-01
       -1   -1    0    0    0  501  0.00000000000E+00  0.00000000000E+00  0.39525353254E+03  0.39525353257E+03  0.50400001928E-02 0. -1.
        1   -1    0    0  501    0  0.00000000000E+00  0.00000000000E+00 -0.90313362089E+03  0.90313362091E+03  0.50400001928E-02 0.  1.
    10030    2    1    2    0    0  0.00000000000E+00  0.00000000000E+00 -0.50788008836E+03  0.12983871535E+04  0.11949338961E+04 0.  0.
        5    1    3    3  502    0  0.52365883237E+03  0.25417286091E+03 -0.40021378391E+03  0.70641034730E+03  0.46999998093E+01 0.  1.
       -5    1    3    3    0  502 -0.52365883237E+03 -0.25417286091E+03 -0.10766630445E+03  0.59197680618E+03  0.46999998093E+01 0. -1.
</event>
<event>
 5   0  0.1597352E-03  0.1209208E+04  0.7818609E-02  0.9104835E-01
        2   -1    0    0  501    0  0.00000000000E+00  0.00000000000E+00  0.16687842153E+04  0.16687842153E+04  0.25500000920E-02 0.  1.
       -2   -1    0    0    0  501  0.00000000000E+00  0.00000000000E+00 -0.21904926630E+03  0.21904926631E+03  0.25500000920E-02 0. -1.
    10030    2    1    2    0    0  0.00000000000E+00  0.00000000000E+00  0.14497349490E+04  0.18878334816E+04  0.12092079358E+04 0.  0.
        1    1    3    3  502    0  0.43725141397E+02  0.45034577851E+03  0.13509569988E+04  0.14247133118E+04  0.50400001928E-02 0.  1.
       -1    1    3    3    0  502 -0.43725141397E+02 -0.45034577851E+03  0.98777950221E+02  0.46312016982E+03  0.50400001928E-02 0. -1.
</event>
<event>
 5   0  0.9170776E-04  0.1196165E+04  0.7818609E-02  0.9116220E-01
        1   -1    0    0  501    0  0.00000000000E+00  0.00000000000E+00  0.58986898282E+03  0.58986898284E+03  0.50400001928E-02 0.  1.
       -1   -1    0    0    0  501  0.00000000000E+00  0.00000000000E+00 -0.60641033505E+03  0.60641033507E+03  0.50400001928E-02 0. -1.
    10030    2    1    2    0    0  0.00000000000E+00  0.00000000000E+00 -0.16541352226E+02  0.11962793179E+04  0.11961649511E+04 0.  0.
        5    1    3    3  502    0  0.37161426445E+03 -0.24756342585E+03 -0.40617269588E+03  0.60364158260E+03  0.46999998093E+01 0. -1.
       -5    1    3    3    0  502 -0.37161426445E+03  0.24756342585E+03  0.38963134366E+03  0.59263773532E+03  0.46999998093E+01 0.  1.
</event>
<event>
 5   0  0.9208078E-04  0.1190568E+04  0.7818609E-02  0.9121153E-01
        1   -1    0    0  501    0  0.00000000000E+00  0.00000000000E+00  0.15897953312E+04  0.15897953312E+04  0.50400001928E-02 0. -1.
       -1   -1    0    0    0  501  0.00000000000E+00  0.00000000000E+00 -0.22289852133E+03  0.22289852139E+03  0.50400001928E-02 0.  1.
    10030    2    1    2    0    0  0.00000000000E+00  0.00000000000E+00  0.13668968099E+04  0.18126938526E+04  0.11905679797E+04 0.  0.
        3    1    3    3  502    0 -0.14874366064E+03 -0.41915138986E+03  0.81031112465E+02  0.45208253184E+03  0.10100000352E+00 0.  1.
       -3    1    3    3    0  502  0.14874366064E+03  0.41915138986E+03  0.12858656974E+04  0.13606113207E+04  0.10100000352E+00 0. -1.
</event>
<event>
 5   0  0.8908478E-04  0.1190201E+04  0.7818609E-02  0.9121477E-01
       -1   -1    0    0    0  501  0.00000000000E+00  0.00000000000E+00  0.34758519487E+03  0.34758519491E+03  0.50400001928E-02 0.  1.
        1   -1    0    0  501    0  0.00000000000E+00  0.00000000000E+00 -0.10188722195E+04  0.10188722195E+04  0.50400001928E-02 0. -1.
    10030    2    1    2    0    0  0.00000000000E+00  0.00000000000E+00 -0.67128702466E+03  0.13664574145E+04  0.11902014939E+04 0.  0.
        4    1    3    3  502    0 -0.44356182080E+03  0.69201985175E+02 -0.78414433074E+03  0.90355959845E+03  0.12699999809E+01 0. -1.
       -4    1    3    3    0  502  0.44356182080E+03 -0.69201985175E+02  0.11285730608E+03  0.46289781600E+03  0.12699999809E+01 0.  1.
</event>
<event>
 5   0  0.1567019E-03  0.1181484E+04  0.7818609E-02  0.9129220E-01
        2   -1    0    0  501    0  0.00000000000E+00  0.00000000000E+00  0.66596239902E+03  0.66596239903E+03  0.25500000920E-02 0. -1.
       -2   -1    0    0    0  501  0.00000000000E+00  0.00000000000E+00 -0.52401770775E+03  0.52401770775E+03  0.25500000920E-02 0.  1.
    10030    2    1    2    0    0  0.00000000000E+00  0.00000000000E+00  0.14194469128E+03  0.11899801068E+04  0.11814839648E+04 0.  0.
        5    1    3    3  502    0 -0.35707603846E+03 -0.42981816850E+03  0.26394091590E+03  0.61800797106E+03  0.46999998093E+01 0. -1.
       -5    1    3    3    0  502  0.35707603846E+03  0.42981816850E+03 -0.12199622463E+03  0.57197213572E+03  0.46999998093E+01 0.  1.
</event>
<event>
 5   0  0.1597352E-03  0.1200728E+04  0.7818609E-02  0.9112220E-01
       -2   -1    0    0    0  501  0.00000000000E+00  0.00000000000E+00  0.15708915535E+03  0.15708915537E+03  0.25500000920E-02 0. -1.
        2   -1    0    0  501    0  0.00000000000E+00  0.00000000000E+00 -0.22944730838E+04  0.22944730838E+04  0.25500000920E-02 0.  1.
    10030    2    1    2    0    0  0.00000000000E+00  0.00000000000E+00 -0.21373839284E+04  0.24515622391E+04  0.12007278438E+04 0.  0.
        1    1    3    3  502    0  0.44112143514E+03 -0.21251190093E+03 -0.17779909283E+04  0.18441803518E+04  0.50400001928E-02 0.  1.
       -1    1    3    3    0  502 -0.44112143514E+03  0.21251190093E+03 -0.35939300009E+03  0.60738188738E+03  0.50400001928E-02 0. -1.
</event>
<event>
 5   0  0.9358428E-04  0.1182853E+04  0.7818609E-02  0.9127999E-01
        1   -1    0    0  501    0  0.00000000000E+00  0.00000000000E+00  0.89665942588E+03  0.89665942589E+03  0.50400001928E-02 0. -1.
       -1   -1    0    0    0  501  0.00000000000E+00  0.00000000000E+00 -0.39009857680E+03  0.39009857683E+03  0.50400001928E-02 0.  1.
    10030    2    1    2    0    0  0.00000000000E+00  0.00000000000E+00  0.50656084908E+03  0.12867580027E+04  0.11828534414E+04 0.  0.
        2    1    3    3  502    0  0.78480230442E+02 -0.48159163437E+03  0.61684753563E+03  0.78650526450E+03  0.25500000920E-02 0.  1.
       -2    1    3    3    0  502 -0.78480230442E+02  0.48159163437E+03 -0.11028668655E+03  0.50025273822E+03  0.25500000920E-02 0. -1.
</event>
<event>
 5   0  0.9170776E-04  0.1200643E+04  0.7818609E-02  0.9112294E-01
       -1   -1    0    0    0  501  0.00000000000E+00  0.00000000000E+00  0.28328951146E+03  0.28328951151E+03  0.50400001928E-02 0.  1.
        1   -1    0    0  501    0  0.00000000000E+00  0.00000000000E+00 -0.12721477669E+04  0.12721477669E+04  0.50400001928E-02 0. -1.
    10030    2    1    2    0    0  0.00000000000E+00  0.00000000000E+00 -0.98885825544E+03  0.15554372784E+04  0.12006433599E+04 0.  0.
        5    1    3    3  502    0 -0.18909154090E+03  0.47739854812E+03 -0.89728488264E+03  0.10338313379E+04  0.46999998093E+01 0. -1.
       -5    1    3    3    0  502  0.18909154090E+03 -0.47739854812E+03 -0.91573372794E+02  0.52160594052E+03  0.46999998093E+01 0.  1.
</event>
<event>
 5   0  0.1647550E-03  0.1207232E+04  0.7818609E-02  0.9106550E-01
       -2   -1    0    0    0  501  0.00000000000E+00  0.00000000000E+00  0.28456212517E+03  0.28456212518E+03  0.25500000920E-02 0. -1.
        2   -1    0    0  501    0  0.00000000000E+00  0.00000000000E+00 -0.12803960180E+04  0.12803960180E+04  0.25500000920E-02 0.  1.
    10030    2    1    2    0    0  0.00000000000E+00  0.00000000000E+00 -0.99583389286E+03  0.15649581432E+04  0.12072318948E+04 0.  0.
        3    1    3    3  502    0  0.18021587816E+03 -0.56187297225E+03 -0.33305894451E+03  0.67757454970E+03  0.10100000352E+00 0. -1.
       -3    1    3    3    0  502 -0.18021587816E+03  0.56187297225E+03 -0.66277494835E+03  0.88738359352E+03  0.10100000352E+00 0.  1.
</event>
<event>
 5   0  0.1597352E-03  0.1185727E+04  0.7818609E-02  0.9125442E-01
       -2   -1    0    0    0  501  0.00000000000E+00  0.00000000000E+00  0.69664232565E+03  0.69664232565E+03  0.25500000920E-02 0. -1.
        2   -1    0    0  501    0  0.00000000000E+00  0.00000000000E+00 -0.50454485404E+03  0.50454485404E+03  0.25500000920E-02 0.  1.
    10030    2    1    2    0    0  0.00000000000E+00  0.00000000000E+00  0.19209747161E+03  0.12011871797E+04  0.11857272882E+04 0.  0.
        1    1    3    3  502    0 -0.15464157183E+03 -0.16127000018E+03  0.65235831335E+03  0.68956029303E+03  0.50400001928E-02 0. -1.
       -1    1    3    3    0  502  0.15464157183E+03  0.16127000018E+03 -0.46026084174E+03  0.51162688667E+03  0.50400001928E-02 0.  1.
</event>
<event>
 5   0  0.6137750E-04  0.1195702E+04  0.7818609E-02  0.9116627E-01
        3   -1    0    0  501    0  0.00000000000E+00  0.00000000000E+00  0.21153213389E+03  0.21153215800E+03  0.10100000352E+00 0.  1.
       -3   -1    0    0    0  501  0.00000000000E+00  0.00000000000E+00 -0.16896999284E+04  0.16896999314E+04  0.10100000352E+00 0. -1.
    10030    2    1    2    0    0  0.00000000000E+00  0.00000000000E+00 -0.14781677945E+04  0.19012320894E+04  0.11957020654E+04 0.  0.
        3    1    3    3  502    0 -0.51237563716E+03 -0.47162367715E+02 -0.12231316586E+04  0.13269529558E+04  0.10100000352E+00 0. -1.
       -3    1    3    3    0  502  0.51237563716E+03  0.47162367715E+02 -0.25503613592E+03  0.57427913361E+03  0.10100000352E+00 0.  1.
</event>
<event>
 5   0  0.9170776E-04  0.1197292E+04  0.7818609E-02  0.9115231E-01
       -1   -1    0    0    0  501  0.00000000000E+00  0.00000000000E+00  0.48081957798E+03  0.48081957801E+03  0.50400001928E-02 0.  1.
        1   -1    0    0  501    0  0.00000000000E+00  0.00000000000E+00 -0.74534558868E+03  0.74534558870E+03  0.50400001928E-02 0. -1.
    10030    2    1    2    0    0  0.00000000000E+00  0.00000000000E+00 -0.26452601070E+03  0.12261651667E+04  0.11972915291E+04 0.  0.
        5    1    3    3  502    0  0.24873311249E+03 -0.14472201334E+03 -0.66984287602E+03  0.72905705603E+03  0.46999998093E+01 0. -1.
       -5    1    3    3    0  502 -0.24873311249E+03  0.14472201334E+03  0.40531686532E+03  0.49710811068E+03  0.46999998093E+01 0.  1.
</event>
<event>
 5   0  0.9358428E-04  0.1148677E+04  0.7818609E-02  0.9159005E-01
        1   -1    0    0  501    0  0.00000000000E+00  0.00000000000E+00  0.15897325827E+04  0.15897325828E+04  0.50400001928E-02 0. -1.
       -1   -1    0    0    0  501  0.00000000000E+00  0.00000000000E+00 -0.20749692768E+03  0.20749692774E+03  0.50400001928E-02 0.  1.
    10030    2    1    2    0    0  0.00000000000E+00  0.00000000000E+00  0.13822356551E+04  0.17972295105E+04  0.11486768507E+04 0.  0.
        2    1    3    3  502    0  0.57240746612E+03 -0.24740711146E+02  0.75374550489E+03  0.94678122933E+03  0.25500000920E-02 0. -1.
       -2    1    3    3    0  502 -0.57240746612E+03  0.24740711146E+02  0.62849015017E+03  0.85044828116E+03  0.25500000920E-02 0.  1.
</event>
<event>
 5   0  0.9170776E-04  0.1198922E+04  0.7818609E-02  0.9113801E-01
       -1   -1    0    0    0  501  0.00000000000E+00  0.00000000000E+00  0.86393234255E+03  0.86393234257E+03  0.50400001928E-02 0.  1.
        1   -1    0    0  501    0  0.00000000000E+00  0.00000000000E+00 -0.41595098100E+03  0.41595098103E+03  0.50400001928E-02 0. -1.
    10030    2    1    2    0    0  0.00000000000E+00  0.00000000000E+00  0.44798136155E+03  0.12798833236E+04  0.11989220249E+04 0.  0.
        5    1    3    3  502    0  0.25338398953E+03  0.45429960668E+03 -0.94017838306E+02  0.52863316459E+03  0.46999998093E+01 0.  1.
       -5    1    3    3    0  502 -0.25338398953E+03 -0.45429960668E+03  0.54199919985E+03  0.75125015902E+03  0.46999998093E+01 0. -1.
</event>
<event>
 5   0  0.9358428E-04  0.1199050E+04  0.7818609E-02  0.9113689E-01
       -1   -1    0    0    0  501  0.00000000000E+00  0.00000000000E+00  0.25452991187E+03  0.25452991192E+03  0.50400001928E-02 0. -1.
        1   -1    0    0  501    0  0.00000000000E+00  0.00000000000E+00 -0.14121325714E+04  0.14121325714E+04  0.50400001928E-02 0.  1.
    10030    2    1    2    0    0  0.00000000000E+00  0.00000000000E+00 -0.11576026595E+04  0.16666624833E+04  0.11990495886E+04 0.  0.
        2    1    3    3  502    0 -0.69307256990E+02  0.58881363381E+03 -0.70254124518E+03  0.91927645049E+03  0.25500000920E-02 0. -1.
       -2    1    3    3    0  502  0.69307256990E+02 -0.58881363381E+03 -0.45506141432E+03  0.74738603282E+03  0.25500000920E-02 0.  1.
</event>
<event>
 5   0  0.9170776E-04  0.1180069E+04  0.7818609E-02  0.9130483E-01
        1   -1    0    0  501    0  0.00000000000E+00  0.00000000000E+00  0.26753077156E+04  0.26753077156E+04  0.50400001928E-02 0.  1.
       -1   -1    0    0    0  501  0.00000000000E+00  0.00000000000E+00 -0.13013117202E+03  0.13013117212E+03  0.50400001928E-02 0. -1.
    10030    2    1    2    0    0  0.00000000000E+00  0.00000000000E+00  0.25451765436E+04  0.28054388877E+04  0.11800693686E+04 0.  0.
        5    1    3    3  502    0  0.33635545557E+03 -0.44404244188E+03  0.17348601878E+04  0.18221061011E+04  0.46999998093E+01 0.  1.
       -5    1    3    3    0  502 -0.33635545557E+03  0.44404244188E+03  0.81031635581E+03  0.98333278659E+03  0.46999998093E+01 0. -1.
</event>
<event>
 5   0  0.6137750E-04  0.1195463E+04  0.7818609E-02  0.9116837E-01
       -4   -1    0    0    0  501  0.00000000000E+00  0.00000000000E+00  0.10200968413E+04  0.10200976319E+04  0.12699999809E+01 0. -1.
        4   -1    0    0  501    0  0.00000000000E+00  0.00000000000E+00 -0.35024225513E+03  0.35024455767E+03  0.12699999809E+01 0.  1.
    10030    2    1    2    0    0  0.00000000000E+00  0.00000000000E+00  0.66985458618E+03  0.13703421895E+04  0.11954633201E+04 0.  0.
        1    1    3    3  502    0  0.19276941797E+03  0.46990665652E+03  0.69616332588E+03  0.86175152490E+03  0.50400001928E-02 0. -1.
       -1    1    3    3    0  502 -0.19276941797E+03 -0.46990665652E+03 -0.26308739700E+02  0.50859066464E+03  0.50400001928E-02 0.  1.
</event>
<event>
 5   0  0.1647550E-03  0.1199529E+04  0.7818609E-02  0.9113269E-01
       -2   -1    0    0    0  501  0.00000000000E+00  0.00000000000E+00  0.33178770889E+03  0.33178770890E+03  0.25500000920E-02 0. -1.
        2   -1    0    0  501    0  0.00000000000E+00  0.00000000000E+00 -0.10841800769E+04  0.10841800769E+04  0.25500000920E-02 0.  1.
    10030    2    1    2    0    0  0.00000000000E+00  0.00000000000E+00 -0.75239236796E+03  0.14159677858E+04  0.11995292806E+04 0.  0.
        3    1    3    3  502    0  0.43046632535E+03 -0.21776726012E+03 -0.79685862620E+03  0.93150819492E+03  0.10100000352E+00 0.  1.
       -3    1    3    3    0  502 -0.43046632535E+03  0.21776726012E+03  0.44466258240E+02  0.48445959085E+03  0.10100000352E+00 0. -1.
</event>
<event>
 5   0  0.1537557E-03  0.1209732E+04  0.7818609E-02  0.9104380E-01
        2   -1    0    0  501    0  0.00000000000E+00  0.00000000000E+00  0.16123789291E+04  0.16123789291E+04  0.25500000920E-02 0. -1.
       -2   -1    0    0    0  501  0.00000000000E+00  0.00000000000E+00 -0.22690882818E+03  0.22690882819E+03  0.25500000920E-02 0.  1.
    10030    2    1    2    0    0  0.00000000000E+00  0.00000000000E+00  0.13854701009E+04  0.18392877573E+04  0.12097322239E+04 0.  0.
        2    1    3    3  502    0 -0.25884954570E+03 -0.28068265760E+03  0.14059951487E+04  0.14569173620E+04  0.25500000920E-02 0.  1.
       -2    1    3    3    0  502  0.25884954570E+03  0.28068265760E+03 -0.20525047783E+02  0.38237039527E+03  0.25500000920E-02 0. -1.
</event>
<event>
 5   0  0.1597352E-03  0.1198541E+04  0.7818609E-02  0.9114135E-01
        2   -1    0    0  501    0  0.00000000000E+00  0.00000000000E+00  0.16267294830E+04  0.16267294830E+04  0.25500000920E-02 0.  1.
       -2   -1    0    0    0  501  0.00000000000E+00  0.00000000000E+00 -0.22076507672E+03  0.22076507674E+03  0.25500000920E-02 0. -1.
    10030    2    1    2    0    0  0.00000000000E+00  0.00000000000E+00  0.14059644063E+04  0.18474945597E+04  0.11985408781E+04 0.  0.
        1    1    3    3  502    0  0.53637508149E+03  0.22710909197E+03  0.48581617860E+03  0.75848146129E+03  0.50400001928E-02 0.  1.
       -1    1    3    3    0  502 -0.53637508149E+03 -0.22710909197E+03  0.92014822766E+03  0.10890130984E+04  0.50400001928E-02 0. -1.
</event>
<event>
 5   0  0.9358428E-04  0.1201550E+04  0.7818609E-02  0.9111500E-01
        1   -1    0    0  501    0  0.00000000000E+00  0.00000000000E+00  0.15986227859E+04  0.15986227859E+04  0.50400001928E-02 0.  1.
       -1   -1    0    0    0  501  0.00000000000E+00  0.00000000000E+00 -0.22577614512E+03  0.22577614518E+03  0.50400001928E-02 0. -1.
    10030    2    1    2    0    0  0.00000000000E+00  0.00000000000E+00  0.13728466407E+04  0.18243989310E+04  0.12015504819E+04 0.  0.
        2    1    3    3  502    0 -0.14561295255E+03  0.56896645222E+03  0.87851331168E+03  0.10567457568E+04  0.25500000920E-02 0.  1.
       -2    1    3    3    0  502  0.14561295255E+03 -0.56896645222E+03  0.49433332905E+03  0.76765317424E+03  0.25500000920E-02 0. -1.
</event>
<event>
 5   0  0.1551501E-03  0.1197606E+04  0.7818609E-02  0.9114954E-01
        2   -1    0    0  501    0  0.00000000000E+00  0.00000000000E+00  0.53215711446E+03  0.53215711446E+03  0.25500000920E-02 0. -1.
       -2   -1    0    0    0  501  0.00000000000E+00  0.00000000000E+00 -0.67379561816E+03  0.67379561817E+03  0.25500000920E-02 0.  1.
    10030    2    1    2    0    0  0.00000000000E+00  0.00000000000E+00 -0.14163850371E+03  0.12059527326E+04  0.11976061655E+04 0.  0.
        4    1    3    3  502    0  0.34593272167E+03 -0.24455388578E+03  0.35531737219E+03  0.55292684765E+03  0.12699999809E+01 0. -1.
       -4    1    3    3    0  502 -0.34593272167E+03  0.24455388578E+03 -0.49695587589E+03  0.65302588498E+03  0.12699999809E+01 0.  1.
</event>
<event>
 5   0  0.8908478E-04  0.1198054E+04  0.7818609E-02  0.9114561E-01
        1   -1    0    0  501    0  0.00000000000E+00  0.00000000000E+00  0.62764410433E+03  0.62764410435E+03  0.50400001928E-02 0.  1.
       -1   -1    0    0    0  501  0.00000000000E+00  0.00000000000E+00 -0.57171479137E+03  0.57171479140E+03  0.50400001928E-02 0. -1.
    10030    2    1    2    0    0  0.00000000000E+00  0.00000000000E+00  0.55929312957E+02  0.11993588957E+04  0.11980541193E+04 0.  0.
        4    1    3    3  502    0 -0.16402185772E+03 -0.25101897607E+03  0.54710257131E+03  0.62388823726E+03  0.12699999809E+01 0.  1.
       -4    1    3    3    0  502  0.16402185772E+03  0.25101897607E+03 -0.49117325835E+03  0.57547065849E+03  0.12699999809E+01 0. -1.
</event>
<event>
 5   0  0.9358428E-04  0.1201409E+04  0.7818609E-02  0.9111624E-01
        1   -1    0    0  501    0  0.00000000000E+00  0.00000000000E+00  0.38721563366E+03  0.38721563369E+03  0.50400001928E-02 0.  1.
       -1   -1    0    0    0  501  0.00000000000E+00  0.00000000000E+00 -0.93189857493E+03  0.93189857495E+03  0.50400001928E-02 0. -1.
    10030    2    1    2    0    0  0.00000000000E+00  0.00000000000E+00 -0.54468294127E+03  0.13191142086E+04  0.12014086686E+04 0.  0.
        2    1    3    3  502    0 -0.59038687165E+03 -0.16171774189E+02 -0.15192675910E+03  0.60983598175E+03  0.25500000920E-02 0. -1.
       -2    1    3    3    0  502  0.59038687165E+03  0.16171774189E+02 -0.39275618217E+03  0.70927822689E+03  0.25500000920E-02 0.  1.
</event>
<event>
 5   0  0.1647550E-03  0.1202614E+04  0.7818609E-02  0.9110572E-01
       -2   -1    0    0    0  501  0.00000000000E+00  0.00000000000E+00  0.17486964862E+03  0.17486964864E+03  0.25500000920E-02 0.  1.
        2   -1    0    0  501    0  0.00000000000E+00  0.00000000000E+00 -0.20676548986E+04  0.20676548986E+04  0.25500000920E-02 0. -1.
    10030    2    1    2    0    0  0.00000000000E+00  0.00000000000E+00 -0.18927852499E+04  0.22425245472E+04  0.12026139623E+04 0.  0.
        3    1    3    3  502    0 -0.48055692840E+03 -0.34555317493E+03 -0.74880286491E+03  0.95448818685E+03  0.10100000352E+00 0. -1.
       -3    1    3    3    0  502  0.48055692840E+03  0.34555317493E+03 -0.11439823850E+04  0.12880363604E+04  0.10100000352E+00 0.  1.
</event>
<event>
 5   0  0.9170776E-04  0.1207681E+04  0.7818609E-02  0.9106160E-01
        1   -1    0    0  501    0  0.00000000000E+00  0.00000000000E+00  0.61160818226E+03  0.61160818228E+03  0.50400001928E-02 0.  1.
       -1   -1    0    0    0  501  0.00000000000E+00  0.00000000000E+00 -0.59617130847E+03  0.59617130850E+03  0.50400001928E-02 0. -1.
    10030    2    1    2    0    0  0.00000000000E+00  0.00000000000E+00  0.15436873789E+02  0.12077794908E+04  0.12076808358E+04 0.  0.
        5    1    3    3  502    0  0.30192600838E+03  0.39899652502E+03  0.34574548403E+03  0.60821013740E+03  0.46999998093E+01 0. -1.
       -5    1    3    3    0  502 -0.30192600838E+03 -0.39899652502E+03 -0.33030861024E+03  0.59956935338E+03  0.46999998093E+01 0.  1.
</event>
<event>
 5   0  0.1647550E-03  0.1201988E+04  0.7818609E-02  0.9111118E-01
       -2   -1    0    0    0  501  0.00000000000E+00  0.00000000000E+00  0.15887149725E+03  0.15887149727E+03  0.25500000920E-02 0.  1.
        2   -1    0    0  501    0  0.00000000000E+00  0.00000000000E+00 -0.22734952870E+04  0.22734952870E+04  0.25500000920E-02 0. -1.
    10030    2    1    2    0    0  0.00000000000E+00  0.00000000000E+00 -0.21146237897E+04  0.24323667843E+04  0.12019876876E+04 0.  0.
        3    1    3    3  502    0  0.35327941534E+03 -0.37913907958E+03 -0.16732402540E+04  0.17516522900E+04  0.10100000352E+00 0. -1.
       -3    1    3    3    0  502 -0.35327941534E+03  0.37913907958E+03 -0.44138353569E+03  0.68071449430E+03  0.10100000352E+00 0.  1.
</event>
<event>
 5   0  0.6137750E-04  0.1222983E+04  0.7818609E-02  0.9092974E-01
       -3   -1    0    0    0  501  0.00000000000E+00  0.00000000000E+00  0.63202711050E+03  0.63202711857E+03  0.10100000352E+00 0. -1.
        3   -1    0    0  501    0  0.00000000000E+00  0.00000000000E+00 -0.59162358309E+03  0.59162359171E+03  0.10100000352E+00 0.  1.
    10030    2    1    2    0    0  0.00000000000E+00  0.00000000000E+00  0.40403527408E+02  0.12236507103E+04  0.12229834896E+04 0.  0.
        5    1    3    3  502    0  0.58409033798E+02 -0.13245986641E+03 -0.57421227232E+03  0.59219849300E+03  0.46999998093E+01 0.  1.
       -5    1    3    3    0  502 -0.58409033798E+02  0.13245986641E+03  0.61461579972E+03  0.63145221728E+03  0.46999998093E+01 0. -1.
</event>
<event>
 5   0  0.8908478E-04  0.1205580E+04  0.7818609E-02  0.9107986E-01
       -1   -1    0    0    0  501  0.00000000000E+00  0.00000000000E+00  0.54322983225E+03  0.54322983227E+03  0.50400001928E-02 0. -1.
        1   -1    0    0  501    0  0.00000000000E+00  0.00000000000E+00 -0.66888049520E+03  0.66888049522E+03  0.50400001928E-02 0.  1.
    10030    2    1    2    0    0  0.00000000000E+00  0.00000000000E+00 -0.12565066296E+03  0.12121103275E+04  0.12055800915E+04 0.  0.
        4    1    3    3  502    0 -0.25517041089E+03  0.48382081930E+03 -0.31749501869E+03  0.63245491821E+03  0.12699999809E+01 0.  1.
       -4    1    3    3    0  502  0.25517041089E+03 -0.48382081930E+03  0.19184435573E+03  0.57965540928E+03  0.12699999809E+01 0. -1.
</event>
<event>
 5   0  0.9170776E-04  0.1086327E+04  0.7818609E-02  0.9218622E-01
        1   -1    0    0  501    0  0.00000000000E+00  0.00000000000E+00  0.56401612687E+03  0.56401612690E+03  0.50400001928E-02 0. -1.
       -1   -1    0    0    0  501  0.00000000000E+00  0.00000000000E+00 -0.52308207728E+03  0.52308207731E+03  0.50400001928E-02 0.  1.
    10030    2    1    2    0    0  0.00000000000E+00  0.00000000000E+00  0.40934049593E+02  0.10870982042E+04  0.10863272569E+04 0.  0.
        5    1    3    3  502    0 -0.41840599966E+03 -0.34011866636E+03  0.85784699799E+02  0.54600860110E+03  0.46999998093E+01 0.  1.
       -5    1    3    3    0  502  0.41840599966E+03  0.34011866636E+03 -0.44850650206E+02  0.54108960310E+03  0.46999998093E+01 0. -1.
</event>
<event>
 5   0  0.1567019E-03  0.1201685E+04  0.7818609E-02  0.9111383E-01
        2   -1    0    0  501    0  0.00000000000E+00  0.00000000000E+00  0.13531912245E+04  0.13531912245E+04  0.25500000920E-02 0. -1.
       -2   -1    0    0    0  501  0.00000000000E+00  0.00000000000E+00 -0.26678561187E+03  0.26678561188E+03  0.25500000920E-02 0.  1.
    10030    2    1    2    0    0  0.00000000000E+00  0.00000000000E+00  0.10864056126E+04  0.16199768364E+04  0.12016853978E+04 0.  0.
        5    1    3    3  502    0 -0.35106813093E+03 -0.25371052813E+01 -0.11409806500E+03  0.36918251298E+03  0.46999998093E+01 0.  1.
       -5    1    3    3    0  502  0.35106813093E+03  0.25371052813E+01  0.12005036776E+04  0.12507943234E+04  0.46999998093E+01 0. -1.
</event>
<event>
 5   0  0.9169078E-04  0.1201343E+04  0.7818609E-02  0.9111682E-01
        1   -1    0    0  501    0  0.00000000000E+00  0.00000000000E+00  0.48391259464E+03  0.48391259467E+03  0.50400001928E-02 0.  1.
       -1   -1    0    0    0  501  0.00000000000E+00  0.00000000000E+00 -0.74560197761E+03  0.74560197763E+03  0.50400001928E-02 0. -1.
    10030    2    1    2    0    0  0.00000000000E+00  0.00000000000E+00 -0.26168938297E+03  0.12295145723E+04  0.12013428946E+04 0.  0.
        1    1    3    3  502    0  0.27687661081E+03  0.41933494386E+03 -0.46765735594E+03  0.68644435706E+03  0.50400001928E-02 0. -1.
       -1    1    3    3    0  502 -0.27687661081E+03 -0.41933494386E+03  0.20596797297E+03  0.54307021523E+03  0.50400001928E-02 0.  1.
</event>
<event>
 5   0  0.1567019E-03  0.1211110E+04  0.7818609E-02  0.9103187E-01
       -2   -1    0    0    0  501  0.00000000000E+00  0.00000000000E+00  0.21231228117E+03  0.21231228118E+03  0.25500000920E-02 0.  1.
        2   -1    0    0  501    0  0.00000000000E+00  0.00000000000E+00 -0.17271581076E+04  0.17271581076E+04  0.25500000920E-02 0. -1.
    10030    2    1    2    0    0  0.00000000000E+00  0.00000000000E+00 -0.15148458264E+04  0.19394703887E+04  0.12111100326E+04 0.  0.
        5    1    3    3  502    0 -0.16124310350E+03 -0.39472596354E+03 -0.14459627741E+04  0.15075272332E+04  0.46999998093E+01 0.  1.
       -5    1    3    3    0  502  0.16124310350E+03  0.39472596354E+03 -0.68883052254E+02  0.43194315552E+03  0.46999998093E+01 0. -1.
</event>
<event>
 5   0  0.9358428E-04  0.1210032E+04  0.7818609E-02  0.9104121E-01
       -1   -1    0    0    0  501  0.00000000000E+00  0.00000000000E+00  0.63634407397E+03  0.63634407399E+03  0.50400001928E-02 0.  1.
        1   -1    0    0  501    0  0.00000000000E+00  0.00000000000E+00 -0.57522984231E+03  0.57522984233E+03  0.50400001928E-02 0. -1.
    10030    2    1    2    0    0  0.00000000000E+00  0.00000000000E+00  0.61114231659E+02  0.12115739163E+04  0.12100315721E+04 0.  0.
        2    1    3    3  502    0 -0.57228689909E+03  0.15992513979E+03 -0.83411321953E+02  0.60003816032E+03  0.25500000920E-02 0. -1.
       -2    1    3    3    0  502  0.57228689909E+03 -0.15992513979E+03  0.14452555361E+03  0.61153575600E+03  0.25500000920E-02 0.  1.
</event>
<event>
 5   0  0.9208078E-04  0.1196233E+04  0.7818609E-02  0.9116160E-01
       -1   -1    0    0    0  501  0.00000000000E+00  0.00000000000E+00  0.92931346383E+03  0.92931346385E+03  0.50400001928E-02 0.  1.
        1   -1    0    0  501    0  0.00000000000E+00  0.00000000000E+00 -0.38495430999E+03  0.38495431002E+03  0.50400001928E-02 0. -1.
    10030    2    1    2    0    0  0.00000000000E+00  0.00000000000E+00  0.54435915385E+03  0.13142677739E+04  0.11962327922E+04 0.  0.
        3    1    3    3  502    0 -0.51240172946E+03 -0.14399974209E+03  0.57196162703E+03  0.78130120381E+03  0.10100000352E+00 0.  1.
       -3    1    3    3    0  502  0.51240172946E+03  0.14399974209E+03 -0.27602473180E+02  0.53296657006E+03  0.10100000352E+00 0. -1.
</event>
<event>
 5   0  0.6137750E-04  0.1195918E+04  0.7818609E-02  0.9116437E-01
       -3   -1    0    0    0  501  0.00000000000E+00  0.00000000000E+00  0.52881551844E+03  0.52881552809E+03  0.10100000352E+00 0. -1.
        3   -1    0    0  501    0  0.00000000000E+00  0.00000000000E+00 -0.67614314779E+03  0.67614315533E+03  0.10100000352E+00 0.  1.
    10030    2    1    2    0    0  0.00000000000E+00  0.00000000000E+00 -0.14732762934E+03  0.12049586834E+04  0.11959180567E+04 0.  0.
        5    1    3    3  502    0 -0.29317896202E+03  0.42306454293E+03  0.23293144420E+03  0.56499261849E+03  0.46999998093E+01 0. -1.
       -5    1    3    3    0  502  0.29317896202E+03 -0.42306454293E+03 -0.38025907354E+03  0.63996606493E+03  0.46999998093E+01 0.  1.
</event>
<event>
 5   0  0.9170776E-04  0.1199582E+04  0.7818609E-02  0.9113223E-01
       -1   -1    0    0    0  501  0.00000000000E+00  0.00000000000E+00  0.61716391849E+03  0.61716391851E+03  0.50400001928E-02 0. -1.
        1   -1    0    0  501    0  0.00000000000E+00  0.00000000000E+00 -0.58290675447E+03  0.58290675449E+03  0.50400001928E-02 0.  1.
    10030    2    1    2    0    0  0.00000000000E+00  0.00000000000E+00  0.34257164024E+02  0.12000706730E+04  0.11995816216E+04 0.  0.
        5    1    3    3  502    0 -0.15939763520E+03 -0.46095024631E+03 -0.33207559808E+03  0.59006696952E+03  0.46999998093E+01 0.  1.
       -5    1    3    3    0  502  0.15939763520E+03  0.46095024631E+03  0.36633276210E+03  0.61000370349E+03  0.46999998093E+01 0. -1.
</event>
<event>
 5   0  0.1537557E-03  0.1203469E+04  0.7818609E-02  0.9109826E-01
        2   -1    0    0  501    0  0.00000000000E+00  0.00000000000E+00  0.57220179306E+03  0.57220179306E+03  0.25500000920E-02 0.  1.
       -2   -1    0    0    0  501  0.00000000000E+00  0.00000000000E+00 -0.63279124014E+03  0.63279124014E+03  0.25500000920E-02 0. -1.
    10030    2    1    2    0    0  0.00000000000E+00  0.00000000000E+00 -0.60589447081E+02  0.12049930332E+04  0.12034687902E+04 0.  0.
        2    1    3    3  502    0 -0.50332426451E+03 -0.25531881205E+03  0.17868299151E+03  0.59198870132E+03  0.25500000920E-02 0.  1.
       -2    1    3    3    0  502  0.50332426451E+03  0.25531881205E+03 -0.23927243859E+03  0.61300433188E+03  0.25500000920E-02 0. -1.
</event>
<event>
 5   0  0.1597352E-03  0.1202053E+04  0.7818609E-02  0.9111061E-01
       -2   -1    0    0    0  501  0.00000000000E+00  0.00000000000E+00  0.79552631193E+03  0.79552631193E+03  0.25500000920E-02 0. -1.
        2   -1    0    0  501    0  0.00000000000E+00  0.00000000000E+00 -0.45408059040E+03  0.45408059041E+03  0.25500000920E-02 0.  1.
    10030    2    1    2    0    0  0.00000000000E+00  0.00000000000E+00  0.34144572153E+03  0.12496069023E+04  0.12020533389E+04 0.  0.
        1    1    3    3  502    0  0.22081678085E+03  0.41663541277E+03  0.55814277776E+03  0.73066304017E+03  0.50400001928E-02 0. -1.
       -1    1    3    3    0  502 -0.22081678085E+03 -0.41663541277E+03 -0.21669705623E+03  0.51894386217E+03  0.50400001928E-02 0.  1.
</event>
<event>
 5   0  0.8908478E-04  0.1193813E+04  0.7818609E-02  0.9118290E-01
       -1   -1    0    0    0  501  0.00000000000E+00  0.00000000000E+00  0.19049742599E+03  0.19049742605E+03  0.50400001928E-02 0.  1.
        1   -1    0    0  501    0  0.00000000000E+00  0.00000000000E+00 -0.18703513564E+04  0.18703513564E+04  0.50400001928E-02 0. -1.
    10030    2    1    2    0    0  0.00000000000E+00  0.00000000000E+00 -0.16798539305E+04  0.20608487825E+04  0.11938125802E+04 0.  0.
        4    1    3    3  502    0  0.18485285335E+03 -0.83029992298E+02  0.12929757076E+03  0.24038309366E+03  0.12699999809E+01 0.  1.
       -4    1    3    3    0  502 -0.18485285335E+03  0.83029992298E+02 -0.18091515012E+04  0.18204656888E+04  0.12699999809E+01 0. -1.
</event>
<event>
 5   0  0.9208078E-04  0.1208366E+04  0.7818609E-02  0.9105565E-01
        1   -1    0    0  501    0  0.00000000000E+00  0.00000000000E+00  0.55548139386E+03  0.55548139389E+03  0.50400001928E-02 0. -1.
       -1   -1    0    0    0  501  0.00000000000E+00  0.00000000000E+00 -0.65715499747E+03  0.65715499748E+03  0.50400001928E-02 0.  1.
    10030    2    1    2    0    0  0.00000000000E+00  0.00000000000E+00 -0.10167360360E+03  0.12126363914E+04  0.12083664577E+04 0.  0.
        3    1    3    3  502    0 -0.33684168536E+03 -0.40557890360E+03  0.24530051044E+03  0.58148853701E+03  0.10100000352E+00 0. -1.
       -3    1    3    3    0  502  0.33684168536E+03  0.40557890360E+03 -0.34697411404E+03  0.63114785436E+03  0.10100000352E+00 0.  1.
</event>
<event>
 5   0  0.9208078E-04  0.1202427E+04  0.7818609E-02  0.9110734E-01
       -1   -1    0    0    0  501  0.00000000000E+00  0.00000000000E+00  0.25481265892E+03  0.25481265897E+03  0.50400001928E-02 0.  1.
        1   -1    0    0  501    0  0.00000000000E+00  0.00000000000E+00 -0.14185243796E+04  0.14185243796E+04  0.50400001928E-02 0. -1.
    10030    2    1    2    0    0  0.00000000000E+00  0.00000000000E+00 -0.11637117207E+04  0.16733370386E+04  0.12024274930E+04 0.  0.
        3    1    3    3  502    0  0.36062315851E+03 -0.50110996463E+02 -0.12476582060E+04  0.12996965737E+04  0.10100000352E+00 0. -1.
       -3    1    3    3    0  502 -0.36062315851E+03  0.50110996463E+02  0.83946485309E+02  0.37364046491E+03  0.10100000352E+00 0.  1.
</event>
<event>
 5   0  0.9358428E-04  0.1199769E+04  0.7818609E-02  0.9113058E-01
       -1   -1    0    0    0  501  0.00000000000E+00  0.00000000000E+00  0.28991977766E+03  0.28991977771E+03  0.50400001928E-02 0.  1.
        1   -1    0    0  501    0  0.00000000000E+00  0.00000000000E+00 -0.12412458179E+04  0.12412458179E+04  0.50400001928E-02 0. -1.
    10030    2    1    2    0    0  0.00000000000E+00  0.00000000000E+00 -0.95132604023E+03  0.15311655956E+04  0.11997694972E+04 0.  0.
        2    1    3    3  502    0 -0.24476328718E+03  0.41337097169E+03 -0.17152906344E+02  0.48070661446E+03  0.25500000920E-02 0.  1.
       -2    1    3    3    0  502  0.24476328718E+03 -0.41337097169E+03 -0.93417313388E+03  0.10504589811E+04  0.25500000920E-02 0. -1.
</event>
<event>
 5   0  0.1597352E-03  0.1127292E+04  0.7818609E-02  0.9178992E-01
       -2   -1    0    0    0  501  0.00000000000E+00  0.00000000000E+00  0.44622795298E+03  0.44622795298E+03  0.25500000920E-02 0.  1.
        2   -1    0    0  501    0  0.00000000000E+00  0.00000000000E+00 -0.71196088401E+03  0.71196088401E+03  0.25500000920E-02 0. -1.
    10030    2    1    2    0    0  0.00000000000E+00  0.00000000000E+00 -0.26573293103E+03  0.11581888370E+04  0.11272920613E+04 0.  0.
        1    1    3    3  502    0  0.23971892099E+03 -0.90507850847E+02  0.38292918447E+03  0.46075111773E+03  0.50400001928E-02 0.  1.
       -1    1    3    3    0  502 -0.23971892099E+03  0.90507850847E+02 -0.64866211550E+03  0.69743771927E+03  0.50400001928E-02 0. -1.
</event>
<event>
 5   0  0.1647550E-03  0.1200239E+04  0.7818609E-02  0.9112648E-01
       -2   -1    0    0    0  501  0.00000000000E+00  0.00000000000E+00  0.23044713714E+03  0.23044713715E+03  0.25500000920E-02 0.  1.
        2   -1    0    0  501    0  0.00000000000E+00  0.00000000000E+00 -0.15628017095E+04  0.15628017095E+04  0.25500000920E-02 0. -1.
    10030    2    1    2    0    0  0.00000000000E+00  0.00000000000E+00 -0.13323545724E+04  0.17932488467E+04  0.12002386094E+04 0.  0.
        3    1    3    3  502    0  0.15196171273E+03 -0.50829430523E+03 -0.10852857308E+04  0.12080151450E+04  0.10100000352E+00 0. -1.
       -3    1    3    3    0  502 -0.15196171273E+03  0.50829430523E+03 -0.24706884153E+03  0.58523370163E+03  0.10100000352E+00 0.  1.
</event>
<event>
 5   0  0.9208078E-04  0.1202139E+04  0.7818609E-02  0.9110986E-01
       -1   -1    0    0    0  501  0.00000000000E+00  0.00000000000E+00  0.34050234540E+03  0.34050234544E+03  0.50400001928E-02 0. -1.
        1   -1    0    0  501    0  0.00000000000E+00  0.00000000000E+00 -0.10610337349E+04  0.10610337349E+04  0.50400001928E-02 0.  1.
    10030    2    1    2    0    0  0.00000000000E+00  0.00000000000E+00 -0.72053138946E+03  0.14015360803E+04  0.12021388860E+04 0.  0.
        3    1    3    3  502    0  0.26762441903E+03  0.53813634227E+03 -0.37008342797E+03  0.70581534866E+03  0.10100000352E+00 0. -1.
       -3    1    3    3    0  502 -0.26762441903E+03 -0.53813634227E+03 -0.35044796148E+03  0.69572073165E+03  0.10100000352E+00 0.  1.
</event>
<event>
 5   0  0.1551501E-03  0.1197044E+04  0.7818609E-02  0.9115448E-01
        2   -1    0    0  501    0  0.00000000000E+00  0.00000000000E+00  0.87198992009E+03  0.87198992009E+03  0.25500000920E-02 0.  1.
       -2   -1    0    0    0  501  0.00000000000E+00  0.00000000000E+00 -0.41081758155E+03  0.41081758156E+03  0.25500000920E-02 0. -1.
    10030    2    1    2    0    0  0.00000000000E+00  0.00000000000E+00  0.46117233853E+03  0.12828075017E+04  0.11970443436E+04 0.  0.
        4    1    3    3  502    0 -0.33453617572E+03 -0.42014091893E+03  0.51370015995E+03  0.74318390177E+03  0.12699999809E+01 0. -1.
       -4    1    3    3    0  502  0.33453617572E+03  0.42014091893E+03 -0.52527821417E+02  0.53962359988E+03  0.12699999809E+01 0.  1.
</event>
<event>
 5   0  0.9208078E-04  0.1094098E+04  0.7818609E-02  0.9210963E-01
       -1   -1    0    0    0  501  0.00000000000E+00  0.00000000000E+00  0.85296032938E+03  0.85296032939E+03  0.50400001928E-02 0.  1.
        1   -1    0    0  501    0  0.00000000000E+00  0.00000000000E+00 -0.35085178577E+03  0.35085178581E+03  0.50400001928E-02 0. -1.
    10030    2    1    2    0    0  0.00000000000E+00  0.00000000000E+00  0.50210854361E+03  0.12038121152E+04  0.10940980848E+04 0.  0.
        3    1    3    3  502    0  0.26312873024E+03 -0.35810452148E+03  0.60208792470E+03  0.74832175984E+03  0.10100000352E+00 0.  1.
       -3    1    3    3    0  502 -0.26312873024E+03  0.35810452148E+03 -0.99979381090E+02  0.45549035536E+03  0.10100000352E+00 0. -1.
</event>
<event>
 5   0  0.9208078E-04  0.1195958E+04  0.7818609E-02  0.9116402E-01
       -1   -1    0    0    0  501  0.00000000000E+00  0.00000000000E+00  0.41226662983E+03  0.41226662986E+03  0.50400001928E-02 0.  1.
        1   -1    0    0  501    0  0.00000000000E+00  0.00000000000E+00 -0.86734906274E+03  0.86734906275E+03  0.50400001928E-02 0. -1.
    10030    2    1    2    0    0  0.00000000000E+00  0.00000000000E+00 -0.45508243290E+03  0.12796156926E+04  0.11959583187E+04 0.  0.
        3    1    3    3  502    0 -0.16305484070E+03  0.25449194810E+03 -0.77960438428E+03  0.83614355161E+03  0.10100000352E+00 0. -1.
       -3    1    3    3    0  502  0.16305484070E+03 -0.25449194810E+03  0.32452195137E+03  0.44347214100E+03  0.10100000352E+00 0.  1.
</event>
<event>
 5   0  0.1647550E-03  0.1194410E+04  0.7818609E-02  0.9117763E-01
        2   -1    0    0  501    0  0.00000000000E+00  0.00000000000E+00  0.35341892838E+03  0.35341892839E+03  0.25500000920E-02 0.  1.
       -2   -1    0    0    0  501  0.00000000000E+00  0.00000000000E+00 -0.10091535321E+04  0.10091535321E+04  0.25500000920E-02 0. -1.
    10030    2    1    2    0    0  0.00000000000E+00  0.00000000000E+00 -0.65573460368E+03  0.13625724604E+04  0.11944102476E+04 0.  0.
        3    1    3    3  502    0  0.12739665192E+03 -0.56483718818E+03 -0.49468431429E+03  0.76156650208E+03  0.10100000352E+00 0.  1.
       -3    1    3    3    0  502 -0.12739665192E+03  0.56483718818E+03 -0.16105028938E+03  0.60100595836E+03  0.10100000352E+00 0. -1.
</event>
<event>
 5   0  0.8908478E-04  0.1196204E+04  0.7818609E-02  0.9116186E-01
        1   -1    0    0  501    0  0.00000000000E+00  0.00000000000E+00  0.27974536251E+03  0.27974536256E+03  0.50400001928E-02 0. -1.
       -1   -1    0    0    0  501  0.00000000000E+00  0.00000000000E+00 -0.12787556444E+04  0.12787556444E+04  0.50400001928E-02 0.  1.
    10030    2    1    2    0    0  0.00000000000E+00  0.00000000000E+00 -0.99901028185E+03  0.15585010069E+04  0.11962039313E+04 0.  0.
        4    1    3    3  502    0 -0.64248037061E+02  0.37092816110E+03  0.10602758796E+03  0.39109969736E+03  0.12699999809E+01 0. -1.
       -4    1    3    3    0  502  0.64248037061E+02 -0.37092816110E+03 -0.11050378698E+04  0.11674013096E+04  0.12699999809E+01 0.  1.
</event>
<event>
 5   0  0.9208078E-04  0.1203771E+04  0.7818609E-02  0.9109562E-01
       -1   -1    0    0    0  501  0.00000000000E+00  0.00000000000E+00  0.92580070154E+03  0.92580070155E+03  0.50400001928E-02 0. -1.
        1   -1    0    0  501    0  0.00000000000E+00  0.00000000000E+00 -0.39130051696E+03  0.39130051699E+03  0.50400001928E-02 0.  1.
    10030    2    1    2    0    0  0.00000000000E+00  0.00000000000E+00  0.53450018458E+03  0.13171012185E+04  0.12037712293E+04 0.  0.
        3    1    3    3  502    0  0.15815852251E+03  0.29899374663E+03 -0.27747069707E+03  0.43749443048E+03  0.10100000352E+00 0.  1.
       -3    1    3    3    0  502 -0.15815852251E+03 -0.29899374663E+03  0.81197088165E+03  0.87960678806E+03  0.10100000352E+00 0. -1.
</event>
<event>
 5   0  0.1537557E-03  0.1222690E+04  0.7818609E-02  0.9093224E-01
        2   -1    0    0  501    0  0.00000000000E+00  0.00000000000E+00  0.14258887157E+04  0.14258887157E+04  0.25500000920E-02 0. -1.
       -2   -1    0    0    0  501  0.00000000000E+00  0.00000000000E+00 -0.26211229802E+03  0.26211229803E+03  0.25500000920E-02 0.  1.
    10030    2    1    2    0    0  0.00000000000E+00  0.00000000000E+00  0.11637764176E+04  0.16880010137E+04  0.12226904236E+04 0.  0.
        2    1    3    3  502    0 -0.16632103356E+03  0.21968467872E+03 -0.17152345135E+03  0.32456792608E+03  0.25500000920E-02 0.  1.
       -2    1    3    3    0  502  0.16632103356E+03 -0.21968467872E+03  0.13352998690E+04  0.13634330876E+04  0.25500000920E-02 0. -1.
</event>
<event>
 5   0  0.8908478E-04  0.1201265E+04  0.7818609E-02  0.9111750E-01
       -1   -1    0    0    0  501  0.00000000000E+00  0.00000000000E+00  0.71940457003E+03  0.71940457005E+03  0.50400001928E-02 0. -1.
        1   -1    0    0  501    0  0.00000000000E+00  0.00000000000E+00 -0.50146925236E+03  0.50146925238E+03  0.50400001928E-02 0.  1.
    10030    2    1    2    0    0  0.00000000000E+00  0.00000000000E+00  0.21793531768E+03  0.12208738224E+04  0.12012647866E+04 0.  0.
        4    1    3    3  502    0  0.49427796485E+03 -0.35225698081E+01  0.45576276367E+03  0.67234249061E+03  0.12699999809E+01 0. -1.
       -4    1    3    3    0  502 -0.49427796485E+03  0.35225698081E+01 -0.23782744599E+03  0.54853133183E+03  0.12699999809E+01 0.  1.
</event>
<event>
 5   0  0.1597352E-03  0.1203868E+04  0.7818609E-02  0.9109478E-01
        2   -1    0    0  501    0  0.00000000000E+00  0.00000000000E+00  0.96096368162E+03  0.96096368162E+03  0.25500000920E-02 0.  1.
       -2   -1    0    0    0  501  0.00000000000E+00  0.00000000000E+00 -0.37704290148E+03  0.37704290149E+03  0.25500000920E-02 0. -1.
    10030    2    1    2    0    0  0.00000000000E+00  0.00000000000E+00  0.58392078014E+03  0.13380065831E+04  0.12038679907E+04 0.  0.
        1    1    3    3  502    0 -0.15406252828E+03  0.55333286528E+03  0.91867166734E+02  0.58168040948E+03  0.50400001928E-02 0. -1.
       -1    1    3    3    0  502  0.15406252828E+03 -0.55333286528E+03  0.49205361341E+03  0.75632617363E+03  0.50400001928E-02 0.  1.
</event>
<event>
 5   0  0.6137750E-04  0.1201416E+04  0.7818609E-02  0.9111618E-01
       -4   -1    0    0    0  501  0.00000000000E+00  0.00000000000E+00  0.40062288460E+03  0.40062489758E+03  0.12699999809E+01 0.  1.
        4   -1    0    0  501    0  0.00000000000E+00  0.00000000000E+00 -0.90071725498E+03  0.90071815032E+03  0.12699999809E+01 0. -1.
    10030    2    1    2    0    0  0.00000000000E+00  0.00000000000E+00 -0.50009437038E+03  0.13013430479E+04  0.12014155605E+04 0.  0.
        1    1    3    3  502    0 -0.80681177085E+02 -0.55533142480E+03 -0.48222941825E+03  0.73989705741E+03  0.50400001928E-02 0. -1.
       -1    1    3    3    0  502  0.80681177085E+02  0.55533142480E+03 -0.17864952127E+02  0.56144599050E+03  0.50400001928E-02 0.  1.
</event>
<event>
 5   0  0.8908478E-04  0.1182051E+04  0.7818609E-02  0.9128714E-01
        1   -1    0    0  501    0  0.00000000000E+00  0.00000000000E+00  0.50079433182E+03  0.50079433184E+03  0.50400001928E-02 0.  1.
       -1   -1    0    0    0  501  0.00000000000E+00  0.00000000000E+00 -0.69751360544E+03  0.69751360545E+03  0.50400001928E-02 0. -1.
    10030    2    1    2    0    0  0.00000000000E+00  0.00000000000E+00 -0.19671927362E+03  0.11983079373E+04  0.11820505234E+04 0.  0.
        4    1    3    3  502    0 -0.34195487355E+03 -0.44052508446E+03 -0.29679076068E+03  0.63172925697E+03  0.12699999809E+01 0. -1.
       -4    1    3    3    0  502  0.34195487355E+03  0.44052508446E+03  0.10007148706E+03  0.56657868033E+03  0.12699999809E+01 0.  1.
</event>
<event>
 5   0  0.1647550E-03  0.1221760E+04  0.7818609E-02  0.9094020E-01
        2   -1    0    0  501    0  0.00000000000E+00  0.00000000000E+00  0.17412732439E+04  0.17412732439E+04  0.25500000920E-02 0.  1.
       -2   -1    0    0    0  501  0.00000000000E+00  0.00000000000E+00 -0.21431118011E+03  0.21431118012E+03  0.25500000920E-02 0. -1.
    10030    2    1    2    0    0  0.00000000000E+00  0.00000000000E+00  0.15269620638E+04  0.19555844241E+04  0.12217599172E+04 0.  0.
        3    1    3    3  502    0  0.49524412640E+03 -0.16639661995E+03  0.25676188031E+03  0.58213508161E+03  0.10100000352E+00 0. -1.
       -3    1    3    3    0  502 -0.49524412640E+03  0.16639661995E+03  0.12702001835E+04  0.13734493425E+04  0.10100000352E+00 0.  1.
</event>
<event>
 5   0  0.9208078E-04  0.1184548E+04  0.7818609E-02  0.9126491E-01
       -1   -1    0    0    0  501  0.00000000000E+00  0.00000000000E+00  0.11478157593E+04  0.11478157593E+04  0.50400001928E-02 0. -1.
        1   -1    0    0  501    0  0.00000000000E+00  0.00000000000E+00 -0.30561371404E+03  0.30561371408E+03  0.50400001928E-02 0.  1.
    10030    2    1    2    0    0  0.00000000000E+00  0.00000000000E+00  0.84220204523E+03  0.14534294734E+04  0.11845475715E+04 0.  0.
        3    1    3    3  502    0 -0.16904542644E+03 -0.85351856422E+02 -0.26746621816E+03  0.32771860437E+03  0.10100000352E+00 0.  1.
       -3    1    3    3    0  502  0.16904542644E+03  0.85351856422E+02  0.11096682634E+04  0.11257108690E+04  0.10100000352E+00 0. -1.
</event>
<event>
 5   0  0.1537557E-03  0.1202096E+04  0.7818609E-02  0.9111024E-01
       -2   -1    0    0    0  501  0.00000000000E+00  0.00000000000E+00  0.75819576067E+03  0.75819576068E+03  0.25500000920E-02 0. -1.
        2   -1    0    0  501    0  0.00000000000E+00  0.00000000000E+00 -0.47647130860E+03  0.47647130860E+03  0.25500000920E-02 0.  1.
    10030    2    1    2    0    0  0.00000000000E+00  0.00000000000E+00  0.28172445207E+03  0.12346670693E+04  0.12020957138E+04 0.  0.
        2    1    3    3  502    0 -0.31596646850E+03  0.32117819122E+03 -0.26774662194E+03  0.52409778982E+03  0.25500000920E-02 0.  1.
       -2    1    3    3    0  502  0.31596646850E+03 -0.32117819122E+03  0.54947107402E+03  0.71056927946E+03  0.25500000920E-02 0. -1.
</event>
<event>
 5   0  0.1647550E-03  0.1198824E+04  0.7818609E-02  0.9113886E-01
       -2   -1    0    0    0  501  0.00000000000E+00  0.00000000000E+00  0.56865108003E+03  0.56865108003E+03  0.25500000920E-02 0. -1.
        2   -1    0    0  501    0  0.00000000000E+00  0.00000000000E+00 -0.63183719624E+03  0.63183719625E+03  0.25500000920E-02 0.  1.
    10030    2    1    2    0    0  0.00000000000E+00  0.00000000000E+00 -0.63186116217E+02  0.12004882763E+04  0.11988242641E+04 0.  0.
        3    1    3    3  502    0 -0.56087493617E+03  0.17558679363E+03  0.86398662100E+02  0.59403379965E+03  0.10100000352E+00 0.  1.
       -3    1    3    3    0  502  0.56087493617E+03 -0.17558679363E+03 -0.14958477832E+03  0.60645447663E+03  0.10100000352E+00 0. -1.
</event>
<event>
 5   0  0.1537557E-03  0.1181589E+04  0.7818609E-02  0.9129126E-01
        2   -1    0    0  501    0  0.00000000000E+00  0.00000000000E+00  0.10855087708E+04  0.10855087708E+04  0.25500000920E-02 0.  1.
       -2   -1    0    0    0  501  0.00000000000E+00  0.00000000000E+00 -0.32154354391E+03  0.32154354392E+03  0.25500000920E-02 0. -1.
    10030    2    1    2    0    0  0.00000000000E+00  0.00000000000E+00  0.76396522689E+03  0.14070523147E+04  0.11815893316E+04 0.  0.
        2    1    3    3  502    0 -0.41692673266E+03 -0.95054988216E+02 -0.10344727093E+03  0.43995987210E+03  0.25500000920E-02 0. -1.
       -2    1    3    3    0  502  0.41692673266E+03  0.95054988216E+02  0.86741249782E+03  0.96709244261E+03  0.25500000920E-02 0.  1.
</event>
<event>
 5   0  0.1537557E-03  0.1203996E+04  0.7818609E-02  0.9109366E-01
       -2   -1    0    0    0  501  0.00000000000E+00  0.00000000000E+00  0.44196890640E+03  0.44196890641E+03  0.25500000920E-02 0. -1.
        2   -1    0    0  501    0  0.00000000000E+00  0.00000000000E+00 -0.81997076379E+03  0.81997076379E+03  0.25500000920E-02 0.  1.
    10030    2    1    2    0    0  0.00000000000E+00  0.00000000000E+00 -0.37800185739E+03  0.12619396702E+04  0.12039959830E+04 0.  0.
        2    1    3    3  502    0 -0.46445123881E+03 -0.13582053762E+03 -0.56434046301E+03  0.74339917263E+03  0.25500000920E-02 0.  1.
       -2    1    3    3    0  502  0.46445123881E+03  0.13582053762E+03  0.18633860562E+03  0.51854049757E+03  0.25500000920E-02 0. -1.
</event>
<event>
 5   0  0.9170776E-04  0.1195182E+04  0.7818609E-02  0.9117084E-01
       -1   -1    0    0    0  501  0.00000000000E+00  0.00000000000E+00  0.32944745679E+03  0.32944745683E+03  0.50400001928E-02 0.  1.
        1   -1    0    0  501    0  0.00000000000E+00  0.00000000000E+00 -0.10839823344E+04  0.10839823344E+04  0.50400001928E-02 0. -1.
    10030    2    1    2    0    0  0.00000000000E+00  0.00000000000E+00 -0.75453487764E+03  0.14134297913E+04  0.11951823682E+04 0.  0.
        5    1    3    3  502    0 -0.95105149847E+02 -0.53494464277E+03 -0.67145448296E+03  0.86376152556E+03  0.46999998093E+01 0. -1.
       -5    1    3    3    0  502  0.95105149847E+02  0.53494464277E+03 -0.83080394681E+02  0.54966826571E+03  0.46999998093E+01 0.  1.
</event>
<event>
 5   0  0.8908478E-04  0.1204501E+04  0.7818609E-02  0.9108926E-01
        1   -1    0    0  501    0  0.00000000000E+00  0.00000000000E+00  0.41441793550E+03  0.41441793553E+03  0.50400001928E-02 0. -1.
       -1   -1    0    0    0  501  0.00000000000E+00  0.00000000000E+00 -0.87521740914E+03  0.87521740915E+03  0.50400001928E-02 0.  1.
    10030    2    1    2    0    0  0.00000000000E+00  0.00000000000E+00 -0.46079947364E+03  0.12896353447E+04  0.12045012110E+04 0.  0.
        4    1    3    3  502    0 -0.20757839834E+03  0.45291502298E+03  0.13186902582E+03  0.51537545767E+03  0.12699999809E+01 0. -1.
       -4    1    3    3    0  502  0.20757839834E+03 -0.45291502298E+03 -0.59266849946E+03  0.77425988702E+03  0.12699999809E+01 0.  1.
</event>
<event>
 5   0  0.1537557E-03  0.1163292E+04  0.7818609E-02  0.9145608E-01
        2   -1    0    0  501    0  0.00000000000E+00  0.00000000000E+00  0.21000691659E+04  0.21000691659E+04  0.25500000920E-02 0. -1.
       -2   -1    0    0    0  501  0.00000000000E+00  0.00000000000E+00 -0.16109569572E+03  0.16109569574E+03  0.25500000920E-02 0.  1.
    10030    2    1    2    0    0  0.00000000000E+00  0.00000000000E+00  0.19389734701E+04  0.22611648616E+04  0.11632920585E+04 0.  0.
        2    1    3    3  502    0 -0.37054721619E+03  0.60728639345E+02  0.18329180655E+04  0.18709841907E+04  0.25500000920E-02 0. -1.
       -2    1    3    3    0  502  0.37054721619E+03 -0.60728639345E+02  0.10605540461E+03  0.39018067086E+03  0.25500000920E-02 0.  1.
</event>
<event>
 5   0  0.1537557E-03  0.1203258E+04  0.7818609E-02  0.9110010E-01
       -2   -1    0    0    0  501  0.00000000000E+00  0.00000000000E+00  0.54535373207E+03  0.54535373208E+03  0.25500000920E-02 0.  1.
        2   -1    0    0  501    0  0.00000000000E+00  0.00000000000E+00 -0.66371114396E+03  0.66371114397E+03  0.25500000920E-02 0. -1.
    10030    2    1    2    0    0  0.00000000000E+00  0.00000000000E+00 -0.11835741189E+03  0.12090648760E+04  0.12032578267E+04 0.  0.
        2    1    3    3  502    0 -0.58417574465E+03  0.94874543529E+02 -0.16784343562E+03  0.61516981276E+03  0.25500000920E-02 0. -1.
       -2    1    3    3    0  502  0.58417574465E+03 -0.94874543529E+02  0.49486023728E+02  0.59389506329E+03  0.25500000920E-02 0.  1.
</event>
<event>
 5   0  0.6137750E-04  0.1198484E+04  0.7818609E-02  0.9114184E-01
       -3   -1    0    0    0  501  0.00000000000E+00  0.00000000000E+00  0.16259602622E+04  0.16259602654E+04  0.10100000352E+00 0. -1.
        3   -1    0    0  501    0  0.00000000000E+00  0.00000000000E+00 -0.22084856009E+03  0.22084858318E+03  0.10100000352E+00 0.  1.
    10030    2    1    2    0    0  0.00000000000E+00  0.00000000000E+00  0.14051117021E+04  0.18468088486E+04  0.11984840540E+04 0.  0.
        2    1    3    3  502    0 -0.23256312204E+03 -0.40477873618E+03  0.12815109179E+04  0.13638921012E+04  0.25500000920E-02 0. -1.
       -2    1    3    3    0  502  0.23256312204E+03  0.40477873618E+03  0.12360078424E+03  0.48291674735E+03  0.25500000920E-02 0.  1.
</event>
<event>
 5   0  0.1647550E-03  0.1212541E+04  0.7818609E-02  0.9101950E-01
       -2   -1    0    0    0  501  0.00000000000E+00  0.00000000000E+00  0.73462478506E+03  0.73462478506E+03  0.25500000920E-02 0.  1.
        2   -1    0    0  501    0  0.00000000000E+00  0.00000000000E+00 -0.50034217711E+03  0.50034217711E+03  0.25500000920E-02 0. -1.
    10030    2    1    2    0    0  0.00000000000E+00  0.00000000000E+00  0.23428260795E+03  0.12349669622E+04  0.12125407446E+04 0.  0.
        3    1    3    3  502    0  0.24582932215E+03 -0.32352980590E+02 -0.44634064766E+03  0.51058667720E+03  0.10100000352E+00 0. -1.
       -3    1    3    3    0  502 -0.24582932215E+03  0.32352980590E+02  0.68062325561E+03  0.72438028498E+03  0.10100000352E+00 0.  1.
</event>
<event>
 5   0  0.6137750E-04  0.1204058E+04  0.7818609E-02  0.9109312E-01
       -4   -1    0    0    0  501  0.00000000000E+00  0.00000000000E+00  0.34802581938E+03  0.34802813658E+03  0.12699999809E+01 0. -1.
        4   -1    0    0  501    0  0.00000000000E+00  0.00000000000E+00 -0.10414070576E+04  0.10414078320E+04  0.12699999809E+01 0.  1.
    10030    2    1    2    0    0  0.00000000000E+00  0.00000000000E+00 -0.69338123825E+03  0.13894359686E+04  0.12040576271E+04 0.  0.
        4    1    3    3  502    0 -0.55276124919E+03 -0.16442250400E+03 -0.14729450847E+03  0.59521176362E+03  0.12699999809E+01 0. -1.
       -4    1    3    3    0  502  0.55276124919E+03  0.16442250400E+03 -0.54608672978E+03  0.79422420498E+03  0.12699999809E+01 0.  1.
</event>
<event>
 5   0  0.9169078E-04  0.1201206E+04  0.7818609E-02  0.9111802E-01
       -1   -1    0    0    0  501  0.00000000000E+00  0.00000000000E+00  0.41828872328E+03  0.41828872331E+03  0.50400001928E-02 0. -1.
        1   -1    0    0  501    0  0.00000000000E+00  0.00000000000E+00 -0.86237998059E+03  0.86237998061E+03  0.50400001928E-02 0.  1.
    10030    2    1    2    0    0  0.00000000000E+00  0.00000000000E+00 -0.44409125731E+03  0.12806687039E+04  0.12012057627E+04 0.  0.
        1    1    3    3  502    0  0.70223406306E+02 -0.15291762876E+03 -0.83673481926E+03  0.85348713275E+03  0.50400001928E-02 0.  1.
       -1    1    3    3    0  502 -0.70223406306E+02  0.15291762876E+03  0.39264356195E+03  0.42718157117E+03  0.50400001928E-02 0. -1.
</event>
<event>
 5   0  0.1537557E-03  0.1197696E+04  0.7818609E-02  0.9114876E-01
       -2   -1    0    0    0  501  0.00000000000E+00  0.00000000000E+00  0.23199615745E+03  0.23199615747E+03  0.25500000920E-02 0.  1.
        2   -1    0    0  501    0  0.00000000000E+00  0.00000000000E+00 -0.15457961785E+04  0.15457961785E+04  0.25500000920E-02 0. -1.
    10030    2    1    2    0    0  0.00000000000E+00  0.00000000000E+00 -0.13138000210E+04  0.17777923359E+04  0.11976957437E+04 0.  0.
        2    1    3    3  502    0 -0.37027733940E+03  0.46129193158E+03 -0.51826499944E+03  0.78644399919E+03  0.25500000920E-02 0.  1.
       -2    1    3    3    0  502  0.37027733940E+03 -0.46129193158E+03 -0.79553502158E+03  0.99134833675E+03  0.25500000920E-02 0. -1.
</event>
<event>
 5   0  0.1567019E-03  0.1103792E+04  0.7818609E-02  0.9201504E-01
        2   -1    0    0  501    0  0.00000000000E+00  0.00000000000E+00  0.71746185143E+03  0.71746185144E+03  0.25500000920E-02 0.  1.
       -2   -1    0    0    0  501  0.00000000000E+00  0.00000000000E+00 -0.42453714117E+03  0.42453714118E+03  0.25500000920E-02 0. -1.
    10030    2    1    2    0    0  0.00000000000E+00  0.00000000000E+00  0.29292471026E+03  0.11419989926E+04  0.11037920154E+04 0.  0.
        5    1    3    3  502    0  0.53294550888E+03  0.11679271605E+03  0.23237683642E+03  0.59303670886E+03  0.46999998093E+01 0. -1.
       -5    1    3    3    0  502 -0.53294550888E+03 -0.11679271605E+03  0.60547873841E+02  0.54896228375E+03  0.46999998093E+01 0.  1.
</event>
<event>
 5   0  0.6137750E-04  0.1190289E+04  0.7818609E-02  0.9121400E-01
       -4   -1    0    0    0  501  0.00000000000E+00  0.00000000000E+00  0.34224245296E+03  0.34224480932E+03  0.12699999809E+01 0. -1.
        4   -1    0    0  501    0  0.00000000000E+00  0.00000000000E+00 -0.10349231154E+04  0.10349238947E+04  0.12699999809E+01 0.  1.
    10030    2    1    2    0    0  0.00000000000E+00  0.00000000000E+00 -0.69268066249E+03  0.13771687040E+04  0.11902886789E+04 0.  0.
        2    1    3    3  502    0 -0.15852867469E+03 -0.43008279440E+03 -0.78553609581E+03  0.90948859727E+03  0.25500000920E-02 0.  1.
       -2    1    3    3    0  502  0.15852867469E+03  0.43008279440E+03  0.92855433319E+02  0.46768010674E+03  0.25500000920E-02 0. -1.
</event>
<event>
 5   0  0.9170776E-04  0.1199143E+04  0.7818609E-02  0.9113607E-01
       -1   -1    0    0    0  501  0.00000000000E+00  0.00000000000E+00  0.63296386544E+03  0.63296386546E+03  0.50400001928E-02 0.  1.
        1   -1    0    0  501    0  0.00000000000E+00  0.00000000000E+00 -0.56794064589E+03  0.56794064591E+03  0.50400001928E-02 0. -1.
    10030    2    1    2    0    0  0.00000000000E+00  0.00000000000E+00  0.65023219549E+02  0.12009045114E+04  0.11991428715E+04 0.  0.
        5    1    3    3  502    0  0.17171412237E+03  0.56974609716E+03 -0.40858981147E+02  0.59647959009E+03  0.46999998093E+01 0. -1.
       -5    1    3    3    0  502 -0.17171412237E+03 -0.56974609716E+03  0.10588220070E+03  0.60442492129E+03  0.46999998093E+01 0.  1.
</event>
<event>
 5   0  0.1551501E-03  0.1207280E+04  0.7818609E-02  0.9106508E-01
        2   -1    0    0  501    0  0.00000000000E+00  0.00000000000E+00  0.16222452672E+04  0.16222452672E+04  0.25500000920E-02 0.  1.
       -2   -1    0    0    0  501  0.00000000000E+00  0.00000000000E+00 -0.22461541565E+03  0.22461541566E+03  0.25500000920E-02 0. -1.
    10030    2    1    2    0    0  0.00000000000E+00  0.00000000000E+00  0.13976298515E+04  0.18468606829E+04  0.12072800752E+04 0.  0.
        4    1    3    3  502    0  0.19802892201E+03 -0.51468004296E+03  0.32326130968E+03  0.63922647615E+03  0.12699999809E+01 0. -1.
       -4    1    3    3    0  502 -0.19802892201E+03  0.51468004296E+03  0.10743685419E+04  0.12076342067E+04  0.12699999809E+01 0.  1.
</event>
<event>
 5   0  0.9208078E-04  0.1195299E+04  0.7818609E-02  0.9116982E-01
       -1   -1    0    0    0  501  0.00000000000E+00  0.00000000000E+00  0.40668178576E+03  0.40668178580E+03  0.50400001928E-02 0. -1.
        1   -1    0    0  501    0  0.00000000000E+00  0.00000000000E+00 -0.87829032170E+03  0.87829032172E+03  0.50400001928E-02 0.  1.
    10030    2    1    2    0    0  0.00000000000E+00  0.00000000000E+00 -0.47160853594E+03  0.12849721075E+04  0.11952985844E+04 0.  0.
        3    1    3    3  502    0 -0.21143815455E+03 -0.43230249766E+03  0.14517402048E+03  0.50265997365E+03  0.10100000352E+00 0. -1.
       -3    1    3    3    0  502  0.21143815455E+03  0.43230249766E+03 -0.61678255642E+03  0.78231213386E+03  0.10100000352E+00 0.  1.
</event>
<event>
 5   0  0.9358428E-04  0.1178088E+04  0.7818609E-02  0.9132255E-01
       -1   -1    0    0    0  501  0.00000000000E+00  0.00000000000E+00  0.22098376767E+03  0.22098376773E+03  0.50400001928E-02 0. -1.
        1   -1    0    0  501    0  0.00000000000E+00  0.00000000000E+00 -0.15701278205E+04  0.15701278205E+04  0.50400001928E-02 0.  1.
    10030    2    1    2    0    0  0.00000000000E+00  0.00000000000E+00 -0.13491440529E+04  0.17911115883E+04  0.11780878771E+04 0.  0.
        2    1    3    3  502    0 -0.49735207862E+03 -0.29745947712E+03 -0.83497868986E+03  0.10163811505E+04  0.25500000920E-02 0. -1.
       -2    1    3    3    0  502  0.49735207862E+03  0.29745947712E+03 -0.51416536300E+03  0.77473043773E+03  0.25500000920E-02 0.  1.
</event>
<event>
 5   0  0.1537557E-03  0.1198703E+04  0.7818609E-02  0.9113992E-01
        2   -1    0    0  501    0  0.00000000000E+00  0.00000000000E+00  0.16376291549E+04  0.16376291549E+04  0.25500000920E-02 0.  1.
       -2   -1    0    0    0  501  0.00000000000E+00  0.00000000000E+00 -0.21935518344E+03  0.21935518346E+03  0.25500000920E-02 0. -1.
    10030    2    1    2    0    0  0.00000000000E+00  0.00000000000E+00  0.14182739714E+04  0.18569843383E+04  0.11987033723E+04 0.  0.
        2    1    3    3  502    0  0.41678690210E+03 -0.42096274915E+03  0.85028488774E+03  0.10362940453E+04  0.25500000920E-02 0.  1.
       -2    1    3    3    0  502 -0.41678690210E+03  0.42096274915E+03  0.56798908369E+03  0.82069029307E+03  0.25500000920E-02 0. -1.
</event>
<event>
 5   0  0.1647550E-03  0.1191433E+04  0.7818609E-02  0.9120388E-01
        2   -1    0    0  501    0  0.00000000000E+00  0.00000000000E+00  0.13900517439E+04  0.13900517439E+04  0.25500000920E-02 0.  1.
       -2   -1    0    0    0  501  0.00000000000E+00  0.00000000000E+00 -0.25529862425E+03  0.25529862427E+03  0.25500000920E-02 0. -1.
    10030    2    1    2    0    0  0.00000000000E+00  0.00000000000E+00  0.11347531196E+04  0.16453503682E+04  0.11914332510E+04 0.  0.
        3    1    3    3  502    0  0.36119286965E+03  0.35868288966E+03  0.99473387063E+03  0.11174118256E+04  0.10100000352E+00 0.  1.
       -3    1    3    3    0  502 -0.36119286965E+03 -0.35868288966E+03  0.14001924902E+03  0.52793854256E+03  0.10100000352E+00 0. -1.
</event>
<event>
 5   0  0.8908478E-04  0.1203634E+04  0.7818609E-02  0.9109682E-01
       -1   -1    0    0    0  501  0.00000000000E+00  0.00000000000E+00  0.77936036434E+03  0.77936036435E+03  0.50400001928E-02 0.  1.
        1   -1    0    0  501    0  0.00000000000E+00  0.00000000000E+00 -0.46471888578E+03  0.46471888580E+03  0.50400001928E-02 0. -1.
    10030    2    1    2    0    0  0.00000000000E+00  0.00000000000E+00  0.31464147856E+03  0.12440792502E+04  0.12036336322E+04 0.  0.
        4    1    3    3  502    0 -0.10880905708E+03  0.48843235820E+03 -0.18824332508E+03  0.53464262996E+03  0.12699999809E+01 0. -1.
       -4    1    3    3    0  502  0.10880905708E+03 -0.48843235820E+03  0.50288480364E+03  0.70943662019E+03  0.12699999809E+01 0.  1.
</event>
<event>
 5   0  0.1647550E-03  0.1211461E+04  0.7818609E-02  0.9102883E-01
        2   -1    0    0  501    0  0.00000000000E+00  0.00000000000E+00  0.56988328767E+03  0.56988328767E+03  0.25500000920E-02 0.  1.
       -2   -1    0    0    0  501  0.00000000000E+00  0.00000000000E+00 -0.64383260155E+03  0.64383260156E+03  0.25500000920E-02 0. -1.
    10030    2    1    2    0    0  0.00000000000E+00  0.00000000000E+00 -0.73949313883E+02  0.12137158892E+04  0.12114610017E+04 0.  0.
        3    1    3    3  502    0 -0.51183285448E+03 -0.13947747870E+03  0.25594359864E+03  0.58901101337E+03  0.10100000352E+00 0.  1.
       -3    1    3    3    0  502  0.51183285448E+03  0.13947747870E+03 -0.32989291252E+03  0.62470487586E+03  0.10100000352E+00 0. -1.
</event>
<event>
 5   0  0.9208078E-04  0.1195734E+04  0.7818609E-02  0.9116598E-01
        1   -1    0    0  501    0  0.00000000000E+00  0.00000000000E+00  0.13978307646E+04  0.13978307647E+04  0.50400001928E-02 0. -1.
       -1   -1    0    0    0  501  0.00000000000E+00  0.00000000000E+00 -0.25571419755E+03  0.25571419760E+03  0.50400001928E-02 0.  1.
    10030    2    1    2    0    0  0.00000000000E+00  0.00000000000E+00  0.11421165671E+04  0.16535449623E+04  0.11957343724E+04 0.  0.
        3    1    3    3  502    0  0.61846729199E+02  0.35134262373E+02  0.13919586512E+04  0.13937748495E+04  0.10100000352E+00 0. -1.
       -3    1    3    3    0  502 -0.61846729199E+02 -0.35134262373E+02 -0.24984208408E+03  0.25977011276E+03  0.10100000352E+00 0.  1.
</event>
<event>
 5   0  0.1537557E-03  0.1195576E+04  0.7818609E-02  0.9116738E-01
        2   -1    0    0  501    0  0.00000000000E+00  0.00000000000E+00  0.36974715409E+03  0.36974715410E+03  0.25500000920E-02 0.  1.
       -2   -1    0    0    0  501  0.00000000000E+00  0.00000000000E+00 -0.96647233032E+03  0.96647233033E+03  0.25500000920E-02 0. -1.
    10030    2    1    2    0    0  0.00000000000E+00  0.00000000000E+00 -0.59672517623E+03  0.13362194844E+04  0.11955758339E+04 0.  0.
        2    1    3    3  502    0  0.53416679311E+02 -0.56222371656E+03 -0.79347003936E+02  0.57030237255E+03  0.25500000920E-02 0.  1.
       -2    1    3    3    0  502 -0.53416679311E+02  0.56222371656E+03 -0.51737817230E+03  0.76591711188E+03  0.25500000920E-02 0. -1.
</event>
<event>
 5   0  0.1647550E-03  0.1187366E+04  0.7818609E-02  0.9123988E-01
       -2   -1    0    0    0  501  0.00000000000E+00  0.00000000000E+00  0.48292669974E+03  0.48292669974E+03  0.25500000920E-02 0. -1.
        2   -1    0    0  501    0  0.00000000000E+00  0.00000000000E+00 -0.72984019633E+03  0.72984019634E+03  0.25500000920E-02 0.  1.
    10030    2    1    2    0    0  0.00000000000E+00  0.00000000000E+00 -0.24691349660E+03  0.12127668961E+04  0.11873656848E+04 0.  0.
        3    1    3    3  502    0  0.26557326735E+03  0.11743398401E+03 -0.65235625504E+03  0.71406483923E+03  0.10100000352E+00 0.  1.
       -3    1    3    3    0  502 -0.26557326735E+03 -0.11743398401E+03  0.40544275845E+03  0.49870205685E+03  0.10100000352E+00 0. -1.
</event>
<event>
 5   0  0.1597352E-03  0.1199407E+04  0.7818609E-02  0.9113376E-01
        2   -1    0    0  501    0  0.00000000000E+00  0.00000000000E+00  0.87163678190E+03  0.87163678190E+03  0.25500000920E-02 0. -1.
       -2   -1    0    0    0  501  0.00000000000E+00  0.00000000000E+00 -0.41260792720E+03  0.41260792721E+03  0.25500000920E-02 0.  1.
    10030    2    1    2    0    0  0.00000000000E+00  0.00000000000E+00  0.45902885470E+03  0.12842447091E+04  0.11994069299E+04 0.  0.
        1    1    3    3  502    0 -0.42836925675E+03  0.27821624916E+02 -0.21887861100E+03  0.48185278802E+03  0.50400001928E-02 0.  1.
       -1    1    3    3    0  502  0.42836925675E+03 -0.27821624916E+02  0.67790746570E+03  0.80239192109E+03  0.50400001928E-02 0. -1.
</event>
<event>
 5   0  0.8908478E-04  0.1196929E+04  0.7818609E-02  0.9115549E-01
       -1   -1    0    0    0  501  0.00000000000E+00  0.00000000000E+00  0.24204600408E+03  0.24204600413E+03  0.50400001928E-02 0. -1.
        1   -1    0    0  501    0  0.00000000000E+00  0.00000000000E+00 -0.14797178394E+04  0.14797178394E+04  0.50400001928E-02 0.  1.
    10030    2    1    2    0    0  0.00000000000E+00  0.00000000000E+00 -0.12376718353E+04  0.17217638435E+04  0.11969290543E+04 0.  0.
        4    1    3    3  502    0  0.31872944703E+03 -0.48527222875E+03 -0.40998015538E+03  0.71074815308E+03  0.12699999809E+01 0. -1.
       -4    1    3    3    0  502 -0.31872944703E+03  0.48527222875E+03 -0.82769167991E+03  0.10110156904E+04  0.12699999809E+01 0.  1.
</event>
<event>
 5   0  0.1647550E-03  0.1203913E+04  0.7818609E-02  0.9109438E-01
        2   -1    0    0  501    0  0.00000000000E+00  0.00000000000E+00  0.12818293028E+04  0.12818293028E+04  0.25500000920E-02 0.  1.
       -2   -1    0    0    0  501  0.00000000000E+00  0.00000000000E+00 -0.28268315605E+03  0.28268315606E+03  0.25500000920E-02 0. -1.
    10030    2    1    2    0    0  0.00000000000E+00  0.00000000000E+00  0.99914614674E+03  0.15645124588E+04  0.12039128753E+04 0.  0.
        3    1    3    3  502    0  0.84889784742E+02 -0.24735289153E+03  0.12041516377E+04  0.12322219383E+04  0.10100000352E+00 0.  1.
       -3    1    3    3    0  502 -0.84889784742E+02  0.24735289153E+03 -0.20500549097E+03  0.33229052052E+03  0.10100000352E+00 0. -1.
</event>
<event>
 5   0  0.8908478E-04  0.1199189E+04  0.7818609E-02  0.9113567E-01
        1   -1    0    0  501    0  0.00000000000E+00  0.00000000000E+00  0.30519235430E+03  0.30519235434E+03  0.50400001928E-02 0.  1.
       -1   -1    0    0    0  501  0.00000000000E+00  0.00000000000E+00 -0.11779896529E+04  0.11779896529E+04  0.50400001928E-02 0. -1.
    10030    2    1    2    0    0  0.00000000000E+00  0.00000000000E+00 -0.87279729856E+03  0.14831820072E+04  0.11991887850E+04 0.  0.
        4    1    3    3  502    0 -0.56476023027E+03  0.13332260151E+03 -0.62308403988E+03  0.85144839387E+03  0.12699999809E+01 0.  1.
       -4    1    3    3    0  502  0.56476023027E+03 -0.13332260151E+03 -0.24971325868E+03  0.63173361335E+03  0.12699999809E+01 0. -1.
</event>
<event>
 5   0  0.1567019E-03  0.1196042E+04  0.7818609E-02  0.9116328E-01
       -2   -1    0    0    0  501  0.00000000000E+00  0.00000000000E+00  0.39997623640E+03  0.39997623641E+03  0.25500000920E-02 0.  1.
        2   -1    0    0  501    0  0.00000000000E+00  0.00000000000E+00 -0.89412591239E+03  0.89412591239E+03  0.25500000920E-02 0. -1.
    10030    2    1    2    0    0  0.00000000000E+00  0.00000000000E+00 -0.49414967598E+03  0.12941021488E+04  0.11960420015E+04 0.  0.
        5    1    3    3  502    0  0.40770041170E+03 -0.17122631093E+03 -0.68265895887E+03  0.81337778392E+03  0.46999998093E+01 0. -1.
       -5    1    3    3    0  502 -0.40770041170E+03  0.17122631093E+03  0.18850928288E+03  0.48072436488E+03  0.46999998093E+01 0.  1.
</event>
<event>
 5   0  0.8908478E-04  0.1199481E+04  0.7818609E-02  0.9113311E-01
       -1   -1    0    0    0  501  0.00000000000E+00  0.00000000000E+00  0.37765779031E+03  0.37765779035E+03  0.50400001928E-02 0.  1.
        1   -1    0    0  501    0  0.00000000000E+00  0.00000000000E+00 -0.95241958586E+03  0.95241958588E+03  0.50400001928E-02 0. -1.
    10030    2    1    2    0    0  0.00000000000E+00  0.00000000000E+00 -0.57476179555E+03  0.13300773762E+04  0.11994810149E+04 0.  0.
        4    1    3    3  502    0  0.83364568596E+02 -0.58555912563E+03 -0.17728370965E+03  0.61746276609E+03  0.12699999809E+01 0.  1.
       -4    1    3    3    0  502 -0.83364568596E+02  0.58555912563E+03 -0.39747808590E+03  0.71261461013E+03  0.12699999809E+01 0. -1.
</event>
<event>
 5   0  0.9208078E-04  0.1200252E+04  0.7818609E-02  0.9112636E-01
        1   -1    0    0  501    0  0.00000000000E+00  0.00000000000E+00  0.17405675576E+04  0.17405675576E+04  0.50400001928E-02 0.  1.
       -1   -1    0    0    0  501  0.00000000000E+00  0.00000000000E+00 -0.20691590833E+03  0.20691590839E+03  0.50400001928E-02 0. -1.
    10030    2    1    2    0    0  0.00000000000E+00  0.00000000000E+00  0.15336516493E+04  0.19474834660E+04  0.12002518357E+04 0.  0.
        3    1    3    3  502    0  0.55648139313E+03  0.21240534203E+02  0.11297448472E+04  0.12595420323E+04  0.10100000352E+00 0.  1.
       -3    1    3    3    0  502 -0.55648139313E+03 -0.21240534203E+02  0.40390680204E+03  0.68794143365E+03  0.10100000352E+00 0. -1.
</event>
<event>
 5   0  0.1597352E-03  0.1199746E+04  0.7818609E-02  0.9113079E-01
       -2   -1    0    0    0  501  0.00000000000E+00  0.00000000000E+00  0.43584598331E+03  0.43584598332E+03  0.25500000920E-02 0.  1.
        2   -1    0    0  501    0  0.00000000000E+00  0.00000000000E+00 -0.82563068050E+03  0.82563068051E+03  0.25500000920E-02 0. -1.
    10030    2    1    2    0    0  0.00000000000E+00  0.00000000000E+00 -0.38978469719E+03  0.12614766638E+04  0.11997463329E+04 0.  0.
        1    1    3    3  502    0 -0.52209625014E+03  0.27100649422E+03 -0.31849420069E+03  0.66893016841E+03  0.50400001928E-02 0. -1.
       -1    1    3    3    0  502  0.52209625014E+03 -0.27100649422E+03 -0.71290496497E+02  0.59254649542E+03  0.50400001928E-02 0.  1.
</event>
<event>
 5   0  0.1551501E-03  0.1215059E+04  0.7818609E-02  0.9099777E-01
        2   -1    0    0  501    0  0.00000000000E+00  0.00000000000E+00  0.70966629265E+03  0.70966629265E+03  0.25500000920E-02 0.  1.
       -2   -1    0    0    0  501  0.00000000000E+00  0.00000000000E+00 -0.52009229082E+03  0.52009229083E+03  0.25500000920E-02 0. -1.
    10030    2    1    2    0    0  0.00000000000E+00  0.00000000000E+00  0.18957400182E+03  0.12297585835E+04  0.12150587934E+04 0.  0.
        4    1    3    3  502    0 -0.36181537230E+03  0.36707684555E+03 -0.23071633898E+03  0.56470117420E+03  0.12699999809E+01 0. -1.
       -4    1    3    3    0  502  0.36181537230E+03 -0.36707684555E+03  0.42029034081E+03  0.66505740928E+03  0.12699999809E+01 0.  1.
</event>
<event>
 5   0  0.1647550E-03  0.1207775E+04  0.7818609E-02  0.9106078E-01
        2   -1    0    0  501    0  0.00000000000E+00  0.00000000000E+00  0.59511656997E+03  0.59511656997E+03  0.25500000920E-02 0. -1.
       -2   -1    0    0    0  501  0.00000000000E+00  0.00000000000E+00 -0.61278738138E+03  0.61278738139E+03  0.25500000920E-02 0.  1.
    10030    2    1    2    0    0  0.00000000000E+00  0.00000000000E+00 -0.17670811411E+02  0.12079039514E+04  0.12077746885E+04 0.  0.
        3    1    3    3  502    0  0.46757121566E+03 -0.37446519692E+03 -0.85216931737E+02  0.60506938534E+03  0.10100000352E+00 0. -1.
       -3    1    3    3    0  502 -0.46757121566E+03  0.37446519692E+03  0.67546120326E+02  0.60283456602E+03  0.10100000352E+00 0.  1.
</event>
<event>
 5   0  0.9358428E-04  0.1181619E+04  0.7818609E-02  0.9129099E-01
        1   -1    0    0  501    0  0.00000000000E+00  0.00000000000E+00  0.69597159708E+03  0.69597159709E+03  0.50400001928E-02 0. -1.
       -1   -1    0    0    0  501  0.00000000000E+00  0.00000000000E+00 -0.50153771924E+03  0.50153771926E+03  0.50400001928E-02 0.  1.
    10030    2    1    2    0    0  0.00000000000E+00  0.00000000000E+00  0.19443387784E+03  0.11975093164E+04  0.11816192407E+04 0.  0.
        2    1    3    3  502    0  0.26876717249E+03 -0.89660304594E+02 -0.42819607637E+03  0.51344585211E+03  0.25500000920E-02 0.  1.
       -2    1    3    3    0  502 -0.26876717249E+03  0.89660304594E+02  0.62262995421E+03  0.68406346424E+03  0.25500000920E-02 0. -1.
</event>
<event>
 5   0  0.9358428E-04  0.1204610E+04  0.7818609E-02  0.9108831E-01
       -1   -1    0    0    0  501  0.00000000000E+00  0.00000000000E+00  0.79712721046E+03  0.79712721047E+03  0.50400001928E-02 0. -1.
        1   -1    0    0  501    0  0.00000000000E+00  0.00000000000E+00 -0.45509834148E+03  0.45509834151E+03  0.50400001928E-02 0.  1.
    10030    2    1    2    0    0  0.00000000000E+00  0.00000000000E+00  0.34202886898E+03  0.12522255520E+04  0.12046099310E+04 0.  0.
        2    1    3    3  502    0  0.54086034428E+02  0.57210822629E+00  0.79459740678E+03  0.79643622801E+03  0.25500000920E-02 0. -1.
       -2    1    3    3    0  502 -0.54086034428E+02 -0.57210822629E+00 -0.45256853780E+03  0.45578932396E+03  0.25500000920E-02 0.  1.
</event>
<event>
 5   0  0.1567019E-03  0.1203667E+04  0.7818609E-02  0.9109653E-01
        2   -1    0    0  501    0  0.00000000000E+00  0.00000000000E+00  0.10927157525E+04  0.10927157525E+04  0.25500000920E-02 0. -1.
       -2   -1    0    0    0  501  0.00000000000E+00  0.00000000000E+00 -0.33147100232E+03  0.33147100233E+03  0.25500000920E-02 0.  1.
    10030    2    1    2    0    0  0.00000000000E+00  0.00000000000E+00  0.76124475019E+03  0.14241867548E+04  0.12036670399E+04 0.  0.
        5    1    3    3  502    0  0.41087262560E+03  0.14550654900E+03  0.87160752000E+03  0.97453077386E+03  0.46999998093E+01 0. -1.
       -5    1    3    3    0  502 -0.41087262560E+03 -0.14550654900E+03 -0.11036276982E+03  0.44965598098E+03  0.46999998093E+01 0.  1.
</event>
<event>
 5   0  0.9169078E-04  0.1195162E+04  0.7818609E-02  0.9117102E-01
       -1   -1    0    0    0  501  0.00000000000E+00  0.00000000000E+00  0.40187608085E+03  0.40187608088E+03  0.50400001928E-02 0. -1.
        1   -1    0    0  501    0  0.00000000000E+00  0.00000000000E+00 -0.88858961231E+03  0.88858961232E+03  0.50400001928E-02 0.  1.
    10030    2    1    2    0    0  0.00000000000E+00  0.00000000000E+00 -0.48671353146E+03  0.12904656932E+04  0.11951617646E+04 0.  0.
        1    1    3    3  502    0  0.73424778229E+02 -0.12616800250E+03  0.38232834001E+03  0.40924872940E+03  0.50400001928E-02 0. -1.
       -1    1    3    3    0  502 -0.73424778229E+02  0.12616800250E+03 -0.86904187147E+03  0.88121696381E+03  0.50400001928E-02 0.  1.
</event>
<event>
 5   0  0.1597352E-03  0.1200127E+04  0.7818609E-02  0.9112746E-01
       -2   -1    0    0    0  501  0.00000000000E+00  0.00000000000E+00  0.62376428196E+03  0.62376428196E+03  0.25500000920E-02 0. -1.
        2   -1    0    0  501    0  0.00000000000E+00  0.00000000000E+00 -0.57726298950E+03  0.57726298950E+03  0.25500000920E-02 0.  1.
    10030    2    1    2    0    0  0.00000000000E+00  0.00000000000E+00  0.46501292464E+02  0.12010272715E+04  0.12001267169E+04 0.  0.
        1    1    3    3  502    0 -0.13912963414E+03  0.17590256013E+03  0.58024467307E+03  0.62207929270E+03  0.50400001928E-02 0. -1.
       -1    1    3    3    0  502  0.13912963414E+03 -0.17590256013E+03 -0.53374338060E+03  0.57894797877E+03  0.50400001928E-02 0.  1.
</event>
<event>
 5   0  0.6137750E-04  0.1198747E+04  0.7818609E-02  0.9113954E-01
        4   -1    0    0  501    0  0.00000000000E+00  0.00000000000E+00  0.15559360020E+04  0.15559365203E+04  0.12699999809E+01 0.  1.
       -4   -1    0    0    0  501  0.00000000000E+00  0.00000000000E+00 -0.23088677326E+03  0.23089026607E+03  0.12699999809E+01 0. -1.
    10030    2    1    2    0    0  0.00000000000E+00  0.00000000000E+00  0.13250492288E+04  0.17868267864E+04  0.11987470567E+04 0.  0.
        3    1    3    3  502    0  0.17234303230E+03 -0.56752729969E+03  0.79126142983E+03  0.98888018345E+03  0.10100000352E+00 0.  1.
       -3    1    3    3    0  502 -0.17234303230E+03  0.56752729969E+03  0.53378779893E+03  0.79794660295E+03  0.10100000352E+00 0. -1.
</event>
<event>
 5   0  0.8908478E-04  0.1189181E+04  0.7818609E-02  0.9122380E-01
        1   -1    0    0  501    0  0.00000000000E+00  0.00000000000E+00  0.45419671056E+03  0.45419671059E+03  0.50400001928E-02 0.  1.
       -1   -1    0    0    0  501  0.00000000000E+00  0.00000000000E+00 -0.77838005249E+03  0.77838005251E+03  0.50400001928E-02 0. -1.
    10030    2    1    2    0    0  0.00000000000E+00  0.00000000000E+00 -0.32418334194E+03  0.12325767631E+04  0.11891806582E+04 0.  0.
        4    1    3    3  502    0  0.21486533091E+03  0.22532804716E+03 -0.68713029799E+03  0.75438020824E+03  0.12699999809E+01 0. -1.
       -4    1    3    3    0  502 -0.21486533091E+03 -0.22532804716E+03  0.36294695606E+03  0.47819655486E+03  0.12699999809E+01 0.  1.
</event>
<event>
 5   0  0.9170776E-04  0.1210657E+04  0.7818609E-02  0.9103579E-01
        1   -1    0    0  501    0  0.00000000000E+00  0.00000000000E+00  0.32431170228E+03  0.32431170232E+03  0.50400001928E-02 0.  1.
       -1   -1    0    0    0  501  0.00000000000E+00  0.00000000000E+00 -0.11298470693E+04  0.11298470693E+04  0.50400001928E-02 0. -1.
    10030    2    1    2    0    0  0.00000000000E+00  0.00000000000E+00 -0.80553536697E+03  0.14541587716E+04  0.12106570553E+04 0.  0.
        5    1    3    3  502    0  0.46736623260E+03 -0.22065589743E+03 -0.78122967060E+03  0.93672947465E+03  0.46999998093E+01 0. -1.
       -5    1    3    3    0  502 -0.46736623260E+03  0.22065589743E+03 -0.24305696375E+02  0.51742929693E+03  0.46999998093E+01 0.  1.
</event>
<event>
 5   0  0.1551501E-03  0.1196888E+04  0.7818609E-02  0.9115585E-01
        2   -1    0    0  501    0  0.00000000000E+00  0.00000000000E+00  0.45087665047E+03  0.45087665048E+03  0.25500000920E-02 0. -1.
       -2   -1    0    0    0  501  0.00000000000E+00  0.00000000000E+00 -0.79430905399E+03  0.79430905399E+03  0.25500000920E-02 0.  1.
    10030    2    1    2    0    0  0.00000000000E+00  0.00000000000E+00 -0.34343240351E+03  0.12451857045E+04  0.11968883084E+04 0.  0.
        4    1    3    3  502    0  0.35726859305E+03  0.47901357744E+03 -0.20524942401E+03  0.63184158925E+03  0.12699999809E+01 0. -1.
       -4    1    3    3    0  502 -0.35726859305E+03 -0.47901357744E+03 -0.13818297950E+03  0.61334411522E+03  0.12699999809E+01 0.  1.
</event>
<event>
 5   0  0.9170776E-04  0.1241057E+04  0.7818609E-02  0.9077660E-01
        1   -1    0    0  501    0  0.00000000000E+00  0.00000000000E+00  0.10914660125E+04  0.10914660125E+04  0.50400001928E-02 0. -1.
       -1   -1    0    0    0  501  0.00000000000E+00  0.00000000000E+00 -0.35278746298E+03  0.35278746301E+03  0.50400001928E-02 0.  1.
    10030    2    1    2    0    0  0.00000000000E+00  0.00000000000E+00  0.73867854947E+03  0.14442534755E+04  0.12410568488E+04 0.  0.
        5    1    3    3  502    0 -0.14658959466E+03  0.32582693601E+03 -0.22105291955E+03  0.42016447343E+03  0.46999998093E+01 0.  1.
       -5    1    3    3    0  502  0.14658959466E+03 -0.32582693601E+03  0.95973146902E+03  0.10240890021E+04  0.46999998093E+01 0. -1.
</event>
<event>
 5   0  0.1537557E-03  0.1204908E+04  0.7818609E-02  0.9108571E-01
       -2   -1    0    0    0  501  0.00000000000E+00  0.00000000000E+00  0.25838622578E+03  0.25838622579E+03  0.25500000920E-02 0. -1.
        2   -1    0    0  501    0  0.00000000000E+00  0.00000000000E+00 -0.14046834837E+04  0.14046834837E+04  0.25500000920E-02 0.  1.
    10030    2    1    2    0    0  0.00000000000E+00  0.00000000000E+00 -0.11462972579E+04  0.16630697094E+04  0.12049080691E+04 0.  0.
        2    1    3    3  502    0 -0.57036733948E+03 -0.11559413741E+01 -0.84089726059E+03  0.10160848592E+04  0.25500000920E-02 0. -1.
       -2    1    3    3    0  502  0.57036733948E+03  0.11559413741E+01 -0.30539999728E+03  0.64698485028E+03  0.25500000920E-02 0.  1.
</event>
<event>
 5   0  0.9358428E-04  0.1195535E+04  0.7818609E-02  0.9116774E-01
        1   -1    0    0  501    0  0.00000000000E+00  0.00000000000E+00  0.10597687582E+04  0.10597687582E+04  0.50400001928E-02 0. -1.
       -1   -1    0    0    0  501  0.00000000000E+00  0.00000000000E+00 -0.33717345659E+03  0.33717345663E+03  0.50400001928E-02 0.  1.
    10030    2    1    2    0    0  0.00000000000E+00  0.00000000000E+00  0.72259530157E+03  0.13969422148E+04  0.11955348517E+04 0.  0.
        2    1    3    3  502    0  0.51565316821E+03  0.99665697447E+02  0.27732840122E+02  0.52592827606E+03  0.25500000920E-02 0.  1.
       -2    1    3    3    0  502 -0.51565316821E+03 -0.99665697447E+02  0.69486246145E+03  0.87101393874E+03  0.25500000920E-02 0. -1.
</event>
<event>
 5   0  0.8908478E-04  0.1204458E+04  0.7818609E-02  0.9108963E-01
       -1   -1    0    0    0  501  0.00000000000E+00  0.00000000000E+00  0.85144050422E+03  0.85144050424E+03  0.50400001928E-02 0. -1.
        1   -1    0    0  501    0  0.00000000000E+00  0.00000000000E+00 -0.42596050736E+03  0.42596050739E+03  0.50400001928E-02 0.  1.
    10030    2    1    2    0    0  0.00000000000E+00  0.00000000000E+00  0.42547999687E+03  0.12774010116E+04  0.12044584330E+04 0.  0.
        4    1    3    3  502    0  0.51631820859E+03  0.28560831268E+03  0.34054442511E+03  0.68126993121E+03  0.12699999809E+01 0. -1.
       -4    1    3    3    0  502 -0.51631820859E+03 -0.28560831268E+03  0.84935571755E+02  0.59613108042E+03  0.12699999809E+01 0.  1.
</event>
<event>
 5   0  0.1537557E-03  0.1197925E+04  0.7818609E-02  0.9114675E-01
        2   -1    0    0  501    0  0.00000000000E+00  0.00000000000E+00  0.71944586037E+03  0.71944586037E+03  0.25500000920E-02 0. -1.
       -2   -1    0    0    0  501  0.00000000000E+00  0.00000000000E+00 -0.49865584435E+03  0.49865584436E+03  0.25500000920E-02 0.  1.
    10030    2    1    2    0    0  0.00000000000E+00  0.00000000000E+00  0.22079001601E+03  0.12181017047E+04  0.11979246771E+04 0.  0.
        2    1    3    3  502    0 -0.59507228346E+03 -0.42039540438E+02  0.16494121206E+03  0.61893775854E+03  0.25500000920E-02 0. -1.
       -2    1    3    3    0  502  0.59507228346E+03  0.42039540438E+02  0.55848803948E+02  0.59916394619E+03  0.25500000920E-02 0.  1.
</event>
<event>
 5   0  0.1551501E-03  0.1197170E+04  0.7818609E-02  0.9115338E-01
        2   -1    0    0  501    0  0.00000000000E+00  0.00000000000E+00  0.59203615049E+03  0.59203615050E+03  0.25500000920E-02 0.  1.
       -2   -1    0    0    0  501  0.00000000000E+00  0.00000000000E+00 -0.60520593531E+03  0.60520593531E+03  0.25500000920E-02 0. -1.
    10030    2    1    2    0    0  0.00000000000E+00  0.00000000000E+00 -0.13169784811E+02  0.11972420858E+04  0.11971696491E+04 0.  0.
        4    1    3    3  502    0  0.54918314401E+03 -0.19011913261E+03  0.13679312728E+03  0.59704387009E+03  0.12699999809E+01 0. -1.
       -4    1    3    3    0  502 -0.54918314401E+03  0.19011913261E+03 -0.14996291209E+03  0.60019821572E+03  0.12699999809E+01 0.  1.
</event>
<event>
 5   0  0.9358428E-04  0.1208287E+04  0.7818609E-02  0.9105634E-01
        1   -1    0    0  501    0  0.00000000000E+00  0.00000000000E+00  0.18969582882E+04  0.18969582882E+04  0.50400001928E-02 0. -1.
       -1   -1    0    0    0  501  0.00000000000E+00  0.00000000000E+00 -0.19240757328E+03  0.19240757335E+03  0.50400001928E-02 0.  1.
    10030    2    1    2    0    0  0.00000000000E+00  0.00000000000E+00  0.17045507149E+04  0.20893658616E+04  0.12082866232E+04 0.  0.
        2    1    3    3  502    0 -0.60293769906E+03  0.13792654791E+01  0.78635302547E+03  0.99090203956E+03  0.25500000920E-02 0.  1.
       -2    1    3    3    0  502  0.60293769906E+03 -0.13792654791E+01  0.91819768945E+03  0.10984638220E+04  0.25500000920E-02 0. -1.
</event>
<event>
 5   0  0.9169078E-04  0.1193901E+04  0.7818609E-02  0.9118212E-01
       -1   -1    0    0    0  501  0.00000000000E+00  0.00000000000E+00  0.11128794633E+04  0.11128794633E+04  0.50400001928E-02 0.  1.
        1   -1    0    0  501    0  0.00000000000E+00  0.00000000000E+00 -0.32020518253E+03  0.32020518257E+03  0.50400001928E-02 0. -1.
    10030    2    1    2    0    0  0.00000000000E+00  0.00000000000E+00  0.79267428080E+03  0.14330846459E+04  0.11939007860E+04 0.  0.
        1    1    3    3  502    0 -0.37745308197E+03 -0.12562468394E+02  0.95125324977E+03  0.10234800389E+04  0.50400001928E-02 0.  1.
       -1    1    3    3    0  502  0.37745308197E+03  0.12562468394E+02 -0.15857896898E+03  0.40960460706E+03  0.50400001928E-02 0. -1.
</event>
<event>
 5   0  0.8908478E-04  0.1209165E+04  0.7818609E-02  0.9104872E-01
       -1   -1    0    0    0  501  0.00000000000E+00  0.00000000000E+00  0.37565289304E+03  0.37565289307E+03  0.50400001928E-02 0.  1.
        1   -1    0    0  501    0  0.00000000000E+00  0.00000000000E+00 -0.97302517159E+03  0.97302517160E+03  0.50400001928E-02 0. -1.
    10030    2    1    2    0    0  0.00000000000E+00  0.00000000000E+00 -0.59737227855E+03  0.13486780647E+04  0.12091645392E+04 0.  0.
        4    1    3    3  502    0 -0.42849056915E+03  0.39533042576E+03 -0.12012847023E+03  0.59525017903E+03  0.12699999809E+01 0.  1.
       -4    1    3    3    0  502  0.42849056915E+03 -0.39533042576E+03 -0.47724380833E+03  0.75342788564E+03  0.12699999809E+01 0. -1.
</event>
<event>
 5   0  0.1551501E-03  0.1197304E+04  0.7818609E-02  0.9115220E-01
       -2   -1    0    0    0  501  0.00000000000E+00  0.00000000000E+00  0.82731221234E+03  0.82731221235E+03  0.25500000920E-02 0. -1.
        2   -1    0    0  501    0  0.00000000000E+00  0.00000000000E+00 -0.43319084692E+03  0.43319084693E+03  0.25500000920E-02 0.  1.
    10030    2    1    2    0    0  0.00000000000E+00  0.00000000000E+00  0.39412136542E+03  0.12605030593E+04  0.11973037675E+04 0.  0.
        4    1    3    3  502    0 -0.49958150887E+03 -0.66414332874E+02  0.53720939563E+03  0.73660579367E+03  0.12699999809E+01 0.  1.
       -4    1    3    3    0  502  0.49958150887E+03  0.66414332874E+02 -0.14308803021E+03  0.52389726560E+03  0.12699999809E+01 0. -1.
</event>
<event>
 5   0  0.9208078E-04  0.1190063E+04  0.7818609E-02  0.9121599E-01
       -1   -1    0    0    0  501  0.00000000000E+00  0.00000000000E+00  0.45191164645E+03  0.45191164648E+03  0.50400001928E-02 0. -1.
        1   -1    0    0  501    0  0.00000000000E+00  0.00000000000E+00 -0.78347669217E+03  0.78347669218E+03  0.50400001928E-02 0.  1.
    10030    2    1    2    0    0  0.00000000000E+00  0.00000000000E+00 -0.33156504572E+03  0.12353883387E+04  0.11900625898E+04 0.  0.
        3    1    3    3  502    0 -0.34871940844E+03  0.29627941415E+03  0.22906663162E+03  0.51172087020E+03  0.10100000352E+00 0. -1.
       -3    1    3    3    0  502  0.34871940844E+03 -0.29627941415E+03 -0.56063167734E+03  0.72366746846E+03  0.10100000352E+00 0.  1.
</event>
<event>
 5   0  0.9169078E-04  0.1205149E+04  0.7818609E-02  0.9108362E-01
       -1   -1    0    0    0  501  0.00000000000E+00  0.00000000000E+00  0.48186187702E+03  0.48186187705E+03  0.50400001928E-02 0. -1.
        1   -1    0    0  501    0  0.00000000000E+00  0.00000000000E+00 -0.75352684768E+03  0.75352684769E+03  0.50400001928E-02 0.  1.
    10030    2    1    2    0    0  0.00000000000E+00  0.00000000000E+00 -0.27166497065E+03  0.12353887247E+04  0.12051487232E+04 0.  0.
        1    1    3    3  502    0  0.56943399891E+03 -0.16783211133E+03 -0.24173580889E+03  0.64098275955E+03  0.50400001928E-02 0.  1.
       -1    1    3    3    0  502 -0.56943399891E+03  0.16783211133E+03 -0.29929161757E+02  0.59440596519E+03  0.50400001928E-02 0. -1.
</event>
<event>
 5   0  0.9169078E-04  0.1206270E+04  0.7818609E-02  0.9107386E-01
       -1   -1    0    0    0  501  0.00000000000E+00  0.00000000000E+00  0.53472431693E+03  0.53472431695E+03  0.50400001928E-02 0. -1.
        1   -1    0    0  501    0  0.00000000000E+00  0.00000000000E+00 -0.68029734156E+03  0.68029734158E+03  0.50400001928E-02 0.  1.
    10030    2    1    2    0    0  0.00000000000E+00  0.00000000000E+00 -0.14557302463E+03  0.12150216585E+04  0.12062695077E+04 0.  0.
        1    1    3    3  502    0  0.12039257208E+03  0.10005460504E+03 -0.65947827409E+03  0.67780298718E+03  0.50400001928E-02 0.  1.
       -1    1    3    3    0  502 -0.12039257208E+03 -0.10005460504E+03  0.51390524946E+03  0.53721867135E+03  0.50400001928E-02 0. -1.
</event>
<event>
 5   0  0.1551501E-03  0.1195591E+04  0.7818609E-02  0.9116724E-01
       -2   -1    0    0    0  501  0.00000000000E+00  0.00000000000E+00  0.47164703916E+03  0.47164703916E+03  0.25500000920E-02 0. -1.
        2   -1    0    0  501    0  0.00000000000E+00  0.00000000000E+00 -0.75768420552E+03  0.75768420553E+03  0.25500000920E-02 0.  1.
    10030    2    1    2    0    0  0.00000000000E+00  0.00000000000E+00 -0.28603716637E+03  0.12293312447E+04  0.11955910876E+04 0.  0.
        4    1    3    3  502    0 -0.43887885219E+03  0.80677062707E+02  0.26599411457E+03  0.51949775479E+03  0.12699999809E+01 0. -1.
       -4    1    3    3    0  502  0.43887885219E+03 -0.80677062707E+02 -0.55203128094E+03  0.70983348990E+03  0.12699999809E+01 0.  1.
</event>
<event>
 5   0  0.1647550E-03  0.1193654E+04  0.7818609E-02  0.9118429E-01
       -2   -1    0    0    0  501  0.00000000000E+00  0.00000000000E+00  0.51054160437E+03  0.51054160437E+03  0.25500000920E-02 0. -1.
        2   -1    0    0  501    0  0.00000000000E+00  0.00000000000E+00 -0.69769511504E+03  0.69769511504E+03  0.25500000920E-02 0.  1.
    10030    2    1    2    0    0  0.00000000000E+00  0.00000000000E+00 -0.18715351067E+03  0.12082367194E+04  0.11936538584E+04 0.  0.
        3    1    3    3  502    0  0.24561257615E+03 -0.54329553744E+03 -0.66666349742E+02  0.59994999038E+03  0.10100000352E+00 0. -1.
       -3    1    3    3    0  502 -0.24561257615E+03  0.54329553744E+03 -0.12048716093E+03  0.60828672904E+03  0.10100000352E+00 0.  1.
</event>
<event>
 5   0  0.1567019E-03  0.1200725E+04  0.7818609E-02  0.9112222E-01
        2   -1    0    0  501    0  0.00000000000E+00  0.00000000000E+00  0.17756221441E+04  0.17756221441E+04  0.25500000920E-02 0.  1.
       -2   -1    0    0    0  501  0.00000000000E+00  0.00000000000E+00 -0.20299097331E+03  0.20299097333E+03  0.25500000920E-02 0. -1.
    10030    2    1    2    0    0  0.00000000000E+00  0.00000000000E+00  0.15726311708E+04  0.19786131174E+04  0.12007252263E+04 0.  0.
        5    1    3    3  502    0  0.28805496703E+03 -0.91230100066E+02 -0.68526439653E+02  0.30986538710E+03  0.46999998093E+01 0. -1.
       -5    1    3    3    0  502 -0.28805496703E+03  0.91230100066E+02  0.16411576104E+04  0.16687477303E+04  0.46999998093E+01 0.  1.
</event>
<event>
 5   0  0.1647550E-03  0.1213792E+04  0.7818609E-02  0.9100869E-01
       -2   -1    0    0    0  501  0.00000000000E+00  0.00000000000E+00  0.32942831296E+03  0.32942831297E+03  0.25500000920E-02 0. -1.
        2   -1    0    0  501    0  0.00000000000E+00  0.00000000000E+00 -0.11180672403E+04  0.11180672403E+04  0.25500000920E-02 0.  1.
    10030    2    1    2    0    0  0.00000000000E+00  0.00000000000E+00 -0.78863892735E+03  0.14474955533E+04  0.12137924118E+04 0.  0.
        3    1    3    3  502    0  0.36325494529E+03 -0.48617235687E+03 -0.39157955445E+03  0.72225499204E+03  0.10100000352E+00 0. -1.
       -3    1    3    3    0  502 -0.36325494529E+03  0.48617235687E+03 -0.39705937290E+03  0.72524056124E+03  0.10100000352E+00 0.  1.
</event>
<event>
 5   0  0.9170776E-04  0.1262260E+04  0.7818609E-02  0.9060041E-01
        1   -1    0    0  501    0  0.00000000000E+00  0.00000000000E+00  0.19950498993E+04  0.19950498993E+04  0.50400001928E-02 0. -1.
       -1   -1    0    0    0  501  0.00000000000E+00  0.00000000000E+00 -0.19965671524E+03  0.19965671530E+03  0.50400001928E-02 0.  1.
    10030    2    1    2    0    0  0.00000000000E+00  0.00000000000E+00  0.17953931840E+04  0.21947066146E+04  0.12622600520E+04 0.  0.
        5    1    3    3  502    0 -0.44459586706E+03 -0.81288639714E+02  0.16635783607E+04  0.17238875776E+04  0.46999998093E+01 0. -1.
       -5    1    3    3    0  502  0.44459586706E+03  0.81288639714E+02  0.13181482335E+03  0.47081903701E+03  0.46999998093E+01 0.  1.
</event>
<event>
 5   0  0.1567019E-03  0.1207430E+04  0.7818609E-02  0.9106378E-01
        2   -1    0    0  501    0  0.00000000000E+00  0.00000000000E+00  0.11474440075E+04  0.11474440075E+04  0.25500000920E-02 0.  1.
       -2   -1    0    0    0  501  0.00000000000E+00  0.00000000000E+00 -0.31763790309E+03  0.31763790310E+03  0.25500000920E-02 0. -1.
    10030    2    1    2    0    0  0.00000000000E+00  0.00000000000E+00  0.82980610439E+03  0.14650819106E+04  0.12074298463E+04 0.  0.
        5    1    3    3  502    0  0.29500447460E+03 -0.10474512429E+03  0.10412402687E+04  0.10872913907E+04  0.46999998093E+01 0.  1.
       -5    1    3    3    0  502 -0.29500447460E+03  0.10474512429E+03 -0.21143416430E+03  0.37779051990E+03  0.46999998093E+01 0. -1.
</event>
<event>
 5   0  0.1537557E-03  0.1200111E+04  0.7818609E-02  0.9112759E-01
       -2   -1    0    0    0  501  0.00000000000E+00  0.00000000000E+00  0.24031240356E+03  0.24031240358E+03  0.25500000920E-02 0.  1.
        2   -1    0    0  501    0  0.00000000000E+00  0.00000000000E+00 -0.14983270741E+04  0.14983270741E+04  0.25500000920E-02 0. -1.
    10030    2    1    2    0    0  0.00000000000E+00  0.00000000000E+00 -0.12580146705E+04  0.17386394777E+04  0.12001109624E+04 0.  0.
        2    1    3    3  502    0  0.41017656044E+03 -0.17181057789E+03 -0.12126556919E+04  0.12916259182E+04  0.25500000920E-02 0. -1.
       -2    1    3    3    0  502 -0.41017656044E+03  0.17181057789E+03 -0.45358978613E+02  0.44701355948E+03  0.25500000920E-02 0.  1.
</event>
<event>
 5   0  0.1567019E-03  0.1203721E+04  0.7818609E-02  0.9109606E-01
       -2   -1    0    0    0  501  0.00000000000E+00  0.00000000000E+00  0.38035032662E+03  0.38035032663E+03  0.25500000920E-02 0. -1.
        2   -1    0    0  501    0  0.00000000000E+00  0.00000000000E+00 -0.95237440431E+03  0.95237440431E+03  0.25500000920E-02 0.  1.
    10030    2    1    2    0    0  0.00000000000E+00  0.00000000000E+00 -0.57202407769E+03  0.13327247309E+04  0.12037207579E+04 0.  0.
        5    1    3    3  502    0  0.46948047299E+03 -0.18595129232E+03 -0.64855607566E+03  0.82197133217E+03  0.46999998093E+01 0.  1.
       -5    1    3    3    0  502 -0.46948047299E+03  0.18595129232E+03  0.76531997975E+02  0.51075339876E+03  0.46999998093E+01 0. -1.
</event>
<event>
 5   0  0.9169078E-04  0.1245702E+04  0.7818609E-02  0.9073768E-01
       -1   -1    0    0    0  501  0.00000000000E+00  0.00000000000E+00  0.18830483699E+04  0.18830483699E+04  0.50400001928E-02 0.  1.
        1   -1    0    0  501    0  0.00000000000E+00  0.00000000000E+00 -0.20601872905E+03  0.20601872911E+03  0.50400001928E-02 0. -1.
    10030    2    1    2    0    0  0.00000000000E+00  0.00000000000E+00  0.16770296409E+04  0.20890670990E+04  0.12457017813E+04 0.  0.
        1    1    3    3  502    0 -0.42959909380E+03 -0.11855419901E+03  0.15682262995E+04  0.16303202771E+04  0.50400001928E-02 0.  1.
       -1    1    3    3    0  502  0.42959909380E+03  0.11855419901E+03  0.10880334135E+03  0.45874682191E+03  0.50400001928E-02 0. -1.
</event>
<event>
 5   0  0.1537557E-03  0.1204315E+04  0.7818609E-02  0.9109088E-01
        2   -1    0    0  501    0  0.00000000000E+00  0.00000000000E+00  0.13553699917E+04  0.13553699917E+04  0.25500000920E-02 0.  1.
       -2   -1    0    0    0  501  0.00000000000E+00  0.00000000000E+00 -0.26752378034E+03  0.26752378035E+03  0.25500000920E-02 0. -1.
    10030    2    1    2    0    0  0.00000000000E+00  0.00000000000E+00  0.10878462113E+04  0.16228937720E+04  0.12043150816E+04 0.  0.
        2    1    3    3  502    0 -0.37349130067E+03  0.22858218634E+03 -0.13076761315E+02  0.43808283381E+03  0.25500000920E-02 0. -1.
       -2    1    3    3    0  502  0.37349130067E+03 -0.22858218634E+03  0.11009229726E+04  0.11848109382E+04  0.25500000920E-02 0.  1.
</event>
<event>
 5   0  0.9170776E-04  0.1121398E+04  0.7818609E-02  0.9184583E-01
       -1   -1    0    0    0  501  0.00000000000E+00  0.00000000000E+00  0.10375400881E+04  0.10375400881E+04  0.50400001928E-02 0.  1.
        1   -1    0    0  501    0  0.00000000000E+00  0.00000000000E+00 -0.30300840644E+03  0.30300840648E+03  0.50400001928E-02 0. -1.
    10030    2    1    2    0    0  0.00000000000E+00  0.00000000000E+00  0.73453168161E+03  0.13405484946E+04  0.11213980002E+04 0.  0.
        5    1    3    3  502    0  0.42618042613E+03  0.15899557656E+03  0.75912487318E+03  0.88498701237E+03  0.46999998093E+01 0.  1.
       -5    1    3    3    0  502 -0.42618042613E+03 -0.15899557656E+03 -0.24593191562E+02  0.45556148219E+03  0.46999998093E+01 0. -1.
</event>
<event>
 5   0  0.9208078E-04  0.1197776E+04  0.7818609E-02  0.9114806E-01
       -1   -1    0    0    0  501  0.00000000000E+00  0.00000000000E+00  0.12260649766E+04  0.12260649767E+04  0.50400001928E-02 0.  1.
        1   -1    0    0  501    0  0.00000000000E+00  0.00000000000E+00 -0.29253469074E+03  0.29253469079E+03  0.50400001928E-02 0. -1.
    10030    2    1    2    0    0  0.00000000000E+00  0.00000000000E+00  0.93353028590E+03  0.15185996674E+04  0.11977755029E+04 0.  0.
        3    1    3    3  502    0 -0.39013841954E+03  0.83264072427E+02 -0.99561803445E+02  0.41116110597E+03  0.10100000352E+00 0. -1.
       -3    1    3    3    0  502  0.39013841954E+03 -0.83264072427E+02  0.10330920893E+04  0.11074385615E+04  0.10100000352E+00 0.  1.
</event>
<event>
 5   0  0.1551501E-03  0.1204400E+04  0.7818609E-02  0.9109014E-01
       -2   -1    0    0    0  501  0.00000000000E+00  0.00000000000E+00  0.12723547469E+04  0.12723547469E+04  0.25500000920E-02 0. -1.
        2   -1    0    0  501    0  0.00000000000E+00  0.00000000000E+00 -0.28501886353E+03  0.28501886354E+03  0.25500000920E-02 0.  1.
    10030    2    1    2    0    0  0.00000000000E+00  0.00000000000E+00  0.98733588333E+03  0.15573736104E+04  0.12044004383E+04 0.  0.
        4    1    3    3  502    0  0.18584964867E+03  0.76604102277E+02  0.12276888038E+04  0.12440376571E+04  0.12699999809E+01 0. -1.
       -4    1    3    3    0  502 -0.18584964867E+03 -0.76604102277E+02 -0.24035292044E+03  0.31333595334E+03  0.12699999809E+01 0.  1.
</event>
<event>
 5   0  0.9208078E-04  0.1179913E+04  0.7818609E-02  0.9130623E-01
        1   -1    0    0  501    0  0.00000000000E+00  0.00000000000E+00  0.10630155417E+04  0.10630155417E+04  0.50400001928E-02 0. -1.
       -1   -1    0    0    0  501  0.00000000000E+00  0.00000000000E+00 -0.32741635363E+03  0.32741635367E+03  0.50400001928E-02 0.  1.
    10030    2    1    2    0    0  0.00000000000E+00  0.00000000000E+00  0.73559918806E+03  0.13904318954E+04  0.11799130011E+04 0.  0.
        3    1    3    3  502    0 -0.27203390913E+03  0.39700976665E+03 -0.34297723928E+02  0.48248890827E+03  0.10100000352E+00 0.  1.
       -3    1    3    3    0  502  0.27203390913E+03 -0.39700976665E+03  0.76989691199E+03  0.90794298710E+03  0.10100000352E+00 0. -1.
</event>
<event>
 5   0  0.8908478E-04  0.1199179E+04  0.7818609E-02  0.9113575E-01
        1   -1    0    0  501    0  0.00000000000E+00  0.00000000000E+00  0.33803378104E+03  0.33803378108E+03  0.50400001928E-02 0. -1.
       -1   -1    0    0    0  501  0.00000000000E+00  0.00000000000E+00 -0.10635264218E+04  0.10635264218E+04  0.50400001928E-02 0.  1.
    10030    2    1    2    0    0  0.00000000000E+00  0.00000000000E+00 -0.72549264076E+03  0.14015602029E+04  0.11991794822E+04 0.  0.
        4    1    3    3  502    0 -0.17442455331E+03 -0.57362970482E+03 -0.35620940870E+03  0.69739638571E+03  0.12699999809E+01 0.  1.
       -4    1    3    3    0  502  0.17442455331E+03  0.57362970482E+03 -0.36928323206E+03  0.70416381719E+03  0.12699999809E+01 0. -1.
</event>
<event>
 5   0  0.9208078E-04  0.1195439E+04  0.7818609E-02  0.9116858E-01
       -1   -1    0    0    0  501  0.00000000000E+00  0.00000000000E+00  0.48071926225E+03  0.48071926228E+03  0.50400001928E-02 0. -1.
        1   -1    0    0  501    0  0.00000000000E+00  0.00000000000E+00 -0.74319642086E+03  0.74319642087E+03  0.50400001928E-02 0.  1.
    10030    2    1    2    0    0  0.00000000000E+00  0.00000000000E+00 -0.26247715861E+03  0.12239156831E+04  0.11954393923E+04 0.  0.
        3    1    3    3  502    0 -0.31257996931E+03  0.23241116820E+03 -0.59541190655E+03  0.71150301263E+03  0.10100000352E+00 0.  1.
       -3    1    3    3    0  502  0.31257996931E+03 -0.23241116820E+03  0.33293474794E+03  0.51241267052E+03  0.10100000352E+00 0. -1.
</event>
<event>
 5   0  0.1567019E-03  0.1168427E+04  0.7818609E-02  0.9140950E-01
       -2   -1    0    0    0  501  0.00000000000E+00  0.00000000000E+00  0.30634946800E+03  0.30634946801E+03  0.25500000920E-02 0. -1.
        2   -1    0    0  501    0  0.00000000000E+00  0.00000000000E+00 -0.11141050536E+04  0.11141050536E+04  0.25500000920E-02 0.  1.
    10030    2    1    2    0    0  0.00000000000E+00  0.00000000000E+00 -0.80775558560E+03  0.14204545216E+04  0.11684271316E+04 0.  0.
        5    1    3    3  502    0  0.41214403601E+03  0.40867098135E+03 -0.48459797062E+03  0.75612959243E+03  0.46999998093E+01 0. -1.
       -5    1    3    3    0  502 -0.41214403601E+03 -0.40867098135E+03 -0.32315761498E+03  0.66432492919E+03  0.46999998093E+01 0.  1.
</event>
<event>
 5   0  0.8908478E-04  0.1199165E+04  0.7818609E-02  0.9113588E-01
        1   -1    0    0  501    0  0.00000000000E+00  0.00000000000E+00  0.15325781316E+04  0.15325781316E+04  0.50400001928E-02 0.  1.
       -1   -1    0    0    0  501  0.00000000000E+00  0.00000000000E+00 -0.23457150575E+03  0.23457150580E+03  0.50400001928E-02 0. -1.
    10030    2    1    2    0    0  0.00000000000E+00  0.00000000000E+00  0.12980066258E+04  0.17671496374E+04  0.11991649762E+04 0.  0.
        4    1    3    3  502    0  0.10323135520E+02 -0.58648597115E+03  0.83202796519E+03  0.10180100733E+04  0.12699999809E+01 0.  1.
       -4    1    3    3    0  502 -0.10323135520E+02  0.58648597115E+03  0.46597866064E+03  0.74913956414E+03  0.12699999809E+01 0. -1.
</event>
<event>
 5   0  0.9170776E-04  0.1195605E+04  0.7818609E-02  0.9116712E-01
        1   -1    0    0  501    0  0.00000000000E+00  0.00000000000E+00  0.22563893169E+04  0.22563893169E+04  0.50400001928E-02 0. -1.
       -1   -1    0    0    0  501  0.00000000000E+00  0.00000000000E+00 -0.15838041981E+03  0.15838041989E+03  0.50400001928E-02 0.  1.
    10030    2    1    2    0    0  0.00000000000E+00  0.00000000000E+00  0.20980088971E+04  0.24147697368E+04  0.11956050976E+04 0.  0.
        5    1    3    3  502    0 -0.10562343556E+03  0.13913047879E+03 -0.10564561311E+03  0.20419766364E+03  0.46999998093E+01 0.  1.
       -5    1    3    3    0  502  0.10562343556E+03 -0.13913047879E+03  0.22036545102E+04  0.22105720732E+04  0.46999998093E+01 0. -1.
</event>
<event>
 5   0  0.1567019E-03  0.1195913E+04  0.7818609E-02  0.9116442E-01
        2   -1    0    0  501    0  0.00000000000E+00  0.00000000000E+00  0.10430839049E+04  0.10430839049E+04  0.25500000920E-02 0. -1.
       -2   -1    0    0    0  501  0.00000000000E+00  0.00000000000E+00 -0.34278339385E+03  0.34278339386E+03  0.25500000920E-02 0.  1.
    10030    2    1    2    0    0  0.00000000000E+00  0.00000000000E+00  0.70030051107E+03  0.13858672988E+04  0.11959127744E+04 0.  0.
        5    1    3    3  502    0  0.33328186005E+03 -0.26267261927E+03 -0.13801576311E+03  0.44625569354E+03  0.46999998093E+01 0.  1.
       -5    1    3    3    0  502 -0.33328186005E+03  0.26267261927E+03  0.83831627418E+03  0.93961160524E+03  0.46999998093E+01 0. -1.
</event>
<event>
 5   0  0.9170776E-04  0.1207502E+04  0.7818609E-02  0.9106315E-01
        1   -1    0    0  501    0  0.00000000000E+00  0.00000000000E+00  0.58214941785E+03  0.58214941787E+03  0.50400001928E-02 0. -1.
       -1   -1    0    0    0  501  0.00000000000E+00  0.00000000000E+00 -0.62615450815E+03  0.62615450817E+03  0.50400001928E-02 0.  1.
    10030    2    1    2    0    0  0.00000000000E+00  0.00000000000E+00 -0.44005090305E+02  0.12083039260E+04  0.12075023518E+04 0.  0.
        5    1    3    3  502    0 -0.45464884118E+03 -0.23723722679E+03  0.29680951881E+03  0.59254118086E+03  0.46999998093E+01 0. -1.
       -5    1    3    3    0  502  0.45464884118E+03  0.23723722679E+03 -0.34081460912E+03  0.61576274518E+03  0.46999998093E+01 0.  1.
</event>
<event>
 5   0  0.1551501E-03  0.1215105E+04  0.7818609E-02  0.9099737E-01
        2   -1    0    0  501    0  0.00000000000E+00  0.00000000000E+00  0.99574929249E+03  0.99574929249E+03  0.25500000920E-02 0.  1.
       -2   -1    0    0    0  501  0.00000000000E+00  0.00000000000E+00 -0.37069562392E+03  0.37069562393E+03  0.25500000920E-02 0. -1.
    10030    2    1    2    0    0  0.00000000000E+00  0.00000000000E+00  0.62505366856E+03  0.13664449164E+04  0.12151047778E+04 0.  0.
        4    1    3    3  502    0  0.38089568395E+03 -0.47271333202E+03  0.33958330743E+03  0.69559891598E+03  0.12699999809E+01 0. -1.
       -4    1    3    3    0  502 -0.38089568395E+03  0.47271333202E+03  0.28547036113E+03  0.67084600044E+03  0.12699999809E+01 0.  1.
</event>
<event>
 5   0  0.9358428E-04  0.1199770E+04  0.7818609E-02  0.9113058E-01
       -1   -1    0    0    0  501  0.00000000000E+00  0.00000000000E+00  0.61815580140E+03  0.61815580142E+03  0.50400001928E-02 0. -1.
        1   -1    0    0  501    0  0.00000000000E+00  0.00000000000E+00 -0.58215456584E+03  0.58215456586E+03  0.50400001928E-02 0.  1.
    10030    2    1    2    0    0  0.00000000000E+00  0.00000000000E+00  0.36001235559E+02  0.12003103673E+04  0.11997703484E+04 0.  0.
        2    1    3    3  502    0  0.98188474592E+02  0.52118305712E+03  0.29846492760E+03  0.60856722602E+03  0.25500000920E-02 0. -1.
       -2    1    3    3    0  502 -0.98188474592E+02 -0.52118305712E+03 -0.26246369204E+03  0.59174314125E+03  0.25500000920E-02 0.  1.
</event>
<event>
 5   0  0.9358428E-04  0.1198076E+04  0.7818609E-02  0.9114542E-01
        1   -1    0    0  501    0  0.00000000000E+00  0.00000000000E+00  0.16580418797E+04  0.16580418797E+04  0.50400001928E-02 0. -1.
       -1   -1    0    0    0  501  0.00000000000E+00  0.00000000000E+00 -0.21642807551E+03  0.21642807557E+03  0.50400001928E-02 0.  1.
    10030    2    1    2    0    0  0.00000000000E+00  0.00000000000E+00  0.14416138042E+04  0.18744699553E+04  0.11980764804E+04 0.  0.
        2    1    3    3  502    0 -0.56779742330E+03 -0.18210596337E+03  0.81055243453E+03  0.10062563018E+04  0.25500000920E-02 0.  1.
       -2    1    3    3    0  502  0.56779742330E+03  0.18210596337E+03  0.63106136965E+03  0.86821365347E+03  0.25500000920E-02 0. -1.
</event>
<event>
 5   0  0.9169078E-04  0.1204051E+04  0.7818609E-02  0.9109318E-01
        1   -1    0    0  501    0  0.00000000000E+00  0.00000000000E+00  0.13128822967E+04  0.13128822967E+04  0.50400001928E-02 0.  1.
       -1   -1    0    0    0  501  0.00000000000E+00  0.00000000000E+00 -0.27606014920E+03  0.27606014925E+03  0.50400001928E-02 0. -1.
    10030    2    1    2    0    0  0.00000000000E+00  0.00000000000E+00  0.10368221475E+04  0.15889424460E+04  0.12040506348E+04 0.  0.
        1    1    3    3  502    0  0.85385157476E+02  0.50688010605E+03  0.93198719534E+03  0.10643393253E+04  0.50400001928E-02 0.  1.
       -1    1    3    3    0  502 -0.85385157476E+02 -0.50688010605E+03  0.10483495217E+03  0.52460312070E+03  0.50400001928E-02 0. -1.
</event>
<event>
 5   0  0.1647550E-03  0.1209990E+04  0.7818609E-02  0.9104157E-01
        2   -1    0    0  501    0  0.00000000000E+00  0.00000000000E+00  0.78210601323E+03  0.78210601323E+03  0.25500000920E-02 0.  1.
       -2   -1    0    0    0  501  0.00000000000E+00  0.00000000000E+00 -0.46799183705E+03  0.46799183706E+03  0.25500000920E-02 0. -1.
    10030    2    1    2    0    0  0.00000000000E+00  0.00000000000E+00  0.31411417617E+03  0.12500978503E+04  0.12099904626E+04 0.  0.
        3    1    3    3  502    0 -0.24221694219E+02 -0.59625557202E+03  0.54198914143E+02  0.59920357987E+03  0.10100000352E+00 0. -1.
       -3    1    3    3    0  502  0.24221694219E+02  0.59625557202E+03  0.25991526203E+03  0.65089427042E+03  0.10100000352E+00 0.  1.
</event>
<event>
 5   0  0.9358428E-04  0.1186238E+04  0.7818609E-02  0.9124988E-01
        1   -1    0    0  501    0  0.00000000000E+00  0.00000000000E+00  0.11041978162E+04  0.11041978162E+04  0.50400001928E-02 0.  1.
       -1   -1    0    0    0  501  0.00000000000E+00  0.00000000000E+00 -0.31859352573E+03  0.31859352577E+03  0.50400001928E-02 0. -1.
    10030    2    1    2    0    0  0.00000000000E+00  0.00000000000E+00  0.78560429047E+03  0.14227913420E+04  0.11862382145E+04 0.  0.
        2    1    3    3  502    0  0.43252454395E+03 -0.19932605192E+03  0.81682854639E+03  0.94552484383E+03  0.25500000920E-02 0.  1.
       -2    1    3    3    0  502 -0.43252454395E+03  0.19932605192E+03 -0.31224255925E+02  0.47726649815E+03  0.25500000920E-02 0. -1.
</event>
<event>
 5   0  0.6137750E-04  0.1190827E+04  0.7818609E-02  0.9120924E-01
       -3   -1    0    0    0  501  0.00000000000E+00  0.00000000000E+00  0.74395946071E+03  0.74395946757E+03  0.10100000352E+00 0.  1.
        3   -1    0    0  501    0  0.00000000000E+00  0.00000000000E+00 -0.47652773990E+03  0.47652775060E+03  0.10100000352E+00 0. -1.
    10030    2    1    2    0    0  0.00000000000E+00  0.00000000000E+00  0.26743172081E+03  0.12204872182E+04  0.11908271598E+04 0.  0.
        3    1    3    3  502    0 -0.19179097802E+03 -0.41471925165E+03  0.52498545280E+03  0.69597814103E+03  0.10100000352E+00 0.  1.
       -3    1    3    3    0  502  0.19179097802E+03  0.41471925165E+03 -0.25755373199E+03  0.52450907714E+03  0.10100000352E+00 0. -1.
</event>
<event>
 5   0  0.9358428E-04  0.1194747E+04  0.7818609E-02  0.9117467E-01
        1   -1    0    0  501    0  0.00000000000E+00  0.00000000000E+00  0.57157061616E+03  0.57157061619E+03  0.50400001928E-02 0.  1.
       -1   -1    0    0    0  501  0.00000000000E+00  0.00000000000E+00 -0.62434124389E+03  0.62434124391E+03  0.50400001928E-02 0. -1.
    10030    2    1    2    0    0  0.00000000000E+00  0.00000000000E+00 -0.52770627731E+02  0.11959118601E+04  0.11947470184E+04 0.  0.
        2    1    3    3  502    0 -0.37464174429E+03  0.12461685386E+03 -0.47511839881E+03  0.61775665899E+03  0.25500000920E-02 0. -1.
       -2    1    3    3    0  502  0.37464174429E+03 -0.12461685386E+03  0.42234777108E+03  0.57815520111E+03  0.25500000920E-02 0.  1.
</event>
<event>
 5   0  0.1567019E-03  0.1207041E+04  0.7818609E-02  0.9106716E-01
        2   -1    0    0  501    0  0.00000000000E+00  0.00000000000E+00  0.13086318988E+04  0.13086318988E+04  0.25500000920E-02 0.  1.
       -2   -1    0    0    0  501  0.00000000000E+00  0.00000000000E+00 -0.27833414051E+03  0.27833414053E+03  0.25500000920E-02 0. -1.
    10030    2    1    2    0    0  0.00000000000E+00  0.00000000000E+00  0.10302977583E+04  0.15869660393E+04  0.12070409021E+04 0.  0.
        5    1    3    3  502    0 -0.37570714250E+03 -0.41438544453E+03  0.81306169755E+03  0.98689541877E+03  0.46999998093E+01 0.  1.
       -5    1    3    3    0  502  0.37570714250E+03  0.41438544453E+03  0.21723606072E+03  0.60007062054E+03  0.46999998093E+01 0. -1.
</event>
<event>
 5   0  0.1551501E-03  0.1197976E+04  0.7818609E-02  0.9114630E-01
        2   -1    0    0  501    0  0.00000000000E+00  0.00000000000E+00  0.53973509175E+03  0.53973509176E+03  0.25500000920E-02 0. -1.
       -2   -1    0    0    0  501  0.00000000000E+00  0.00000000000E+00 -0.66474571840E+03  0.66474571841E+03  0.25500000920E-02 0.  1.
    10030    2    1    2    0    0  0.00000000000E+00  0.00000000000E+00 -0.12501062665E+03  0.12044808102E+04  0.11979759452E+04 0.  0.
        4    1    3    3  502    0 -0.33554252003E+02  0.57544208220E+03 -0.22625617055E+03  0.61923577529E+03  0.12699999809E+01 0.  1.
       -4    1    3    3    0  502  0.33554252003E+02 -0.57544208220E+03  0.10124554390E+03  0.58524503488E+03  0.12699999809E+01 0. -1.
</event>
<event>
 5   0  0.9358428E-04  0.1199482E+04  0.7818609E-02  0.9113310E-01
        1   -1    0    0  501    0  0.00000000000E+00  0.00000000000E+00  0.11080126342E+04  0.11080126343E+04  0.50400001928E-02 0. -1.
       -1   -1    0    0    0  501  0.00000000000E+00  0.00000000000E+00 -0.32462566721E+03  0.32462566725E+03  0.50400001928E-02 0.  1.
    10030    2    1    2    0    0  0.00000000000E+00  0.00000000000E+00  0.78338696704E+03  0.14326383015E+04  0.11994821228E+04 0.  0.
        2    1    3    3  502    0 -0.88147497574E+02  0.54233002785E+03  0.67883587032E+03  0.87333268534E+03  0.25500000920E-02 0. -1.
       -2    1    3    3    0  502  0.88147497574E+02 -0.54233002785E+03  0.10455109671E+03  0.55930561616E+03  0.25500000920E-02 0.  1.
</event>
<event>
 5   0  0.9169078E-04  0.1198804E+04  0.7818609E-02  0.9113904E-01
        1   -1    0    0  501    0  0.00000000000E+00  0.00000000000E+00  0.12062100423E+04  0.12062100423E+04  0.50400001928E-02 0. -1.
       -1   -1    0    0    0  501  0.00000000000E+00  0.00000000000E+00 -0.29786078547E+03  0.29786078552E+03  0.50400001928E-02 0.  1.
    10030    2    1    2    0    0  0.00000000000E+00  0.00000000000E+00  0.90834925685E+03  0.15040708279E+04  0.11988038550E+04 0.  0.
        1    1    3    3  502    0  0.10988041978E+03  0.80104738660E+02  0.11866026931E+04  0.11943686312E+04  0.50400001928E-02 0. -1.
       -1    1    3    3    0  502 -0.10988041978E+03 -0.80104738660E+02 -0.27825343627E+03  0.30970219667E+03  0.50400001928E-02 0.  1.
</event>
<event>
 5   0  0.9208078E-04  0.1124879E+04  0.7818609E-02  0.9181277E-01
       -1   -1    0    0    0  501  0.00000000000E+00  0.00000000000E+00  0.80461131782E+03  0.80461131784E+03  0.50400001928E-02 0. -1.
        1   -1    0    0  501    0  0.00000000000E+00  0.00000000000E+00 -0.39315659608E+03  0.39315659612E+03  0.50400001928E-02 0.  1.
    10030    2    1    2    0    0  0.00000000000E+00  0.00000000000E+00  0.41145472174E+03  0.11977679140E+04  0.11248790991E+04 0.  0.
        3    1    3    3  502    0  0.40535832615E+03 -0.29656959404E+03 -0.63793231628E+02  0.50629880830E+03  0.10100000352E+00 0. -1.
       -3    1    3    3    0  502 -0.40535832615E+03  0.29656959404E+03  0.47524795337E+03  0.69146910565E+03  0.10100000352E+00 0.  1.
</event>
<event>
 5   0  0.1537557E-03  0.1201665E+04  0.7818609E-02  0.9111400E-01
       -2   -1    0    0    0  501  0.00000000000E+00  0.00000000000E+00  0.10006120940E+04  0.10006120940E+04  0.25500000920E-02 0. -1.
        2   -1    0    0  501    0  0.00000000000E+00  0.00000000000E+00 -0.36077885361E+03  0.36077885362E+03  0.25500000920E-02 0.  1.
    10030    2    1    2    0    0  0.00000000000E+00  0.00000000000E+00  0.63983324042E+03  0.13613909476E+04  0.12016649853E+04 0.  0.
        2    1    3    3  502    0  0.33430462000E+03 -0.22782160621E+03  0.82319025090E+03  0.91722650005E+03  0.25500000920E-02 0. -1.
       -2    1    3    3    0  502 -0.33430462000E+03  0.22782160621E+03 -0.18335701048E+03  0.44416444760E+03  0.25500000920E-02 0.  1.
</event>
<event>
 5   0  0.9169078E-04  0.1125659E+04  0.7818609E-02  0.9180538E-01
        1   -1    0    0  501    0  0.00000000000E+00  0.00000000000E+00  0.10771891010E+04  0.10771891010E+04  0.50400001928E-02 0. -1.
       -1   -1    0    0    0  501  0.00000000000E+00  0.00000000000E+00 -0.29407734274E+03  0.29407734278E+03  0.50400001928E-02 0.  1.
    10030    2    1    2    0    0  0.00000000000E+00  0.00000000000E+00  0.78311175827E+03  0.13712664438E+04  0.11256587556E+04 0.  0.
        1    1    3    3  502    0 -0.40720243115E+03 -0.23456092946E+03  0.14223050594E+02  0.47014353633E+03  0.50400001928E-02 0.  1.
       -1    1    3    3    0  502  0.40720243115E+03  0.23456092946E+03  0.76888870768E+03  0.90112290748E+03  0.50400001928E-02 0. -1.
</event>
<event>
 5   0  0.1567019E-03  0.1219984E+04  0.7818609E-02  0.9095542E-01
       -2   -1    0    0    0  501  0.00000000000E+00  0.00000000000E+00  0.21001555493E+03  0.21001555494E+03  0.25500000920E-02 0.  1.
        2   -1    0    0  501    0  0.00000000000E+00  0.00000000000E+00 -0.17717268452E+04  0.17717268452E+04  0.25500000920E-02 0. -1.
    10030    2    1    2    0    0  0.00000000000E+00  0.00000000000E+00 -0.15617112902E+04  0.19817424001E+04  0.12199839287E+04 0.  0.
        5    1    3    3  502    0  0.17810547203E+02 -0.53695979772E+03 -0.12500376782E+04  0.13606099099E+04  0.46999998093E+01 0. -1.
       -5    1    3    3    0  502 -0.17810547203E+02  0.53695979772E+03 -0.31167361202E+03  0.62113249020E+03  0.46999998093E+01 0.  1.
</event>
<event>
 5   0  0.9169078E-04  0.1200033E+04  0.7818609E-02  0.9112827E-01
        1   -1    0    0  501    0  0.00000000000E+00  0.00000000000E+00  0.94063038646E+03  0.94063038647E+03  0.50400001928E-02 0. -1.
       -1   -1    0    0    0  501  0.00000000000E+00  0.00000000000E+00 -0.38274337913E+03  0.38274337916E+03  0.50400001928E-02 0.  1.
    10030    2    1    2    0    0  0.00000000000E+00  0.00000000000E+00  0.55788700733E+03  0.13233737656E+04  0.12000334206E+04 0.  0.
        1    1    3    3  502    0  0.43199291950E+03  0.21701164018E+03  0.67087016880E+03  0.82690913520E+03  0.50400001928E-02 0. -1.
       -1    1    3    3    0  502 -0.43199291950E+03 -0.21701164018E+03 -0.11298316147E+03  0.49646463043E+03  0.50400001928E-02 0.  1.
</event>
<event>
 5   0  0.1537557E-03  0.1197450E+04  0.7818609E-02  0.9115091E-01
        2   -1    0    0  501    0  0.00000000000E+00  0.00000000000E+00  0.20822645194E+04  0.20822645194E+04  0.25500000920E-02 0.  1.
       -2   -1    0    0    0  501  0.00000000000E+00  0.00000000000E+00 -0.17215469615E+03  0.17215469616E+03  0.25500000920E-02 0. -1.
    10030    2    1    2    0    0  0.00000000000E+00  0.00000000000E+00  0.19101098233E+04  0.22544192156E+04  0.11974499834E+04 0.  0.
        2    1    3    3  502    0 -0.14540214324E+03  0.56756844628E+03  0.11871363368E+04  0.13238460661E+04  0.25500000920E-02 0.  1.
       -2    1    3    3    0  502  0.14540214324E+03 -0.56756844628E+03  0.72297348646E+03  0.93057314951E+03  0.25500000920E-02 0. -1.
</event>
<event>
 5   0  0.6137750E-04  0.1203099E+04  0.7818609E-02  0.9110149E-01
       -3   -1    0    0    0  501  0.00000000000E+00  0.00000000000E+00  0.22241219570E+03  0.22241221863E+03  0.10100000352E+00 0. -1.
        3   -1    0    0  501    0  0.00000000000E+00  0.00000000000E+00 -0.16269861361E+04  0.16269861392E+04  0.10100000352E+00 0.  1.
    10030    2    1    2    0    0  0.00000000000E+00  0.00000000000E+00 -0.14045739404E+04  0.18493983578E+04  0.12030986377E+04 0.  0.
        2    1    3    3  502    0  0.21872112272E+03  0.53633105598E+03 -0.45265632481E+03  0.73511065802E+03  0.25500000920E-02 0. -1.
       -2    1    3    3    0  502 -0.21872112272E+03 -0.53633105598E+03 -0.95191761555E+03  0.11142876998E+04  0.25500000920E-02 0.  1.
</event>
<event>
 5   0  0.1567019E-03  0.1197928E+04  0.7818609E-02  0.9114672E-01
        2   -1    0    0  501    0  0.00000000000E+00  0.00000000000E+00  0.10457175025E+04  0.10457175025E+04  0.25500000920E-02 0.  1.
       -2   -1    0    0    0  501  0.00000000000E+00  0.00000000000E+00 -0.34307323816E+03  0.34307323817E+03  0.25500000920E-02 0. -1.
    10030    2    1    2    0    0  0.00000000000E+00  0.00000000000E+00  0.70264426431E+03  0.13887907406E+04  0.11979276936E+04 0.  0.
        5    1    3    3  502    0 -0.27083695207E+03 -0.16035783532E+03 -0.23944412656E+03  0.39550331187E+03  0.46999998093E+01 0. -1.
       -5    1    3    3    0  502  0.27083695207E+03  0.16035783532E+03  0.94208839087E+03  0.99328742877E+03  0.46999998093E+01 0.  1.
</event>
<event>
 5   0  0.9169078E-04  0.1193812E+04  0.7818609E-02  0.9118290E-01
        1   -1    0    0  501    0  0.00000000000E+00  0.00000000000E+00  0.52687007644E+03  0.52687007646E+03  0.50400001928E-02 0. -1.
       -1   -1    0    0    0  501  0.00000000000E+00  0.00000000000E+00 -0.67625179057E+03  0.67625179059E+03  0.50400001928E-02 0.  1.
    10030    2    1    2    0    0  0.00000000000E+00  0.00000000000E+00 -0.14938171414E+03  0.12031218671E+04  0.11938121001E+04 0.  0.
        1    1    3    3  502    0 -0.47847183387E+03 -0.17611383056E+03  0.23812536085E+03  0.56272112509E+03  0.50400001928E-02 0.  1.
       -1    1    3    3    0  502  0.47847183387E+03  0.17611383056E+03 -0.38750707498E+03  0.64040074196E+03  0.50400001928E-02 0. -1.
</event>
<event>
 5   0  0.9358428E-04  0.1193409E+04  0.7818609E-02  0.9118646E-01
       -1   -1    0    0    0  501  0.00000000000E+00  0.00000000000E+00  0.33695383989E+03  0.33695383992E+03  0.50400001928E-02 0.  1.
        1   -1    0    0  501    0  0.00000000000E+00  0.00000000000E+00 -0.10566908021E+04  0.10566908021E+04  0.50400001928E-02 0. -1.
    10030    2    1    2    0    0  0.00000000000E+00  0.00000000000E+00 -0.71973696225E+03  0.13936446421E+04  0.11934086029E+04 0.  0.
        2    1    3    3  502    0  0.48904178852E+02 -0.19160527732E+03  0.29757664757E+03  0.35728988537E+03  0.25500000920E-02 0.  1.
       -2    1    3    3    0  502 -0.48904178852E+02  0.19160527732E+03 -0.10173136098E+04  0.10363547567E+04  0.25500000920E-02 0. -1.
</event>
<event>
 5   0  0.1647550E-03  0.1199221E+04  0.7818609E-02  0.9113539E-01
        2   -1    0    0  501    0  0.00000000000E+00  0.00000000000E+00  0.14103820758E+04  0.14103820758E+04  0.25500000920E-02 0.  1.
       -2   -1    0    0    0  501  0.00000000000E+00  0.00000000000E+00 -0.25491876556E+03  0.25491876557E+03  0.25500000920E-02 0. -1.
    10030    2    1    2    0    0  0.00000000000E+00  0.00000000000E+00  0.11554633102E+04  0.16653008414E+04  0.11992211768E+04 0.  0.
        3    1    3    3  502    0 -0.55930159960E+03 -0.21592798965E+03  0.56458180927E+03  0.82352644498E+03  0.10100000352E+00 0.  1.
       -3    1    3    3    0  502  0.55930159960E+03  0.21592798965E+03  0.59088150098E+03  0.84177439640E+03  0.10100000352E+00 0. -1.
</event>
<event>
 5   0  0.9208078E-04  0.1195189E+04  0.7818609E-02  0.9117078E-01
        1   -1    0    0  501    0  0.00000000000E+00  0.00000000000E+00  0.32519857752E+03  0.32519857756E+03  0.50400001928E-02 0. -1.
       -1   -1    0    0    0  501  0.00000000000E+00  0.00000000000E+00 -0.10981578504E+04  0.10981578504E+04  0.50400001928E-02 0.  1.
    10030    2    1    2    0    0  0.00000000000E+00  0.00000000000E+00 -0.77295927284E+03  0.14233564279E+04  0.11951893086E+04 0.  0.
        3    1    3    3  502    0 -0.50640977818E+02  0.26237574835E+03  0.25008512026E+03  0.36598923418E+03  0.10100000352E+00 0. -1.
       -3    1    3    3    0  502  0.50640977818E+02 -0.26237574835E+03 -0.10230443931E+04  0.10573671938E+04  0.10100000352E+00 0.  1.
</event>
<event>
 5   0  0.1597352E-03  0.1179916E+04  0.7818609E-02  0.9130620E-01
       -2   -1    0    0    0  501  0.00000000000E+00  0.00000000000E+00  0.78416147007E+03  0.78416147007E+03  0.25500000920E-02 0. -1.
        2   -1    0    0  501    0  0.00000000000E+00  0.00000000000E+00 -0.44385066335E+03  0.44385066335E+03  0.25500000920E-02 0.  1.
    10030    2    1    2    0    0  0.00000000000E+00  0.00000000000E+00  0.34031080672E+03  0.12280121334E+04  0.11799162490E+04 0.  0.
        1    1    3    3  502    0 -0.33791228014E+03  0.51202798140E+02  0.67063555215E+03  0.75270079012E+03  0.50400001928E-02 0. -1.
       -1    1    3    3    0  502  0.33791228014E+03 -0.51202798140E+02 -0.33032474543E+03  0.47531134331E+03  0.50400001928E-02 0.  1.
</event>
<event>
 5   0  0.9169078E-04  0.1179367E+04  0.7818609E-02  0.9131111E-01
        1   -1    0    0  501    0  0.00000000000E+00  0.00000000000E+00  0.13850360872E+04  0.13850360872E+04  0.50400001928E-02 0.  1.
       -1   -1    0    0    0  501  0.00000000000E+00  0.00000000000E+00 -0.25105962268E+03  0.25105962273E+03  0.50400001928E-02 0. -1.
    10030    2    1    2    0    0  0.00000000000E+00  0.00000000000E+00  0.11339764646E+04  0.16360957100E+04  0.11793670124E+04 0.  0.
        1    1    3    3  502    0 -0.38760479945E+02  0.11797710537E+03  0.13666910061E+04  0.13723211280E+04  0.50400001928E-02 0.  1.
       -1    1    3    3    0  502  0.38760479945E+02 -0.11797710537E+03 -0.23271454157E+03  0.26377458195E+03  0.50400001928E-02 0. -1.
</event>
<event>
 5   0  0.1537557E-03  0.1208611E+04  0.7818609E-02  0.9105353E-01
        2   -1    0    0  501    0  0.00000000000E+00  0.00000000000E+00  0.77882687816E+03  0.77882687816E+03  0.25500000920E-02 0.  1.
       -2   -1    0    0    0  501  0.00000000000E+00  0.00000000000E+00 -0.46889123402E+03  0.46889123403E+03  0.25500000920E-02 0. -1.
    10030    2    1    2    0    0  0.00000000000E+00  0.00000000000E+00  0.30993564413E+03  0.12477181122E+04  0.12086109316E+04 0.  0.
        2    1    3    3  502    0 -0.22509980144E+03  0.55334263010E+03  0.24917350204E+03  0.64725993312E+03  0.25500000920E-02 0.  1.
       -2    1    3    3    0  502  0.22509980144E+03 -0.55334263010E+03  0.60762142098E+02  0.60045817907E+03  0.25500000920E-02 0. -1.
</event>
<event>
 5   0  0.9208078E-04  0.1192761E+04  0.7818609E-02  0.9119216E-01
       -1   -1    0    0    0  501  0.00000000000E+00  0.00000000000E+00  0.24622312022E+03  0.24622312027E+03  0.50400001928E-02 0.  1.
        1   -1    0    0  501    0  0.00000000000E+00  0.00000000000E+00 -0.14445023745E+04  0.14445023745E+04  0.50400001928E-02 0. -1.
    10030    2    1    2    0    0  0.00000000000E+00  0.00000000000E+00 -0.11982792543E+04  0.16907254948E+04  0.11927613036E+04 0.  0.
        3    1    3    3  502    0  0.25402916082E+03 -0.33066960732E+03  0.52437624011E+01  0.41701404173E+03  0.10100000352E+00 0. -1.
       -3    1    3    3    0  502 -0.25402916082E+03  0.33066960732E+03 -0.12035230167E+04  0.12737114530E+04  0.10100000352E+00 0.  1.
</event>
<event>
 5   0  0.1551501E-03  0.1195356E+04  0.7818609E-02  0.9116931E-01
       -2   -1    0    0    0  501  0.00000000000E+00  0.00000000000E+00  0.11754519905E+04  0.11754519906E+04  0.25500000920E-02 0.  1.
        2   -1    0    0  501    0  0.00000000000E+00  0.00000000000E+00 -0.30389947748E+03  0.30389947749E+03  0.25500000920E-02 0. -1.
    10030    2    1    2    0    0  0.00000000000E+00  0.00000000000E+00  0.87155251307E+03  0.14793514680E+04  0.11953564251E+04 0.  0.
        4    1    3    3  502    0 -0.28721754906E+03 -0.43508298906E+03  0.79749437749E+03  0.95278015454E+03  0.12699999809E+01 0. -1.
       -4    1    3    3    0  502  0.28721754906E+03  0.43508298906E+03  0.74058135578E+02  0.52657131350E+03  0.12699999809E+01 0.  1.
</event>
<event>
 5   0  0.1597352E-03  0.1202383E+04  0.7818609E-02  0.9110774E-01
       -2   -1    0    0    0  501  0.00000000000E+00  0.00000000000E+00  0.19591270418E+03  0.19591270420E+03  0.25500000920E-02 0. -1.
        2   -1    0    0  501    0  0.00000000000E+00  0.00000000000E+00 -0.18448570046E+04  0.18448570046E+04  0.25500000920E-02 0.  1.
    10030    2    1    2    0    0  0.00000000000E+00  0.00000000000E+00 -0.16489443004E+04  0.20407697088E+04  0.12023825092E+04 0.  0.
        1    1    3    3  502    0  0.48367401840E+03 -0.28011002724E+03 -0.44865489127E+03  0.71672407168E+03  0.50400001928E-02 0. -1.
       -1    1    3    3    0  502 -0.48367401840E+03  0.28011002724E+03 -0.12002894091E+04  0.13240456371E+04  0.50400001928E-02 0.  1.
</event>
<event>
 5   0  0.9208078E-04  0.1194601E+04  0.7818609E-02  0.9117596E-01
        1   -1    0    0  501    0  0.00000000000E+00  0.00000000000E+00  0.31025097988E+03  0.31025097992E+03  0.50400001928E-02 0.  1.
       -1   -1    0    0    0  501  0.00000000000E+00  0.00000000000E+00 -0.11499328533E+04  0.11499328533E+04  0.50400001928E-02 0. -1.
    10030    2    1    2    0    0  0.00000000000E+00  0.00000000000E+00 -0.83968187338E+03  0.14601838332E+04  0.11946008447E+04 0.  0.
        3    1    3    3  502    0 -0.22022431433E+03  0.16747597626E+03  0.22720472273E+03  0.35800690982E+03  0.10100000352E+00 0.  1.
       -3    1    3    3    0  502  0.22022431433E+03 -0.16747597626E+03 -0.10668865961E+04  0.11021769234E+04  0.10100000352E+00 0. -1.
</event>
<event>
 5   0  0.9170776E-04  0.1217217E+04  0.7818609E-02  0.9097919E-01
       -1   -1    0    0    0  501  0.00000000000E+00  0.00000000000E+00  0.22392947689E+03  0.22392947695E+03  0.50400001928E-02 0.  1.
        1   -1    0    0  501    0  0.00000000000E+00  0.00000000000E+00 -0.16541108215E+04  0.16541108215E+04  0.50400001928E-02 0. -1.
    10030    2    1    2    0    0  0.00000000000E+00  0.00000000000E+00 -0.14301813446E+04  0.18780402984E+04  0.12172167778E+04 0.  0.
        5    1    3    3  502    0  0.17024999079E+03  0.58343035949E+03 -0.76402842450E+03  0.97628764572E+03  0.46999998093E+01 0. -1.
       -5    1    3    3    0  502 -0.17024999079E+03 -0.58343035949E+03 -0.66615292008E+03  0.90175265271E+03  0.46999998093E+01 0.  1.
</event>
<event>
 5   0  0.9208078E-04  0.1189624E+04  0.7818609E-02  0.9121987E-01
       -1   -1    0    0    0  501  0.00000000000E+00  0.00000000000E+00  0.51100495984E+03  0.51100495987E+03  0.50400001928E-02 0.  1.
        1   -1    0    0  501    0  0.00000000000E+00  0.00000000000E+00 -0.69236388574E+03  0.69236388576E+03  0.50400001928E-02 0. -1.
    10030    2    1    2    0    0  0.00000000000E+00  0.00000000000E+00 -0.18135892590E+03  0.12033688456E+04  0.11896241081E+04 0.  0.
        3    1    3    3  502    0 -0.12433964343E+03 -0.42064748236E+03  0.31570430870E+03  0.54043859233E+03  0.10100000352E+00 0.  1.
       -3    1    3    3    0  502  0.12433964343E+03  0.42064748236E+03 -0.49706323459E+03  0.66293025329E+03  0.10100000352E+00 0. -1.
</event>
<event>
 5   0  0.9170776E-04  0.1204246E+04  0.7818609E-02  0.9109148E-01
       -1   -1    0    0    0  501  0.00000000000E+00  0.00000000000E+00  0.81391156721E+03  0.81391156722E+03  0.50400001928E-02 0. -1.
        1   -1    0    0  501    0  0.00000000000E+00  0.00000000000E+00 -0.44544383939E+03  0.44544383942E+03  0.50400001928E-02 0.  1.
    10030    2    1    2    0    0  0.00000000000E+00  0.00000000000E+00  0.36846772782E+03  0.12593554066E+04  0.12042456451E+04 0.  0.
        5    1    3    3  502    0 -0.24774649488E+03  0.44196266818E+03 -0.15595342748E+03  0.53014421370E+03  0.46999998093E+01 0.  1.
       -5    1    3    3    0  502  0.24774649488E+03 -0.44196266818E+03  0.52442115529E+03  0.72921119293E+03  0.46999998093E+01 0. -1.
</event>
<event>
 5   0  0.1537557E-03  0.1190530E+04  0.7818609E-02  0.9121186E-01
        2   -1    0    0  501    0  0.00000000000E+00  0.00000000000E+00  0.63778852928E+03  0.63778852929E+03  0.25500000920E-02 0.  1.
       -2   -1    0    0    0  501  0.00000000000E+00  0.00000000000E+00 -0.55557645923E+03  0.55557645924E+03  0.25500000920E-02 0. -1.
    10030    2    1    2    0    0  0.00000000000E+00  0.00000000000E+00  0.82212070050E+02  0.11933649885E+04  0.11905297860E+04 0.  0.
        2    1    3    3  502    0 -0.32296531001E+03  0.47801248287E+03  0.18821304549E+03  0.60681683871E+03  0.25500000920E-02 0.  1.
       -2    1    3    3    0  502  0.32296531001E+03 -0.47801248287E+03 -0.10600097544E+03  0.58654814981E+03  0.25500000920E-02 0. -1.
</event>
<event>
 5   0  0.9208078E-04  0.1183609E+04  0.7818609E-02  0.9127326E-01
        1   -1    0    0  501    0  0.00000000000E+00  0.00000000000E+00  0.11006064394E+04  0.11006064395E+04  0.50400001928E-02 0. -1.
       -1   -1    0    0    0  501  0.00000000000E+00  0.00000000000E+00 -0.31821769289E+03  0.31821769293E+03  0.50400001928E-02 0.  1.
    10030    2    1    2    0    0  0.00000000000E+00  0.00000000000E+00  0.78238874655E+03  0.14188241324E+04  0.11836087901E+04 0.  0.
        3    1    3    3  502    0 -0.26455073629E+03  0.36246155402E+03  0.85370269054E+03  0.96445516446E+03  0.10100000352E+00 0. -1.
       -3    1    3    3    0  502  0.26455073629E+03 -0.36246155402E+03 -0.71313943992E+02  0.45436896793E+03  0.10100000352E+00 0.  1.
</event>
<event>
 5   0  0.1597352E-03  0.1193251E+04  0.7818609E-02  0.9118785E-01
       -2   -1    0    0    0  501  0.00000000000E+00  0.00000000000E+00  0.48192438209E+03  0.48192438209E+03  0.25500000920E-02 0.  1.
        2   -1    0    0  501    0  0.00000000000E+00  0.00000000000E+00 -0.73862605540E+03  0.73862605540E+03  0.25500000920E-02 0. -1.
    10030    2    1    2    0    0  0.00000000000E+00  0.00000000000E+00 -0.25670167331E+03  0.12205504375E+04  0.11932508627E+04 0.  0.
        1    1    3    3  502    0  0.18576305081E+03  0.56117792760E+03 -0.21102907221E+03  0.62766380078E+03  0.50400001928E-02 0. -1.
       -1    1    3    3    0  502 -0.18576305081E+03 -0.56117792760E+03 -0.45672601102E+02  0.59288663671E+03  0.50400001928E-02 0.  1.
</event>
<event>
 5   0  0.1551501E-03  0.1192492E+04  0.7818609E-02  0.9119454E-01
        2   -1    0    0  501    0  0.00000000000E+00  0.00000000000E+00  0.39443587019E+03  0.39443587020E+03  0.25500000920E-02 0.  1.
       -2   -1    0    0    0  501  0.00000000000E+00  0.00000000000E+00 -0.90131091450E+03  0.90131091450E+03  0.25500000920E-02 0. -1.
    10030    2    1    2    0    0  0.00000000000E+00  0.00000000000E+00 -0.50687504431E+03  0.12957467847E+04  0.11924921046E+04 0.  0.
        4    1    3    3  502    0 -0.34951651226E+03 -0.47859777524E+03 -0.32460790558E+03  0.67571408752E+03  0.12699999809E+01 0.  1.
       -4    1    3    3    0  502  0.34951651226E+03  0.47859777524E+03 -0.18226713873E+03  0.62003269718E+03  0.12699999809E+01 0. -1.
</event>
<event>
 5   0  0.9208078E-04  0.1195785E+04  0.7818609E-02  0.9116554E-01
        1   -1    0    0  501    0  0.00000000000E+00  0.00000000000E+00  0.88834716064E+03  0.88834716065E+03  0.50400001928E-02 0.  1.
       -1   -1    0    0    0  501  0.00000000000E+00  0.00000000000E+00 -0.40240522340E+03  0.40240522343E+03  0.50400001928E-02 0. -1.
    10030    2    1    2    0    0  0.00000000000E+00  0.00000000000E+00  0.48594193724E+03  0.12907523841E+04  0.11957851607E+04 0.  0.
        3    1    3    3  502    0 -0.32609932075E+03  0.46619867052E+03  0.44140070221E+03  0.72008093816E+03  0.10100000352E+00 0.  1.
       -3    1    3    3    0  502  0.32609932075E+03 -0.46619867052E+03  0.44541235032E+02  0.57067144593E+03  0.10100000352E+00 0. -1.
</event>
<event>
 5   0  0.1647550E-03  0.1217963E+04  0.7818609E-02  0.9097278E-01
        2   -1    0    0  501    0  0.00000000000E+00  0.00000000000E+00  0.17453494775E+04  0.17453494775E+04  0.25500000920E-02 0. -1.
       -2   -1    0    0    0  501  0.00000000000E+00  0.00000000000E+00 -0.21248366152E+03  0.21248366154E+03  0.25500000920E-02 0.  1.
    10030    2    1    2    0    0  0.00000000000E+00  0.00000000000E+00  0.15328658160E+04  0.19578331391E+04  0.12179626392E+04 0.  0.
        3    1    3    3  502    0 -0.13632829005E+03  0.19516070227E+03 -0.13458728764E+03  0.27347184604E+03  0.10100000352E+00 0.  1.
       -3    1    3    3    0  502  0.13632829005E+03 -0.19516070227E+03  0.16674531037E+04  0.16843612930E+04  0.10100000352E+00 0. -1.
</event>
<event>
 5   0  0.1597352E-03  0.1199356E+04  0.7818609E-02  0.9113421E-01
        2   -1    0    0  501    0  0.00000000000E+00  0.00000000000E+00  0.95700299577E+03  0.95700299577E+03  0.25500000920E-02 0. -1.
       -2   -1    0    0    0  501  0.00000000000E+00  0.00000000000E+00 -0.37577049834E+03  0.37577049835E+03  0.25500000920E-02 0.  1.
    10030    2    1    2    0    0  0.00000000000E+00  0.00000000000E+00  0.58123249743E+03  0.13327734941E+04  0.11993556481E+04 0.  0.
        1    1    3    3  502    0  0.13821917015E+03 -0.44060971144E+03 -0.13452908716E+03  0.48097768361E+03  0.50400001928E-02 0.  1.
       -1    1    3    3    0  502 -0.13821917015E+03  0.44060971144E+03  0.71576158459E+03  0.85179581052E+03  0.50400001928E-02 0. -1.
</event>
<event>
 5   0  0.9358428E-04  0.1198257E+04  0.7818609E-02  0.9114383E-01
       -1   -1    0    0    0  501  0.00000000000E+00  0.00000000000E+00  0.71113148963E+03  0.71113148965E+03  0.50400001928E-02 0.  1.
        1   -1    0    0  501    0  0.00000000000E+00  0.00000000000E+00 -0.50476616377E+03  0.50476616380E+03  0.50400001928E-02 0. -1.
    10030    2    1    2    0    0  0.00000000000E+00  0.00000000000E+00  0.20636532586E+03  0.12158976534E+04  0.11982572578E+04 0.  0.
        2    1    3    3  502    0  0.14652227610E+03  0.56436735435E+03  0.24296339027E+03  0.63167277690E+03  0.25500000920E-02 0.  1.
       -2    1    3    3    0  502 -0.14652227610E+03 -0.56436735435E+03 -0.36598064414E+02  0.58422487655E+03  0.25500000920E-02 0. -1.
</event>
<event>
 5   0  0.9170776E-04  0.1205119E+04  0.7818609E-02  0.9108387E-01
        1   -1    0    0  501    0  0.00000000000E+00  0.00000000000E+00  0.84003177968E+03  0.84003177969E+03  0.50400001928E-02 0.  1.
       -1   -1    0    0    0  501  0.00000000000E+00  0.00000000000E+00 -0.43221956681E+03  0.43221956684E+03  0.50400001928E-02 0. -1.
    10030    2    1    2    0    0  0.00000000000E+00  0.00000000000E+00  0.40781221287E+03  0.12722513465E+04  0.12051193666E+04 0.  0.
        5    1    3    3  502    0  0.53865706094E+03 -0.10763784171E+03  0.46532651663E+03  0.71992235092E+03  0.46999998093E+01 0.  1.
       -5    1    3    3    0  502 -0.53865706094E+03  0.10763784171E+03 -0.57514303768E+02  0.55232899562E+03  0.46999998093E+01 0. -1.
</event>
<event>
 5   0  0.9169078E-04  0.1139061E+04  0.7818609E-02  0.9167935E-01
       -1   -1    0    0    0  501  0.00000000000E+00  0.00000000000E+00  0.12145636186E+04  0.12145636186E+04  0.50400001928E-02 0. -1.
        1   -1    0    0  501    0  0.00000000000E+00  0.00000000000E+00 -0.26706304361E+03  0.26706304366E+03  0.50400001928E-02 0.  1.
    10030    2    1    2    0    0  0.00000000000E+00  0.00000000000E+00  0.94750057494E+03  0.14816266622E+04  0.11390611163E+04 0.  0.
        1    1    3    3  502    0  0.19184352018E+03 -0.52844122037E+03  0.35516841016E+03  0.66498019461E+03  0.50400001928E-02 0.  1.
       -1    1    3    3    0  502 -0.19184352018E+03  0.52844122037E+03  0.59233216478E+03  0.81664646762E+03  0.50400001928E-02 0. -1.
</event>
<event>
 5   0  0.1567019E-03  0.1204044E+04  0.7818609E-02  0.9109325E-01
       -2   -1    0    0    0  501  0.00000000000E+00  0.00000000000E+00  0.12728876278E+04  0.12728876278E+04  0.25500000920E-02 0. -1.
        2   -1    0    0  501    0  0.00000000000E+00  0.00000000000E+00 -0.28473074309E+03  0.28473074310E+03  0.25500000920E-02 0.  1.
    10030    2    1    2    0    0  0.00000000000E+00  0.00000000000E+00  0.98815688466E+03  0.15576183709E+04  0.12040435875E+04 0.  0.
        5    1    3    3  502    0 -0.36323634881E+03  0.40828459058E+03  0.82076490613E+03  0.98605987300E+03  0.46999998093E+01 0. -1.
       -5    1    3    3    0  502  0.36323634881E+03 -0.40828459058E+03  0.16739197853E+03  0.57155849786E+03  0.46999998093E+01 0.  1.
</event>
<event>
 5   0  0.1647550E-03  0.1198466E+04  0.7818609E-02  0.9114200E-01
        2   -1    0    0  501    0  0.00000000000E+00  0.00000000000E+00  0.45874074724E+03  0.45874074724E+03  0.25500000920E-02 0. -1.
       -2   -1    0    0    0  501  0.00000000000E+00  0.00000000000E+00 -0.78275230057E+03  0.78275230058E+03  0.25500000920E-02 0.  1.
    10030    2    1    2    0    0  0.00000000000E+00  0.00000000000E+00 -0.32401155334E+03  0.12414930478E+04  0.11984663120E+04 0.  0.
        3    1    3    3  502    0 -0.36777974124E+03  0.41746914932E+03  0.68556056523E+02  0.56057325283E+03  0.10100000352E+00 0. -1.
       -3    1    3    3    0  502  0.36777974124E+03 -0.41746914932E+03 -0.39256760986E+03  0.68091979499E+03  0.10100000352E+00 0.  1.
</event>
<event>
 5   0  0.1551501E-03  0.1195966E+04  0.7818609E-02  0.9116394E-01
        2   -1    0    0  501    0  0.00000000000E+00  0.00000000000E+00  0.70482535210E+03  0.70482535210E+03  0.25500000920E-02 0.  1.
       -2   -1    0    0    0  501  0.00000000000E+00  0.00000000000E+00 -0.50733688814E+03  0.50733688815E+03  0.25500000920E-02 0. -1.
    10030    2    1    2    0    0  0.00000000000E+00  0.00000000000E+00  0.19748846396E+03  0.12121622403E+04  0.11959663889E+04 0.  0.
        4    1    3    3  502    0  0.38864371320E+03  0.44758911692E+03  0.18922826595E+02  0.59307641975E+03  0.12699999809E+01 0. -1.
       -4    1    3    3    0  502 -0.38864371320E+03 -0.44758911692E+03  0.17856563736E+03  0.61908582050E+03  0.12699999809E+01 0.  1.
</event>
<event>
 5   0  0.1647550E-03  0.1209476E+04  0.7818609E-02  0.9104602E-01
        2   -1    0    0  501    0  0.00000000000E+00  0.00000000000E+00  0.11785296957E+04  0.11785296957E+04  0.25500000920E-02 0. -1.
       -2   -1    0    0    0  501  0.00000000000E+00  0.00000000000E+00 -0.31030892223E+03  0.31030892224E+03  0.25500000920E-02 0.  1.
    10030    2    1    2    0    0  0.00000000000E+00  0.00000000000E+00  0.86822077342E+03  0.14888386179E+04  0.12094763821E+04 0.  0.
        3    1    3    3  502    0 -0.17163132730E+03 -0.22582656103E+03  0.10915647135E+04  0.11278158015E+04  0.10100000352E+00 0. -1.
       -3    1    3    3    0  502  0.17163132730E+03  0.22582656103E+03 -0.22334394008E+03  0.36102281638E+03  0.10100000352E+00 0.  1.
</event>
<event>
 5   0  0.9170776E-04  0.1199170E+04  0.7818609E-02  0.9113583E-01
       -1   -1    0    0    0  501  0.00000000000E+00  0.00000000000E+00  0.43525781613E+03  0.43525781616E+03  0.50400001928E-02 0. -1.
        1   -1    0    0  501    0  0.00000000000E+00  0.00000000000E+00 -0.82595279225E+03  0.82595279226E+03  0.50400001928E-02 0.  1.
    10030    2    1    2    0    0  0.00000000000E+00  0.00000000000E+00 -0.39069497611E+03  0.12612106084E+04  0.11991703942E+04 0.  0.
        5    1    3    3  502    0 -0.34716619143E+03 -0.13127175067E+03  0.29988913986E+03  0.47719201921E+03  0.46999998093E+01 0. -1.
       -5    1    3    3    0  502  0.34716619143E+03  0.13127175067E+03 -0.69058411597E+03  0.78401858921E+03  0.46999998093E+01 0.  1.
</event>
<event>
 5   0  0.8908478E-04  0.1131262E+04  0.7818609E-02  0.9175247E-01
       -1   -1    0    0    0  501  0.00000000000E+00  0.00000000000E+00  0.26155254247E+03  0.26155254252E+03  0.50400001928E-02 0.  1.
        1   -1    0    0  501    0  0.00000000000E+00  0.00000000000E+00 -0.12232273627E+04  0.12232273627E+04  0.50400001928E-02 0. -1.
    10030    2    1    2    0    0  0.00000000000E+00  0.00000000000E+00 -0.96167482022E+03  0.14847799052E+04  0.11312616440E+04 0.  0.
        4    1    3    3  502    0  0.52677541811E+03 -0.44107160967E+02 -0.21670587035E+03  0.57131500061E+03  0.12699999809E+01 0.  1.
       -4    1    3    3    0  502 -0.52677541811E+03  0.44107160967E+02 -0.74496894988E+03  0.91346490461E+03  0.12699999809E+01 0. -1.
</event>
<event>
 5   0  0.9170776E-04  0.1194569E+04  0.7818609E-02  0.9117624E-01
        1   -1    0    0  501    0  0.00000000000E+00  0.00000000000E+00  0.11855594572E+04  0.11855594573E+04  0.50400001928E-02 0.  1.
       -1   -1    0    0    0  501  0.00000000000E+00  0.00000000000E+00 -0.30091161794E+03  0.30091161798E+03  0.50400001928E-02 0. -1.
    10030    2    1    2    0    0  0.00000000000E+00  0.00000000000E+00  0.88464783931E+03  0.14864710752E+04  0.11945687330E+04 0.  0.
        5    1    3    3  502    0 -0.25746059488E+02 -0.57376984566E+03  0.64623097689E+03  0.86458733559E+03  0.46999998093E+01 0.  1.
       -5    1    3    3    0  502  0.25746059488E+02  0.57376984566E+03  0.23841686242E+03  0.62188373966E+03  0.46999998093E+01 0. -1.
</event>
<event>
 5   0  0.8908478E-04  0.1206143E+04  0.7818609E-02  0.9107497E-01
       -1   -1    0    0    0  501  0.00000000000E+00  0.00000000000E+00  0.40907847380E+03  0.40907847383E+03  0.50400001928E-02 0.  1.
        1   -1    0    0  501    0  0.00000000000E+00  0.00000000000E+00 -0.88905926262E+03  0.88905926264E+03  0.50400001928E-02 0. -1.
    10030    2    1    2    0    0  0.00000000000E+00  0.00000000000E+00 -0.47998078882E+03  0.12981377365E+04  0.12061426222E+04 0.  0.
        4    1    3    3  502    0  0.33116227903E+03 -0.41248414317E+03 -0.55170410373E+03  0.76432365814E+03  0.12699999809E+01 0. -1.
       -4    1    3    3    0  502 -0.33116227903E+03  0.41248414317E+03  0.71723314905E+02  0.53381407833E+03  0.12699999809E+01 0.  1.
</event>
<event>
 5   0  0.1647550E-03  0.1160555E+04  0.7818609E-02  0.9148101E-01
        2   -1    0    0  501    0  0.00000000000E+00  0.00000000000E+00  0.36410784255E+03  0.36410784256E+03  0.25500000920E-02 0.  1.
       -2   -1    0    0    0  501  0.00000000000E+00  0.00000000000E+00 -0.92478697632E+03  0.92478697632E+03  0.25500000920E-02 0. -1.
    10030    2    1    2    0    0  0.00000000000E+00  0.00000000000E+00 -0.56067913377E+03  0.12888948189E+04  0.11605553684E+04 0.  0.
        3    1    3    3  502    0  0.33972338144E+03  0.97204434560E+02 -0.79152402019E+03  0.86681656810E+03  0.10100000352E+00 0. -1.
       -3    1    3    3    0  502 -0.33972338144E+03 -0.97204434560E+02  0.23084488642E+03  0.42207825078E+03  0.10100000352E+00 0.  1.
</event>
<event>
 5   0  0.9208078E-04  0.1196926E+04  0.7818609E-02  0.9115551E-01
        1   -1    0    0  501    0  0.00000000000E+00  0.00000000000E+00  0.15342297643E+04  0.15342297643E+04  0.50400001928E-02 0.  1.
       -1   -1    0    0    0  501  0.00000000000E+00  0.00000000000E+00 -0.23344497473E+03  0.23344497478E+03  0.50400001928E-02 0. -1.
    10030    2    1    2    0    0  0.00000000000E+00  0.00000000000E+00  0.13007847896E+04  0.17676747391E+04  0.11969264449E+04 0.  0.
        3    1    3    3  502    0  0.30913798371E+03  0.50873799109E+03  0.55962249930E+03  0.81704221952E+03  0.10100000352E+00 0.  1.
       -3    1    3    3    0  502 -0.30913798371E+03 -0.50873799109E+03  0.74116229027E+03  0.95063251957E+03  0.10100000352E+00 0. -1.
</event>
<event>
 5   0  0.1567019E-03  0.1146131E+04  0.7818609E-02  0.9161361E-01
       -2   -1    0    0    0  501  0.00000000000E+00  0.00000000000E+00  0.73925917085E+03  0.73925917085E+03  0.25500000920E-02 0.  1.
        2   -1    0    0  501    0  0.00000000000E+00  0.00000000000E+00 -0.44423374947E+03  0.44423374948E+03  0.25500000920E-02 0. -1.
    10030    2    1    2    0    0  0.00000000000E+00  0.00000000000E+00  0.29502542137E+03  0.11834929203E+04  0.11461306615E+04 0.  0.
        5    1    3    3  502    0 -0.38505498198E+03 -0.42023243523E+03  0.20876891540E+03  0.60701662976E+03  0.46999998093E+01 0.  1.
       -5    1    3    3    0  502  0.38505498198E+03  0.42023243523E+03  0.86256505974E+02  0.57647629057E+03  0.46999998093E+01 0. -1.
</event>
<event>
 5   0  0.1647550E-03  0.1191476E+04  0.7818609E-02  0.9120350E-01
        2   -1    0    0  501    0  0.00000000000E+00  0.00000000000E+00  0.42288305219E+03  0.42288305219E+03  0.25500000920E-02 0. -1.
       -2   -1    0    0    0  501  0.00000000000E+00  0.00000000000E+00 -0.83924863840E+03  0.83924863840E+03  0.25500000920E-02 0.  1.
    10030    2    1    2    0    0  0.00000000000E+00  0.00000000000E+00 -0.41636558621E+03  0.12621316906E+04  0.11914764383E+04 0.  0.
        3    1    3    3  502    0 -0.31825522001E+02 -0.32008590631E+03 -0.73935223770E+03  0.80629373857E+03  0.10100000352E+00 0.  1.
       -3    1    3    3    0  502  0.31825522001E+02  0.32008590631E+03  0.32298665149E+03  0.45583795202E+03  0.10100000352E+00 0. -1.
</event>
<event>
 5   0  0.9208078E-04  0.1196968E+04  0.7818609E-02  0.9115515E-01
       -1   -1    0    0    0  501  0.00000000000E+00  0.00000000000E+00  0.31237971356E+03  0.31237971361E+03  0.50400001928E-02 0. -1.
        1   -1    0    0  501    0  0.00000000000E+00  0.00000000000E+00 -0.11466263797E+04  0.11466263797E+04  0.50400001928E-02 0.  1.
    10030    2    1    2    0    0  0.00000000000E+00  0.00000000000E+00 -0.83424666612E+03  0.14590060933E+04  0.11969675352E+04 0.  0.
        3    1    3    3  502    0  0.25414280219E+02  0.10683836615E+03 -0.11342397130E+04  0.11395437942E+04  0.10100000352E+00 0.  1.
       -3    1    3    3    0  502 -0.25414280219E+02 -0.10683836615E+03  0.29999304693E+03  0.31946229907E+03  0.10100000352E+00 0. -1.
</event>
<event>
 5   0  0.1551501E-03  0.1194819E+04  0.7818609E-02  0.9117403E-01
        2   -1    0    0  501    0  0.00000000000E+00  0.00000000000E+00  0.31522414837E+03  0.31522414838E+03  0.25500000920E-02 0. -1.
       -2   -1    0    0    0  501  0.00000000000E+00  0.00000000000E+00 -0.11322044256E+04  0.11322044256E+04  0.25500000920E-02 0.  1.
    10030    2    1    2    0    0  0.00000000000E+00  0.00000000000E+00 -0.81698027725E+03  0.14474285740E+04  0.11948191091E+04 0.  0.
        4    1    3    3  502    0  0.30085396570E+03 -0.19692782737E+03 -0.98643161566E+03  0.10499250560E+04  0.12699999809E+01 0.  1.
       -4    1    3    3    0  502 -0.30085396570E+03  0.19692782737E+03  0.16945133841E+03  0.39750351805E+03  0.12699999809E+01 0. -1.
</event>
<event>
 5   0  0.1567019E-03  0.1199029E+04  0.7818609E-02  0.9113707E-01
       -2   -1    0    0    0  501  0.00000000000E+00  0.00000000000E+00  0.59116421323E+03  0.59116421324E+03  0.25500000920E-02 0. -1.
        2   -1    0    0  501    0  0.00000000000E+00  0.00000000000E+00 -0.60798247957E+03  0.60798247958E+03  0.25500000920E-02 0.  1.
    10030    2    1    2    0    0  0.00000000000E+00  0.00000000000E+00 -0.16818266340E+02  0.11991466928E+04  0.11990287473E+04 0.  0.
        5    1    3    3  502    0  0.11516497696E+03  0.56604969932E+03  0.15198170353E+03  0.59732383363E+03  0.46999998093E+01 0. -1.
       -5    1    3    3    0  502 -0.11516497696E+03 -0.56604969932E+03 -0.16879996987E+03  0.60182285919E+03  0.46999998093E+01 0.  1.
</event>
<event>
 5   0  0.9358428E-04  0.1197567E+04  0.7818609E-02  0.9114989E-01
       -1   -1    0    0    0  501  0.00000000000E+00  0.00000000000E+00  0.23142391708E+03  0.23142391713E+03  0.50400001928E-02 0.  1.
        1   -1    0    0  501    0  0.00000000000E+00  0.00000000000E+00 -0.15492861825E+04  0.15492861825E+04  0.50400001928E-02 0. -1.
    10030    2    1    2    0    0  0.00000000000E+00  0.00000000000E+00 -0.13178622654E+04  0.17807100996E+04  0.11975673294E+04 0.  0.
        2    1    3    3  502    0  0.33795053817E+03  0.47489015912E+03 -0.86286772400E+03  0.10412837935E+04  0.25500000920E-02 0. -1.
       -2    1    3    3    0  502 -0.33795053817E+03 -0.47489015912E+03 -0.45499454142E+03  0.73942630613E+03  0.25500000920E-02 0.  1.
</event>
<event>
 5   0  0.8908478E-04  0.1200861E+04  0.7818609E-02  0.9112103E-01
       -1   -1    0    0    0  501  0.00000000000E+00  0.00000000000E+00  0.68051693555E+03  0.68051693557E+03  0.50400001928E-02 0. -1.
        1   -1    0    0  501    0  0.00000000000E+00  0.00000000000E+00 -0.52976877173E+03  0.52976877176E+03  0.50400001928E-02 0.  1.
    10030    2    1    2    0    0  0.00000000000E+00  0.00000000000E+00  0.15074816382E+03  0.12102857073E+04  0.12008607265E+04 0.  0.
        4    1    3    3  502    0 -0.41231877585E+03 -0.39995463749E+03  0.25151568246E+03  0.62708232027E+03  0.12699999809E+01 0.  1.
       -4    1    3    3    0  502  0.41231877585E+03  0.39995463749E+03 -0.10076751864E+03  0.58320338706E+03  0.12699999809E+01 0. -1.
</event>
<event>
 5   0  0.9208078E-04  0.1206402E+04  0.7818609E-02  0.9107272E-01
        1   -1    0    0  501    0  0.00000000000E+00  0.00000000000E+00  0.80628275196E+03  0.80628275198E+03  0.50400001928E-02 0.  1.
       -1   -1    0    0    0  501  0.00000000000E+00  0.00000000000E+00 -0.45126997311E+03  0.45126997314E+03  0.50400001928E-02 0. -1.
    10030    2    1    2    0    0  0.00000000000E+00  0.00000000000E+00  0.35501277885E+03  0.12575527251E+04  0.12064015846E+04 0.  0.
        3    1    3    3  502    0 -0.19136567850E+02 -0.27288190702E+03  0.73790698001E+03  0.78697996465E+03  0.10100000352E+00 0.  1.
       -3    1    3    3    0  502  0.19136567850E+02  0.27288190702E+03 -0.38289420116E+03  0.47057276047E+03  0.10100000352E+00 0. -1.
</event>
<event>
 5   0  0.9170776E-04  0.1178647E+04  0.7818609E-02  0.9131755E-01
        1   -1    0    0  501    0  0.00000000000E+00  0.00000000000E+00  0.20845134583E+03  0.20845134589E+03  0.50400001928E-02 0. -1.
       -1   -1    0    0    0  501  0.00000000000E+00  0.00000000000E+00 -0.16661075456E+04  0.16661075456E+04  0.50400001928E-02 0.  1.
    10030    2    1    2    0    0  0.00000000000E+00  0.00000000000E+00 -0.14576561998E+04  0.18745588915E+04  0.11786472929E+04 0.  0.
        5    1    3    3  502    0  0.44533549954E+03 -0.31681249130E+03 -0.10793963851E+04  0.12098811958E+04  0.46999998093E+01 0.  1.
       -5    1    3    3    0  502 -0.44533549954E+03  0.31681249130E+03 -0.37825981473E+03  0.66467769576E+03  0.46999998093E+01 0. -1.
</event>
<event>
 5   0  0.1597352E-03  0.1204607E+04  0.7818609E-02  0.9108834E-01
       -2   -1    0    0    0  501  0.00000000000E+00  0.00000000000E+00  0.44789439433E+03  0.44789439434E+03  0.25500000920E-02 0. -1.
        2   -1    0    0  501    0  0.00000000000E+00  0.00000000000E+00 -0.80994361588E+03  0.80994361588E+03  0.25500000920E-02 0.  1.
    10030    2    1    2    0    0  0.00000000000E+00  0.00000000000E+00 -0.36204922154E+03  0.12578380102E+04  0.12046065005E+04 0.  0.
        1    1    3    3  502    0  0.54118459389E+03  0.24377427517E+03 -0.74217996698E+02  0.59817637278E+03  0.50400001928E-02 0. -1.
       -1    1    3    3    0  502 -0.54118459389E+03 -0.24377427517E+03 -0.28783122485E+03  0.65966163744E+03  0.50400001928E-02 0.  1.
</event>
<event>
 5   0  0.9169078E-04  0.1192455E+04  0.7818609E-02  0.9119486E-01
        1   -1    0    0  501    0  0.00000000000E+00  0.00000000000E+00  0.52210244738E+03  0.52210244740E+03  0.50400001928E-02 0. -1.
       -1   -1    0    0    0  501  0.00000000000E+00  0.00000000000E+00 -0.68087645174E+03  0.68087645176E+03  0.50400001928E-02 0.  1.
    10030    2    1    2    0    0  0.00000000000E+00  0.00000000000E+00 -0.15877400436E+03  0.12029788992E+04  0.11924550505E+04 0.  0.
        1    1    3    3  502    0 -0.35232649819E+02 -0.42768514260E+03 -0.49696191529E+03  0.65660266987E+03  0.50400001928E-02 0.  1.
       -1    1    3    3    0  502  0.35232649819E+02  0.42768514260E+03  0.33818791093E+03  0.54637622929E+03  0.50400001928E-02 0. -1.
</event>
<event>
 5   0  0.1597352E-03  0.1197761E+04  0.7818609E-02  0.9114818E-01
        2   -1    0    0  501    0  0.00000000000E+00  0.00000000000E+00  0.54121577267E+03  0.54121577267E+03  0.25500000920E-02 0. -1.
       -2   -1    0    0    0  501  0.00000000000E+00  0.00000000000E+00 -0.66268948699E+03  0.66268948699E+03  0.25500000920E-02 0.  1.
    10030    2    1    2    0    0  0.00000000000E+00  0.00000000000E+00 -0.12147371432E+03  0.12039052597E+04  0.11977612496E+04 0.  0.
        1    1    3    3  502    0  0.15172442028E+03 -0.30638389684E+03  0.43348302688E+03  0.55208597752E+03  0.50400001928E-02 0. -1.
       -1    1    3    3    0  502 -0.15172442028E+03  0.30638389684E+03 -0.55495674120E+03  0.65181928215E+03  0.50400001928E-02 0.  1.
</event>
<event>
 5   0  0.9208078E-04  0.1199365E+04  0.7818609E-02  0.9113412E-01
        1   -1    0    0  501    0  0.00000000000E+00  0.00000000000E+00  0.39659990038E+03  0.39659990041E+03  0.50400001928E-02 0.  1.
       -1   -1    0    0    0  501  0.00000000000E+00  0.00000000000E+00 -0.90675560674E+03  0.90675560675E+03  0.50400001928E-02 0. -1.
    10030    2    1    2    0    0  0.00000000000E+00  0.00000000000E+00 -0.51015570636E+03  0.13033555072E+04  0.11993651376E+04 0.  0.
        3    1    3    3  502    0  0.44501598205E+03 -0.39134241952E+03 -0.15529577415E+03  0.61262133595E+03  0.10100000352E+00 0.  1.
       -3    1    3    3    0  502 -0.44501598205E+03  0.39134241952E+03 -0.35485993220E+03  0.69073417121E+03  0.10100000352E+00 0. -1.
</event>
<event>
 5   0  0.9358428E-04  0.1202438E+04  0.7818609E-02  0.9110725E-01
        1   -1    0    0  501    0  0.00000000000E+00  0.00000000000E+00  0.45842885065E+03  0.45842885068E+03  0.50400001928E-02 0. -1.
       -1   -1    0    0    0  501  0.00000000000E+00  0.00000000000E+00 -0.78848535999E+03  0.78848536001E+03  0.50400001928E-02 0.  1.
    10030    2    1    2    0    0  0.00000000000E+00  0.00000000000E+00 -0.33005650934E+03  0.12469142107E+04  0.12024382518E+04 0.  0.
        2    1    3    3  502    0  0.46827362094E+03 -0.10853190197E+03  0.20944520681E+03  0.52433448530E+03  0.25500000920E-02 0. -1.
       -2    1    3    3    0  502 -0.46827362094E+03  0.10853190197E+03 -0.53950171615E+03  0.72257972539E+03  0.25500000920E-02 0.  1.
</event>
<event>
 5   0  0.9170776E-04  0.1199637E+04  0.7818609E-02  0.9113174E-01
       -1   -1    0    0    0  501  0.00000000000E+00  0.00000000000E+00  0.28009714994E+03  0.28009714998E+03  0.50400001928E-02 0.  1.
        1   -1    0    0  501    0  0.00000000000E+00  0.00000000000E+00 -0.12844911164E+04  0.12844911164E+04  0.50400001928E-02 0. -1.
    10030    2    1    2    0    0  0.00000000000E+00  0.00000000000E+00 -0.10043939664E+04  0.15645882664E+04  0.11996371132E+04 0.  0.
        5    1    3    3  502    0  0.24113905689E+03  0.53737046037E+03 -0.65001243690E+03  0.87718488049E+03  0.46999998093E+01 0. -1.
       -5    1    3    3    0  502 -0.24113905689E+03 -0.53737046037E+03 -0.35438152953E+03  0.68740338588E+03  0.46999998093E+01 0.  1.
</event>
<event>
 5   0  0.1567019E-03  0.1200239E+04  0.7818609E-02  0.9112647E-01
        2   -1    0    0  501    0  0.00000000000E+00  0.00000000000E+00  0.63327971436E+03  0.63327971437E+03  0.25500000920E-02 0. -1.
       -2   -1    0    0    0  501  0.00000000000E+00  0.00000000000E+00 -0.56869604911E+03  0.56869604912E+03  0.25500000920E-02 0.  1.
    10030    2    1    2    0    0  0.00000000000E+00  0.00000000000E+00  0.64583665249E+02  0.12019757635E+04  0.12002394287E+04 0.  0.
        5    1    3    3  502    0 -0.54219779108E+03  0.12645394524E+03  0.25656342830E+03  0.61303827585E+03  0.46999998093E+01 0. -1.
       -5    1    3    3    0  502  0.54219779108E+03 -0.12645394524E+03 -0.19197976305E+03  0.58893748763E+03  0.46999998093E+01 0.  1.
</event>
<event>
 5   0  0.1567019E-03  0.1202107E+04  0.7818609E-02  0.9111014E-01
       -2   -1    0    0    0  501  0.00000000000E+00  0.00000000000E+00  0.49026242011E+03  0.49026242012E+03  0.25500000920E-02 0. -1.
        2   -1    0    0  501    0  0.00000000000E+00  0.00000000000E+00 -0.73688141949E+03  0.73688141949E+03  0.25500000920E-02 0.  1.
    10030    2    1    2    0    0  0.00000000000E+00  0.00000000000E+00 -0.24661899938E+03  0.12271438396E+04  0.12021069305E+04 0.  0.
        5    1    3    3  502    0  0.22256264549E+03  0.34097793569E+03 -0.57460659205E+03  0.70426906039E+03  0.46999998093E+01 0.  1.
       -5    1    3    3    0  502 -0.22256264549E+03 -0.34097793569E+03  0.32798759268E+03  0.52287477922E+03  0.46999998093E+01 0. -1.
</event>
<event>
 5   0  0.1567019E-03  0.1283536E+04  0.7818609E-02  0.9042724E-01
       -2   -1    0    0    0  501  0.00000000000E+00  0.00000000000E+00  0.62575343056E+03  0.62575343057E+03  0.25500000920E-02 0.  1.
        2   -1    0    0  501    0  0.00000000000E+00  0.00000000000E+00 -0.65819222997E+03  0.65819222998E+03  0.25500000920E-02 0. -1.
    10030    2    1    2    0    0  0.00000000000E+00  0.00000000000E+00 -0.32438799407E+02  0.12839456605E+04  0.12835358131E+04 0.  0.
        5    1    3    3  502    0 -0.10909481139E+03 -0.42531229084E+03 -0.48439847546E+03  0.65380134264E+03  0.46999998093E+01 0. -1.
       -5    1    3    3    0  502  0.10909481139E+03  0.42531229084E+03  0.45195967606E+03  0.63014431790E+03  0.46999998093E+01 0.  1.
</event>
<event>
 5   0  0.8908478E-04  0.1199791E+04  0.7818609E-02  0.9113039E-01
        1   -1    0    0  501    0  0.00000000000E+00  0.00000000000E+00  0.29581451579E+03  0.29581451583E+03  0.50400001928E-02 0. -1.
       -1   -1    0    0    0  501  0.00000000000E+00  0.00000000000E+00 -0.12165556319E+04  0.12165556319E+04  0.50400001928E-02 0.  1.
    10030    2    1    2    0    0  0.00000000000E+00  0.00000000000E+00 -0.92074111607E+03  0.15123701477E+04  0.11997913405E+04 0.  0.
        4    1    3    3  502    0  0.57176932893E+03  0.17072534843E+03 -0.38260619564E+03  0.70884160709E+03  0.12699999809E+01 0. -1.
       -4    1    3    3    0  502 -0.57176932893E+03 -0.17072534843E+03 -0.53813492043E+03  0.80352854062E+03  0.12699999809E+01 0.  1.
</event>
<event>
 5   0  0.1537557E-03  0.1188125E+04  0.7818609E-02  0.9123314E-01
        2   -1    0    0  501    0  0.00000000000E+00  0.00000000000E+00  0.13681275613E+04  0.13681275613E+04  0.25500000920E-02 0. -1.
       -2   -1    0    0    0  501  0.00000000000E+00  0.00000000000E+00 -0.25795146989E+03  0.25795146990E+03  0.25500000920E-02 0.  1.
    10030    2    1    2    0    0  0.00000000000E+00  0.00000000000E+00  0.11101760914E+04  0.16260790312E+04  0.11881254402E+04 0.  0.
        2    1    3    3  502    0  0.20796816081E+03 -0.35339292920E+03  0.11433880358E+04  0.12146907091E+04  0.25500000920E-02 0. -1.
       -2    1    3    3    0  502 -0.20796816081E+03  0.35339292920E+03 -0.33211944387E+02  0.41138832212E+03  0.25500000920E-02 0.  1.
</event>
<event>
 5   0  0.1647550E-03  0.1207313E+04  0.7818609E-02  0.9106480E-01
        2   -1    0    0  501    0  0.00000000000E+00  0.00000000000E+00  0.11291381462E+04  0.11291381462E+04  0.25500000920E-02 0.  1.
       -2   -1    0    0    0  501  0.00000000000E+00  0.00000000000E+00 -0.32272492682E+03  0.32272492683E+03  0.25500000920E-02 0. -1.
    10030    2    1    2    0    0  0.00000000000E+00  0.00000000000E+00  0.80641321941E+03  0.14518630731E+04  0.12073127608E+04 0.  0.
        3    1    3    3  502    0  0.17969309463E+03 -0.89347204222E+02  0.10878500755E+04  0.11062053734E+04  0.10100000352E+00 0.  1.
       -3    1    3    3    0  502 -0.17969309463E+03  0.89347204222E+02 -0.28143685610E+03  0.34565769966E+03  0.10100000352E+00 0. -1.
</event>
<event>
 5   0  0.9169078E-04  0.1206210E+04  0.7818609E-02  0.9107439E-01
       -1   -1    0    0    0  501  0.00000000000E+00  0.00000000000E+00  0.40195802104E+03  0.40195802107E+03  0.50400001928E-02 0.  1.
        1   -1    0    0  501    0  0.00000000000E+00  0.00000000000E+00 -0.90490882252E+03  0.90490882253E+03  0.50400001928E-02 0. -1.
    10030    2    1    2    0    0  0.00000000000E+00  0.00000000000E+00 -0.50295080148E+03  0.13068668436E+04  0.12062095333E+04 0.  0.
        1    1    3    3  502    0 -0.43077766606E+03 -0.20713556493E+02  0.20529441432E+03  0.47764447613E+03  0.50400001928E-02 0.  1.
       -1    1    3    3    0  502  0.43077766606E+03  0.20713556493E+02 -0.70824521580E+03  0.82922236748E+03  0.50400001928E-02 0. -1.
</event>
<event>
 5   0  0.1647550E-03  0.1182802E+04  0.7818609E-02  0.9128045E-01
        2   -1    0    0  501    0  0.00000000000E+00  0.00000000000E+00  0.93953354480E+03  0.93953354480E+03  0.25500000920E-02 0.  1.
       -2   -1    0    0    0  501  0.00000000000E+00  0.00000000000E+00 -0.37226448943E+03  0.37226448944E+03  0.25500000920E-02 0. -1.
    10030    2    1    2    0    0  0.00000000000E+00  0.00000000000E+00  0.56726905536E+03  0.13117980342E+04  0.11828017169E+04 0.  0.
        3    1    3    3  502    0 -0.41406410923E+03 -0.36475253692E+03  0.47684879036E+02  0.55386582999E+03  0.10100000352E+00 0. -1.
       -3    1    3    3    0  502  0.41406410923E+03  0.36475253692E+03  0.51958417633E+03  0.75793220425E+03  0.10100000352E+00 0.  1.
</event>
<event>
 5   0  0.8908478E-04  0.1202738E+04  0.7818609E-02  0.9110463E-01
        1   -1    0    0  501    0  0.00000000000E+00  0.00000000000E+00  0.36864226998E+03  0.36864227001E+03  0.50400001928E-02 0. -1.
       -1   -1    0    0    0  501  0.00000000000E+00  0.00000000000E+00 -0.98101775469E+03  0.98101775471E+03  0.50400001928E-02 0.  1.
    10030    2    1    2    0    0  0.00000000000E+00  0.00000000000E+00 -0.61237548472E+03  0.13496600247E+04  0.12027378967E+04 0.  0.
        4    1    3    3  502    0  0.34509481959E+02 -0.15092074500E+03  0.34589522880E+03  0.37896318795E+03  0.12699999809E+01 0. -1.
       -4    1    3    3    0  502 -0.34509481959E+02  0.15092074500E+03 -0.95827071352E+03  0.97069683676E+03  0.12699999809E+01 0.  1.
</event>
<event>
 5   0  0.1567019E-03  0.1190511E+04  0.7818609E-02  0.9121203E-01
       -2   -1    0    0    0  501  0.00000000000E+00  0.00000000000E+00  0.35553728804E+03  0.35553728805E+03  0.25500000920E-02 0. -1.
        2   -1    0    0  501    0  0.00000000000E+00  0.00000000000E+00 -0.99660222637E+03  0.99660222637E+03  0.25500000920E-02 0.  1.
    10030    2    1    2    0    0  0.00000000000E+00  0.00000000000E+00 -0.64106493832E+03  0.13521395144E+04  0.11905112395E+04 0.  0.
        5    1    3    3  502    0 -0.43183641714E+03 -0.10472490192E+03  0.12928900825E+03  0.46280420688E+03  0.46999998093E+01 0. -1.
       -5    1    3    3    0  502  0.43183641714E+03  0.10472490192E+03 -0.77035394657E+03  0.88933530754E+03  0.46999998093E+01 0.  1.
</event>
<event>
 5   0  0.9208078E-04  0.1241983E+04  0.7818609E-02  0.9076882E-01
       -1   -1    0    0    0  501  0.00000000000E+00  0.00000000000E+00  0.62547729388E+03  0.62547729390E+03  0.50400001928E-02 0. -1.
        1   -1    0    0  501    0  0.00000000000E+00  0.00000000000E+00 -0.61653822840E+03  0.61653822842E+03  0.50400001928E-02 0.  1.
    10030    2    1    2    0    0  0.00000000000E+00  0.00000000000E+00  0.89390654817E+01  0.12420155223E+04  0.12419833537E+04 0.  0.
        3    1    3    3  502    0 -0.53914475556E+03  0.16737501346E+02 -0.30322893239E+03  0.61879318600E+03  0.10100000352E+00 0.  1.
       -3    1    3    3    0  502  0.53914475556E+03 -0.16737501346E+02  0.31216799787E+03  0.62322233633E+03  0.10100000352E+00 0. -1.
</event>
<event>
 5   0  0.1537557E-03  0.1203450E+04  0.7818609E-02  0.9109842E-01
        2   -1    0    0  501    0  0.00000000000E+00  0.00000000000E+00  0.58164980237E+03  0.58164980237E+03  0.25500000920E-02 0. -1.
       -2   -1    0    0    0  501  0.00000000000E+00  0.00000000000E+00 -0.62249321743E+03  0.62249321744E+03  0.25500000920E-02 0.  1.
    10030    2    1    2    0    0  0.00000000000E+00  0.00000000000E+00 -0.40843415066E+02  0.12041430198E+04  0.12034501351E+04 0.  0.
        2    1    3    3  502    0 -0.38361899764E+03  0.25496315146E+03  0.36697469911E+03  0.58893138289E+03  0.25500000920E-02 0. -1.
       -2    1    3    3    0  502  0.38361899764E+03 -0.25496315146E+03 -0.40781811417E+03  0.61521163693E+03  0.25500000920E-02 0.  1.
</event>
<event>
 5   0  0.9170776E-04  0.1198102E+04  0.7818609E-02  0.9114520E-01
        1   -1    0    0  501    0  0.00000000000E+00  0.00000000000E+00  0.54638116735E+03  0.54638116737E+03  0.50400001928E-02 0.  1.
       -1   -1    0    0    0  501  0.00000000000E+00  0.00000000000E+00 -0.65679780025E+03  0.65679780027E+03  0.50400001928E-02 0. -1.
    10030    2    1    2    0    0  0.00000000000E+00  0.00000000000E+00 -0.11041663290E+03  0.12031789676E+04  0.11981017467E+04 0.  0.
        5    1    3    3  502    0  0.58301012887E+03 -0.27898809642E+02  0.80124425444E+02  0.58916989697E+03  0.46999998093E+01 0.  1.
       -5    1    3    3    0  502 -0.58301012887E+03  0.27898809642E+02 -0.19054105834E+03  0.61400907067E+03  0.46999998093E+01 0. -1.
</event>
<event>
 5   0  0.9358428E-04  0.1203887E+04  0.7818609E-02  0.9109461E-01
       -1   -1    0    0    0  501  0.00000000000E+00  0.00000000000E+00  0.35093565259E+03  0.35093565262E+03  0.50400001928E-02 0.  1.
        1   -1    0    0  501    0  0.00000000000E+00  0.00000000000E+00 -0.10324860148E+04  0.10324860148E+04  0.50400001928E-02 0. -1.
    10030    2    1    2    0    0  0.00000000000E+00  0.00000000000E+00 -0.68155036223E+03  0.13834216675E+04  0.12038872928E+04 0.  0.
        2    1    3    3  502    0 -0.30417724253E+02  0.39537145790E+03  0.17963220037E+03  0.43532924906E+03  0.25500000920E-02 0.  1.
       -2    1    3    3    0  502  0.30417724253E+02 -0.39537145790E+03 -0.86118256261E+03  0.94809241839E+03  0.25500000920E-02 0. -1.
</event>
<event>
 5   0  0.9170776E-04  0.1208539E+04  0.7818609E-02  0.9105415E-01
        1   -1    0    0  501    0  0.00000000000E+00  0.00000000000E+00  0.17501750607E+04  0.17501750607E+04  0.50400001928E-02 0. -1.
       -1   -1    0    0    0  501  0.00000000000E+00  0.00000000000E+00 -0.20863137715E+03  0.20863137721E+03  0.50400001928E-02 0.  1.
    10030    2    1    2    0    0  0.00000000000E+00  0.00000000000E+00  0.15415436835E+04  0.19588064379E+04  0.12085386766E+04 0.  0.
        5    1    3    3  502    0 -0.53568052307E+03  0.27323954732E+03  0.67480330211E+03  0.90387779016E+03  0.46999998093E+01 0. -1.
       -5    1    3    3    0  502  0.53568052307E+03 -0.27323954732E+03  0.86674038141E+03  0.10549286477E+04  0.46999998093E+01 0.  1.
</event>
<event>
 5   0  0.1567019E-03  0.1210406E+04  0.7818609E-02  0.9103797E-01
        2   -1    0    0  501    0  0.00000000000E+00  0.00000000000E+00  0.66602731015E+03  0.66602731015E+03  0.25500000920E-02 0. -1.
       -2   -1    0    0    0  501  0.00000000000E+00  0.00000000000E+00 -0.54993298162E+03  0.54993298163E+03  0.25500000920E-02 0.  1.
    10030    2    1    2    0    0  0.00000000000E+00  0.00000000000E+00  0.11609432853E+03  0.12159602918E+04  0.12104055263E+04 0.  0.
        5    1    3    3  502    0  0.37104234107E+03  0.17837037942E+03  0.50365905731E+03  0.65052513182E+03  0.46999998093E+01 0. -1.
       -5    1    3    3    0  502 -0.37104234107E+03 -0.17837037942E+03 -0.38756472879E+03  0.56543515996E+03  0.46999998093E+01 0.  1.
</event>
<event>
 5   0  0.9170776E-04  0.1184516E+04  0.7818609E-02  0.9126518E-01
        1   -1    0    0  501    0  0.00000000000E+00  0.00000000000E+00  0.34504317470E+03  0.34504317474E+03  0.50400001928E-02 0. -1.
       -1   -1    0    0    0  501  0.00000000000E+00  0.00000000000E+00 -0.10165965041E+04  0.10165965042E+04  0.50400001928E-02 0.  1.
    10030    2    1    2    0    0  0.00000000000E+00  0.00000000000E+00 -0.67155332945E+03  0.13616396789E+04  0.11845162476E+04 0.  0.
        5    1    3    3  502    0  0.24707667509E+03 -0.58589559410E+02 -0.95082260975E+03  0.98415717498E+03  0.46999998093E+01 0.  1.
       -5    1    3    3    0  502 -0.24707667509E+03  0.58589559410E+02  0.27926928030E+03  0.37748250392E+03  0.46999998093E+01 0. -1.
</event>
<event>
 5   0  0.1597352E-03  0.1196965E+04  0.7818609E-02  0.9115517E-01
        2   -1    0    0  501    0  0.00000000000E+00  0.00000000000E+00  0.35289260698E+03  0.35289260699E+03  0.25500000920E-02 0.  1.
       -2   -1    0    0    0  501  0.00000000000E+00  0.00000000000E+00 -0.10149870743E+04  0.10149870743E+04  0.25500000920E-02 0. -1.
    10030    2    1    2    0    0  0.00000000000E+00  0.00000000000E+00 -0.66209446728E+03  0.13678796813E+04  0.11969652204E+04 0.  0.
        1    1    3    3  502    0  0.45885389977E+03  0.10347274006E+03 -0.75392259421E+03  0.88862409789E+03  0.50400001928E-02 0. -1.
       -1    1    3    3    0  502 -0.45885389977E+03 -0.10347274006E+03  0.91828126925E+02  0.47925558337E+03  0.50400001928E-02 0.  1.
</event>
<event>
 5   0  0.1567019E-03  0.1143921E+04  0.7818609E-02  0.9163410E-01
        2   -1    0    0  501    0  0.00000000000E+00  0.00000000000E+00  0.67256492730E+03  0.67256492730E+03  0.25500000920E-02 0.  1.
       -2   -1    0    0    0  501  0.00000000000E+00  0.00000000000E+00 -0.48640499272E+03  0.48640499273E+03  0.25500000920E-02 0. -1.
    10030    2    1    2    0    0  0.00000000000E+00  0.00000000000E+00  0.18615993457E+03  0.11589699200E+04  0.11439212186E+04 0.  0.
        5    1    3    3  502    0  0.32201258171E+03  0.47094444143E+03  0.13406055367E+03  0.58606748054E+03  0.46999998093E+01 0.  1.
       -5    1    3    3    0  502 -0.32201258171E+03 -0.47094444143E+03  0.52099380909E+02  0.57290243950E+03  0.46999998093E+01 0. -1.
</event>
<event>
 5   0  0.1567019E-03  0.1198260E+04  0.7818609E-02  0.9114381E-01
       -2   -1    0    0    0  501  0.00000000000E+00  0.00000000000E+00  0.79130358125E+03  0.79130358126E+03  0.25500000920E-02 0. -1.
        2   -1    0    0  501    0  0.00000000000E+00  0.00000000000E+00 -0.45362713950E+03  0.45362713950E+03  0.25500000920E-02 0.  1.
    10030    2    1    2    0    0  0.00000000000E+00  0.00000000000E+00  0.33767644175E+03  0.12449307208E+04  0.11982600386E+04 0.  0.
        5    1    3    3  502    0  0.16939996547E+03  0.34045210399E+03 -0.31215206550E+03  0.49200100143E+03  0.46999998093E+01 0.  1.
       -5    1    3    3    0  502 -0.16939996547E+03 -0.34045210399E+03  0.64982850725E+03  0.75292971933E+03  0.46999998093E+01 0. -1.
</event>
<event>
 5   0  0.9208078E-04  0.1216960E+04  0.7818609E-02  0.9098140E-01
       -1   -1    0    0    0  501  0.00000000000E+00  0.00000000000E+00  0.63094425309E+03  0.63094425311E+03  0.50400001928E-02 0. -1.
        1   -1    0    0  501    0  0.00000000000E+00  0.00000000000E+00 -0.58681556079E+03  0.58681556081E+03  0.50400001928E-02 0.  1.
    10030    2    1    2    0    0  0.00000000000E+00  0.00000000000E+00  0.44128692297E+02  0.12177598139E+04  0.12169599923E+04 0.  0.
        3    1    3    3  502    0 -0.55312544143E+03 -0.13805398317E+03 -0.19077532724E+03  0.60116710814E+03  0.10100000352E+00 0.  1.
       -3    1    3    3    0  502  0.55312544143E+03  0.13805398317E+03  0.23490401954E+03  0.61659270578E+03  0.10100000352E+00 0. -1.
</event>
<event>
 5   0  0.9170776E-04  0.1211675E+04  0.7818609E-02  0.9102699E-01
       -1   -1    0    0    0  501  0.00000000000E+00  0.00000000000E+00  0.54410253198E+03  0.54410253200E+03  0.50400001928E-02 0. -1.
        1   -1    0    0  501    0  0.00000000000E+00  0.00000000000E+00 -0.67457674326E+03  0.67457674328E+03  0.50400001928E-02 0.  1.
    10030    2    1    2    0    0  0.00000000000E+00  0.00000000000E+00 -0.13047421129E+03  0.12186792753E+04  0.12116747320E+04 0.  0.
        5    1    3    3  502    0  0.42772637955E+03  0.76011664097E+02  0.35944688204E+03  0.56387213076E+03  0.46999998093E+01 0. -1.
       -5    1    3    3    0  502 -0.42772637955E+03 -0.76011664097E+02 -0.48992109332E+03  0.65480714452E+03  0.46999998093E+01 0.  1.
</event>
<event>
 5   0  0.1567019E-03  0.1200077E+04  0.7818609E-02  0.9112789E-01
       -2   -1    0    0    0  501  0.00000000000E+00  0.00000000000E+00  0.41426626182E+03  0.41426626183E+03  0.25500000920E-02 0.  1.
        2   -1    0    0  501    0  0.00000000000E+00  0.00000000000E+00 -0.86911777736E+03  0.86911777737E+03  0.25500000920E-02 0. -1.
    10030    2    1    2    0    0  0.00000000000E+00  0.00000000000E+00 -0.45485151554E+03  0.12833840392E+04  0.12000769521E+04 0.  0.
        5    1    3    3  502    0  0.79856556294E+01  0.46035885361E+03 -0.63888087129E+03  0.78751819185E+03  0.46999998093E+01 0. -1.
       -5    1    3    3    0  502 -0.79856556294E+01 -0.46035885361E+03  0.18402935575E+03  0.49586584735E+03  0.46999998093E+01 0.  1.
</event>
<event>
 5   0  0.9358428E-04  0.1194588E+04  0.7818609E-02  0.9117607E-01
       -1   -1    0    0    0  501  0.00000000000E+00  0.00000000000E+00  0.15855478798E+04  0.15855478799E+04  0.50400001928E-02 0.  1.
        1   -1    0    0  501    0  0.00000000000E+00  0.00000000000E+00 -0.22500735452E+03  0.22500735458E+03  0.50400001928E-02 0. -1.
    10030    2    1    2    0    0  0.00000000000E+00  0.00000000000E+00  0.13605405253E+04  0.18105552344E+04  0.11945876845E+04 0.  0.
        2    1    3    3  502    0  0.41185091378E+03  0.25977713288E+03  0.12045444128E+04  0.12992430782E+04  0.25500000920E-02 0.  1.
       -2    1    3    3    0  502 -0.41185091378E+03 -0.25977713288E+03  0.15599611254E+03  0.51131215621E+03  0.25500000920E-02 0. -1.
</event>
<event>
 5   0  0.1597352E-03  0.1201691E+04  0.7818609E-02  0.9111378E-01
        2   -1    0    0  501    0  0.00000000000E+00  0.00000000000E+00  0.15700028238E+04  0.15700028238E+04  0.25500000920E-02 0. -1.
       -2   -1    0    0    0  501  0.00000000000E+00  0.00000000000E+00 -0.22994571609E+03  0.22994571610E+03  0.25500000920E-02 0.  1.
    10030    2    1    2    0    0  0.00000000000E+00  0.00000000000E+00  0.13400571077E+04  0.17999485399E+04  0.12016911809E+04 0.  0.
        1    1    3    3  502    0  0.63539321410E+02 -0.50501308540E+03  0.19179565595E+03  0.54393109440E+03  0.50400001928E-02 0.  1.
       -1    1    3    3    0  502 -0.63539321410E+02  0.50501308540E+03  0.11482614517E+04  0.12560174455E+04  0.50400001928E-02 0. -1.
</event>
<event>
 5   0  0.9170776E-04  0.1192202E+04  0.7818609E-02  0.9119710E-01
       -1   -1    0    0    0  501  0.00000000000E+00  0.00000000000E+00  0.23946454465E+03  0.23946454470E+03  0.50400001928E-02 0. -1.
        1   -1    0    0  501    0  0.00000000000E+00  0.00000000000E+00 -0.14838791165E+04  0.14838791165E+04  0.50400001928E-02 0.  1.
    10030    2    1    2    0    0  0.00000000000E+00  0.00000000000E+00 -0.12444145719E+04  0.17233436612E+04  0.11922020584E+04 0.  0.
        5    1    3    3  502    0 -0.41520271785E+03  0.33746168431E+03 -0.24239020092E+03  0.58740853312E+03  0.46999998093E+01 0. -1.
       -5    1    3    3    0  502  0.41520271785E+03 -0.33746168431E+03 -0.10020243710E+04  0.11359351281E+04  0.46999998093E+01 0.  1.
</event>
<event>
 5   0  0.9169078E-04  0.1169627E+04  0.7818609E-02  0.9139866E-01
       -1   -1    0    0    0  501  0.00000000000E+00  0.00000000000E+00  0.47745341037E+03  0.47745341039E+03  0.50400001928E-02 0.  1.
        1   -1    0    0  501    0  0.00000000000E+00  0.00000000000E+00 -0.71631417365E+03  0.71631417367E+03  0.50400001928E-02 0. -1.
    10030    2    1    2    0    0  0.00000000000E+00  0.00000000000E+00 -0.23886076329E+03  0.11937675841E+04  0.11696266843E+04 0.  0.
        1    1    3    3  502    0 -0.30905839049E+01  0.43249815896E+03 -0.52118206353E+03  0.67727022124E+03  0.50400001928E-02 0. -1.
       -1    1    3    3    0  502  0.30905839049E+01 -0.43249815896E+03  0.28232130024E+03  0.51649736283E+03  0.50400001928E-02 0.  1.
</event>
<event>
 5   0  0.9169078E-04  0.1192596E+04  0.7818609E-02  0.9119362E-01
        1   -1    0    0  501    0  0.00000000000E+00  0.00000000000E+00  0.30679145277E+03  0.30679145281E+03  0.50400001928E-02 0. -1.
       -1   -1    0    0    0  501  0.00000000000E+00  0.00000000000E+00 -0.11590004038E+04  0.11590004038E+04  0.50400001928E-02 0.  1.
    10030    2    1    2    0    0  0.00000000000E+00  0.00000000000E+00 -0.85220895105E+03  0.14657918566E+04  0.11925961893E+04 0.  0.
        1    1    3    3  502    0 -0.37793277529E+03 -0.45552373262E+02  0.13801779152E+03  0.40491617917E+03  0.50400001928E-02 0. -1.
       -1    1    3    3    0  502  0.37793277529E+03  0.45552373262E+02 -0.99022674256E+03  0.10608756775E+04  0.50400001928E-02 0.  1.
</event>
<event>
 5   0  0.8908478E-04  0.1203143E+04  0.7818609E-02  0.9110110E-01
       -1   -1    0    0    0  501  0.00000000000E+00  0.00000000000E+00  0.43792866903E+03  0.43792866905E+03  0.50400001928E-02 0. -1.
        1   -1    0    0  501    0  0.00000000000E+00  0.00000000000E+00 -0.82636397000E+03  0.82636397001E+03  0.50400001928E-02 0.  1.
    10030    2    1    2    0    0  0.00000000000E+00  0.00000000000E+00 -0.38843530097E+03  0.12642926391E+04  0.12031433390E+04 0.  0.
        4    1    3    3  502    0 -0.35726746031E+03 -0.47473185835E+03 -0.29322119714E+03  0.66256370176E+03  0.12699999809E+01 0. -1.
       -4    1    3    3    0  502  0.35726746031E+03  0.47473185835E+03 -0.95214103828E+02  0.60172893731E+03  0.12699999809E+01 0.  1.
</event>
<event>
 5   0  0.1551501E-03  0.1219515E+04  0.7818609E-02  0.9095944E-01
       -2   -1    0    0    0  501  0.00000000000E+00  0.00000000000E+00  0.56887860496E+03  0.56887860497E+03  0.25500000920E-02 0.  1.
        2   -1    0    0  501    0  0.00000000000E+00  0.00000000000E+00 -0.65357421702E+03  0.65357421703E+03  0.25500000920E-02 0. -1.
    10030    2    1    2    0    0  0.00000000000E+00  0.00000000000E+00 -0.84695612063E+02  0.12224528220E+04  0.12195152952E+04 0.  0.
        4    1    3    3  502    0  0.39869657964E+03 -0.45480801460E+03  0.35256264321E+02  0.60584974196E+03  0.12699999809E+01 0.  1.
       -4    1    3    3    0  502 -0.39869657964E+03  0.45480801460E+03 -0.11995187638E+03  0.61660308003E+03  0.12699999809E+01 0. -1.
</event>
<event>
 5   0  0.1597352E-03  0.1204380E+04  0.7818609E-02  0.9109031E-01
       -2   -1    0    0    0  501  0.00000000000E+00  0.00000000000E+00  0.32312375612E+03  0.32312375613E+03  0.25500000920E-02 0. -1.
        2   -1    0    0  501    0  0.00000000000E+00  0.00000000000E+00 -0.11222726361E+04  0.11222726361E+04  0.25500000920E-02 0.  1.
    10030    2    1    2    0    0  0.00000000000E+00  0.00000000000E+00 -0.79914887996E+03  0.14453963922E+04  0.12043802549E+04 0.  0.
        1    1    3    3  502    0 -0.45510253607E+03 -0.37667142316E+02 -0.87068058074E+03  0.98316926602E+03  0.50400001928E-02 0.  1.
       -1    1    3    3    0  502  0.45510253607E+03  0.37667142316E+02  0.71531700787E+02  0.46222712619E+03  0.50400001928E-02 0. -1.
</event>
<event>
 5   0  0.8908478E-04  0.1197630E+04  0.7818609E-02  0.9114934E-01
        1   -1    0    0  501    0  0.00000000000E+00  0.00000000000E+00  0.77453429889E+03  0.77453429891E+03  0.50400001928E-02 0.  1.
       -1   -1    0    0    0  501  0.00000000000E+00  0.00000000000E+00 -0.46296095818E+03  0.46296095821E+03  0.50400001928E-02 0. -1.
    10030    2    1    2    0    0  0.00000000000E+00  0.00000000000E+00  0.31157334071E+03  0.12374952571E+04  0.11976295607E+04 0.  0.
        4    1    3    3  502    0  0.15709318325E+03 -0.36378743052E+03  0.61968308828E+03  0.73554626342E+03  0.12699999809E+01 0. -1.
       -4    1    3    3    0  502 -0.15709318325E+03  0.36378743052E+03 -0.30810974757E+03  0.50194899370E+03  0.12699999809E+01 0.  1.
</event>
<event>
 5   0  0.1567019E-03  0.1195526E+04  0.7818609E-02  0.9116781E-01
       -2   -1    0    0    0  501  0.00000000000E+00  0.00000000000E+00  0.55356485111E+03  0.55356485112E+03  0.25500000920E-02 0. -1.
        2   -1    0    0  501    0  0.00000000000E+00  0.00000000000E+00 -0.64549046634E+03  0.64549046635E+03  0.25500000920E-02 0.  1.
    10030    2    1    2    0    0  0.00000000000E+00  0.00000000000E+00 -0.91925615232E+02  0.11990553175E+04  0.11955263843E+04 0.  0.
        5    1    3    3  502    0 -0.48408620565E+02 -0.51873140205E+03  0.24794327826E+03  0.57699533902E+03  0.46999998093E+01 0. -1.
       -5    1    3    3    0  502  0.48408620565E+02  0.51873140205E+03 -0.33986889349E+03  0.62205997844E+03  0.46999998093E+01 0.  1.
</event>
<event>
 5   0  0.1647550E-03  0.1202154E+04  0.7818609E-02  0.9110973E-01
        2   -1    0    0  501    0  0.00000000000E+00  0.00000000000E+00  0.81893308615E+03  0.81893308615E+03  0.25500000920E-02 0.  1.
       -2   -1    0    0    0  501  0.00000000000E+00  0.00000000000E+00 -0.44117614181E+03  0.44117614182E+03  0.25500000920E-02 0. -1.
    10030    2    1    2    0    0  0.00000000000E+00  0.00000000000E+00  0.37775694434E+03  0.12601092280E+04  0.12021542985E+04 0.  0.
        3    1    3    3  502    0  0.27784446322E+03  0.30005573918E+03 -0.27288444622E+03  0.49162681329E+03  0.10100000352E+00 0. -1.
       -3    1    3    3    0  502 -0.27784446322E+03 -0.30005573918E+03  0.65064139056E+03  0.76848241468E+03  0.10100000352E+00 0.  1.
</event>
<event>
 5   0  0.1551501E-03  0.1198206E+04  0.7818609E-02  0.9114429E-01
        2   -1    0    0  501    0  0.00000000000E+00  0.00000000000E+00  0.38788438784E+03  0.38788438785E+03  0.25500000920E-02 0. -1.
       -2   -1    0    0    0  501  0.00000000000E+00  0.00000000000E+00 -0.92533797208E+03  0.92533797208E+03  0.25500000920E-02 0.  1.
    10030    2    1    2    0    0  0.00000000000E+00  0.00000000000E+00 -0.53745358423E+03  0.13132223599E+04  0.11982055798E+04 0.  0.
        4    1    3    3  502    0 -0.16617788294E+03  0.19119325624E+03 -0.86375252237E+03  0.90013331391E+03  0.12699999809E+01 0.  1.
       -4    1    3    3    0  502  0.16617788294E+03 -0.19119325624E+03  0.32629893814E+03  0.41308904602E+03  0.12699999809E+01 0. -1.
</event>
<event>
 5   0  0.1537557E-03  0.1197990E+04  0.7818609E-02  0.9114618E-01
        2   -1    0    0  501    0  0.00000000000E+00  0.00000000000E+00  0.15047660874E+04  0.15047660874E+04  0.25500000920E-02 0.  1.
       -2   -1    0    0    0  501  0.00000000000E+00  0.00000000000E+00 -0.23843899699E+03  0.23843899700E+03  0.25500000920E-02 0. -1.
    10030    2    1    2    0    0  0.00000000000E+00  0.00000000000E+00  0.12663270904E+04  0.17432050844E+04  0.11979898440E+04 0.  0.
        2    1    3    3  502    0  0.57373108155E+03  0.16075621070E+03  0.54364181190E+03  0.80657072403E+03  0.25500000920E-02 0. -1.
       -2    1    3    3    0  502 -0.57373108155E+03 -0.16075621070E+03  0.72268527849E+03  0.93663436034E+03  0.25500000920E-02 0.  1.
</event>
<event>
 5   0  0.1537557E-03  0.1209649E+04  0.7818609E-02  0.9104452E-01
       -2   -1    0    0    0  501  0.00000000000E+00  0.00000000000E+00  0.26011372874E+03  0.26011372875E+03  0.25500000920E-02 0.  1.
        2   -1    0    0  501    0  0.00000000000E+00  0.00000000000E+00 -0.14063567613E+04  0.14063567613E+04  0.25500000920E-02 0. -1.
    10030    2    1    2    0    0  0.00000000000E+00  0.00000000000E+00 -0.11462430325E+04  0.16664704900E+04  0.12096490419E+04 0.  0.
        2    1    3    3  502    0  0.21381066790E+02 -0.56361515234E+03 -0.27225913418E+03  0.62629404126E+03  0.25500000920E-02 0.  1.
       -2    1    3    3    0  502 -0.21381066790E+02  0.56361515234E+03 -0.87398389836E+03  0.10401764488E+04  0.25500000920E-02 0. -1.
</event>
<event>
 5   0  0.1537557E-03  0.1218857E+04  0.7818609E-02  0.9096509E-01
        2   -1    0    0  501    0  0.00000000000E+00  0.00000000000E+00  0.96718137327E+03  0.96718137327E+03  0.25500000920E-02 0. -1.
       -2   -1    0    0    0  501  0.00000000000E+00  0.00000000000E+00 -0.38400577864E+03  0.38400577865E+03  0.25500000920E-02 0.  1.
    10030    2    1    2    0    0  0.00000000000E+00  0.00000000000E+00  0.58317559463E+03  0.13511871519E+04  0.12188572293E+04 0.  0.
        2    1    3    3  502    0 -0.19425726488E+03  0.19598542532E+03  0.89395708127E+03  0.93557759436E+03  0.25500000920E-02 0. -1.
       -2    1    3    3    0  502  0.19425726488E+03 -0.19598542532E+03 -0.31078148664E+03  0.41560955757E+03  0.25500000920E-02 0.  1.
</event>
<event>
 5   0  0.1647550E-03  0.1201687E+04  0.7818609E-02  0.9111381E-01
        2   -1    0    0  501    0  0.00000000000E+00  0.00000000000E+00  0.10348905645E+04  0.10348905645E+04  0.25500000920E-02 0.  1.
       -2   -1    0    0    0  501  0.00000000000E+00  0.00000000000E+00 -0.34884185231E+03  0.34884185232E+03  0.25500000920E-02 0. -1.
    10030    2    1    2    0    0  0.00000000000E+00  0.00000000000E+00  0.68604871214E+03  0.13837324168E+04  0.12016873827E+04 0.  0.
        3    1    3    3  502    0  0.22786009393E+03  0.48848289754E+03  0.37331386074E+02  0.54030491964E+03  0.10100000352E+00 0. -1.
       -3    1    3    3    0  502 -0.22786009393E+03 -0.48848289754E+03  0.64871732607E+03  0.84342749714E+03  0.10100000352E+00 0.  1.
</event>
<event>
 5   0  0.1551501E-03  0.1214900E+04  0.7818609E-02  0.9099913E-01
       -2   -1    0    0    0  501  0.00000000000E+00  0.00000000000E+00  0.41102337649E+03  0.41102337650E+03  0.25500000920E-02 0.  1.
        2   -1    0    0  501    0  0.00000000000E+00  0.00000000000E+00 -0.89774877277E+03  0.89774877277E+03  0.25500000920E-02 0. -1.
    10030    2    1    2    0    0  0.00000000000E+00  0.00000000000E+00 -0.48672539627E+03  0.13087721493E+04  0.12149003775E+04 0.  0.
        4    1    3    3  502    0 -0.35964092980E+02  0.58384988152E+03 -0.41978476938E+03  0.71999650391E+03  0.12699999809E+01 0.  1.
       -4    1    3    3    0  502  0.35964092980E+02 -0.58384988152E+03 -0.66940626895E+02  0.58877564536E+03  0.12699999809E+01 0. -1.
</event>
<event>
 5   0  0.1597352E-03  0.1208666E+04  0.7818609E-02  0.9105305E-01
        2   -1    0    0  501    0  0.00000000000E+00  0.00000000000E+00  0.71019846571E+03  0.71019846572E+03  0.25500000920E-02 0.  1.
       -2   -1    0    0    0  501  0.00000000000E+00  0.00000000000E+00 -0.51424829459E+03  0.51424829460E+03  0.25500000920E-02 0. -1.
    10030    2    1    2    0    0  0.00000000000E+00  0.00000000000E+00  0.19595017112E+03  0.12244467603E+04  0.12086659585E+04 0.  0.
        1    1    3    3  502    0 -0.21809849043E+03 -0.27719607500E+03  0.59510997340E+03  0.69178067044E+03  0.50400001928E-02 0.  1.
       -1    1    3    3    0  502  0.21809849043E+03  0.27719607500E+03 -0.39915980228E+03  0.53266608988E+03  0.50400001928E-02 0. -1.
</event>
<event>
 5   0  0.9169078E-04  0.1221405E+04  0.7818609E-02  0.9094324E-01
        1   -1    0    0  501    0  0.00000000000E+00  0.00000000000E+00  0.12629635050E+04  0.12629635050E+04  0.50400001928E-02 0. -1.
       -1   -1    0    0    0  501  0.00000000000E+00  0.00000000000E+00 -0.29530358562E+03  0.29530358566E+03  0.50400001928E-02 0.  1.
    10030    2    1    2    0    0  0.00000000000E+00  0.00000000000E+00  0.96765991939E+03  0.15582670907E+04  0.12214051770E+04 0.  0.
        1    1    3    3  502    0 -0.13187674569E+03 -0.37144638184E+03  0.10789510779E+04  0.11486946153E+04  0.50400001928E-02 0. -1.
       -1    1    3    3    0  502  0.13187674569E+03  0.37144638184E+03 -0.11129115850E+03  0.40957247542E+03  0.50400001928E-02 0.  1.
</event>
<event>
 5   0  0.9208078E-04  0.1198311E+04  0.7818609E-02  0.9114336E-01
        1   -1    0    0  501    0  0.00000000000E+00  0.00000000000E+00  0.67366129567E+03  0.67366129569E+03  0.50400001928E-02 0.  1.
       -1   -1    0    0    0  501  0.00000000000E+00  0.00000000000E+00 -0.53288988310E+03  0.53288988313E+03  0.50400001928E-02 0. -1.
    10030    2    1    2    0    0  0.00000000000E+00  0.00000000000E+00  0.14077141257E+03  0.12065511788E+04  0.11983109599E+04 0.  0.
        3    1    3    3  502    0 -0.22559454342E+03  0.37807173967E+03 -0.33880294449E+03  0.55553450276E+03  0.10100000352E+00 0. -1.
       -3    1    3    3    0  502  0.22559454342E+03 -0.37807173967E+03  0.47957435706E+03  0.65101667606E+03  0.10100000352E+00 0.  1.
</event>
<event>
 5   0  0.9169078E-04  0.1203687E+04  0.7818609E-02  0.9109635E-01
        1   -1    0    0  501    0  0.00000000000E+00  0.00000000000E+00  0.12587495753E+04  0.12587495753E+04  0.50400001928E-02 0. -1.
       -1   -1    0    0    0  501  0.00000000000E+00  0.00000000000E+00 -0.28775834049E+03  0.28775834053E+03  0.50400001928E-02 0.  1.
    10030    2    1    2    0    0  0.00000000000E+00  0.00000000000E+00  0.97099123476E+03  0.15465079158E+04  0.12036871502E+04 0.  0.
        1    1    3    3  502    0  0.23505712190E+03 -0.33829892204E+03  0.10492290997E+04  0.11271999445E+04  0.50400001928E-02 0. -1.
       -1    1    3    3    0  502 -0.23505712190E+03  0.33829892204E+03 -0.78237864981E+02  0.41930797125E+03  0.50400001928E-02 0.  1.
</event>
<event>
 5   0  0.1551501E-03  0.1202656E+04  0.7818609E-02  0.9110535E-01
        2   -1    0    0  501    0  0.00000000000E+00  0.00000000000E+00  0.67238236118E+03  0.67238236118E+03  0.25500000920E-02 0. -1.
       -2   -1    0    0    0  501  0.00000000000E+00  0.00000000000E+00 -0.53778252206E+03  0.53778252207E+03  0.25500000920E-02 0.  1.
    10030    2    1    2    0    0  0.00000000000E+00  0.00000000000E+00  0.13459983912E+03  0.12101648832E+04  0.12026561969E+04 0.  0.
        4    1    3    3  502    0  0.21834073361E+03 -0.21293656634E+03 -0.45418199399E+03  0.54708093899E+03  0.12699999809E+01 0.  1.
       -4    1    3    3    0  502 -0.21834073361E+03  0.21293656634E+03  0.58878183311E+03  0.66308394426E+03  0.12699999809E+01 0. -1.
</event>
<event>
 5   0  0.1537557E-03  0.1197813E+04  0.7818609E-02  0.9114773E-01
       -2   -1    0    0    0  501  0.00000000000E+00  0.00000000000E+00  0.81335722070E+03  0.81335722070E+03  0.25500000920E-02 0. -1.
        2   -1    0    0  501    0  0.00000000000E+00  0.00000000000E+00 -0.44099815756E+03  0.44099815756E+03  0.25500000920E-02 0.  1.
    10030    2    1    2    0    0  0.00000000000E+00  0.00000000000E+00  0.37235906314E+03  0.12543553783E+04  0.11978130668E+04 0.  0.
        2    1    3    3  502    0 -0.45329882868E+03  0.55810757163E+02  0.59188769528E+03  0.74761334426E+03  0.25500000920E-02 0. -1.
       -2    1    3    3    0  502  0.45329882868E+03 -0.55810757163E+02 -0.21952863213E+03  0.50674203400E+03  0.25500000920E-02 0.  1.
</event>
<event>
 5   0  0.1537557E-03  0.1196256E+04  0.7818609E-02  0.9116140E-01
       -2   -1    0    0    0  501  0.00000000000E+00  0.00000000000E+00  0.36517950397E+03  0.36517950398E+03  0.25500000920E-02 0.  1.
        2   -1    0    0  501    0  0.00000000000E+00  0.00000000000E+00 -0.97967519985E+03  0.97967519985E+03  0.25500000920E-02 0. -1.
    10030    2    1    2    0    0  0.00000000000E+00  0.00000000000E+00 -0.61449569588E+03  0.13448547038E+04  0.11962563330E+04 0.  0.
        2    1    3    3  502    0 -0.38877598173E+02  0.12966278209E+03  0.34773270090E+03  0.37315135801E+03  0.25500000920E-02 0.  1.
       -2    1    3    3    0  502  0.38877598173E+02 -0.12966278209E+03 -0.96222839679E+03  0.97170334582E+03  0.25500000920E-02 0. -1.
</event>
<event>
 5   0  0.1597352E-03  0.1193872E+04  0.7818609E-02  0.9118237E-01
       -2   -1    0    0    0  501  0.00000000000E+00  0.00000000000E+00  0.40227625179E+03  0.40227625180E+03  0.25500000920E-02 0.  1.
        2   -1    0    0  501    0  0.00000000000E+00  0.00000000000E+00 -0.88579059952E+03  0.88579059952E+03  0.25500000920E-02 0. -1.
    10030    2    1    2    0    0  0.00000000000E+00  0.00000000000E+00 -0.48351434772E+03  0.12880668513E+04  0.11938718897E+04 0.  0.
        1    1    3    3  502    0 -0.55736708806E+03 -0.10572465167E+03 -0.41370072118E+02  0.56881214449E+03  0.50400001928E-02 0. -1.
       -1    1    3    3    0  502  0.55736708806E+03  0.10572465167E+03 -0.44214427561E+03  0.71925470683E+03  0.50400001928E-02 0.  1.
</event>
<event>
 5   0  0.1567019E-03  0.1200642E+04  0.7818609E-02  0.9112294E-01
       -2   -1    0    0    0  501  0.00000000000E+00  0.00000000000E+00  0.64145148711E+03  0.64145148712E+03  0.25500000920E-02 0. -1.
        2   -1    0    0  501    0  0.00000000000E+00  0.00000000000E+00 -0.56182818320E+03  0.56182818321E+03  0.25500000920E-02 0.  1.
    10030    2    1    2    0    0  0.00000000000E+00  0.00000000000E+00  0.79623303912E+02  0.12032796703E+04  0.12006423674E+04 0.  0.
        5    1    3    3  502    0  0.82704823599E+02  0.53769534326E+03 -0.21453127496E+03  0.58480948004E+03  0.46999998093E+01 0.  1.
       -5    1    3    3    0  502 -0.82704823599E+02 -0.53769534326E+03  0.29415457887E+03  0.61847019029E+03  0.46999998093E+01 0. -1.
</event>
<event>
 5   0  0.9358428E-04  0.1195584E+04  0.7818609E-02  0.9116731E-01
       -1   -1    0    0    0  501  0.00000000000E+00  0.00000000000E+00  0.45081921006E+03  0.45081921009E+03  0.50400001928E-02 0. -1.
        1   -1    0    0  501    0  0.00000000000E+00  0.00000000000E+00 -0.79267914499E+03  0.79267914500E+03  0.50400001928E-02 0.  1.
    10030    2    1    2    0    0  0.00000000000E+00  0.00000000000E+00 -0.34185993492E+03  0.12434983551E+04  0.11955835161E+04 0.  0.
        2    1    3    3  502    0  0.45565385579E+03  0.16145315146E+03  0.19482729947E+03  0.52119596414E+03  0.25500000920E-02 0. -1.
       -2    1    3    3    0  502 -0.45565385579E+03 -0.16145315146E+03 -0.53668723439E+03  0.72230239095E+03  0.25500000920E-02 0.  1.
</event>
<event>
 5   0  0.9208078E-04  0.1213623E+04  0.7818609E-02  0.9101015E-01
       -1   -1    0    0    0  501  0.00000000000E+00  0.00000000000E+00  0.48929316424E+03  0.48929316427E+03  0.50400001928E-02 0.  1.
        1   -1    0    0  501    0  0.00000000000E+00  0.00000000000E+00 -0.75255525332E+03  0.75255525334E+03  0.50400001928E-02 0. -1.
    10030    2    1    2    0    0  0.00000000000E+00  0.00000000000E+00 -0.26326208908E+03  0.12418484176E+04  0.12136229088E+04 0.  0.
        3    1    3    3  502    0  0.17732144933E+03 -0.22763207354E+03  0.41460133334E+03  0.50512724447E+03  0.10100000352E+00 0.  1.
       -3    1    3    3    0  502 -0.17732144933E+03  0.22763207354E+03 -0.67786342242E+03  0.73672117314E+03  0.10100000352E+00 0. -1.
</event>
<event>
 5   0  0.9169078E-04  0.1212967E+04  0.7818609E-02  0.9101582E-01
       -1   -1    0    0    0  501  0.00000000000E+00  0.00000000000E+00  0.34351496833E+03  0.34351496836E+03  0.50400001928E-02 0.  1.
        1   -1    0    0  501    0  0.00000000000E+00  0.00000000000E+00 -0.10707606378E+04  0.10707606378E+04  0.50400001928E-02 0. -1.
    10030    2    1    2    0    0  0.00000000000E+00  0.00000000000E+00 -0.72724566944E+03  0.14142756061E+04  0.12129671168E+04 0.  0.
        1    1    3    3  502    0  0.82121555494E+02  0.59253050779E+03 -0.24710838066E+03  0.64722399859E+03  0.50400001928E-02 0. -1.
       -1    1    3    3    0  502 -0.82121555494E+02 -0.59253050779E+03 -0.48013728878E+03  0.76705160755E+03  0.50400001928E-02 0.  1.
</event>
<event>
 5   0  0.9358428E-04  0.1163092E+04  0.7818609E-02  0.9145790E-01
        1   -1    0    0  501    0  0.00000000000E+00  0.00000000000E+00  0.33777871394E+03  0.33777871398E+03  0.50400001928E-02 0.  1.
       -1   -1    0    0    0  501  0.00000000000E+00  0.00000000000E+00 -0.10012338060E+04  0.10012338060E+04  0.50400001928E-02 0. -1.
    10030    2    1    2    0    0  0.00000000000E+00  0.00000000000E+00 -0.66345509204E+03  0.13390125200E+04  0.11630915138E+04 0.  0.
        2    1    3    3  502    0  0.35573531187E+03  0.22281127061E+03 -0.79510219468E+03  0.89909953532E+03  0.25500000920E-02 0. -1.
       -2    1    3    3    0  502 -0.35573531187E+03 -0.22281127061E+03  0.13164710264E+03  0.43991298465E+03  0.25500000920E-02 0.  1.
</event>
<event>
 5   0  0.1647550E-03  0.1190027E+04  0.7818609E-02  0.9121631E-01
       -2   -1    0    0    0  501  0.00000000000E+00  0.00000000000E+00  0.50531327528E+03  0.50531327529E+03  0.25500000920E-02 0. -1.
        2   -1    0    0  501    0  0.00000000000E+00  0.00000000000E+00 -0.70063693046E+03  0.70063693046E+03  0.25500000920E-02 0.  1.
    10030    2    1    2    0    0  0.00000000000E+00  0.00000000000E+00 -0.19532365518E+03  0.12059502057E+04  0.11900271293E+04 0.  0.
        3    1    3    3  502    0  0.37811322967E+03 -0.42467182607E+03 -0.27529373809E+03  0.63174553956E+03  0.10100000352E+00 0. -1.
       -3    1    3    3    0  502 -0.37811322967E+03  0.42467182607E+03  0.79970082917E+02  0.57420466619E+03  0.10100000352E+00 0.  1.
</event>
<event>
 5   0  0.9358428E-04  0.1190686E+04  0.7818609E-02  0.9121049E-01
        1   -1    0    0  501    0  0.00000000000E+00  0.00000000000E+00  0.61550160513E+03  0.61550160515E+03  0.50400001928E-02 0. -1.
       -1   -1    0    0    0  501  0.00000000000E+00  0.00000000000E+00 -0.57584425546E+03  0.57584425548E+03  0.50400001928E-02 0.  1.
    10030    2    1    2    0    0  0.00000000000E+00  0.00000000000E+00  0.39657349670E+02  0.11913458606E+04  0.11906856236E+04 0.  0.
        2    1    3    3  502    0  0.44564448901E+03 -0.25199391779E+03 -0.28420346898E+03  0.58555235204E+03  0.25500000920E-02 0.  1.
       -2    1    3    3    0  502 -0.44564448901E+03  0.25199391779E+03  0.32386081865E+03  0.60579350859E+03  0.25500000920E-02 0. -1.
</event>
<event>
 5   0  0.1567019E-03  0.1214697E+04  0.7818609E-02  0.9100089E-01
       -2   -1    0    0    0  501  0.00000000000E+00  0.00000000000E+00  0.68732902920E+03  0.68732902921E+03  0.25500000920E-02 0. -1.
        2   -1    0    0  501    0  0.00000000000E+00  0.00000000000E+00 -0.53667497264E+03  0.53667497265E+03  0.25500000920E-02 0.  1.
    10030    2    1    2    0    0  0.00000000000E+00  0.00000000000E+00  0.15065405656E+03  0.12240040019E+04  0.12146971441E+04 0.  0.
        5    1    3    3  502    0 -0.15919289109E+03 -0.42282680280E+03  0.48430037203E+03  0.66233965764E+03  0.46999998093E+01 0. -1.
       -5    1    3    3    0  502  0.15919289109E+03  0.42282680280E+03 -0.33364631547E+03  0.56166434421E+03  0.46999998093E+01 0.  1.
</event>
<event>
 5   0  0.1551501E-03  0.1196776E+04  0.7818609E-02  0.9115683E-01
       -2   -1    0    0    0  501  0.00000000000E+00  0.00000000000E+00  0.39746769864E+03  0.39746769865E+03  0.25500000920E-02 0.  1.
        2   -1    0    0  501    0  0.00000000000E+00  0.00000000000E+00 -0.90087363540E+03  0.90087363540E+03  0.25500000920E-02 0. -1.
    10030    2    1    2    0    0  0.00000000000E+00  0.00000000000E+00 -0.50340593675E+03  0.12983413341E+04  0.11967759534E+04 0.  0.
        4    1    3    3  502    0 -0.90381095957E+02  0.15195424009E+03 -0.87188929273E+03  0.88963553507E+03  0.12699999809E+01 0. -1.
       -4    1    3    3    0  502  0.90381095957E+02 -0.15195424009E+03  0.36848335598E+03  0.40870579898E+03  0.12699999809E+01 0.  1.
</event>
<event>
 5   0  0.9170776E-04  0.1200096E+04  0.7818609E-02  0.9112773E-01
       -1   -1    0    0    0  501  0.00000000000E+00  0.00000000000E+00  0.24572058821E+03  0.24572058826E+03  0.50400001928E-02 0. -1.
        1   -1    0    0  501    0  0.00000000000E+00  0.00000000000E+00 -0.14653122287E+04  0.14653122287E+04  0.50400001928E-02 0.  1.
    10030    2    1    2    0    0  0.00000000000E+00  0.00000000000E+00 -0.12195916405E+04  0.17110328169E+04  0.12000956342E+04 0.  0.
        5    1    3    3  502    0 -0.23957166281E+03  0.54869728107E+03 -0.66632457697E+03  0.89580903085E+03  0.46999998093E+01 0. -1.
       -5    1    3    3    0  502  0.23957166281E+03 -0.54869728107E+03 -0.55326706349E+03  0.81522378609E+03  0.46999998093E+01 0.  1.
</event>
<event>
 5   0  0.9208078E-04  0.1191308E+04  0.7818609E-02  0.9120499E-01
       -1   -1    0    0    0  501  0.00000000000E+00  0.00000000000E+00  0.10113170669E+04  0.10113170669E+04  0.50400001928E-02 0.  1.
        1   -1    0    0  501    0  0.00000000000E+00  0.00000000000E+00 -0.35083341787E+03  0.35083341791E+03  0.50400001928E-02 0. -1.
    10030    2    1    2    0    0  0.00000000000E+00  0.00000000000E+00  0.66048364901E+03  0.13621504848E+04  0.11913082274E+04 0.  0.
        3    1    3    3  502    0  0.20470619394E+03 -0.27685965187E+03  0.88599882923E+03  0.95055238060E+03  0.10100000352E+00 0.  1.
       -3    1    3    3    0  502 -0.20470619394E+03  0.27685965187E+03 -0.22551518022E+03  0.41159810420E+03  0.10100000352E+00 0. -1.
</event>
<event>
 5   0  0.8908478E-04  0.1207196E+04  0.7818609E-02  0.9106581E-01
        1   -1    0    0  501    0  0.00000000000E+00  0.00000000000E+00  0.39343952383E+03  0.39343952387E+03  0.50400001928E-02 0.  1.
       -1   -1    0    0    0  501  0.00000000000E+00  0.00000000000E+00 -0.92601369987E+03  0.92601369988E+03  0.50400001928E-02 0. -1.
    10030    2    1    2    0    0  0.00000000000E+00  0.00000000000E+00 -0.53257417603E+03  0.13194532237E+04  0.12071957408E+04 0.  0.
        4    1    3    3  502    0  0.17581190779E+03  0.46185933548E+03 -0.64507549043E+03  0.81261791387E+03  0.12699999809E+01 0.  1.
       -4    1    3    3    0  502 -0.17581190779E+03 -0.46185933548E+03  0.11250131440E+03  0.50683530987E+03  0.12699999809E+01 0. -1.
</event>
<event>
 5   0  0.9170776E-04  0.1270361E+04  0.7818609E-02  0.9053405E-01
        1   -1    0    0  501    0  0.00000000000E+00  0.00000000000E+00  0.78804837041E+03  0.78804837042E+03  0.50400001928E-02 0.  1.
       -1   -1    0    0    0  501  0.00000000000E+00  0.00000000000E+00 -0.51196663937E+03  0.51196663939E+03  0.50400001928E-02 0. -1.
    10030    2    1    2    0    0  0.00000000000E+00  0.00000000000E+00  0.27608173104E+03  0.13000150098E+04  0.12703613279E+04 0.  0.
        5    1    3    3  502    0  0.34760480816E+03 -0.11557505721E+03  0.66904203985E+03  0.76277522089E+03  0.46999998093E+01 0.  1.
       -5    1    3    3    0  502 -0.34760480816E+03  0.11557505721E+03 -0.39296030881E+03  0.53723978893E+03  0.46999998093E+01 0. -1.
</event>
<event>
 5   0  0.1537557E-03  0.1200660E+04  0.7818609E-02  0.9112279E-01
        2   -1    0    0  501    0  0.00000000000E+00  0.00000000000E+00  0.92285794268E+03  0.92285794269E+03  0.25500000920E-02 0.  1.
       -2   -1    0    0    0  501  0.00000000000E+00  0.00000000000E+00 -0.39052164798E+03  0.39052164799E+03  0.25500000920E-02 0. -1.
    10030    2    1    2    0    0  0.00000000000E+00  0.00000000000E+00  0.53233629471E+03  0.13133795907E+04  0.12006598263E+04 0.  0.
        2    1    3    3  502    0  0.46158935574E+03  0.34027012697E+03  0.46045921767E+03  0.73543944944E+03  0.25500000920E-02 0.  1.
       -2    1    3    3    0  502 -0.46158935574E+03 -0.34027012697E+03  0.71877077036E+02  0.57794014124E+03  0.25500000920E-02 0. -1.
</event>
<event>
 5   0  0.9358428E-04  0.1196237E+04  0.7818609E-02  0.9116157E-01
        1   -1    0    0  501    0  0.00000000000E+00  0.00000000000E+00  0.76316485631E+03  0.76316485633E+03  0.50400001928E-02 0. -1.
       -1   -1    0    0    0  501  0.00000000000E+00  0.00000000000E+00 -0.46876606126E+03  0.46876606128E+03  0.50400001928E-02 0.  1.
    10030    2    1    2    0    0  0.00000000000E+00  0.00000000000E+00  0.29439879505E+03  0.12319309176E+04  0.11962370732E+04 0.  0.
        2    1    3    3  502    0  0.51474273869E+03  0.16060139364E+03  0.41375232146E+03  0.67966453357E+03  0.25500000920E-02 0. -1.
       -2    1    3    3    0  502 -0.51474273869E+03 -0.16060139364E+03 -0.11935352640E+03  0.55226638404E+03  0.25500000920E-02 0.  1.
</event>
<event>
 5   0  0.1567019E-03  0.1168717E+04  0.7818609E-02  0.9140688E-01
       -2   -1    0    0    0  501  0.00000000000E+00  0.00000000000E+00  0.67461754556E+03  0.67461754556E+03  0.25500000920E-02 0.  1.
        2   -1    0    0  501    0  0.00000000000E+00  0.00000000000E+00 -0.50617518002E+03  0.50617518002E+03  0.25500000920E-02 0. -1.
    10030    2    1    2    0    0  0.00000000000E+00  0.00000000000E+00  0.16844236554E+03  0.11807927256E+04  0.11687166595E+04 0.  0.
        5    1    3    3  502    0  0.33437794232E+03  0.13075816253E+03 -0.38156990015E+03  0.52395036414E+03  0.46999998093E+01 0. -1.
       -5    1    3    3    0  502 -0.33437794232E+03 -0.13075816253E+03  0.55001226569E+03  0.65684236145E+03  0.46999998093E+01 0.  1.
</event>
<event>
 5   0  0.9169078E-04  0.1225245E+04  0.7818609E-02  0.9091042E-01
       -1   -1    0    0    0  501  0.00000000000E+00  0.00000000000E+00  0.35153647452E+03  0.35153647456E+03  0.50400001928E-02 0. -1.
        1   -1    0    0  501    0  0.00000000000E+00  0.00000000000E+00 -0.10676167240E+04  0.10676167241E+04  0.50400001928E-02 0.  1.
    10030    2    1    2    0    0  0.00000000000E+00  0.00000000000E+00 -0.71608024952E+03  0.14191531986E+04  0.12252448234E+04 0.  0.
        1    1    3    3  502    0 -0.35683995932E+02 -0.52154177973E+03  0.11927784730E+02  0.52289716737E+03  0.50400001928E-02 0. -1.
       -1    1    3    3    0  502  0.35683995932E+02  0.52154177973E+03 -0.72800803425E+03  0.89625603124E+03  0.50400001928E-02 0.  1.
</event>
<event>
 5   0  0.1647550E-03  0.1189463E+04  0.7818609E-02  0.9122130E-01
       -2   -1    0    0    0  501  0.00000000000E+00  0.00000000000E+00  0.63894826937E+03  0.63894826938E+03  0.25500000920E-02 0. -1.
        2   -1    0    0  501    0  0.00000000000E+00  0.00000000000E+00 -0.55357464187E+03  0.55357464187E+03  0.25500000920E-02 0.  1.
    10030    2    1    2    0    0  0.00000000000E+00  0.00000000000E+00  0.85373627502E+02  0.11925229112E+04  0.11894630039E+04 0.  0.
        3    1    3    3  502    0 -0.44021972144E+03 -0.83807810103E+02 -0.34932852160E+03  0.56819677787E+03  0.10100000352E+00 0.  1.
       -3    1    3    3    0  502  0.44021972144E+03  0.83807810103E+02  0.43470214911E+03  0.62432613338E+03  0.10100000352E+00 0. -1.
</event>
<event>
 5   0  0.1567019E-03  0.1190855E+04  0.7818609E-02  0.9120899E-01
        2   -1    0    0  501    0  0.00000000000E+00  0.00000000000E+00  0.18303004271E+04  0.18303004271E+04  0.25500000920E-02 0.  1.
       -2   -1    0    0    0  501  0.00000000000E+00  0.00000000000E+00 -0.19370245235E+03  0.19370245236E+03  0.25500000920E-02 0. -1.
    10030    2    1    2    0    0  0.00000000000E+00  0.00000000000E+00  0.16365979748E+04  0.20240028795E+04  0.11908546196E+04 0.  0.
        5    1    3    3  502    0  0.34867004061E+03 -0.13287440423E+03  0.16069038567E+04  0.16496631472E+04  0.46999998093E+01 0.  1.
       -5    1    3    3    0  502 -0.34867004061E+03  0.13287440423E+03  0.29694118053E+02  0.37433973228E+03  0.46999998093E+01 0. -1.
</event>
<event>
 5   0  0.1567019E-03  0.1202113E+04  0.7818609E-02  0.9111009E-01
       -2   -1    0    0    0  501  0.00000000000E+00  0.00000000000E+00  0.37317291721E+03  0.37317291722E+03  0.25500000920E-02 0.  1.
        2   -1    0    0  501    0  0.00000000000E+00  0.00000000000E+00 -0.96810006658E+03  0.96810006659E+03  0.25500000920E-02 0. -1.
    10030    2    1    2    0    0  0.00000000000E+00  0.00000000000E+00 -0.59492714937E+03  0.13412729838E+04  0.12021126836E+04 0.  0.
        5    1    3    3  502    0 -0.10721855885E+03 -0.12307905242E+03 -0.94287477792E+03  0.95691128603E+03  0.46999998093E+01 0. -1.
       -5    1    3    3    0  502  0.10721855885E+03  0.12307905242E+03  0.34794762855E+03  0.38436169777E+03  0.46999998093E+01 0.  1.
</event>
<event>
 5   0  0.1647550E-03  0.1233855E+04  0.7818609E-02  0.9083729E-01
       -2   -1    0    0    0  501  0.00000000000E+00  0.00000000000E+00  0.18857687105E+03  0.18857687107E+03  0.25500000920E-02 0. -1.
        2   -1    0    0  501    0  0.00000000000E+00  0.00000000000E+00 -0.20182730708E+04  0.20182730708E+04  0.25500000920E-02 0.  1.
    10030    2    1    2    0    0  0.00000000000E+00  0.00000000000E+00 -0.18296961997E+04  0.22068499419E+04  0.12338551303E+04 0.  0.
        3    1    3    3  502    0  0.74634929106E+02  0.40741017490E+03 -0.17326154326E+04  0.17814347226E+04  0.10100000352E+00 0.  1.
       -3    1    3    3    0  502 -0.74634929106E+02 -0.40741017490E+03 -0.97080767119E+02  0.42541521928E+03  0.10100000352E+00 0. -1.
</event>
<event>
 5   0  0.9169078E-04  0.1200735E+04  0.7818609E-02  0.9112214E-01
        1   -1    0    0  501    0  0.00000000000E+00  0.00000000000E+00  0.69074535726E+03  0.69074535728E+03  0.50400001928E-02 0. -1.
       -1   -1    0    0    0  501  0.00000000000E+00  0.00000000000E+00 -0.52181440475E+03  0.52181440478E+03  0.50400001928E-02 0.  1.
    10030    2    1    2    0    0  0.00000000000E+00  0.00000000000E+00  0.16893095251E+03  0.12125597621E+04  0.12007345709E+04 0.  0.
        1    1    3    3  502    0 -0.36192497885E+03  0.45558900309E+03  0.23387473270E+03  0.62709522456E+03  0.50400001928E-02 0. -1.
       -1    1    3    3    0  502  0.36192497885E+03 -0.45558900309E+03 -0.64943780187E+02  0.58546453749E+03  0.50400001928E-02 0.  1.
</event>
<event>
 5   0  0.9358428E-04  0.1200675E+04  0.7818609E-02  0.9112266E-01
       -1   -1    0    0    0  501  0.00000000000E+00  0.00000000000E+00  0.38520246059E+03  0.38520246062E+03  0.50400001928E-02 0. -1.
        1   -1    0    0  501    0  0.00000000000E+00  0.00000000000E+00 -0.93562581919E+03  0.93562581920E+03  0.50400001928E-02 0.  1.
    10030    2    1    2    0    0  0.00000000000E+00  0.00000000000E+00 -0.55042335860E+03  0.13208282798E+04  0.12006754229E+04 0.  0.
        2    1    3    3  502    0 -0.56312279747E+03  0.20570611466E+03 -0.24071998443E+03  0.64604055720E+03  0.25500000920E-02 0. -1.
       -2    1    3    3    0  502  0.56312279747E+03 -0.20570611466E+03 -0.30970337417E+03  0.67478772263E+03  0.25500000920E-02 0.  1.
</event>
<event>
 5   0  0.9170776E-04  0.1197898E+04  0.7818609E-02  0.9114699E-01
        1   -1    0    0  501    0  0.00000000000E+00  0.00000000000E+00  0.79029082146E+03  0.79029082148E+03  0.50400001928E-02 0.  1.
       -1   -1    0    0    0  501  0.00000000000E+00  0.00000000000E+00 -0.45393385198E+03  0.45393385201E+03  0.50400001928E-02 0. -1.
    10030    2    1    2    0    0  0.00000000000E+00  0.00000000000E+00  0.33635696947E+03  0.12442246735E+04  0.11978977532E+04 0.  0.
        5    1    3    3  502    0  0.45474268052E+03  0.23295610790E+02 -0.23594971474E+03  0.51286250482E+03  0.46999998093E+01 0. -1.
       -5    1    3    3    0  502 -0.45474268052E+03 -0.23295610790E+02  0.57230668421E+03  0.73136216867E+03  0.46999998093E+01 0.  1.
</event>
<event>
 5   0  0.1537557E-03  0.1264440E+04  0.7818609E-02  0.9058250E-01
       -2   -1    0    0    0  501  0.00000000000E+00  0.00000000000E+00  0.29863879757E+03  0.29863879758E+03  0.25500000920E-02 0.  1.
        2   -1    0    0  501    0  0.00000000000E+00  0.00000000000E+00 -0.13384128569E+04  0.13384128569E+04  0.25500000920E-02 0. -1.
    10030    2    1    2    0    0  0.00000000000E+00  0.00000000000E+00 -0.10397740593E+04  0.16370516545E+04  0.12644398068E+04 0.  0.
        2    1    3    3  502    0  0.44932356670E+03 -0.80299492594E+02  0.46472808024E+02  0.45880213382E+03  0.25500000920E-02 0.  1.
       -2    1    3    3    0  502 -0.44932356670E+03  0.80299492594E+02 -0.10862468673E+04  0.11782495207E+04  0.25500000920E-02 0. -1.
</event>
<event>
 5   0  0.9208078E-04  0.1205521E+04  0.7818609E-02  0.9108038E-01
        1   -1    0    0  501    0  0.00000000000E+00  0.00000000000E+00  0.41015541330E+03  0.41015541333E+03  0.50400001928E-02 0.  1.
       -1   -1    0    0    0  501  0.00000000000E+00  0.00000000000E+00 -0.88581103209E+03  0.88581103211E+03  0.50400001928E-02 0. -1.
    10030    2    1    2    0    0  0.00000000000E+00  0.00000000000E+00 -0.47565561880E+03  0.12959664454E+04  0.12055209496E+04 0.  0.
        3    1    3    3  502    0  0.26845081714E+03 -0.98352403355E+02 -0.80828200566E+03  0.85735572976E+03  0.10100000352E+00 0. -1.
       -3    1    3    3    0  502 -0.26845081714E+03  0.98352403355E+02  0.33262638686E+03  0.43861071568E+03  0.10100000352E+00 0.  1.
</event>
<event>
 5   0  0.8908478E-04  0.1155827E+04  0.7818609E-02  0.9152425E-01
        1   -1    0    0  501    0  0.00000000000E+00  0.00000000000E+00  0.61139499520E+03  0.61139499523E+03  0.50400001928E-02 0.  1.
       -1   -1    0    0    0  501  0.00000000000E+00  0.00000000000E+00 -0.54626560500E+03  0.54626560502E+03  0.50400001928E-02 0. -1.
    10030    2    1    2    0    0  0.00000000000E+00  0.00000000000E+00  0.65129390207E+02  0.11576606002E+04  0.11558270753E+04 0.  0.
        4    1    3    3  502    0  0.38033495321E+03 -0.12807320372E+03  0.44906690390E+03  0.60226250026E+03  0.12699999809E+01 0.  1.
       -4    1    3    3    0  502 -0.38033495321E+03  0.12807320372E+03 -0.38393751370E+03  0.55539809998E+03  0.12699999809E+01 0. -1.
</event>
<event>
 5   0  0.1551501E-03  0.1181416E+04  0.7818609E-02  0.9129280E-01
        2   -1    0    0  501    0  0.00000000000E+00  0.00000000000E+00  0.20389776124E+04  0.20389776124E+04  0.25500000920E-02 0. -1.
       -2   -1    0    0    0  501  0.00000000000E+00  0.00000000000E+00 -0.17113287631E+03  0.17113287633E+03  0.25500000920E-02 0.  1.
    10030    2    1    2    0    0  0.00000000000E+00  0.00000000000E+00  0.18678447361E+04  0.22101104887E+04  0.11814162747E+04 0.  0.
        4    1    3    3  502    0 -0.58644893316E+03  0.10297577351E+02  0.10649549220E+04  0.12157956202E+04  0.12699999809E+01 0.  1.
       -4    1    3    3    0  502  0.58644893316E+03 -0.10297577351E+02  0.80288981409E+03  0.99431486853E+03  0.12699999809E+01 0. -1.
</event>
<event>
 5   0  0.6137750E-04  0.1196572E+04  0.7818609E-02  0.9115862E-01
       -3   -1    0    0    0  501  0.00000000000E+00  0.00000000000E+00  0.14827953079E+04  0.14827953113E+04  0.10100000352E+00 0. -1.
        3   -1    0    0  501    0  0.00000000000E+00  0.00000000000E+00 -0.24139961365E+03  0.24139963478E+03  0.10100000352E+00 0.  1.
    10030    2    1    2    0    0  0.00000000000E+00  0.00000000000E+00  0.12413956942E+04  0.17241949461E+04  0.11965721635E+04 0.  0.
        5    1    3    3  502    0 -0.25281944770E+02 -0.36167140590E+03 -0.65044886837E+02  0.36837251509E+03  0.46999998093E+01 0.  1.
       -5    1    3    3    0  502  0.25281944770E+02  0.36167140590E+03  0.13064405810E+04  0.13558224310E+04  0.46999998093E+01 0. -1.
</event>
<event>
 5   0  0.8908478E-04  0.1201486E+04  0.7818609E-02  0.9111557E-01
       -1   -1    0    0    0  501  0.00000000000E+00  0.00000000000E+00  0.42559204366E+03  0.42559204369E+03  0.50400001928E-02 0. -1.
        1   -1    0    0  501    0  0.00000000000E+00  0.00000000000E+00 -0.84797649602E+03  0.84797649603E+03  0.50400001928E-02 0.  1.
    10030    2    1    2    0    0  0.00000000000E+00  0.00000000000E+00 -0.42238445236E+03  0.12735685397E+04  0.12014858300E+04 0.  0.
        4    1    3    3  502    0 -0.42457587017E+03  0.40521385683E+03 -0.75332924741E+02  0.59172595156E+03  0.12699999809E+01 0.  1.
       -4    1    3    3    0  502  0.42457587017E+03 -0.40521385683E+03 -0.34705152762E+03  0.68184258816E+03  0.12699999809E+01 0. -1.
</event>
<event>
 5   0  0.8908478E-04  0.1199847E+04  0.7818609E-02  0.9112991E-01
        1   -1    0    0  501    0  0.00000000000E+00  0.00000000000E+00  0.44809964368E+03  0.44809964371E+03  0.50400001928E-02 0. -1.
       -1   -1    0    0    0  501  0.00000000000E+00  0.00000000000E+00 -0.80318760792E+03  0.80318760793E+03  0.50400001928E-02 0.  1.
    10030    2    1    2    0    0  0.00000000000E+00  0.00000000000E+00 -0.35508796424E+03  0.12512872516E+04  0.11998467918E+04 0.  0.
        4    1    3    3  502    0 -0.44116926342E+02 -0.73812170885E+02  0.44163774879E+03  0.44993338820E+03  0.12699999809E+01 0. -1.
       -4    1    3    3    0  502  0.44116926342E+02  0.73812170885E+02 -0.79672571302E+03  0.80135386344E+03  0.12699999809E+01 0.  1.
</event>
<event>
 5   0  0.9169078E-04  0.1202900E+04  0.7818609E-02  0.9110322E-01
       -1   -1    0    0    0  501  0.00000000000E+00  0.00000000000E+00  0.41050629902E+03  0.41050629905E+03  0.50400001928E-02 0.  1.
        1   -1    0    0  501    0  0.00000000000E+00  0.00000000000E+00 -0.88121011982E+03  0.88121011983E+03  0.50400001928E-02 0. -1.
    10030    2    1    2    0    0  0.00000000000E+00  0.00000000000E+00 -0.47070382080E+03  0.12917164189E+04  0.12029003366E+04 0.  0.
        1    1    3    3  502    0  0.23745969801E+02 -0.49404714461E+03  0.13210658323E+03  0.51195566364E+03  0.50400001928E-02 0.  1.
       -1    1    3    3    0  502 -0.23745969801E+02  0.49404714461E+03 -0.60281040403E+03  0.77976075524E+03  0.50400001928E-02 0. -1.
</event>
<event>
 5   0  0.1597352E-03  0.1165889E+04  0.7818609E-02  0.9143249E-01
        2   -1    0    0  501    0  0.00000000000E+00  0.00000000000E+00  0.11850352562E+04  0.11850352562E+04  0.25500000920E-02 0.  1.
       -2   -1    0    0    0  501  0.00000000000E+00  0.00000000000E+00 -0.28676324931E+03  0.28676324932E+03  0.25500000920E-02 0. -1.
    10030    2    1    2    0    0  0.00000000000E+00  0.00000000000E+00  0.89827200685E+03  0.14717985055E+04  0.11658894641E+04 0.  0.
        1    1    3    3  502    0  0.51232625300E+03  0.18309606791E+03  0.71340004527E+03  0.89718559073E+03  0.50400001928E-02 0.  1.
       -1    1    3    3    0  502 -0.51232625300E+03 -0.18309606791E+03  0.18487196159E+03  0.57461291476E+03  0.50400001928E-02 0. -1.
</event>
<event>
 5   0  0.9208078E-04  0.1211963E+04  0.7818609E-02  0.9102449E-01
       -1   -1    0    0    0  501  0.00000000000E+00  0.00000000000E+00  0.68144283916E+03  0.68144283918E+03  0.50400001928E-02 0. -1.
        1   -1    0    0  501    0  0.00000000000E+00  0.00000000000E+00 -0.53887653078E+03  0.53887653081E+03  0.50400001928E-02 0.  1.
    10030    2    1    2    0    0  0.00000000000E+00  0.00000000000E+00  0.14256630838E+03  0.12203193700E+04  0.12119629584E+04 0.  0.
        3    1    3    3  502    0 -0.26123554929E+03 -0.50887865916E+03  0.27269244981E+03  0.63368973824E+03  0.10100000352E+00 0. -1.
       -3    1    3    3    0  502  0.26123554929E+03  0.50887865916E+03 -0.13012614143E+03  0.58662963175E+03  0.10100000352E+00 0.  1.
</event>
<event>
 5   0  0.1537557E-03  0.1197654E+04  0.7818609E-02  0.9114913E-01
        2   -1    0    0  501    0  0.00000000000E+00  0.00000000000E+00  0.78613062503E+03  0.78613062504E+03  0.25500000920E-02 0. -1.
       -2   -1    0    0    0  501  0.00000000000E+00  0.00000000000E+00 -0.45615021387E+03  0.45615021387E+03  0.25500000920E-02 0.  1.
    10030    2    1    2    0    0  0.00000000000E+00  0.00000000000E+00  0.32998041117E+03  0.12422808389E+04  0.11976537943E+04 0.  0.
        2    1    3    3  502    0 -0.23426283787E+02  0.27524006228E+03 -0.38611501295E+03  0.47475328950E+03  0.25500000920E-02 0.  1.
       -2    1    3    3    0  502  0.23426283787E+02 -0.27524006228E+03  0.71609542412E+03  0.76752754941E+03  0.25500000920E-02 0. -1.
</event>
<event>
 5   0  0.1647550E-03  0.1220801E+04  0.7818609E-02  0.9094842E-01
       -2   -1    0    0    0  501  0.00000000000E+00  0.00000000000E+00  0.27702269127E+03  0.27702269128E+03  0.25500000920E-02 0. -1.
        2   -1    0    0  501    0  0.00000000000E+00  0.00000000000E+00 -0.13449762447E+04  0.13449762447E+04  0.25500000920E-02 0.  1.
    10030    2    1    2    0    0  0.00000000000E+00  0.00000000000E+00 -0.10679535535E+04  0.16219989360E+04  0.12208012762E+04 0.  0.
        3    1    3    3  502    0 -0.95639701887E+02  0.28329255372E+03 -0.12410143291E+04  0.12765258317E+04  0.10100000352E+00 0.  1.
       -3    1    3    3    0  502  0.95639701887E+02 -0.28329255372E+03  0.17306077566E+03  0.34547310437E+03  0.10100000352E+00 0. -1.
</event>
<event>
 5   0  0.6137750E-04  0.1204951E+04  0.7818609E-02  0.9108534E-01
        3   -1    0    0  501    0  0.00000000000E+00  0.00000000000E+00  0.82877390227E+03  0.82877390842E+03  0.10100000352E+00 0. -1.
       -3   -1    0    0    0  501  0.00000000000E+00  0.00000000000E+00 -0.43796799036E+03  0.43796800200E+03  0.10100000352E+00 0.  1.
    10030    2    1    2    0    0  0.00000000000E+00  0.00000000000E+00  0.39080591191E+03  0.12667419104E+04  0.12049505412E+04 0.  0.
        4    1    3    3  502    0 -0.36403695431E+03  0.38758911641E+03  0.49317103778E+03  0.72523617716E+03  0.12699999809E+01 0.  1.
       -4    1    3    3    0  502  0.36403695431E+03 -0.38758911641E+03 -0.10236512587E+03  0.54150573326E+03  0.12699999809E+01 0. -1.
</event>
<event>
 5   0  0.9170776E-04  0.1197628E+04  0.7818609E-02  0.9114936E-01
        1   -1    0    0  501    0  0.00000000000E+00  0.00000000000E+00  0.94100606807E+03  0.94100606808E+03  0.50400001928E-02 0.  1.
       -1   -1    0    0    0  501  0.00000000000E+00  0.00000000000E+00 -0.38105812013E+03  0.38105812017E+03  0.50400001928E-02 0. -1.
    10030    2    1    2    0    0  0.00000000000E+00  0.00000000000E+00  0.55994794794E+03  0.13220641882E+04  0.11976276606E+04 0.  0.
        5    1    3    3  502    0  0.10913557715E+03 -0.22803615147E+03 -0.31923754396E+03  0.40724164822E+03  0.46999998093E+01 0. -1.
       -5    1    3    3    0  502 -0.10913557715E+03  0.22803615147E+03  0.87918549190E+03  0.91482254002E+03  0.46999998093E+01 0.  1.
</event>
<event>
 5   0  0.1551501E-03  0.1191528E+04  0.7818609E-02  0.9120304E-01
        2   -1    0    0  501    0  0.00000000000E+00  0.00000000000E+00  0.11625043841E+04  0.11625043841E+04  0.25500000920E-02 0.  1.
       -2   -1    0    0    0  501  0.00000000000E+00  0.00000000000E+00 -0.30531923426E+03  0.30531923427E+03  0.25500000920E-02 0. -1.
    10030    2    1    2    0    0  0.00000000000E+00  0.00000000000E+00  0.85718514985E+03  0.14678236184E+04  0.11915283436E+04 0.  0.
        4    1    3    3  502    0 -0.21573453516E+03  0.47533686677E+03  0.78230997116E+03  0.94047702281E+03  0.12699999809E+01 0.  1.
       -4    1    3    3    0  502  0.21573453516E+03 -0.47533686677E+03  0.74875178691E+02  0.52734659556E+03  0.12699999809E+01 0. -1.
</event>
<event>
 5   0  0.1551501E-03  0.1186646E+04  0.7818609E-02  0.9124626E-01
       -2   -1    0    0    0  501  0.00000000000E+00  0.00000000000E+00  0.50716413947E+03  0.50716413948E+03  0.25500000920E-02 0. -1.
        2   -1    0    0  501    0  0.00000000000E+00  0.00000000000E+00 -0.69411895582E+03  0.69411895583E+03  0.25500000920E-02 0.  1.
    10030    2    1    2    0    0  0.00000000000E+00  0.00000000000E+00 -0.18695481635E+03  0.12012830953E+04  0.11866461021E+04 0.  0.
        4    1    3    3  502    0 -0.35634174007E+02  0.96645230235E+02  0.49804195816E+03  0.50858381794E+03  0.12699999809E+01 0. -1.
       -4    1    3    3    0  502  0.35634174007E+02 -0.96645230235E+02 -0.68499677450E+03  0.69269927737E+03  0.12699999809E+01 0.  1.
</event>
<event>
 5   0  0.1537557E-03  0.1198148E+04  0.7818609E-02  0.9114479E-01
        2   -1    0    0  501    0  0.00000000000E+00  0.00000000000E+00  0.96074039860E+03  0.96074039861E+03  0.25500000920E-02 0.  1.
       -2   -1    0    0    0  501  0.00000000000E+00  0.00000000000E+00 -0.37355518256E+03  0.37355518257E+03  0.25500000920E-02 0. -1.
    10030    2    1    2    0    0  0.00000000000E+00  0.00000000000E+00  0.58718521605E+03  0.13342955812E+04  0.11981478289E+04 0.  0.
        2    1    3    3  502    0 -0.25604973192E+03 -0.51110949551E+03  0.94084061032E+02  0.57934980121E+03  0.25500000920E-02 0. -1.
       -2    1    3    3    0  502  0.25604973192E+03  0.51110949551E+03  0.49310115501E+03  0.75494577997E+03  0.25500000920E-02 0.  1.
</event>
<event>
 5   0  0.9208078E-04  0.1191347E+04  0.7818609E-02  0.9120464E-01
        1   -1    0    0  501    0  0.00000000000E+00  0.00000000000E+00  0.53956550398E+03  0.53956550400E+03  0.50400001928E-02 0.  1.
       -1   -1    0    0    0  501  0.00000000000E+00  0.00000000000E+00 -0.65761637763E+03  0.65761637765E+03  0.50400001928E-02 0. -1.
    10030    2    1    2    0    0  0.00000000000E+00  0.00000000000E+00 -0.11805087365E+03  0.11971818816E+04  0.11913473251E+04 0.  0.
        3    1    3    3  502    0  0.51025441254E+03 -0.27306990845E+03 -0.20078495413E+03  0.61256946416E+03  0.10100000352E+00 0. -1.
       -3    1    3    3    0  502 -0.51025441254E+03  0.27306990845E+03  0.82734080481E+02  0.58461241749E+03  0.10100000352E+00 0.  1.
</event>
<event>
 5   0  0.1647550E-03  0.1193551E+04  0.7818609E-02  0.9118520E-01
        2   -1    0    0  501    0  0.00000000000E+00  0.00000000000E+00  0.66618908978E+03  0.66618908978E+03  0.25500000920E-02 0.  1.
       -2   -1    0    0    0  501  0.00000000000E+00  0.00000000000E+00 -0.53459413880E+03  0.53459413880E+03  0.25500000920E-02 0. -1.
    10030    2    1    2    0    0  0.00000000000E+00  0.00000000000E+00  0.13159495098E+03  0.12007832286E+04  0.11935506403E+04 0.  0.
        3    1    3    3  502    0  0.55382734128E+03 -0.18264437799E+03 -0.61686924955E+02  0.58642048026E+03  0.10100000352E+00 0. -1.
       -3    1    3    3    0  502 -0.55382734128E+03  0.18264437799E+03  0.19328187593E+03  0.61436274832E+03  0.10100000352E+00 0.  1.
</event>
<event>
 5   0  0.9170776E-04  0.1206079E+04  0.7818609E-02  0.9107552E-01
       -1   -1    0    0    0  501  0.00000000000E+00  0.00000000000E+00  0.33772458973E+03  0.33772458977E+03  0.50400001928E-02 0.  1.
        1   -1    0    0  501    0  0.00000000000E+00  0.00000000000E+00 -0.10767854046E+04  0.10767854046E+04  0.50400001928E-02 0. -1.
    10030    2    1    2    0    0  0.00000000000E+00  0.00000000000E+00 -0.73906081485E+03  0.14145099944E+04  0.12060794485E+04 0.  0.
        5    1    3    3  502    0  0.31931904397E+03  0.23380601508E+02  0.22978175932E+03  0.39412314228E+03  0.46999998093E+01 0.  1.
       -5    1    3    3    0  502 -0.31931904397E+03 -0.23380601508E+02 -0.96884257418E+03  0.10203868521E+04  0.46999998093E+01 0. -1.
</event>
<event>
 5   0  0.9208078E-04  0.1200317E+04  0.7818609E-02  0.9112579E-01
       -1   -1    0    0    0  501  0.00000000000E+00  0.00000000000E+00  0.66664448817E+03  0.66664448818E+03  0.50400001928E-02 0. -1.
        1   -1    0    0  501    0  0.00000000000E+00  0.00000000000E+00 -0.54030324052E+03  0.54030324054E+03  0.50400001928E-02 0.  1.
    10030    2    1    2    0    0  0.00000000000E+00  0.00000000000E+00  0.12634124765E+03  0.12069477287E+04  0.12003169202E+04 0.  0.
        3    1    3    3  502    0  0.34470258586E+03  0.46262526695E+03  0.22945695970E+03  0.62088043686E+03  0.10100000352E+00 0. -1.
       -3    1    3    3    0  502 -0.34470258586E+03 -0.46262526695E+03 -0.10311571205E+03  0.58606729187E+03  0.10100000352E+00 0.  1.
</event>
<event>
 5   0  0.9170776E-04  0.1202138E+04  0.7818609E-02  0.9110987E-01
        1   -1    0    0  501    0  0.00000000000E+00  0.00000000000E+00  0.71371086441E+03  0.71371086442E+03  0.50400001928E-02 0.  1.
       -1   -1    0    0    0  501  0.00000000000E+00  0.00000000000E+00 -0.50620479093E+03  0.50620479096E+03  0.50400001928E-02 0. -1.
    10030    2    1    2    0    0  0.00000000000E+00  0.00000000000E+00  0.20750607348E+03  0.12199156554E+04  0.12021378605E+04 0.  0.
        5    1    3    3  502    0  0.46385005216E+03 -0.35968810605E+03 -0.27501780092E+02  0.58763155329E+03  0.46999998093E+01 0. -1.
       -5    1    3    3    0  502 -0.46385005216E+03  0.35968810605E+03  0.23500785357E+03  0.63228410209E+03  0.46999998093E+01 0.  1.
</event>
<event>
 5   0  0.1551501E-03  0.1201808E+04  0.7818609E-02  0.9111275E-01
        2   -1    0    0  501    0  0.00000000000E+00  0.00000000000E+00  0.69487385562E+03  0.69487385563E+03  0.25500000920E-02 0.  1.
       -2   -1    0    0    0  501  0.00000000000E+00  0.00000000000E+00 -0.51964224742E+03  0.51964224742E+03  0.25500000920E-02 0. -1.
    10030    2    1    2    0    0  0.00000000000E+00  0.00000000000E+00  0.17523160821E+03  0.12145161031E+04  0.12018083242E+04 0.  0.
        4    1    3    3  502    0  0.33972563996E+03 -0.68628779426E+02 -0.40845223748E+03  0.53568485420E+03  0.12699999809E+01 0. -1.
       -4    1    3    3    0  502 -0.33972563996E+03  0.68628779426E+02  0.58368384568E+03  0.67883124886E+03  0.12699999809E+01 0.  1.
</event>
<event>
 5   0  0.8908478E-04  0.1343863E+04  0.7818609E-02  0.8995487E-01
        1   -1    0    0  501    0  0.00000000000E+00  0.00000000000E+00  0.64420260448E+03  0.64420260450E+03  0.50400001928E-02 0.  1.
       -1   -1    0    0    0  501  0.00000000000E+00  0.00000000000E+00 -0.70085350716E+03  0.70085350718E+03  0.50400001928E-02 0. -1.
    10030    2    1    2    0    0  0.00000000000E+00  0.00000000000E+00 -0.56650902676E+02  0.13450561117E+04  0.13438625744E+04 0.  0.
        4    1    3    3  502    0 -0.13642927654E+03 -0.65548096025E+03 -0.85136809527E+02  0.67492082942E+03  0.12699999809E+01 0. -1.
       -4    1    3    3    0  502  0.13642927654E+03  0.65548096025E+03  0.28485906850E+02  0.67013528226E+03  0.12699999809E+01 0.  1.
</event>
<event>
 5   0  0.9208078E-04  0.1202370E+04  0.7818609E-02  0.9110785E-01
       -1   -1    0    0    0  501  0.00000000000E+00  0.00000000000E+00  0.84134857993E+03  0.84134857995E+03  0.50400001928E-02 0. -1.
        1   -1    0    0  501    0  0.00000000000E+00  0.00000000000E+00 -0.42957635318E+03  0.42957635321E+03  0.50400001928E-02 0.  1.
    10030    2    1    2    0    0  0.00000000000E+00  0.00000000000E+00  0.41177222675E+03  0.12709249332E+04  0.12023700840E+04 0.  0.
        3    1    3    3  502    0 -0.92703297871E+02  0.37781151140E+03  0.69037337872E+03  0.79243349994E+03  0.10100000352E+00 0. -1.
       -3    1    3    3    0  502  0.92703297871E+02 -0.37781151140E+03 -0.27860115197E+03  0.47849143322E+03  0.10100000352E+00 0.  1.
</event>
<event>
 5   0  0.1537557E-03  0.1205025E+04  0.7818609E-02  0.9108469E-01
       -2   -1    0    0    0  501  0.00000000000E+00  0.00000000000E+00  0.37491256617E+03  0.37491256618E+03  0.25500000920E-02 0.  1.
        2   -1    0    0  501    0  0.00000000000E+00  0.00000000000E+00 -0.96828279779E+03  0.96828279779E+03  0.25500000920E-02 0. -1.
    10030    2    1    2    0    0  0.00000000000E+00  0.00000000000E+00 -0.59337023162E+03  0.13431953640E+04  0.12050251259E+04 0.  0.
        2    1    3    3  502    0 -0.54414231937E+02 -0.54064745943E+03 -0.58684165222E+03  0.79977728700E+03  0.25500000920E-02 0. -1.
       -2    1    3    3    0  502  0.54414231937E+02  0.54064745943E+03 -0.65285794024E+01  0.54341807697E+03  0.25500000920E-02 0.  1.
</event>
<event>
 5   0  0.9208078E-04  0.1205294E+04  0.7818609E-02  0.9108236E-01
       -1   -1    0    0    0  501  0.00000000000E+00  0.00000000000E+00  0.44599570482E+03  0.44599570485E+03  0.50400001928E-02 0. -1.
        1   -1    0    0  501    0  0.00000000000E+00  0.00000000000E+00 -0.81431986066E+03  0.81431986068E+03  0.50400001928E-02 0.  1.
    10030    2    1    2    0    0  0.00000000000E+00  0.00000000000E+00 -0.36832415584E+03  0.12603155655E+04  0.12052935912E+04 0.  0.
        3    1    3    3  502    0  0.32142481565E+03  0.38953648844E+03  0.15968131451E+03  0.52967038840E+03  0.10100000352E+00 0. -1.
       -3    1    3    3    0  502 -0.32142481565E+03 -0.38953648844E+03 -0.52800547035E+03  0.73064517713E+03  0.10100000352E+00 0.  1.
</event>
<event>
 5   0  0.1551501E-03  0.1203930E+04  0.7818609E-02  0.9109423E-01
       -2   -1    0    0    0  501  0.00000000000E+00  0.00000000000E+00  0.80149368944E+03  0.80149368945E+03  0.25500000920E-02 0. -1.
        2   -1    0    0  501    0  0.00000000000E+00  0.00000000000E+00 -0.45210835113E+03  0.45210835114E+03  0.25500000920E-02 0.  1.
    10030    2    1    2    0    0  0.00000000000E+00  0.00000000000E+00  0.34938533831E+03  0.12536020406E+04  0.12039302146E+04 0.  0.
        4    1    3    3  502    0 -0.25085241659E+03 -0.21292919262E+03 -0.35018258211E+03  0.48051558736E+03  0.12699999809E+01 0.  1.
       -4    1    3    3    0  502  0.25085241659E+03  0.21292919262E+03  0.69956792042E+03  0.77308645323E+03  0.12699999809E+01 0. -1.
</event>
<event>
 5   0  0.1597352E-03  0.1200024E+04  0.7818609E-02  0.9112835E-01
        2   -1    0    0  501    0  0.00000000000E+00  0.00000000000E+00  0.11659699294E+04  0.11659699295E+04  0.25500000920E-02 0. -1.
       -2   -1    0    0    0  501  0.00000000000E+00  0.00000000000E+00 -0.30876832548E+03  0.30876832549E+03  0.25500000920E-02 0.  1.
    10030    2    1    2    0    0  0.00000000000E+00  0.00000000000E+00  0.85720160397E+03  0.14747382549E+04  0.12000243042E+04 0.  0.
        1    1    3    3  502    0 -0.45073934243E+03 -0.36190898016E+03  0.23093685381E+03  0.62247561816E+03  0.50400001928E-02 0.  1.
       -1    1    3    3    0  502  0.45073934243E+03  0.36190898016E+03  0.62626475016E+03  0.85226263678E+03  0.50400001928E-02 0. -1.
</event>
<event>
 5   0  0.1597352E-03  0.1196771E+04  0.7818609E-02  0.9115688E-01
       -2   -1    0    0    0  501  0.00000000000E+00  0.00000000000E+00  0.16699435010E+03  0.16699435012E+03  0.25500000920E-02 0. -1.
        2   -1    0    0  501    0  0.00000000000E+00  0.00000000000E+00 -0.21441753255E+04  0.21441753255E+04  0.25500000920E-02 0.  1.
    10030    2    1    2    0    0  0.00000000000E+00  0.00000000000E+00 -0.19771809754E+04  0.23111696756E+04  0.11967709305E+04 0.  0.
        1    1    3    3  502    0  0.31664335700E+03 -0.12517350698E+03 -0.19388636331E+04  0.19685333653E+04  0.50400001928E-02 0.  1.
       -1    1    3    3    0  502 -0.31664335700E+03  0.12517350698E+03 -0.38317342228E+02  0.34263631028E+03  0.50400001928E-02 0. -1.
</event>
<event>
 5   0  0.1647550E-03  0.1200072E+04  0.7818609E-02  0.9112793E-01
       -2   -1    0    0    0  501  0.00000000000E+00  0.00000000000E+00  0.23443608772E+03  0.23443608773E+03  0.25500000920E-02 0. -1.
        2   -1    0    0  501    0  0.00000000000E+00  0.00000000000E+00 -0.15357850895E+04  0.15357850895E+04  0.25500000920E-02 0.  1.
    10030    2    1    2    0    0  0.00000000000E+00  0.00000000000E+00 -0.13013490018E+04  0.17702211772E+04  0.12000724111E+04 0.  0.
        3    1    3    3  502    0 -0.52778926618E+03  0.11309207364E+03 -0.10372848828E+04  0.11693208562E+04  0.10100000352E+00 0.  1.
       -3    1    3    3    0  502  0.52778926618E+03 -0.11309207364E+03 -0.26406411901E+03  0.60090032098E+03  0.10100000352E+00 0. -1.
</event>
<event>
 5   0  0.1567019E-03  0.1210912E+04  0.7818609E-02  0.9103358E-01
        2   -1    0    0  501    0  0.00000000000E+00  0.00000000000E+00  0.87427013137E+03  0.87427013137E+03  0.25500000920E-02 0.  1.
       -2   -1    0    0    0  501  0.00000000000E+00  0.00000000000E+00 -0.41929496952E+03  0.41929496952E+03  0.25500000920E-02 0. -1.
    10030    2    1    2    0    0  0.00000000000E+00  0.00000000000E+00  0.45497516185E+03  0.12935651009E+04  0.12109121654E+04 0.  0.
        5    1    3    3  502    0  0.17688194080E+03  0.26996932259E+03  0.77468569081E+03  0.83924410375E+03  0.46999998093E+01 0.  1.
       -5    1    3    3    0  502 -0.17688194080E+03 -0.26996932259E+03 -0.31971052896E+03  0.45432099715E+03  0.46999998093E+01 0. -1.
</event>
<event>
 5   0  0.9208078E-04  0.1200795E+04  0.7818609E-02  0.9112161E-01
        1   -1    0    0  501    0  0.00000000000E+00  0.00000000000E+00  0.85294405410E+03  0.85294405411E+03  0.50400001928E-02 0.  1.
       -1   -1    0    0    0  501  0.00000000000E+00  0.00000000000E+00 -0.42262670575E+03  0.42262670578E+03  0.50400001928E-02 0. -1.
    10030    2    1    2    0    0  0.00000000000E+00  0.00000000000E+00  0.43031734835E+03  0.12755707599E+04  0.12007946299E+04 0.  0.
        3    1    3    3  502    0  0.56814605087E+03 -0.17372115538E+03  0.30720289444E+03  0.66883675400E+03  0.10100000352E+00 0. -1.
       -3    1    3    3    0  502 -0.56814605087E+03  0.17372115538E+03  0.12311445390E+03  0.60673400589E+03  0.10100000352E+00 0.  1.
</event>
<event>
 5   0  0.8908478E-04  0.1206652E+04  0.7818609E-02  0.9107054E-01
        1   -1    0    0  501    0  0.00000000000E+00  0.00000000000E+00  0.10034827843E+04  0.10034827843E+04  0.50400001928E-02 0.  1.
       -1   -1    0    0    0  501  0.00000000000E+00  0.00000000000E+00 -0.36273917809E+03  0.36273917812E+03  0.50400001928E-02 0. -1.
    10030    2    1    2    0    0  0.00000000000E+00  0.00000000000E+00  0.64074360620E+03  0.13662219624E+04  0.12066524279E+04 0.  0.
        4    1    3    3  502    0 -0.47203775791E+03 -0.32987004872E+03  0.52407150174E+03  0.77864397883E+03  0.12699999809E+01 0. -1.
       -4    1    3    3    0  502  0.47203775791E+03  0.32987004872E+03  0.11667210446E+03  0.58757798359E+03  0.12699999809E+01 0.  1.
</event>
<event>
 5   0  0.1551501E-03  0.1196319E+04  0.7818609E-02  0.9116085E-01
       -2   -1    0    0    0  501  0.00000000000E+00  0.00000000000E+00  0.34720390067E+03  0.34720390068E+03  0.25500000920E-02 0. -1.
        2   -1    0    0  501    0  0.00000000000E+00  0.00000000000E+00 -0.10305025735E+04  0.10305025735E+04  0.25500000920E-02 0.  1.
    10030    2    1    2    0    0  0.00000000000E+00  0.00000000000E+00 -0.68329867279E+03  0.13777064741E+04  0.11963185415E+04 0.  0.
        4    1    3    3  502    0  0.28396588297E+03  0.42210571108E+03  0.20668966205E+02  0.50915486159E+03  0.12699999809E+01 0. -1.
       -4    1    3    3    0  502 -0.28396588297E+03 -0.42210571108E+03 -0.70396763899E+03  0.86855161256E+03  0.12699999809E+01 0.  1.
</event>
<event>
 5   0  0.9208078E-04  0.1202041E+04  0.7818609E-02  0.9111072E-01
       -1   -1    0    0    0  501  0.00000000000E+00  0.00000000000E+00  0.16241553416E+04  0.16241553416E+04  0.50400001928E-02 0. -1.
        1   -1    0    0  501    0  0.00000000000E+00  0.00000000000E+00 -0.22240829074E+03  0.22240829080E+03  0.50400001928E-02 0.  1.
    10030    2    1    2    0    0  0.00000000000E+00  0.00000000000E+00  0.14017470509E+04  0.18465636324E+04  0.12020409535E+04 0.  0.
        3    1    3    3  502    0 -0.39732116691E+03 -0.20078034925E+03  0.13211763286E+04  0.13941605933E+04  0.10100000352E+00 0. -1.
       -3    1    3    3    0  502  0.39732116691E+03  0.20078034925E+03  0.80570722210E+02  0.45240303911E+03  0.10100000352E+00 0.  1.
</event>
<event>
 5   0  0.9358428E-04  0.1203305E+04  0.7818609E-02  0.9109969E-01
       -1   -1    0    0    0  501  0.00000000000E+00  0.00000000000E+00  0.45653758056E+03  0.45653758059E+03  0.50400001928E-02 0. -1.
        1   -1    0    0  501    0  0.00000000000E+00  0.00000000000E+00 -0.79289329491E+03  0.79289329493E+03  0.50400001928E-02 0.  1.
    10030    2    1    2    0    0  0.00000000000E+00  0.00000000000E+00 -0.33635571435E+03  0.12494308755E+04  0.12033047603E+04 0.  0.
        2    1    3    3  502    0 -0.39986955110E+03  0.13765468009E+03  0.27617658818E+03  0.50509204777E+03  0.25500000920E-02 0. -1.
       -2    1    3    3    0  502  0.39986955110E+03 -0.13765468009E+03 -0.61253230253E+03  0.74433882776E+03  0.25500000920E-02 0.  1.
</event>
<event>
 5   0  0.9208078E-04  0.1200694E+04  0.7818609E-02  0.9112250E-01
       -1   -1    0    0    0  501  0.00000000000E+00  0.00000000000E+00  0.59117315056E+03  0.59117315058E+03  0.50400001928E-02 0.  1.
        1   -1    0    0  501    0  0.00000000000E+00  0.00000000000E+00 -0.60966292210E+03  0.60966292213E+03  0.50400001928E-02 0. -1.
    10030    2    1    2    0    0  0.00000000000E+00  0.00000000000E+00 -0.18489771542E+02  0.12008360727E+04  0.12006937169E+04 0.  0.
        3    1    3    3  502    0  0.11622274285E+03  0.39429445661E+03 -0.44683589727E+03  0.60715580683E+03  0.10100000352E+00 0. -1.
       -3    1    3    3    0  502 -0.11622274285E+03 -0.39429445661E+03  0.42834612573E+03  0.59368026588E+03  0.10100000352E+00 0.  1.
</event>
<event>
 5   0  0.9208078E-04  0.1200304E+04  0.7818609E-02  0.9112591E-01
       -1   -1    0    0    0  501  0.00000000000E+00  0.00000000000E+00  0.73322284430E+03  0.73322284432E+03  0.50400001928E-02 0.  1.
        1   -1    0    0  501    0  0.00000000000E+00  0.00000000000E+00 -0.49123146357E+03  0.49123146360E+03  0.50400001928E-02 0. -1.
    10030    2    1    2    0    0  0.00000000000E+00  0.00000000000E+00  0.24199138073E+03  0.12244543079E+04  0.12003035132E+04 0.  0.
        3    1    3    3  502    0  0.23234734668E+03 -0.23799731402E+03  0.63060091217E+03  0.71294146437E+03  0.10100000352E+00 0.  1.
       -3    1    3    3    0  502 -0.23234734668E+03  0.23799731402E+03 -0.38860953144E+03  0.51151284355E+03  0.10100000352E+00 0. -1.
</event>
<event>
 5   0  0.9170776E-04  0.1225688E+04  0.7818609E-02  0.9090664E-01
       -1   -1    0    0    0  501  0.00000000000E+00  0.00000000000E+00  0.76909730427E+03  0.76909730429E+03  0.50400001928E-02 0. -1.
        1   -1    0    0  501    0  0.00000000000E+00  0.00000000000E+00 -0.48833609057E+03  0.48833609060E+03  0.50400001928E-02 0.  1.
    10030    2    1    2    0    0  0.00000000000E+00  0.00000000000E+00  0.28076121370E+03  0.12574333949E+04  0.12256883305E+04 0.  0.
        5    1    3    3  502    0  0.24509999346E+02  0.55626437589E+03 -0.12222786657E+03  0.57008116731E+03  0.46999998093E+01 0.  1.
       -5    1    3    3    0  502 -0.24509999346E+02 -0.55626437589E+03  0.40298908026E+03  0.68735222758E+03  0.46999998093E+01 0. -1.
</event>
<event>
 5   0  0.9358428E-04  0.1198540E+04  0.7818609E-02  0.9114136E-01
        1   -1    0    0  501    0  0.00000000000E+00  0.00000000000E+00  0.93348799446E+03  0.93348799447E+03  0.50400001928E-02 0. -1.
       -1   -1    0    0    0  501  0.00000000000E+00  0.00000000000E+00 -0.38471222075E+03  0.38471222078E+03  0.50400001928E-02 0.  1.
    10030    2    1    2    0    0  0.00000000000E+00  0.00000000000E+00  0.54877577371E+03  0.13182002153E+04  0.11985395103E+04 0.  0.
        2    1    3    3  502    0 -0.34327450580E+03 -0.53024340062E+02  0.81148238025E+03  0.88269622205E+03  0.25500000920E-02 0. -1.
       -2    1    3    3    0  502  0.34327450580E+03  0.53024340062E+02 -0.26270660653E+03  0.43550399320E+03  0.25500000920E-02 0.  1.
</event>
<event>
 5   0  0.6137750E-04  0.1195033E+04  0.7818609E-02  0.9117216E-01
        3   -1    0    0  501    0  0.00000000000E+00  0.00000000000E+00  0.11104013578E+04  0.11104013624E+04  0.10100000352E+00 0.  1.
       -3   -1    0    0    0  501  0.00000000000E+00  0.00000000000E+00 -0.32152849962E+03  0.32152851548E+03  0.10100000352E+00 0. -1.
    10030    2    1    2    0    0  0.00000000000E+00  0.00000000000E+00  0.78887285822E+03  0.14319298779E+04  0.11950325472E+04 0.  0.
        4    1    3    3  502    0 -0.20977283713E+03  0.48780181777E+03  0.66135709856E+02  0.53509887090E+03  0.12699999809E+01 0. -1.
       -4    1    3    3    0  502  0.20977283713E+03 -0.48780181777E+03  0.72273714836E+03  0.89683100701E+03  0.12699999809E+01 0.  1.
</event>
<event>
 5   0  0.6137750E-04  0.1194710E+04  0.7818609E-02  0.9117499E-01
       -4   -1    0    0    0  501  0.00000000000E+00  0.00000000000E+00  0.85921881494E+03  0.85921975352E+03  0.12699999809E+01 0. -1.
        4   -1    0    0  501    0  0.00000000000E+00  0.00000000000E+00 -0.41529737837E+03  0.41529932023E+03  0.12699999809E+01 0.  1.
    10030    2    1    2    0    0  0.00000000000E+00  0.00000000000E+00  0.44392143657E+03  0.12745190737E+04  0.11947102693E+04 0.  0.
        1    1    3    3  502    0  0.46092666770E+03 -0.26618141579E+03  0.51123365783E+03  0.73801476410E+03  0.50400001928E-02 0. -1.
       -1    1    3    3    0  502 -0.46092666770E+03  0.26618141579E+03 -0.67312221260E+02  0.53650430964E+03  0.50400001928E-02 0.  1.
</event>
<event>
 5   0  0.1567019E-03  0.1217856E+04  0.7818609E-02  0.9097370E-01
       -2   -1    0    0    0  501  0.00000000000E+00  0.00000000000E+00  0.15746643340E+03  0.15746643342E+03  0.25500000920E-02 0.  1.
        2   -1    0    0  501    0  0.00000000000E+00  0.00000000000E+00 -0.23547436436E+04  0.23547436436E+04  0.25500000920E-02 0. -1.
    10030    2    1    2    0    0  0.00000000000E+00  0.00000000000E+00 -0.21972772102E+04  0.25122100771E+04  0.12178556288E+04 0.  0.
        5    1    3    3  502    0 -0.22974139710E+03 -0.50122674870E+03 -0.16316341899E+04  0.17222838276E+04  0.46999998093E+01 0. -1.
       -5    1    3    3    0  502  0.22974139710E+03  0.50122674870E+03 -0.56564302036E+03  0.78992624949E+03  0.46999998093E+01 0.  1.
</event>
<event>
 5   0  0.9169078E-04  0.1196456E+04  0.7818609E-02  0.9115964E-01
       -1   -1    0    0    0  501  0.00000000000E+00  0.00000000000E+00  0.21565372434E+03  0.21565372440E+03  0.50400001928E-02 0.  1.
        1   -1    0    0  501    0  0.00000000000E+00  0.00000000000E+00 -0.16594983091E+04  0.16594983091E+04  0.50400001928E-02 0. -1.
    10030    2    1    2    0    0  0.00000000000E+00  0.00000000000E+00 -0.14438445847E+04  0.18751520335E+04  0.11964564195E+04 0.  0.
        1    1    3    3  502    0 -0.39205214072E+03  0.45057113038E+03 -0.66859493528E+03  0.89651459112E+03  0.50400001928E-02 0. -1.
       -1    1    3    3    0  502  0.39205214072E+03 -0.45057113038E+03 -0.77524964945E+03  0.97863744236E+03  0.50400001928E-02 0.  1.
</event>
<event>
 5   0  0.1567019E-03  0.1201375E+04  0.7818609E-02  0.9111654E-01
        2   -1    0    0  501    0  0.00000000000E+00  0.00000000000E+00  0.17795596803E+04  0.17795596803E+04  0.25500000920E-02 0. -1.
       -2   -1    0    0    0  501  0.00000000000E+00  0.00000000000E+00 -0.20276095155E+03  0.20276095157E+03  0.25500000920E-02 0.  1.
    10030    2    1    2    0    0  0.00000000000E+00  0.00000000000E+00  0.15767987287E+04  0.19823206318E+04  0.12013745696E+04 0.  0.
        5    1    3    3  502    0  0.43069670810E+03  0.55778956023E+02  0.10369645086E+03  0.44652658401E+03  0.46999998093E+01 0.  1.
       -5    1    3    3    0  502 -0.43069670810E+03 -0.55778956023E+02  0.14731022778E+04  0.15357940478E+04  0.46999998093E+01 0. -1.
</event>
<event>
 5   0  0.9208078E-04  0.1158199E+04  0.7818609E-02  0.9150253E-01
       -1   -1    0    0    0  501  0.00000000000E+00  0.00000000000E+00  0.66027732578E+03  0.66027732580E+03  0.50400001928E-02 0.  1.
        1   -1    0    0  501    0  0.00000000000E+00  0.00000000000E+00 -0.50790209664E+03  0.50790209667E+03  0.50400001928E-02 0. -1.
    10030    2    1    2    0    0  0.00000000000E+00  0.00000000000E+00  0.15237522914E+03  0.11681794225E+04  0.11581990125E+04 0.  0.
        3    1    3    3  502    0 -0.22978949491E+03 -0.47422436076E+03 -0.16601552418E+03  0.55249716812E+03  0.10100000352E+00 0. -1.
       -3    1    3    3    0  502  0.22978949491E+03  0.47422436076E+03  0.31839075332E+03  0.61568225434E+03  0.10100000352E+00 0.  1.
</event>
<event>
 5   0  0.1551501E-03  0.1203136E+04  0.7818609E-02  0.9110116E-01
       -2   -1    0    0    0  501  0.00000000000E+00  0.00000000000E+00  0.45983558408E+03  0.45983558409E+03  0.25500000920E-02 0. -1.
        2   -1    0    0  501    0  0.00000000000E+00  0.00000000000E+00 -0.78698579276E+03  0.78698579277E+03  0.25500000920E-02 0.  1.
    10030    2    1    2    0    0  0.00000000000E+00  0.00000000000E+00 -0.32715020868E+03  0.12468213769E+04  0.12031360217E+04 0.  0.
        4    1    3    3  502    0  0.11795678425E+03 -0.53536217395E+03 -0.42027046773E+03  0.69076431523E+03  0.12699999809E+01 0.  1.
       -4    1    3    3    0  502 -0.11795678425E+03  0.53536217395E+03  0.93120259044E+02  0.55605706163E+03  0.12699999809E+01 0. -1.
</event>
<event>
 5   0  0.8908478E-04  0.1199082E+04  0.7818609E-02  0.9113660E-01
        1   -1    0    0  501    0  0.00000000000E+00  0.00000000000E+00  0.66404471623E+03  0.66404471625E+03  0.50400001928E-02 0. -1.
       -1   -1    0    0    0  501  0.00000000000E+00  0.00000000000E+00 -0.54130297906E+03  0.54130297909E+03  0.50400001928E-02 0.  1.
    10030    2    1    2    0    0  0.00000000000E+00  0.00000000000E+00  0.12274173717E+03  0.12053476953E+04  0.11990819541E+04 0.  0.
        4    1    3    3  502    0 -0.91121220176E+02 -0.59253066229E+03  0.54114579873E+02  0.60193493268E+03  0.12699999809E+01 0. -1.
       -4    1    3    3    0  502  0.91121220176E+02  0.59253066229E+03  0.68627157298E+02  0.60341276266E+03  0.12699999809E+01 0.  1.
</event>
<event>
 5   0  0.1551501E-03  0.1208833E+04  0.7818609E-02  0.9105160E-01
       -2   -1    0    0    0  501  0.00000000000E+00  0.00000000000E+00  0.86416820474E+03  0.86416820474E+03  0.25500000920E-02 0. -1.
        2   -1    0    0  501    0  0.00000000000E+00  0.00000000000E+00 -0.42274095284E+03  0.42274095285E+03  0.25500000920E-02 0.  1.
    10030    2    1    2    0    0  0.00000000000E+00  0.00000000000E+00  0.44142725190E+03  0.12869091576E+04  0.12088329749E+04 0.  0.
        4    1    3    3  502    0 -0.17942863011E+03  0.54367131891E+03  0.42699261442E+03  0.71421106263E+03  0.12699999809E+01 0.  1.
       -4    1    3    3    0  502  0.17942863011E+03 -0.54367131891E+03  0.14434637475E+02  0.57269809496E+03  0.12699999809E+01 0. -1.
</event>
<event>
 5   0  0.1537557E-03  0.1200410E+04  0.7818609E-02  0.9112498E-01
       -2   -1    0    0    0  501  0.00000000000E+00  0.00000000000E+00  0.29409043462E+03  0.29409043463E+03  0.25500000920E-02 0.  1.
        2   -1    0    0  501    0  0.00000000000E+00  0.00000000000E+00 -0.12249500155E+04  0.12249500155E+04  0.25500000920E-02 0. -1.
    10030    2    1    2    0    0  0.00000000000E+00  0.00000000000E+00 -0.93085958091E+03  0.15190404502E+04  0.12004100674E+04 0.  0.
        2    1    3    3  502    0 -0.26034910001E+03 -0.24471132296E+03 -0.10757062765E+04  0.11334942782E+04  0.25500000920E-02 0. -1.
       -2    1    3    3    0  502  0.26034910001E+03  0.24471132296E+03  0.14484669559E+03  0.38554617193E+03  0.25500000920E-02 0.  1.
</event>
<event>
 5   0  0.9169078E-04  0.1216667E+04  0.7818609E-02  0.9098392E-01
        1   -1    0    0  501    0  0.00000000000E+00  0.00000000000E+00  0.49092442213E+03  0.49092442215E+03  0.50400001928E-02 0. -1.
       -1   -1    0    0    0  501  0.00000000000E+00  0.00000000000E+00 -0.75382202537E+03  0.75382202538E+03  0.50400001928E-02 0.  1.
    10030    2    1    2    0    0  0.00000000000E+00  0.00000000000E+00 -0.26289760324E+03  0.12447464475E+04  0.12166669918E+04 0.  0.
        1    1    3    3  502    0  0.48813270295E+03 -0.38929790192E+02  0.23782543407E+03  0.54438038298E+03  0.50400001928E-02 0. -1.
       -1    1    3    3    0  502 -0.48813270295E+03  0.38929790192E+02 -0.50072303731E+03  0.70036606455E+03  0.50400001928E-02 0.  1.
</event>
<event>
 5   0  0.6137750E-04  0.1200101E+04  0.7818609E-02  0.9112768E-01
       -3   -1    0    0    0  501  0.00000000000E+00  0.00000000000E+00  0.65150059749E+03  0.65150060532E+03  0.10100000352E+00 0.  1.
        3   -1    0    0  501    0  0.00000000000E+00  0.00000000000E+00 -0.55266331376E+03  0.55266332298E+03  0.10100000352E+00 0. -1.
    10030    2    1    2    0    0  0.00000000000E+00  0.00000000000E+00  0.98837283735E+02  0.12041639283E+04  0.12001008114E+04 0.  0.
        2    1    3    3  502    0 -0.58849739905E+03 -0.71604533524E+02 -0.43653646816E+02  0.59444262869E+03  0.25500000920E-02 0. -1.
       -2    1    3    3    0  502  0.58849739905E+03  0.71604533524E+02  0.14249093055E+03  0.60972129962E+03  0.25500000920E-02 0.  1.
</event>
<event>
 5   0  0.9169078E-04  0.1207617E+04  0.7818609E-02  0.9106215E-01
       -1   -1    0    0    0  501  0.00000000000E+00  0.00000000000E+00  0.35652418063E+03  0.35652418066E+03  0.50400001928E-02 0. -1.
        1   -1    0    0  501    0  0.00000000000E+00  0.00000000000E+00 -0.10226084964E+04  0.10226084964E+04  0.50400001928E-02 0.  1.
    10030    2    1    2    0    0  0.00000000000E+00  0.00000000000E+00 -0.66608431579E+03  0.13791326771E+04  0.12076169199E+04 0.  0.
        1    1    3    3  502    0  0.42355612463E+03 -0.29796540563E+03 -0.68762581594E+03  0.86082079229E+03  0.50400001928E-02 0.  1.
       -1    1    3    3    0  502 -0.42355612463E+03  0.29796540563E+03  0.21541500153E+02  0.51831188480E+03  0.50400001928E-02 0. -1.
</event>
<event>
 5   0  0.1567019E-03  0.1198880E+04  0.7818609E-02  0.9113837E-01
        2   -1    0    0  501    0  0.00000000000E+00  0.00000000000E+00  0.11849364430E+04  0.11849364430E+04  0.25500000920E-02 0. -1.
       -2   -1    0    0    0  501  0.00000000000E+00  0.00000000000E+00 -0.30324687056E+03  0.30324687057E+03  0.25500000920E-02 0.  1.
    10030    2    1    2    0    0  0.00000000000E+00  0.00000000000E+00  0.88168957240E+03  0.14881833135E+04  0.11988799242E+04 0.  0.
        5    1    3    3  502    0 -0.40671181131E+03  0.32313315687E+03  0.81215387960E+03  0.96407756362E+03  0.46999998093E+01 0. -1.
       -5    1    3    3    0  502  0.40671181131E+03 -0.32313315687E+03  0.69535692797E+02  0.52410574992E+03  0.46999998093E+01 0.  1.
</event>
<event>
 5   0  0.1647550E-03  0.1198403E+04  0.7818609E-02  0.9114256E-01
        2   -1    0    0  501    0  0.00000000000E+00  0.00000000000E+00  0.34593300871E+03  0.34593300872E+03  0.25500000920E-02 0.  1.
       -2   -1    0    0    0  501  0.00000000000E+00  0.00000000000E+00 -0.10378958725E+04  0.10378958725E+04  0.25500000920E-02 0. -1.
    10030    2    1    2    0    0  0.00000000000E+00  0.00000000000E+00 -0.69196286381E+03  0.13838288812E+04  0.11984030072E+04 0.  0.
        3    1    3    3  502    0 -0.16677885345E+03  0.32692722539E+03 -0.89291994525E+03  0.96540283586E+03  0.10100000352E+00 0. -1.
       -3    1    3    3    0  502  0.16677885345E+03 -0.32692722539E+03  0.20095708145E+03  0.41842604537E+03  0.10100000352E+00 0.  1.
</event>
<event>
 5   0  0.1647550E-03  0.1203829E+04  0.7818609E-02  0.9109512E-01
       -2   -1    0    0    0  501  0.00000000000E+00  0.00000000000E+00  0.18523079810E+03  0.18523079812E+03  0.25500000920E-02 0.  1.
        2   -1    0    0  501    0  0.00000000000E+00  0.00000000000E+00 -0.19559429979E+04  0.19559429979E+04  0.25500000920E-02 0. -1.
    10030    2    1    2    0    0  0.00000000000E+00  0.00000000000E+00 -0.17707121998E+04  0.21411737960E+04  0.12038286964E+04 0.  0.
        3    1    3    3  502    0 -0.25945718992E+03  0.54306894077E+03 -0.89901395921E+03  0.10818817019E+04  0.10100000352E+00 0.  1.
       -3    1    3    3    0  502  0.25945718992E+03 -0.54306894077E+03 -0.87169824061E+03  0.10592920941E+04  0.10100000352E+00 0. -1.
</event>
<event>
 5   0  0.9358428E-04  0.1206741E+04  0.7818609E-02  0.9106977E-01
        1   -1    0    0  501    0  0.00000000000E+00  0.00000000000E+00  0.62775077164E+03  0.62775077166E+03  0.50400001928E-02 0.  1.
       -1   -1    0    0    0  501  0.00000000000E+00  0.00000000000E+00 -0.57993667650E+03  0.57993667652E+03  0.50400001928E-02 0. -1.
    10030    2    1    2    0    0  0.00000000000E+00  0.00000000000E+00  0.47814095145E+02  0.12076874482E+04  0.12067405623E+04 0.  0.
        2    1    3    3  502    0  0.11126208689E+03  0.19864199956E+03 -0.53529592504E+03  0.58170406852E+03  0.25500000920E-02 0. -1.
       -2    1    3    3    0  502 -0.11126208689E+03 -0.19864199956E+03  0.58311002018E+03  0.62598337966E+03  0.25500000920E-02 0.  1.
</event>
<event>
 5   0  0.1551501E-03  0.1252492E+04  0.7818609E-02  0.9068112E-01
       -2   -1    0    0    0  501  0.00000000000E+00  0.00000000000E+00  0.46449185370E+03  0.46449185371E+03  0.25500000920E-02 0. -1.
        2   -1    0    0  501    0  0.00000000000E+00  0.00000000000E+00 -0.84432941025E+03  0.84432941026E+03  0.25500000920E-02 0.  1.
    10030    2    1    2    0    0  0.00000000000E+00  0.00000000000E+00 -0.37983755655E+03  0.13088212640E+04  0.12524921284E+04 0.  0.
        4    1    3    3  502    0 -0.24388608559E+03  0.56032537493E+03 -0.33296025610E+03  0.69592319517E+03  0.12699999809E+01 0.  1.
       -4    1    3    3    0  502  0.24388608559E+03 -0.56032537493E+03 -0.46877300450E+02  0.61289806879E+03  0.12699999809E+01 0. -1.
</event>
<event>
 5   0  0.9169078E-04  0.1195900E+04  0.7818609E-02  0.9116453E-01
        1   -1    0    0  501    0  0.00000000000E+00  0.00000000000E+00  0.87956813538E+03  0.87956813539E+03  0.50400001928E-02 0.  1.
       -1   -1    0    0    0  501  0.00000000000E+00  0.00000000000E+00 -0.40649970039E+03  0.40649970042E+03  0.50400001928E-02 0. -1.
    10030    2    1    2    0    0  0.00000000000E+00  0.00000000000E+00  0.47306843499E+03  0.12860678358E+04  0.11958999683E+04 0.  0.
        1    1    3    3  502    0 -0.13231038989E+03 -0.33161727499E+03 -0.27928468254E+03  0.45329459546E+03  0.50400001928E-02 0. -1.
       -1    1    3    3    0  502  0.13231038989E+03  0.33161727499E+03  0.75235311753E+03  0.83277324035E+03  0.50400001928E-02 0.  1.
</event>
<event>
 5   0  0.1647550E-03  0.1178878E+04  0.7818609E-02  0.9131548E-01
       -2   -1    0    0    0  501  0.00000000000E+00  0.00000000000E+00  0.72532009831E+03  0.72532009831E+03  0.25500000920E-02 0. -1.
        2   -1    0    0  501    0  0.00000000000E+00  0.00000000000E+00 -0.47901379955E+03  0.47901379955E+03  0.25500000920E-02 0.  1.
    10030    2    1    2    0    0  0.00000000000E+00  0.00000000000E+00  0.24630629876E+03  0.12043338979E+04  0.11788780025E+04 0.  0.
        3    1    3    3  502    0  0.52138973311E+03 -0.26418016614E+03  0.20095478889E+03  0.61807867732E+03  0.10100000352E+00 0. -1.
       -3    1    3    3    0  502 -0.52138973311E+03  0.26418016614E+03  0.45351509868E+02  0.58625522055E+03  0.10100000352E+00 0.  1.
</event>
<event>
 5   0  0.9169078E-04  0.1228764E+04  0.7818609E-02  0.9088046E-01
       -1   -1    0    0    0  501  0.00000000000E+00  0.00000000000E+00  0.12071572414E+04  0.12071572414E+04  0.50400001928E-02 0.  1.
        1   -1    0    0  501    0  0.00000000000E+00  0.00000000000E+00 -0.31268915808E+03  0.31268915812E+03  0.50400001928E-02 0. -1.
    10030    2    1    2    0    0  0.00000000000E+00  0.00000000000E+00  0.89446808331E+03  0.15198463995E+04  0.12287635762E+04 0.  0.
        1    1    3    3  502    0  0.32108582108E+03  0.28925089717E+03 -0.92910385185E+02  0.44203453000E+03  0.50400001928E-02 0. -1.
       -1    1    3    3    0  502 -0.32108582108E+03 -0.28925089717E+03  0.98737846849E+03  0.10778118695E+04  0.50400001928E-02 0.  1.
</event>
<event>
 5   0  0.1567019E-03  0.1199313E+04  0.7818609E-02  0.9113459E-01
       -2   -1    0    0    0  501  0.00000000000E+00  0.00000000000E+00  0.10250256243E+04  0.10250256243E+04  0.25500000920E-02 0. -1.
        2   -1    0    0  501    0  0.00000000000E+00  0.00000000000E+00 -0.35080842561E+03  0.35080842562E+03  0.25500000920E-02 0.  1.
    10030    2    1    2    0    0  0.00000000000E+00  0.00000000000E+00  0.67421719865E+03  0.13758340499E+04  0.11993125122E+04 0.  0.
        5    1    3    3  502    0  0.46332263676E+03  0.13056335543E+03 -0.73081854995E+02  0.48690625693E+03  0.46999998093E+01 0.  1.
       -5    1    3    3    0  502 -0.46332263676E+03 -0.13056335543E+03  0.74729905364E+03  0.88892779295E+03  0.46999998093E+01 0. -1.
</event>
<event>
 5   0  0.6137750E-04  0.1143923E+04  0.7818609E-02  0.9163408E-01
        3   -1    0    0  501    0  0.00000000000E+00  0.00000000000E+00  0.37581336265E+03  0.37581337622E+03  0.10100000352E+00 0. -1.
       -3   -1    0    0    0  501  0.00000000000E+00  0.00000000000E+00 -0.87048556608E+03  0.87048557194E+03  0.10100000352E+00 0.  1.
    10030    2    1    2    0    0  0.00000000000E+00  0.00000000000E+00 -0.49467220343E+03  0.12462989482E+04  0.11439232838E+04 0.  0.
        4    1    3    3  502    0 -0.40446757115E+03  0.29321104217E+03  0.56106948155E+02  0.50270899524E+03  0.12699999809E+01 0. -1.
       -4    1    3    3    0  502  0.40446757115E+03 -0.29321104217E+03 -0.55077915158E+03  0.74358995292E+03  0.12699999809E+01 0.  1.
</event>
<event>
 5   0  0.8908478E-04  0.1135794E+04  0.7818609E-02  0.9170991E-01
       -1   -1    0    0    0  501  0.00000000000E+00  0.00000000000E+00  0.48605740630E+03  0.48605740632E+03  0.50400001928E-02 0. -1.
        1   -1    0    0  501    0  0.00000000000E+00  0.00000000000E+00 -0.66351570878E+03  0.66351570880E+03  0.50400001928E-02 0.  1.
    10030    2    1    2    0    0  0.00000000000E+00  0.00000000000E+00 -0.17745830248E+03  0.11495731151E+04  0.11357935102E+04 0.  0.
        4    1    3    3  502    0  0.12206480487E+03 -0.51312798904E+03  0.12431195033E+03  0.54189964350E+03  0.12699999809E+01 0. -1.
       -4    1    3    3    0  502 -0.12206480487E+03  0.51312798904E+03 -0.30177025282E+03  0.60767347162E+03  0.12699999809E+01 0.  1.
</event>
<event>
 5   0  0.1537557E-03  0.1243020E+04  0.7818609E-02  0.9076012E-01
        2   -1    0    0  501    0  0.00000000000E+00  0.00000000000E+00  0.13483169248E+04  0.13483169248E+04  0.25500000920E-02 0.  1.
       -2   -1    0    0    0  501  0.00000000000E+00  0.00000000000E+00 -0.28648677910E+03  0.28648677911E+03  0.25500000920E-02 0. -1.
    10030    2    1    2    0    0  0.00000000000E+00  0.00000000000E+00  0.10618301457E+04  0.16348037039E+04  0.12430204713E+04 0.  0.
        2    1    3    3  502    0 -0.27364937048E+03  0.39402422028E+03  0.11231810272E+02  0.47985958123E+03  0.25500000920E-02 0. -1.
       -2    1    3    3    0  502  0.27364937048E+03 -0.39402422028E+03  0.10505983355E+04  0.11549441227E+04  0.25500000920E-02 0.  1.
</event>
<event>
 5   0  0.1647550E-03  0.1190043E+04  0.7818609E-02  0.9121617E-01
       -2   -1    0    0    0  501  0.00000000000E+00  0.00000000000E+00  0.38937171085E+03  0.38937171086E+03  0.25500000920E-02 0.  1.
        2   -1    0    0  501    0  0.00000000000E+00  0.00000000000E+00 -0.90928647531E+03  0.90928647531E+03  0.25500000920E-02 0. -1.
    10030    2    1    2    0    0  0.00000000000E+00  0.00000000000E+00 -0.51991476445E+03  0.12986581862E+04  0.11900427397E+04 0.  0.
        3    1    3    3  502    0  0.32414531625E+03  0.46421818463E+03 -0.45963809692E+03  0.72927079973E+03  0.10100000352E+00 0. -1.
       -3    1    3    3    0  502 -0.32414531625E+03 -0.46421818463E+03 -0.60276667532E+02  0.56938738644E+03  0.10100000352E+00 0.  1.
</event>
<event>
 5   0  0.9208078E-04  0.1201846E+04  0.7818609E-02  0.9111242E-01
        1   -1    0    0  501    0  0.00000000000E+00  0.00000000000E+00  0.45653123623E+03  0.45653123626E+03  0.50400001928E-02 0. -1.
       -1   -1    0    0    0  501  0.00000000000E+00  0.00000000000E+00 -0.79098317396E+03  0.79098317398E+03  0.50400001928E-02 0.  1.
    10030    2    1    2    0    0  0.00000000000E+00  0.00000000000E+00 -0.33445193773E+03  0.12475144102E+04  0.12018461237E+04 0.  0.
        3    1    3    3  502    0  0.59145107103E+03  0.92390805709E+02 -0.11271290649E+03  0.60914254480E+03  0.10100000352E+00 0. -1.
       -3    1    3    3    0  502 -0.59145107103E+03 -0.92390805709E+02 -0.22173903124E+03  0.63837186543E+03  0.10100000352E+00 0.  1.
</event>
<event>
 5   0  0.1567019E-03  0.1204247E+04  0.7818609E-02  0.9109147E-01
        2   -1    0    0  501    0  0.00000000000E+00  0.00000000000E+00  0.19779100298E+04  0.19779100298E+04  0.25500000920E-02 0.  1.
       -2   -1    0    0    0  501  0.00000000000E+00  0.00000000000E+00 -0.18330097515E+03  0.18330097516E+03  0.25500000920E-02 0. -1.
    10030    2    1    2    0    0  0.00000000000E+00  0.00000000000E+00  0.17946090546E+04  0.21612110049E+04  0.12042472125E+04 0.  0.
        5    1    3    3  502    0  0.27662725858E+03  0.32275611271E+03  0.16625877109E+04  0.17160752125E+04  0.46999998093E+01 0.  1.
       -5    1    3    3    0  502 -0.27662725858E+03 -0.32275611271E+03  0.13202134366E+03  0.44513579238E+03  0.46999998093E+01 0. -1.
</event>
<event>
 5   0  0.1551501E-03  0.1197573E+04  0.7818609E-02  0.9114984E-01
       -2   -1    0    0    0  501  0.00000000000E+00  0.00000000000E+00  0.54505543511E+03  0.54505543512E+03  0.25500000920E-02 0.  1.
        2   -1    0    0  501    0  0.00000000000E+00  0.00000000000E+00 -0.65781382888E+03  0.65781382889E+03  0.25500000920E-02 0. -1.
    10030    2    1    2    0    0  0.00000000000E+00  0.00000000000E+00 -0.11275839377E+03  0.12028692640E+04  0.11975725493E+04 0.  0.
        4    1    3    3  502    0  0.54206827083E+03  0.19279889057E+03  0.11028833035E+03  0.58581102000E+03  0.12699999809E+01 0.  1.
       -4    1    3    3    0  502 -0.54206827083E+03 -0.19279889057E+03 -0.22304672412E+03  0.61705824400E+03  0.12699999809E+01 0. -1.
</event>
<event>
 5   0  0.1537557E-03  0.1216927E+04  0.7818609E-02  0.9098168E-01
        2   -1    0    0  501    0  0.00000000000E+00  0.00000000000E+00  0.79119661724E+03  0.79119661724E+03  0.25500000920E-02 0. -1.
       -2   -1    0    0    0  501  0.00000000000E+00  0.00000000000E+00 -0.46793407814E+03  0.46793407814E+03  0.25500000920E-02 0.  1.
    10030    2    1    2    0    0  0.00000000000E+00  0.00000000000E+00  0.32326253910E+03  0.12591306954E+04  0.12169270475E+04 0.  0.
        2    1    3    3  502    0 -0.92406899427E+02 -0.14857968962E+03  0.76460495169E+03  0.78436961401E+03  0.25500000920E-02 0. -1.
       -2    1    3    3    0  502  0.92406899427E+02  0.14857968962E+03 -0.44134241259E+03  0.47476108137E+03  0.25500000920E-02 0.  1.
</event>
<event>
 5   0  0.6137750E-04  0.1211504E+04  0.7818609E-02  0.9102846E-01
        4   -1    0    0  501    0  0.00000000000E+00  0.00000000000E+00  0.31555758251E+03  0.31556013814E+03  0.12699999809E+01 0.  1.
       -4   -1    0    0    0  501  0.00000000000E+00  0.00000000000E+00 -0.11628092408E+04  0.11628099344E+04  0.12699999809E+01 0. -1.
    10030    2    1    2    0    0  0.00000000000E+00  0.00000000000E+00 -0.84725165833E+03  0.14783700725E+04  0.12115043123E+04 0.  0.
        5    1    3    3  502    0  0.46127376204E+01 -0.11607886027E+01  0.31551416718E+03  0.31558501940E+03  0.46999998093E+01 0.  1.
       -5    1    3    3    0  502 -0.46127376204E+01  0.11607886027E+01 -0.11627658255E+04  0.11627850531E+04  0.46999998093E+01 0. -1.
</event>
<event>
 5   0  0.1537557E-03  0.1195558E+04  0.7818609E-02  0.9116754E-01
       -2   -1    0    0    0  501  0.00000000000E+00  0.00000000000E+00  0.32430391325E+03  0.32430391326E+03  0.25500000920E-02 0.  1.
        2   -1    0    0  501    0  0.00000000000E+00  0.00000000000E+00 -0.11018666825E+04  0.11018666825E+04  0.25500000920E-02 0. -1.
    10030    2    1    2    0    0  0.00000000000E+00  0.00000000000E+00 -0.77756276928E+03  0.14261705958E+04  0.11955579066E+04 0.  0.
        2    1    3    3  502    0  0.44410277350E+02  0.14060915905E+03 -0.10798315151E+04  0.10898528843E+04  0.25500000920E-02 0. -1.
       -2    1    3    3    0  502 -0.44410277350E+02 -0.14060915905E+03  0.30226874584E+03  0.33631771149E+03  0.25500000920E-02 0.  1.
</event>
<event>
 5   0  0.1567019E-03  0.1199336E+04  0.7818609E-02  0.9113438E-01
       -2   -1    0    0    0  501  0.00000000000E+00  0.00000000000E+00  0.31131213481E+03  0.31131213482E+03  0.25500000920E-02 0.  1.
        2   -1    0    0  501    0  0.00000000000E+00  0.00000000000E+00 -0.11551154975E+04  0.11551154975E+04  0.25500000920E-02 0. -1.
    10030    2    1    2    0    0  0.00000000000E+00  0.00000000000E+00 -0.84380336268E+03  0.14664276323E+04  0.11993356019E+04 0.  0.
        5    1    3    3  502    0 -0.16626923338E+03 -0.38450088193E+03  0.10271070687E+03  0.43134436994E+03  0.46999998093E+01 0.  1.
       -5    1    3    3    0  502  0.16626923338E+03  0.38450088193E+03 -0.94651406955E+03  0.10350832624E+04  0.46999998093E+01 0. -1.
</event>
<event>
 5   0  0.1551501E-03  0.1200321E+04  0.7818609E-02  0.9112576E-01
       -2   -1    0    0    0  501  0.00000000000E+00  0.00000000000E+00  0.16978826129E+03  0.16978826131E+03  0.25500000920E-02 0.  1.
        2   -1    0    0  501    0  0.00000000000E+00  0.00000000000E+00 -0.21214213540E+04  0.21214213540E+04  0.25500000920E-02 0. -1.
    10030    2    1    2    0    0  0.00000000000E+00  0.00000000000E+00 -0.19516330927E+04  0.22912096153E+04  0.12003206958E+04 0.  0.
        4    1    3    3  502    0 -0.25458036825E+03  0.36144133893E+03 -0.20105719124E+03  0.48567130081E+03  0.12699999809E+01 0.  1.
       -4    1    3    3    0  502  0.25458036825E+03 -0.36144133893E+03 -0.17505759014E+04  0.18055383145E+04  0.12699999809E+01 0. -1.
</event>
<event>
 5   0  0.1537557E-03  0.1203255E+04  0.7818609E-02  0.9110012E-01
        2   -1    0    0  501    0  0.00000000000E+00  0.00000000000E+00  0.53564559433E+03  0.53564559433E+03  0.25500000920E-02 0. -1.
       -2   -1    0    0    0  501  0.00000000000E+00  0.00000000000E+00 -0.67573737325E+03  0.67573737325E+03  0.25500000920E-02 0.  1.
    10030    2    1    2    0    0  0.00000000000E+00  0.00000000000E+00 -0.14009177892E+03  0.12113829676E+04  0.12032551631E+04 0.  0.
        2    1    3    3  502    0  0.57925407118E+03 -0.12812963520E+03  0.30646026689E+02  0.59404685114E+03  0.25500000920E-02 0. -1.
       -2    1    3    3    0  502 -0.57925407118E+03  0.12812963520E+03 -0.17073780561E+03  0.61733611644E+03  0.25500000920E-02 0.  1.
</event>
<event>
 5   0  0.1567019E-03  0.1200914E+04  0.7818609E-02  0.9112057E-01
        2   -1    0    0  501    0  0.00000000000E+00  0.00000000000E+00  0.61758531008E+03  0.61758531008E+03  0.25500000920E-02 0.  1.
       -2   -1    0    0    0  501  0.00000000000E+00  0.00000000000E+00 -0.58380341906E+03  0.58380341907E+03  0.25500000920E-02 0. -1.
    10030    2    1    2    0    0  0.00000000000E+00  0.00000000000E+00  0.33781891015E+02  0.12013887291E+04  0.12009136781E+04 0.  0.
        5    1    3    3  502    0 -0.26753855259E+03  0.53731718116E+03  0.14027251800E+01  0.60025885077E+03  0.46999998093E+01 0. -1.
       -5    1    3    3    0  502  0.26753855259E+03 -0.53731718116E+03  0.32379165835E+02  0.60112987837E+03  0.46999998093E+01 0.  1.
</event>
<event>
 5   0  0.9169078E-04  0.1186083E+04  0.7818609E-02  0.9125126E-01
        1   -1    0    0  501    0  0.00000000000E+00  0.00000000000E+00  0.92735134097E+03  0.92735134098E+03  0.50400001928E-02 0.  1.
       -1   -1    0    0    0  501  0.00000000000E+00  0.00000000000E+00 -0.37925001621E+03  0.37925001625E+03  0.50400001928E-02 0. -1.
    10030    2    1    2    0    0  0.00000000000E+00  0.00000000000E+00  0.54810132476E+03  0.13066013572E+04  0.11860826466E+04 0.  0.
        1    1    3    3  502    0 -0.32985606068E+03 -0.21483558923E+03 -0.21457132702E+03  0.44833046470E+03  0.50400001928E-02 0. -1.
       -1    1    3    3    0  502  0.32985606068E+03  0.21483558923E+03  0.76267265178E+03  0.85827089253E+03  0.50400001928E-02 0.  1.
</event>
<event>
 5   0  0.1647550E-03  0.1190850E+04  0.7818609E-02  0.9120904E-01
       -2   -1    0    0    0  501  0.00000000000E+00  0.00000000000E+00  0.16412600619E+03  0.16412600621E+03  0.25500000920E-02 0. -1.
        2   -1    0    0  501    0  0.00000000000E+00  0.00000000000E+00 -0.21601133092E+04  0.21601133092E+04  0.25500000920E-02 0.  1.
    10030    2    1    2    0    0  0.00000000000E+00  0.00000000000E+00 -0.19959873030E+04  0.23242393154E+04  0.11908497309E+04 0.  0.
        3    1    3    3  502    0 -0.36117537468E+03 -0.38553667075E+03 -0.46190339300E+03  0.70174135580E+03  0.10100000352E+00 0. -1.
       -3    1    3    3    0  502  0.36117537468E+03  0.38553667075E+03 -0.15340839100E+04  0.16224979596E+04  0.10100000352E+00 0.  1.
</event>
<event>
 5   0  0.9169078E-04  0.1200402E+04  0.7818609E-02  0.9112505E-01
        1   -1    0    0  501    0  0.00000000000E+00  0.00000000000E+00  0.12286948093E+04  0.12286948094E+04  0.50400001928E-02 0. -1.
       -1   -1    0    0    0  501  0.00000000000E+00  0.00000000000E+00 -0.29319021646E+03  0.29319021650E+03  0.50400001928E-02 0.  1.
    10030    2    1    2    0    0  0.00000000000E+00  0.00000000000E+00  0.93550459289E+03  0.15218850259E+04  0.12004020946E+04 0.  0.
        1    1    3    3  502    0  0.24858060201E+03 -0.40463665497E+03  0.24146715253E+01  0.47489890388E+03  0.50400001928E-02 0.  1.
       -1    1    3    3    0  502 -0.24858060201E+03  0.40463665497E+03  0.93308992136E+03  0.10469861220E+04  0.50400001928E-02 0. -1.
</event>
<event>
 5   0  0.1537557E-03  0.1193744E+04  0.7818609E-02  0.9118350E-01
        2   -1    0    0  501    0  0.00000000000E+00  0.00000000000E+00  0.14930975573E+04  0.14930975573E+04  0.25500000920E-02 0. -1.
       -2   -1    0    0    0  501  0.00000000000E+00  0.00000000000E+00 -0.23860199899E+03  0.23860199901E+03  0.25500000920E-02 0.  1.
    10030    2    1    2    0    0  0.00000000000E+00  0.00000000000E+00  0.12544955583E+04  0.17316995564E+04  0.11937437948E+04 0.  0.
        2    1    3    3  502    0 -0.61618930441E+02 -0.58791478677E+03  0.74700624577E+03  0.95260643516E+03  0.25500000920E-02 0.  1.
       -2    1    3    3    0  502  0.61618930441E+02  0.58791478677E+03  0.50748931258E+03  0.77909312119E+03  0.25500000920E-02 0. -1.
</event>
<event>
 5   0  0.1567019E-03  0.1203107E+04  0.7818609E-02  0.9110141E-01
        2   -1    0    0  501    0  0.00000000000E+00  0.00000000000E+00  0.81145068421E+03  0.81145068421E+03  0.25500000920E-02 0. -1.
       -2   -1    0    0    0  501  0.00000000000E+00  0.00000000000E+00 -0.44595048343E+03  0.44595048344E+03  0.25500000920E-02 0.  1.
    10030    2    1    2    0    0  0.00000000000E+00  0.00000000000E+00  0.36550020077E+03  0.12574011677E+04  0.12031073517E+04 0.  0.
        5    1    3    3  502    0  0.39014693901E+03 -0.36640755553E+03 -0.10418579523E+03  0.54529432483E+03  0.46999998093E+01 0. -1.
       -5    1    3    3    0  502 -0.39014693901E+03  0.36640755553E+03  0.46968599600E+03  0.71210684283E+03  0.46999998093E+01 0.  1.
</event>
<event>
 5   0  0.9169078E-04  0.1203226E+04  0.7818609E-02  0.9110038E-01
        1   -1    0    0  501    0  0.00000000000E+00  0.00000000000E+00  0.77252851060E+03  0.77252851061E+03  0.50400001928E-02 0.  1.
       -1   -1    0    0    0  501  0.00000000000E+00  0.00000000000E+00 -0.46851075738E+03  0.46851075741E+03  0.50400001928E-02 0. -1.
    10030    2    1    2    0    0  0.00000000000E+00  0.00000000000E+00  0.30401775321E+03  0.12410392680E+04  0.12032255277E+04 0.  0.
        1    1    3    3  502    0 -0.25352247221E+03 -0.54551776174E+03  0.14309760346E+03  0.61833663682E+03  0.50400001928E-02 0.  1.
       -1    1    3    3    0  502  0.25352247221E+03  0.54551776174E+03  0.16092014975E+03  0.62270263121E+03  0.50400001928E-02 0. -1.
</event>
<event>
 5   0  0.8908478E-04  0.1201897E+04  0.7818609E-02  0.9111198E-01
        1   -1    0    0  501    0  0.00000000000E+00  0.00000000000E+00  0.11249879708E+04  0.11249879708E+04  0.50400001928E-02 0.  1.
       -1   -1    0    0    0  501  0.00000000000E+00  0.00000000000E+00 -0.32101576196E+03  0.32101576200E+03  0.50400001928E-02 0. -1.
    10030    2    1    2    0    0  0.00000000000E+00  0.00000000000E+00  0.80397220882E+03  0.14460037328E+04  0.12018966190E+04 0.  0.
        4    1    3    3  502    0 -0.23285692391E+03  0.52973797799E+03  0.59706888969E+03  0.83146710354E+03  0.12699999809E+01 0. -1.
       -4    1    3    3    0  502  0.23285692391E+03 -0.52973797799E+03  0.20690331914E+03  0.61453662926E+03  0.12699999809E+01 0.  1.
</event>
<event>
 5   0  0.9208078E-04  0.1208442E+04  0.7818609E-02  0.9105499E-01
       -1   -1    0    0    0  501  0.00000000000E+00  0.00000000000E+00  0.28157079575E+03  0.28157079580E+03  0.50400001928E-02 0. -1.
        1   -1    0    0  501    0  0.00000000000E+00  0.00000000000E+00 -0.12965934059E+04  0.12965934059E+04  0.50400001928E-02 0.  1.
    10030    2    1    2    0    0  0.00000000000E+00  0.00000000000E+00 -0.10150226101E+04  0.15781642017E+04  0.12084417025E+04 0.  0.
        3    1    3    3  502    0  0.52957993775E+02  0.37851689354E+03  0.10364423486E+03  0.39600722900E+03  0.10100000352E+00 0. -1.
       -3    1    3    3    0  502 -0.52957993775E+02 -0.37851689354E+03 -0.11186668450E+04  0.11821569727E+04  0.10100000352E+00 0.  1.
</event>
<event>
 5   0  0.6137750E-04  0.1201756E+04  0.7818609E-02  0.9111321E-01
       -3   -1    0    0    0  501  0.00000000000E+00  0.00000000000E+00  0.39540126561E+03  0.39540127851E+03  0.10100000352E+00 0.  1.
        3   -1    0    0  501    0  0.00000000000E+00  0.00000000000E+00 -0.91313408883E+03  0.91313409442E+03  0.10100000352E+00 0. -1.
    10030    2    1    2    0    0  0.00000000000E+00  0.00000000000E+00 -0.51773282322E+03  0.13085353729E+04  0.12017560260E+04 0.  0.
        4    1    3    3  502    0 -0.59076519223E+02  0.49223210635E+03 -0.62854802870E+03  0.80053527026E+03  0.12699999809E+01 0. -1.
       -4    1    3    3    0  502  0.59076519223E+02 -0.49223210635E+03  0.11081520548E+03  0.50800010267E+03  0.12699999809E+01 0.  1.
</event>
<event>
 5   0  0.9170776E-04  0.1209028E+04  0.7818609E-02  0.9104991E-01
       -1   -1    0    0    0  501  0.00000000000E+00  0.00000000000E+00  0.20248733449E+03  0.20248733455E+03  0.50400001928E-02 0. -1.
        1   -1    0    0  501    0  0.00000000000E+00  0.00000000000E+00 -0.18047395495E+04  0.18047395495E+04  0.50400001928E-02 0.  1.
    10030    2    1    2    0    0  0.00000000000E+00  0.00000000000E+00 -0.16022522150E+04  0.20072268840E+04  0.12090275446E+04 0.  0.
        5    1    3    3  502    0 -0.31143525262E+02 -0.58653284878E+03 -0.56386211728E+03  0.81421942937E+03  0.46999998093E+01 0.  1.
       -5    1    3    3    0  502  0.31143525262E+02  0.58653284878E+03 -0.10383900977E+04  0.11930074547E+04  0.46999998093E+01 0. -1.
</event>
<event>
 5   0  0.9208078E-04  0.1195307E+04  0.7818609E-02  0.9116974E-01
        1   -1    0    0  501    0  0.00000000000E+00  0.00000000000E+00  0.16364901728E+04  0.16364901728E+04  0.50400001928E-02 0. -1.
       -1   -1    0    0    0  501  0.00000000000E+00  0.00000000000E+00 -0.21826585418E+03  0.21826585424E+03  0.50400001928E-02 0.  1.
    10030    2    1    2    0    0  0.00000000000E+00  0.00000000000E+00  0.14182243186E+04  0.18547560270E+04  0.11953073671E+04 0.  0.
        3    1    3    3  502    0 -0.37629970090E+03  0.47830019212E+02 -0.75316861010E+01  0.37940204550E+03  0.10100000352E+00 0.  1.
       -3    1    3    3    0  502  0.37629970090E+03 -0.47830019212E+02  0.14257560047E+04  0.14753539815E+04  0.10100000352E+00 0. -1.
</event>
<event>
 5   0  0.1567019E-03  0.1201189E+04  0.7818609E-02  0.9111817E-01
        2   -1    0    0  501    0  0.00000000000E+00  0.00000000000E+00  0.10032124719E+04  0.10032124719E+04  0.25500000920E-02 0.  1.
       -2   -1    0    0    0  501  0.00000000000E+00  0.00000000000E+00 -0.35955845374E+03  0.35955845374E+03  0.25500000920E-02 0. -1.
    10030    2    1    2    0    0  0.00000000000E+00  0.00000000000E+00  0.64365401820E+03  0.13627709257E+04  0.12011886200E+04 0.  0.
        5    1    3    3  502    0 -0.21299268736E+03  0.21769604914E+03 -0.26542640252E+03  0.40401821721E+03  0.46999998093E+01 0. -1.
       -5    1    3    3    0  502  0.21299268736E+03 -0.21769604914E+03  0.90908042072E+03  0.95875270848E+03  0.46999998093E+01 0.  1.
</event>
<event>
 5   0  0.9170776E-04  0.1195568E+04  0.7818609E-02  0.9116745E-01
       -1   -1    0    0    0  501  0.00000000000E+00  0.00000000000E+00  0.36079190021E+03  0.36079190024E+03  0.50400001928E-02 0.  1.
        1   -1    0    0  501    0  0.00000000000E+00  0.00000000000E+00 -0.99044863093E+03  0.99044863094E+03  0.50400001928E-02 0. -1.
    10030    2    1    2    0    0  0.00000000000E+00  0.00000000000E+00 -0.62965673072E+03  0.13512405312E+04  0.11955682225E+04 0.  0.
        5    1    3    3  502    0  0.41961318846E+03  0.31920768369E+03 -0.63320808411E+03  0.82398018243E+03  0.46999998093E+01 0. -1.
       -5    1    3    3    0  502 -0.41961318846E+03 -0.31920768369E+03  0.35513533929E+01  0.52726034875E+03  0.46999998093E+01 0.  1.
</event>
<event>
 5   0  0.1567019E-03  0.1269679E+04  0.7818609E-02  0.9053961E-01
        2   -1    0    0  501    0  0.00000000000E+00  0.00000000000E+00  0.72206641526E+03  0.72206641527E+03  0.25500000920E-02 0.  1.
       -2   -1    0    0    0  501  0.00000000000E+00  0.00000000000E+00 -0.55815018943E+03  0.55815018943E+03  0.25500000920E-02 0. -1.
    10030    2    1    2    0    0  0.00000000000E+00  0.00000000000E+00  0.16391622583E+03  0.12802166047E+04  0.12696794973E+04 0.  0.
        5    1    3    3  502    0  0.44944120078E+03 -0.44832151736E+03  0.78795110125E+02  0.63970331816E+03  0.46999998093E+01 0. -1.
       -5    1    3    3    0  502 -0.44944120078E+03  0.44832151736E+03  0.85121115710E+02  0.64051328654E+03  0.46999998093E+01 0.  1.
</event>
<event>
 5   0  0.8908478E-04  0.1216879E+04  0.7818609E-02  0.9098209E-01
       -1   -1    0    0    0  501  0.00000000000E+00  0.00000000000E+00  0.46146289094E+03  0.46146289097E+03  0.50400001928E-02 0.  1.
        1   -1    0    0  501    0  0.00000000000E+00  0.00000000000E+00 -0.80222850308E+03  0.80222850309E+03  0.50400001928E-02 0. -1.
    10030    2    1    2    0    0  0.00000000000E+00  0.00000000000E+00 -0.34076561214E+03  0.12636913941E+04  0.12168790971E+04 0.  0.
        4    1    3    3  502    0 -0.51415613264E+03 -0.28279680800E+03 -0.33740050585E+03  0.67688350370E+03  0.12699999809E+01 0. -1.
       -4    1    3    3    0  502  0.51415613264E+03  0.28279680800E+03 -0.33651062908E+01  0.58680789035E+03  0.12699999809E+01 0.  1.
</event>
<event>
 5   0  0.9170776E-04  0.1184127E+04  0.7818609E-02  0.9126865E-01
       -1   -1    0    0    0  501  0.00000000000E+00  0.00000000000E+00  0.48218862834E+03  0.48218862837E+03  0.50400001928E-02 0.  1.
        1   -1    0    0  501    0  0.00000000000E+00  0.00000000000E+00 -0.72697467408E+03  0.72697467410E+03  0.50400001928E-02 0. -1.
    10030    2    1    2    0    0  0.00000000000E+00  0.00000000000E+00 -0.24478604574E+03  0.12091633025E+04  0.11841265489E+04 0.  0.
        5    1    3    3  502    0  0.13627878344E+03  0.56998123863E+03 -0.20823174362E+03  0.62195905673E+03  0.46999998093E+01 0. -1.
       -5    1    3    3    0  502 -0.13627878344E+03 -0.56998123863E+03 -0.36554302128E+02  0.58720424573E+03  0.46999998093E+01 0.  1.
</event>
<event>
 5   0  0.1647550E-03  0.1201377E+04  0.7818609E-02  0.9111652E-01
        2   -1    0    0  501    0  0.00000000000E+00  0.00000000000E+00  0.14650054412E+04  0.14650054412E+04  0.25500000920E-02 0. -1.
       -2   -1    0    0    0  501  0.00000000000E+00  0.00000000000E+00 -0.24629721914E+03  0.24629721915E+03  0.25500000920E-02 0.  1.
    10030    2    1    2    0    0  0.00000000000E+00  0.00000000000E+00  0.12187082220E+04  0.17113026603E+04  0.12013771534E+04 0.  0.
        3    1    3    3  502    0  0.59400709706E+03 -0.27729118913E+01  0.73655872967E+03  0.94624039908E+03  0.10100000352E+00 0. -1.
       -3    1    3    3    0  502 -0.59400709706E+03  0.27729118913E+01  0.48214949234E+03  0.76506226123E+03  0.10100000352E+00 0.  1.
</event>
<event>
 5   0  0.1567019E-03  0.1210143E+04  0.7818609E-02  0.9104024E-01
       -2   -1    0    0    0  501  0.00000000000E+00  0.00000000000E+00  0.64681065518E+03  0.64681065518E+03  0.25500000920E-02 0. -1.
        2   -1    0    0  501    0  0.00000000000E+00  0.00000000000E+00 -0.56602624251E+03  0.56602624251E+03  0.25500000920E-02 0.  1.
    10030    2    1    2    0    0  0.00000000000E+00  0.00000000000E+00  0.80784412671E+02  0.12128368977E+04  0.12101434705E+04 0.  0.
        5    1    3    3  502    0 -0.43472254683E+03  0.32483905747E+03 -0.22775816357E+03  0.58855753929E+03  0.46999998093E+01 0.  1.
       -5    1    3    3    0  502  0.43472254683E+03 -0.32483905747E+03  0.30854257624E+03  0.62427935841E+03  0.46999998093E+01 0. -1.
</event>
<event>
 5   0  0.6137750E-04  0.1202527E+04  0.7818609E-02  0.9110647E-01
       -3   -1    0    0    0  501  0.00000000000E+00  0.00000000000E+00  0.16012064446E+04  0.16012064478E+04  0.10100000352E+00 0.  1.
        3   -1    0    0  501    0  0.00000000000E+00  0.00000000000E+00 -0.22577839963E+03  0.22577842223E+03  0.10100000352E+00 0. -1.
    10030    2    1    2    0    0  0.00000000000E+00  0.00000000000E+00  0.13754280449E+04  0.18269848700E+04  0.12025270926E+04 0.  0.
        2    1    3    3  502    0  0.31313091736E+03  0.49343729983E+03  0.47292673005E+03  0.75179188096E+03  0.25500000920E-02 0. -1.
       -2    1    3    3    0  502 -0.31313091736E+03 -0.49343729983E+03  0.90250131488E+03  0.10751929890E+04  0.25500000920E-02 0.  1.
</event>
<event>
 5   0  0.1551501E-03  0.1251305E+04  0.7818609E-02  0.9069097E-01
        2   -1    0    0  501    0  0.00000000000E+00  0.00000000000E+00  0.67056589497E+03  0.67056589498E+03  0.25500000920E-02 0. -1.
       -2   -1    0    0    0  501  0.00000000000E+00  0.00000000000E+00 -0.58374770037E+03  0.58374770038E+03  0.25500000920E-02 0.  1.
    10030    2    1    2    0    0  0.00000000000E+00  0.00000000000E+00  0.86818194600E+02  0.12543135954E+04  0.12513053970E+04 0.  0.
        4    1    3    3  502    0 -0.95315338043E+02  0.23597334813E+03 -0.52951655785E+03  0.58750134692E+03  0.12699999809E+01 0.  1.
       -4    1    3    3    0  502  0.95315338043E+02 -0.23597334813E+03  0.61633475245E+03  0.66681224844E+03  0.12699999809E+01 0. -1.
</event>
<event>
 5   0  0.9169078E-04  0.1210675E+04  0.7818609E-02  0.9103564E-01
        1   -1    0    0  501    0  0.00000000000E+00  0.00000000000E+00  0.30796611273E+03  0.30796611277E+03  0.50400001928E-02 0. -1.
       -1   -1    0    0    0  501  0.00000000000E+00  0.00000000000E+00 -0.11898497444E+04  0.11898497444E+04  0.50400001928E-02 0.  1.
    10030    2    1    2    0    0  0.00000000000E+00  0.00000000000E+00 -0.88188363164E+03  0.14978158571E+04  0.12106748540E+04 0.  0.
        1    1    3    3  502    0 -0.53414062722E+03 -0.93275300430E+02 -0.10799039075E+03  0.55287287493E+03  0.50400001928E-02 0. -1.
       -1    1    3    3    0  502  0.53414062722E+03  0.93275300430E+02 -0.77389324089E+03  0.94494298221E+03  0.50400001928E-02 0.  1.
</event>
<event>
 5   0  0.9358428E-04  0.1200788E+04  0.7818609E-02  0.9112167E-01
       -1   -1    0    0    0  501  0.00000000000E+00  0.00000000000E+00  0.40154889595E+03  0.40154889598E+03  0.50400001928E-02 0. -1.
        1   -1    0    0  501    0  0.00000000000E+00  0.00000000000E+00 -0.89770582316E+03  0.89770582318E+03  0.50400001928E-02 0.  1.
    10030    2    1    2    0    0  0.00000000000E+00  0.00000000000E+00 -0.49615692721E+03  0.12992547192E+04  0.12007877118E+04 0.  0.
        2    1    3    3  502    0 -0.23483714746E+03 -0.50548730164E+03 -0.48955378641E+03  0.74184149773E+03  0.25500000920E-02 0. -1.
       -2    1    3    3    0  502  0.23483714746E+03  0.50548730164E+03 -0.66031407991E+01  0.55741322143E+03  0.25500000920E-02 0.  1.
</event>
<event>
 5   0  0.8908478E-04  0.1214775E+04  0.7818609E-02  0.9100022E-01
       -1   -1    0    0    0  501  0.00000000000E+00  0.00000000000E+00  0.13038019148E+04  0.13038019148E+04  0.50400001928E-02 0.  1.
        1   -1    0    0  501    0  0.00000000000E+00  0.00000000000E+00 -0.28295656619E+03  0.28295656623E+03  0.50400001928E-02 0. -1.
    10030    2    1    2    0    0  0.00000000000E+00  0.00000000000E+00  0.10208453486E+04  0.15867584810E+04  0.12147745681E+04 0.  0.
        4    1    3    3  502    0 -0.47795487487E+03  0.19543326473E+03  0.92817240556E+03  0.10621396569E+04  0.12699999809E+01 0.  1.
       -4    1    3    3    0  502  0.47795487487E+03 -0.19543326473E+03  0.92672943036E+02  0.52461882414E+03  0.12699999809E+01 0. -1.
</event>
<event>
 5   0  0.8908478E-04  0.1241891E+04  0.7818609E-02  0.9076960E-01
        1   -1    0    0  501    0  0.00000000000E+00  0.00000000000E+00  0.57614896881E+03  0.57614896883E+03  0.50400001928E-02 0.  1.
       -1   -1    0    0    0  501  0.00000000000E+00  0.00000000000E+00 -0.66922457027E+03  0.66922457029E+03  0.50400001928E-02 0. -1.
    10030    2    1    2    0    0  0.00000000000E+00  0.00000000000E+00 -0.93075601465E+02  0.12453735391E+04  0.12418905686E+04 0.  0.
        4    1    3    3  502    0 -0.30840744917E+03  0.41963154242E+03  0.29259055234E+03  0.59734130136E+03  0.12699999809E+01 0.  1.
       -4    1    3    3    0  502  0.30840744917E+03 -0.41963154242E+03 -0.38566615380E+03  0.64803223776E+03  0.12699999809E+01 0. -1.
</event>
<event>
 5   0  0.9169078E-04  0.1211628E+04  0.7818609E-02  0.9102739E-01
        1   -1    0    0  501    0  0.00000000000E+00  0.00000000000E+00  0.47725590982E+03  0.47725590984E+03  0.50400001928E-02 0.  1.
       -1   -1    0    0    0  501  0.00000000000E+00  0.00000000000E+00 -0.76900201254E+03  0.76900201256E+03  0.50400001928E-02 0. -1.
    10030    2    1    2    0    0  0.00000000000E+00  0.00000000000E+00 -0.29174610272E+03  0.12462579224E+04  0.12116282519E+04 0.  0.
        1    1    3    3  502    0 -0.14791101212E+03  0.16938548407E+02 -0.74989295020E+03  0.76452862517E+03  0.50400001928E-02 0. -1.
       -1    1    3    3    0  502  0.14791101212E+03 -0.16938548407E+02  0.45814684747E+03  0.48172929722E+03  0.50400001928E-02 0.  1.
</event>
<event>
 5   0  0.9170776E-04  0.1195901E+04  0.7818609E-02  0.9116452E-01
       -1   -1    0    0    0  501  0.00000000000E+00  0.00000000000E+00  0.37118713607E+03  0.37118713611E+03  0.50400001928E-02 0.  1.
        1   -1    0    0  501    0  0.00000000000E+00  0.00000000000E+00 -0.96324653302E+03  0.96324653303E+03  0.50400001928E-02 0. -1.
    10030    2    1    2    0    0  0.00000000000E+00  0.00000000000E+00 -0.59205939695E+03  0.13344336691E+04  0.11959008687E+04 0.  0.
        5    1    3    3  502    0 -0.56501430083E+03  0.27240809525E+02 -0.51222464175E+03  0.76313786137E+03  0.46999998093E+01 0. -1.
       -5    1    3    3    0  502  0.56501430083E+03 -0.27240809525E+02 -0.79834755200E+02  0.57129580777E+03  0.46999998093E+01 0.  1.
</event>
<event>
 5   0  0.1551501E-03  0.1206004E+04  0.7818609E-02  0.9107617E-01
       -2   -1    0    0    0  501  0.00000000000E+00  0.00000000000E+00  0.61739127381E+03  0.61739127381E+03  0.25500000920E-02 0. -1.
        2   -1    0    0  501    0  0.00000000000E+00  0.00000000000E+00 -0.58894805151E+03  0.58894805151E+03  0.25500000920E-02 0.  1.
    10030    2    1    2    0    0  0.00000000000E+00  0.00000000000E+00  0.28443222302E+02  0.12063393253E+04  0.12060039597E+04 0.  0.
        4    1    3    3  502    0 -0.79645445143E+02  0.41404213981E+03  0.44542788777E+03  0.61333669919E+03  0.12699999809E+01 0. -1.
       -4    1    3    3    0  502  0.79645445143E+02 -0.41404213981E+03 -0.41698466547E+03  0.59300262614E+03  0.12699999809E+01 0.  1.
</event>
<event>
 5   0  0.9170776E-04  0.1192860E+04  0.7818609E-02  0.9119129E-01
       -1   -1    0    0    0  501  0.00000000000E+00  0.00000000000E+00  0.62972320933E+03  0.62972320935E+03  0.50400001928E-02 0.  1.
        1   -1    0    0  501    0  0.00000000000E+00  0.00000000000E+00 -0.56489693131E+03  0.56489693134E+03  0.50400001928E-02 0. -1.
    10030    2    1    2    0    0  0.00000000000E+00  0.00000000000E+00  0.64826278019E+02  0.11946201407E+04  0.11928599391E+04 0.  0.
        5    1    3    3  502    0 -0.24614309285E+02  0.47274675044E+03 -0.33090485654E+03  0.57759455360E+03  0.46999998093E+01 0. -1.
       -5    1    3    3    0  502  0.24614309285E+02 -0.47274675044E+03  0.39573113455E+03  0.61702558709E+03  0.46999998093E+01 0.  1.
</event>
<event>
 5   0  0.1551501E-03  0.1194533E+04  0.7818609E-02  0.9117655E-01
        2   -1    0    0  501    0  0.00000000000E+00  0.00000000000E+00  0.15112499087E+04  0.15112499087E+04  0.25500000920E-02 0.  1.
       -2   -1    0    0    0  501  0.00000000000E+00  0.00000000000E+00 -0.23604781657E+03  0.23604781659E+03  0.25500000920E-02 0. -1.
    10030    2    1    2    0    0  0.00000000000E+00  0.00000000000E+00  0.12752020921E+04  0.17472977253E+04  0.11945329485E+04 0.  0.
        4    1    3    3  502    0 -0.26624833109E+03 -0.19951912350E+03 -0.87940749533E+02  0.34413840643E+03  0.12699999809E+01 0. -1.
       -4    1    3    3    0  502  0.26624833109E+03  0.19951912350E+03  0.13631428417E+04  0.14031593189E+04  0.12699999809E+01 0.  1.
</event>
<event>
 5   0  0.9169078E-04  0.1199461E+04  0.7818609E-02  0.9113328E-01
        1   -1    0    0  501    0  0.00000000000E+00  0.00000000000E+00  0.58671521758E+03  0.58671521760E+03  0.50400001928E-02 0.  1.
       -1   -1    0    0    0  501  0.00000000000E+00  0.00000000000E+00 -0.61303458824E+03  0.61303458826E+03  0.50400001928E-02 0. -1.
    10030    2    1    2    0    0  0.00000000000E+00  0.00000000000E+00 -0.26319370662E+02  0.11997498059E+04  0.11994610821E+04 0.  0.
        1    1    3    3  502    0  0.11248083860E+03  0.58128772838E+03 -0.10873036710E+03  0.60197147355E+03  0.50400001928E-02 0. -1.
       -1    1    3    3    0  502 -0.11248083860E+03 -0.58128772838E+03  0.82410996443E+02  0.59777833231E+03  0.50400001928E-02 0.  1.
</event>
<event>
 5   0  0.6137750E-04  0.1197566E+04  0.7818609E-02  0.9114990E-01
       -3   -1    0    0    0  501  0.00000000000E+00  0.00000000000E+00  0.76401623796E+03  0.76401624463E+03  0.10100000352E+00 0.  1.
        3   -1    0    0  501    0  0.00000000000E+00  0.00000000000E+00 -0.46928438655E+03  0.46928439742E+03  0.10100000352E+00 0. -1.
    10030    2    1    2    0    0  0.00000000000E+00  0.00000000000E+00  0.29473185141E+03  0.12333006420E+04  0.11975657015E+04 0.  0.
        5    1    3    3  502    0 -0.11067163486E+03 -0.22542524501E+03 -0.41241048080E+03  0.48287601568E+03  0.46999998093E+01 0. -1.
       -5    1    3    3    0  502  0.11067163486E+03  0.22542524501E+03  0.70714233221E+03  0.75042462637E+03  0.46999998093E+01 0.  1.
</event>
<event>
 5   0  0.1597352E-03  0.1202512E+04  0.7818609E-02  0.9110660E-01
       -2   -1    0    0    0  501  0.00000000000E+00  0.00000000000E+00  0.22778134149E+03  0.22778134151E+03  0.25500000920E-02 0. -1.
        2   -1    0    0  501    0  0.00000000000E+00  0.00000000000E+00 -0.15870873983E+04  0.15870873983E+04  0.25500000920E-02 0.  1.
    10030    2    1    2    0    0  0.00000000000E+00  0.00000000000E+00 -0.13593060568E+04  0.18148687398E+04  0.12025121981E+04 0.  0.
        1    1    3    3  502    0  0.46698123132E+03 -0.36082445758E+03 -0.50597248615E+03  0.77735057494E+03  0.50400001928E-02 0. -1.
       -1    1    3    3    0  502 -0.46698123132E+03  0.36082445758E+03 -0.85333357067E+03  0.10375181649E+04  0.50400001928E-02 0.  1.
</event>
<event>
 5   0  0.9208078E-04  0.1206538E+04  0.7818609E-02  0.9107153E-01
       -1   -1    0    0    0  501  0.00000000000E+00  0.00000000000E+00  0.75090099710E+03  0.75090099711E+03  0.50400001928E-02 0.  1.
        1   -1    0    0  501    0  0.00000000000E+00  0.00000000000E+00 -0.48466253378E+03  0.48466253380E+03  0.50400001928E-02 0. -1.
    10030    2    1    2    0    0  0.00000000000E+00  0.00000000000E+00  0.26623846332E+03  0.12355635309E+04  0.12065381550E+04 0.  0.
        3    1    3    3  502    0 -0.15718389959E+03  0.57630382714E+03  0.46826482760E+02  0.59918745745E+03  0.10100000352E+00 0.  1.
       -3    1    3    3    0  502  0.15718389959E+03 -0.57630382714E+03  0.21941198056E+03  0.63637607347E+03  0.10100000352E+00 0. -1.
</event>
<event>
 5   0  0.1537557E-03  0.1188720E+04  0.7818609E-02  0.9122788E-01
        2   -1    0    0  501    0  0.00000000000E+00  0.00000000000E+00  0.44389424985E+03  0.44389424985E+03  0.25500000920E-02 0. -1.
       -2   -1    0    0    0  501  0.00000000000E+00  0.00000000000E+00 -0.79582858524E+03  0.79582858524E+03  0.25500000920E-02 0.  1.
    10030    2    1    2    0    0  0.00000000000E+00  0.00000000000E+00 -0.35193433539E+03  0.12397228351E+04  0.11887198709E+04 0.  0.
        2    1    3    3  502    0  0.25263865789E+03  0.39610297020E+03  0.20371339293E+03  0.51207714353E+03  0.25500000920E-02 0. -1.
       -2    1    3    3    0  502 -0.25263865789E+03 -0.39610297020E+03 -0.55564772832E+03  0.72764569157E+03  0.25500000920E-02 0.  1.
</event>
<event>
 5   0  0.9169078E-04  0.1196186E+04  0.7818609E-02  0.9116202E-01
        1   -1    0    0  501    0  0.00000000000E+00  0.00000000000E+00  0.11374731308E+04  0.11374731308E+04  0.50400001928E-02 0.  1.
       -1   -1    0    0    0  501  0.00000000000E+00  0.00000000000E+00 -0.31448227392E+03  0.31448227396E+03  0.50400001928E-02 0. -1.
    10030    2    1    2    0    0  0.00000000000E+00  0.00000000000E+00  0.82299085689E+03  0.14519554048E+04  0.11961858329E+04 0.  0.
        1    1    3    3  502    0  0.22299522684E+03 -0.45500297957E+03  0.79717841892E+03  0.94458880695E+03  0.50400001928E-02 0.  1.
       -1    1    3    3    0  502 -0.22299522684E+03  0.45500297957E+03  0.25812437974E+02  0.50736659783E+03  0.50400001928E-02 0. -1.
</event>
<event>
 5   0  0.9208078E-04  0.1267651E+04  0.7818609E-02  0.9055619E-01
       -1   -1    0    0    0  501  0.00000000000E+00  0.00000000000E+00  0.47083499305E+03  0.47083499308E+03  0.50400001928E-02 0. -1.
        1   -1    0    0  501    0  0.00000000000E+00  0.00000000000E+00 -0.85323899745E+03  0.85323899747E+03  0.50400001928E-02 0.  1.
    10030    2    1    2    0    0  0.00000000000E+00  0.00000000000E+00 -0.38240400440E+03  0.13240739905E+04  0.12676510205E+04 0.  0.
        3    1    3    3  502    0  0.19302231211E+03 -0.55310296089E+03  0.61548382777E+02  0.58904050110E+03  0.10100000352E+00 0. -1.
       -3    1    3    3    0  502 -0.19302231211E+03  0.55310296089E+03 -0.44395238718E+03  0.73503348944E+03  0.10100000352E+00 0.  1.
</event>
<event>
 5   0  0.9169078E-04  0.1191953E+04  0.7818609E-02  0.9119929E-01
       -1   -1    0    0    0  501  0.00000000000E+00  0.00000000000E+00  0.28344770526E+03  0.28344770531E+03  0.50400001928E-02 0. -1.
        1   -1    0    0  501    0  0.00000000000E+00  0.00000000000E+00 -0.12530990491E+04  0.12530990491E+04  0.50400001928E-02 0.  1.
    10030    2    1    2    0    0  0.00000000000E+00  0.00000000000E+00 -0.96965134380E+03  0.15365467544E+04  0.11919531030E+04 0.  0.
        1    1    3    3  502    0 -0.18746535012E+03  0.22542512314E+03  0.18405241852E+03  0.34617197522E+03  0.50400001928E-02 0. -1.
       -1    1    3    3    0  502  0.18746535012E+03 -0.22542512314E+03 -0.11537037623E+04  0.11903747792E+04  0.50400001928E-02 0.  1.
</event>
<event>
 5   0  0.1567019E-03  0.1195771E+04  0.7818609E-02  0.9116566E-01
       -2   -1    0    0    0  501  0.00000000000E+00  0.00000000000E+00  0.21165755931E+03  0.21165755932E+03  0.25500000920E-02 0.  1.
        2   -1    0    0  501    0  0.00000000000E+00  0.00000000000E+00 -0.16888940224E+04  0.16888940224E+04  0.25500000920E-02 0. -1.
    10030    2    1    2    0    0  0.00000000000E+00  0.00000000000E+00 -0.14772364631E+04  0.19005515818E+04  0.11957711934E+04 0.  0.
        5    1    3    3  502    0  0.34758242823E+02  0.45702083514E+03 -0.13487652887E+04  0.14245231038E+04  0.46999998093E+01 0. -1.
       -5    1    3    3    0  502 -0.34758242823E+02 -0.45702083514E+03 -0.12847117444E+03  0.47602847799E+03  0.46999998093E+01 0.  1.
</event>
<event>
 5   0  0.1647550E-03  0.1199874E+04  0.7818609E-02  0.9112967E-01
       -2   -1    0    0    0  501  0.00000000000E+00  0.00000000000E+00  0.11072559056E+04  0.11072559056E+04  0.25500000920E-02 0.  1.
        2   -1    0    0  501    0  0.00000000000E+00  0.00000000000E+00 -0.32505967515E+03  0.32505967516E+03  0.25500000920E-02 0. -1.
    10030    2    1    2    0    0  0.00000000000E+00  0.00000000000E+00  0.78219623042E+03  0.14323155807E+04  0.11998737350E+04 0.  0.
        3    1    3    3  502    0  0.24845246393E+02 -0.80269292691E+01 -0.32438112088E+03  0.32543023776E+03  0.10100000352E+00 0. -1.
       -3    1    3    3    0  502 -0.24845246393E+02  0.80269292691E+01  0.11065773513E+04  0.11068853430E+04  0.10100000352E+00 0.  1.
</event>
<event>
 5   0  0.1597352E-03  0.1176786E+04  0.7818609E-02  0.9133422E-01
       -2   -1    0    0    0  501  0.00000000000E+00  0.00000000000E+00  0.17333092251E+03  0.17333092253E+03  0.25500000920E-02 0.  1.
        2   -1    0    0  501    0  0.00000000000E+00  0.00000000000E+00 -0.19973722453E+04  0.19973722453E+04  0.25500000920E-02 0. -1.
    10030    2    1    2    0    0  0.00000000000E+00  0.00000000000E+00 -0.18240413227E+04  0.21707031678E+04  0.11767860874E+04 0.  0.
        1    1    3    3  502    0 -0.55871586110E+03  0.10593299043E+03 -0.63336248459E+03  0.85119518843E+03  0.50400001928E-02 0.  1.
       -1    1    3    3    0  502  0.55871586110E+03 -0.10593299043E+03 -0.11906788382E+04  0.13195079793E+04  0.50400001928E-02 0. -1.
</event>
<event>
 5   0  0.9358428E-04  0.1195258E+04  0.7818609E-02  0.9117017E-01
        1   -1    0    0  501    0  0.00000000000E+00  0.00000000000E+00  0.13012714157E+04  0.13012714157E+04  0.50400001928E-02 0.  1.
       -1   -1    0    0    0  501  0.00000000000E+00  0.00000000000E+00 -0.27447036028E+03  0.27447036032E+03  0.50400001928E-02 0. -1.
    10030    2    1    2    0    0  0.00000000000E+00  0.00000000000E+00  0.10268010554E+04  0.15757417760E+04  0.11952580212E+04 0.  0.
        2    1    3    3  502    0  0.85986823194E+02 -0.10452321644E+03 -0.25399938026E+03  0.28780987077E+03  0.25500000920E-02 0. -1.
       -2    1    3    3    0  502 -0.85986823194E+02  0.10452321644E+03  0.12808004357E+04  0.12879319053E+04  0.25500000920E-02 0.  1.
</event>
<event>
 5   0  0.9169078E-04  0.1177310E+04  0.7818609E-02  0.9132952E-01
        1   -1    0    0  501    0  0.00000000000E+00  0.00000000000E+00  0.35712776352E+03  0.35712776356E+03  0.50400001928E-02 0.  1.
       -1   -1    0    0    0  501  0.00000000000E+00  0.00000000000E+00 -0.97028248746E+03  0.97028248747E+03  0.50400001928E-02 0. -1.
    10030    2    1    2    0    0  0.00000000000E+00  0.00000000000E+00 -0.61315472394E+03  0.13274102510E+04  0.11773101796E+04 0.  0.
        1    1    3    3  502    0  0.29880000326E+03 -0.36785745447E+03 -0.70025571227E+03  0.84555225229E+03  0.50400001928E-02 0. -1.
       -1    1    3    3    0  502 -0.29880000326E+03  0.36785745447E+03  0.87100988328E+02  0.48185799874E+03  0.50400001928E-02 0.  1.
</event>
<event>
 5   0  0.1567019E-03  0.1202559E+04  0.7818609E-02  0.9110620E-01
        2   -1    0    0  501    0  0.00000000000E+00  0.00000000000E+00  0.29422425932E+04  0.29422425932E+04  0.25500000920E-02 0.  1.
       -2   -1    0    0    0  501  0.00000000000E+00  0.00000000000E+00 -0.12287803175E+03  0.12287803177E+03  0.25500000920E-02 0. -1.
    10030    2    1    2    0    0  0.00000000000E+00  0.00000000000E+00  0.28193645614E+04  0.30651206249E+04  0.12025589030E+04 0.  0.
        5    1    3    3  502    0  0.50520144226E+03 -0.31931446975E+03  0.15772989651E+04  0.16867377814E+04  0.46999998093E+01 0. -1.
       -5    1    3    3    0  502 -0.50520144226E+03  0.31931446975E+03  0.12420655963E+04  0.13783828436E+04  0.46999998093E+01 0.  1.
</event>
<event>
 5   0  0.9208078E-04  0.1209798E+04  0.7818609E-02  0.9104323E-01
       -1   -1    0    0    0  501  0.00000000000E+00  0.00000000000E+00  0.49445366580E+03  0.49445366582E+03  0.50400001928E-02 0.  1.
        1   -1    0    0  501    0  0.00000000000E+00  0.00000000000E+00 -0.74001478125E+03  0.74001478126E+03  0.50400001928E-02 0. -1.
    10030    2    1    2    0    0  0.00000000000E+00  0.00000000000E+00 -0.24556111545E+03  0.12344684471E+04  0.12097983656E+04 0.  0.
        3    1    3    3  502    0  0.24572931848E+03  0.29467808371E+03  0.35439307584E+03  0.52231459235E+03  0.10100000352E+00 0.  1.
       -3    1    3    3    0  502 -0.24572931848E+03 -0.29467808371E+03 -0.59995419129E+03  0.71215385474E+03  0.10100000352E+00 0. -1.
</event>
<event>
 5   0  0.8908478E-04  0.1211588E+04  0.7818609E-02  0.9102773E-01
       -1   -1    0    0    0  501  0.00000000000E+00  0.00000000000E+00  0.64263026587E+03  0.64263026589E+03  0.50400001928E-02 0.  1.
        1   -1    0    0  501    0  0.00000000000E+00  0.00000000000E+00 -0.57106938230E+03  0.57106938232E+03  0.50400001928E-02 0. -1.
    10030    2    1    2    0    0  0.00000000000E+00  0.00000000000E+00  0.71560883566E+02  0.12136996482E+04  0.12115881627E+04 0.  0.
        4    1    3    3  502    0  0.23331016945E+03 -0.33959826652E+03 -0.40909286514E+03  0.58061967156E+03  0.12699999809E+01 0. -1.
       -4    1    3    3    0  502 -0.23331016945E+03  0.33959826652E+03  0.48065374870E+03  0.63307997665E+03  0.12699999809E+01 0.  1.
</event>
<event>
 5   0  0.1647550E-03  0.1200704E+04  0.7818609E-02  0.9112240E-01
        2   -1    0    0  501    0  0.00000000000E+00  0.00000000000E+00  0.10835594523E+04  0.10835594523E+04  0.25500000920E-02 0.  1.
       -2   -1    0    0    0  501  0.00000000000E+00  0.00000000000E+00 -0.33262840648E+03  0.33262840649E+03  0.25500000920E-02 0. -1.
    10030    2    1    2    0    0  0.00000000000E+00  0.00000000000E+00  0.75093104584E+03  0.14161878588E+04  0.12007042166E+04 0.  0.
        3    1    3    3  502    0 -0.11215966770E+02  0.57639456223E+03  0.17787037014E+03  0.60331945771E+03  0.10100000352E+00 0.  1.
       -3    1    3    3    0  502  0.11215966770E+02 -0.57639456223E+03  0.57306067570E+03  0.81286840111E+03  0.10100000352E+00 0. -1.
</event>
<event>
 5   0  0.9170776E-04  0.1207773E+04  0.7818609E-02  0.9106080E-01
        1   -1    0    0  501    0  0.00000000000E+00  0.00000000000E+00  0.81806561371E+03  0.81806561373E+03  0.50400001928E-02 0.  1.
       -1   -1    0    0    0  501  0.00000000000E+00  0.00000000000E+00 -0.44578187980E+03  0.44578187983E+03  0.50400001928E-02 0. -1.
    10030    2    1    2    0    0  0.00000000000E+00  0.00000000000E+00  0.37228373391E+03  0.12638474936E+04  0.12077728712E+04 0.  0.
        5    1    3    3  502    0 -0.69319399650E+02 -0.44247233695E+03 -0.23771937949E+03  0.50706956280E+03  0.46999998093E+01 0. -1.
       -5    1    3    3    0  502  0.69319399650E+02  0.44247233695E+03  0.61000311340E+03  0.75677793076E+03  0.46999998093E+01 0.  1.
</event>
<event>
 5   0  0.1567019E-03  0.1201888E+04  0.7818609E-02  0.9111206E-01
       -2   -1    0    0    0  501  0.00000000000E+00  0.00000000000E+00  0.40995078093E+03  0.40995078094E+03  0.25500000920E-02 0. -1.
        2   -1    0    0  501    0  0.00000000000E+00  0.00000000000E+00 -0.88091895261E+03  0.88091895261E+03  0.25500000920E-02 0.  1.
    10030    2    1    2    0    0  0.00000000000E+00  0.00000000000E+00 -0.47096817168E+03  0.12908697336E+04  0.12018875364E+04 0.  0.
        5    1    3    3  502    0  0.30034279786E+03  0.50581990509E+03 -0.10371543959E+03  0.59735965299E+03  0.46999998093E+01 0. -1.
       -5    1    3    3    0  502 -0.30034279786E+03 -0.50581990509E+03 -0.36725273210E+03  0.69351008056E+03  0.46999998093E+01 0.  1.
</event>
<event>
 5   0  0.1551501E-03  0.1196671E+04  0.7818609E-02  0.9115775E-01
        2   -1    0    0  501    0  0.00000000000E+00  0.00000000000E+00  0.14469039263E+04  0.14469039263E+04  0.25500000920E-02 0. -1.
       -2   -1    0    0    0  501  0.00000000000E+00  0.00000000000E+00 -0.24742853210E+03  0.24742853211E+03  0.25500000920E-02 0.  1.
    10030    2    1    2    0    0  0.00000000000E+00  0.00000000000E+00  0.11994753942E+04  0.16943324584E+04  0.11966709065E+04 0.  0.
        4    1    3    3  502    0 -0.74926226560E+02 -0.16408997382E+03 -0.20800964746E+03  0.27533449706E+03  0.12699999809E+01 0.  1.
       -4    1    3    3    0  502  0.74926226560E+02  0.16408997382E+03  0.14074850417E+04  0.14189979614E+04  0.12699999809E+01 0. -1.
</event>
<event>
 5   0  0.1597352E-03  0.1219309E+04  0.7818609E-02  0.9096122E-01
        2   -1    0    0  501    0  0.00000000000E+00  0.00000000000E+00  0.66884900497E+03  0.66884900498E+03  0.25500000920E-02 0. -1.
       -2   -1    0    0    0  501  0.00000000000E+00  0.00000000000E+00 -0.55569841008E+03  0.55569841009E+03  0.25500000920E-02 0.  1.
    10030    2    1    2    0    0  0.00000000000E+00  0.00000000000E+00  0.11315059489E+03  0.12245474151E+04  0.12193085395E+04 0.  0.
        1    1    3    3  502    0  0.57000867255E+03  0.17333148384E+03 -0.73304128638E+02  0.60027259255E+03  0.50400001928E-02 0.  1.
       -1    1    3    3    0  502 -0.57000867255E+03 -0.17333148384E+03  0.18645472352E+03  0.62427482251E+03  0.50400001928E-02 0. -1.
</event>
<event>
 5   0  0.1597352E-03  0.1198538E+04  0.7818609E-02  0.9114137E-01
        2   -1    0    0  501    0  0.00000000000E+00  0.00000000000E+00  0.13528589665E+04  0.13528589665E+04  0.25500000920E-02 0. -1.
       -2   -1    0    0    0  501  0.00000000000E+00  0.00000000000E+00 -0.26545509595E+03  0.26545509597E+03  0.25500000920E-02 0.  1.
    10030    2    1    2    0    0  0.00000000000E+00  0.00000000000E+00  0.10874038706E+04  0.16183140625E+04  0.11985379540E+04 0.  0.
        1    1    3    3  502    0  0.33020066320E+03  0.19134108941E+03 -0.80160763988E+02  0.38996107317E+03  0.50400001928E-02 0.  1.
       -1    1    3    3    0  502 -0.33020066320E+03 -0.19134108941E+03  0.11675646345E+04  0.12283529893E+04  0.50400001928E-02 0. -1.
</event>
<event>
 5   0  0.9358428E-04  0.1200356E+04  0.7818609E-02  0.9112545E-01
        1   -1    0    0  501    0  0.00000000000E+00  0.00000000000E+00  0.10100012206E+04  0.10100012206E+04  0.50400001928E-02 0.  1.
       -1   -1    0    0    0  501  0.00000000000E+00  0.00000000000E+00 -0.35664682024E+03  0.35664682027E+03  0.50400001928E-02 0. -1.
    10030    2    1    2    0    0  0.00000000000E+00  0.00000000000E+00  0.65335440034E+03  0.13666480409E+04  0.12003561535E+04 0.  0.
        2    1    3    3  502    0  0.52824130245E+02 -0.59757272996E+03  0.30598942970E+03  0.67343380330E+03  0.25500000920E-02 0.  1.
       -2    1    3    3    0  502 -0.52824130245E+02  0.59757272996E+03  0.34736497065E+03  0.69321423757E+03  0.25500000920E-02 0. -1.
</event>
<event>
 5   0  0.1597352E-03  0.1196911E+04  0.7818609E-02  0.9115565E-01
       -2   -1    0    0    0  501  0.00000000000E+00  0.00000000000E+00  0.17592841340E+03  0.17592841342E+03  0.25500000920E-02 0. -1.
        2   -1    0    0  501    0  0.00000000000E+00  0.00000000000E+00 -0.20357654606E+04  0.20357654606E+04  0.25500000920E-02 0.  1.
    10030    2    1    2    0    0  0.00000000000E+00  0.00000000000E+00 -0.18598370472E+04  0.22116938740E+04  0.11969110035E+04 0.  0.
        1    1    3    3  502    0  0.94478618092E+02 -0.57456867518E+03 -0.67458534912E+03  0.89113453813E+03  0.50400001928E-02 0.  1.
       -1    1    3    3    0  502 -0.94478618092E+02  0.57456867518E+03 -0.11852516981E+04  0.13205593359E+04  0.50400001928E-02 0. -1.
</event>
<event>
 5   0  0.9170776E-04  0.1187341E+04  0.7818609E-02  0.9124009E-01
       -1   -1    0    0    0  501  0.00000000000E+00  0.00000000000E+00  0.45816956317E+03  0.45816956320E+03  0.50400001928E-02 0.  1.
        1   -1    0    0  501    0  0.00000000000E+00  0.00000000000E+00 -0.76924546205E+03  0.76924546206E+03  0.50400001928E-02 0. -1.
    10030    2    1    2    0    0  0.00000000000E+00  0.00000000000E+00 -0.31107589887E+03  0.12274150253E+04  0.11873413281E+04 0.  0.
        5    1    3    3  502    0 -0.44768218325E+03 -0.30829428614E+03  0.91175859099E+02  0.55118039819E+03  0.46999998093E+01 0.  1.
       -5    1    3    3    0  502  0.44768218325E+03  0.30829428614E+03 -0.40225175797E+03  0.67623462707E+03  0.46999998093E+01 0. -1.
</event>
<event>
 5   0  0.9208078E-04  0.1198135E+04  0.7818609E-02  0.9114491E-01
        1   -1    0    0  501    0  0.00000000000E+00  0.00000000000E+00  0.66363340421E+03  0.66363340423E+03  0.50400001928E-02 0. -1.
       -1   -1    0    0    0  501  0.00000000000E+00  0.00000000000E+00 -0.54078322219E+03  0.54078322221E+03  0.50400001928E-02 0.  1.
    10030    2    1    2    0    0  0.00000000000E+00  0.00000000000E+00  0.12285018203E+03  0.12044166264E+04  0.11981349018E+04 0.  0.
        3    1    3    3  502    0  0.36042096175E+03 -0.97620866405E+02  0.53233467170E+03  0.65024096773E+03  0.10100000352E+00 0. -1.
       -3    1    3    3    0  502 -0.36042096175E+03  0.97620866405E+02 -0.40948448967E+03  0.55417565871E+03  0.10100000352E+00 0.  1.
</event>
<event>
 5   0  0.1551501E-03  0.1194817E+04  0.7818609E-02  0.9117405E-01
        2   -1    0    0  501    0  0.00000000000E+00  0.00000000000E+00  0.11018458805E+04  0.11018458805E+04  0.25500000920E-02 0.  1.
       -2   -1    0    0    0  501  0.00000000000E+00  0.00000000000E+00 -0.32390844762E+03  0.32390844763E+03  0.25500000920E-02 0. -1.
    10030    2    1    2    0    0  0.00000000000E+00  0.00000000000E+00  0.77793743285E+03  0.14257543281E+04  0.11948174566E+04 0.  0.
        4    1    3    3  502    0  0.28261891105E+03  0.17799724624E+03  0.98002185761E+03  0.10353747741E+04  0.12699999809E+01 0.  1.
       -4    1    3    3    0  502 -0.28261891105E+03 -0.17799724624E+03 -0.20208442476E+03  0.39037955400E+03  0.12699999809E+01 0. -1.
</event>
<event>
 5   0  0.8908478E-04  0.1205089E+04  0.7818609E-02  0.9108413E-01
       -1   -1    0    0    0  501  0.00000000000E+00  0.00000000000E+00  0.61827817110E+03  0.61827817112E+03  0.50400001928E-02 0. -1.
        1   -1    0    0  501    0  0.00000000000E+00  0.00000000000E+00 -0.58721155075E+03  0.58721155078E+03  0.50400001928E-02 0.  1.
    10030    2    1    2    0    0  0.00000000000E+00  0.00000000000E+00  0.31066620349E+02  0.12054897219E+04  0.12050893472E+04 0.  0.
        4    1    3    3  502    0  0.41737028080E+03 -0.10289333037E+03  0.43789803367E+03  0.61362960287E+03  0.12699999809E+01 0. -1.
       -4    1    3    3    0  502 -0.41737028080E+03  0.10289333037E+03 -0.40683141332E+03  0.59186011903E+03  0.12699999809E+01 0.  1.
</event>
<event>
 5   0  0.1597352E-03  0.1198298E+04  0.7818609E-02  0.9114348E-01
       -2   -1    0    0    0  501  0.00000000000E+00  0.00000000000E+00  0.58993692620E+03  0.58993692621E+03  0.25500000920E-02 0.  1.
        2   -1    0    0  501    0  0.00000000000E+00  0.00000000000E+00 -0.60850459029E+03  0.60850459030E+03  0.25500000920E-02 0. -1.
    10030    2    1    2    0    0  0.00000000000E+00  0.00000000000E+00 -0.18567664093E+02  0.11984415165E+04  0.11982976718E+04 0.  0.
        1    1    3    3  502    0 -0.43529096400E+03 -0.37037360648E+03  0.17052789400E+03  0.59643490372E+03  0.50400001928E-02 0.  1.
       -1    1    3    3    0  502  0.43529096400E+03  0.37037360648E+03 -0.18909555809E+03  0.60200661278E+03  0.50400001928E-02 0. -1.
</event>
<event>
 5   0  0.1647550E-03  0.1200425E+04  0.7818609E-02  0.9112484E-01
        2   -1    0    0  501    0  0.00000000000E+00  0.00000000000E+00  0.91935802312E+03  0.91935802313E+03  0.25500000920E-02 0. -1.
       -2   -1    0    0    0  501  0.00000000000E+00  0.00000000000E+00 -0.39185527463E+03  0.39185527464E+03  0.25500000920E-02 0.  1.
    10030    2    1    2    0    0  0.00000000000E+00  0.00000000000E+00  0.52750274849E+03  0.13112132978E+04  0.12004254090E+04 0.  0.
        3    1    3    3  502    0 -0.51570225184E+03  0.23914830932E+03  0.53320098170E+02  0.57094988351E+03  0.10100000352E+00 0. -1.
       -3    1    3    3    0  502  0.51570225184E+03 -0.23914830932E+03  0.47418265032E+03  0.74026341425E+03  0.10100000352E+00 0.  1.
</event>
<event>
 5   0  0.1647550E-03  0.1195946E+04  0.7818609E-02  0.9116413E-01
       -2   -1    0    0    0  501  0.00000000000E+00  0.00000000000E+00  0.57714597296E+03  0.57714597296E+03  0.25500000920E-02 0.  1.
        2   -1    0    0  501    0  0.00000000000E+00  0.00000000000E+00 -0.61955109993E+03  0.61955109994E+03  0.25500000920E-02 0. -1.
    10030    2    1    2    0    0  0.00000000000E+00  0.00000000000E+00 -0.42405126976E+02  0.11966970729E+04  0.11959455211E+04 0.  0.
        3    1    3    3  502    0  0.59419376058E+03  0.57640397130E+02  0.13210496405E+02  0.59712910490E+03  0.10100000352E+00 0. -1.
       -3    1    3    3    0  502 -0.59419376058E+03 -0.57640397130E+02 -0.55615623381E+02  0.59956796801E+03  0.10100000352E+00 0.  1.
</event>
<event>
 5   0  0.9358428E-04  0.1199444E+04  0.7818609E-02  0.9113343E-01
        1   -1    0    0  501    0  0.00000000000E+00  0.00000000000E+00  0.93917326886E+03  0.93917326887E+03  0.50400001928E-02 0.  1.
       -1   -1    0    0    0  501  0.00000000000E+00  0.00000000000E+00 -0.38296070758E+03  0.38296070761E+03  0.50400001928E-02 0. -1.
    10030    2    1    2    0    0  0.00000000000E+00  0.00000000000E+00  0.55621256128E+03  0.13221339765E+04  0.11994439705E+04 0.  0.
        2    1    3    3  502    0 -0.44443436607E+03 -0.34134183364E+03  0.42643540808E+02  0.56200945251E+03  0.25500000920E-02 0. -1.
       -2    1    3    3    0  502  0.44443436607E+03  0.34134183364E+03  0.51356902047E+03  0.76012452396E+03  0.25500000920E-02 0.  1.
</event>
<event>
 5   0  0.1567019E-03  0.1208926E+04  0.7818609E-02  0.9105079E-01
       -2   -1    0    0    0  501  0.00000000000E+00  0.00000000000E+00  0.33921445149E+03  0.33921445150E+03  0.25500000920E-02 0. -1.
        2   -1    0    0  501    0  0.00000000000E+00  0.00000000000E+00 -0.10771226452E+04  0.10771226452E+04  0.25500000920E-02 0.  1.
    10030    2    1    2    0    0  0.00000000000E+00  0.00000000000E+00 -0.73790819370E+03  0.14163370967E+04  0.12089260809E+04 0.  0.
        5    1    3    3  502    0  0.49628373759E+03 -0.16139458485E+01 -0.77319257163E+03  0.91877581370E+03  0.46999998093E+01 0.  1.
       -5    1    3    3    0  502 -0.49628373759E+03  0.16139458485E+01  0.35284377922E+02  0.49756128300E+03  0.46999998093E+01 0. -1.
</event>
<event>
 5   0  0.1567019E-03  0.1210385E+04  0.7818609E-02  0.9103815E-01
       -2   -1    0    0    0  501  0.00000000000E+00  0.00000000000E+00  0.80307951930E+03  0.80307951931E+03  0.25500000920E-02 0. -1.
        2   -1    0    0  501    0  0.00000000000E+00  0.00000000000E+00 -0.45606686379E+03  0.45606686380E+03  0.25500000920E-02 0.  1.
    10030    2    1    2    0    0  0.00000000000E+00  0.00000000000E+00  0.34701265551E+03  0.12591463831E+04  0.12103849929E+04 0.  0.
        5    1    3    3  502    0 -0.58190924563E+03  0.43071726119E+02  0.34047892819E+03  0.67558976774E+03  0.46999998093E+01 0.  1.
       -5    1    3    3    0  502  0.58190924563E+03 -0.43071726119E+02  0.65337273217E+01  0.58355661536E+03  0.46999998093E+01 0. -1.
</event>
<event>
 5   0  0.1551501E-03  0.1306919E+04  0.7818609E-02  0.9024096E-01
        2   -1    0    0  501    0  0.00000000000E+00  0.00000000000E+00  0.21250784974E+04  0.21250784974E+04  0.25500000920E-02 0. -1.
       -2   -1    0    0    0  501  0.00000000000E+00  0.00000000000E+00 -0.20093822597E+03  0.20093822598E+03  0.25500000920E-02 0.  1.
    10030    2    1    2    0    0  0.00000000000E+00  0.00000000000E+00  0.19241402714E+04  0.23260167234E+04  0.13069192834E+04 0.  0.
        4    1    3    3  502    0 -0.99737668281E+02  0.63129011578E+03  0.71977882467E+03  0.96257881864E+03  0.12699999809E+01 0.  1.
       -4    1    3    3    0  502  0.99737668281E+02 -0.63129011578E+03  0.12043614468E+04  0.13634379048E+04  0.12699999809E+01 0. -1.
</event>
<event>
 5   0  0.1551501E-03  0.1234118E+04  0.7818609E-02  0.9083506E-01
        2   -1    0    0  501    0  0.00000000000E+00  0.00000000000E+00  0.78740179380E+03  0.78740179380E+03  0.25500000920E-02 0. -1.
       -2   -1    0    0    0  501  0.00000000000E+00  0.00000000000E+00 -0.48356724022E+03  0.48356724022E+03  0.25500000920E-02 0.  1.
    10030    2    1    2    0    0  0.00000000000E+00  0.00000000000E+00  0.30383455358E+03  0.12709690340E+04  0.12341178426E+04 0.  0.
        4    1    3    3  502    0 -0.37627540151E+03 -0.42968769508E+03  0.39244072929E+03  0.69298342836E+03  0.12699999809E+01 0. -1.
       -4    1    3    3    0  502  0.37627540151E+03  0.42968769508E+03 -0.88606175705E+02  0.57798560566E+03  0.12699999809E+01 0.  1.
</event>
<event>
 5   0  0.9358428E-04  0.1188436E+04  0.7818609E-02  0.9123039E-01
        1   -1    0    0  501    0  0.00000000000E+00  0.00000000000E+00  0.10863237734E+04  0.10863237734E+04  0.50400001928E-02 0. -1.
       -1   -1    0    0    0  501  0.00000000000E+00  0.00000000000E+00 -0.32503665460E+03  0.32503665464E+03  0.50400001928E-02 0.  1.
    10030    2    1    2    0    0  0.00000000000E+00  0.00000000000E+00  0.76128711878E+03  0.14113604280E+04  0.11884360229E+04 0.  0.
        2    1    3    3  502    0 -0.47958291372E+03 -0.34853832772E+03  0.33289896509E+03  0.67992680340E+03  0.25500000920E-02 0.  1.
       -2    1    3    3    0  502  0.47958291372E+03  0.34853832772E+03  0.42838815369E+03  0.73143362464E+03  0.25500000920E-02 0. -1.
</event>
<event>
 5   0  0.1647550E-03  0.1182295E+04  0.7818609E-02  0.9128497E-01
        2   -1    0    0  501    0  0.00000000000E+00  0.00000000000E+00  0.62148633076E+03  0.62148633077E+03  0.25500000920E-02 0. -1.
       -2   -1    0    0    0  501  0.00000000000E+00  0.00000000000E+00 -0.56228929706E+03  0.56228929707E+03  0.25500000920E-02 0.  1.
    10030    2    1    2    0    0  0.00000000000E+00  0.00000000000E+00  0.59197033698E+02  0.11837756278E+04  0.11822945692E+04 0.  0.
        3    1    3    3  502    0 -0.51414102398E+03  0.29928319941E+02  0.32016612980E+03  0.60641822016E+03  0.10100000352E+00 0. -1.
       -3    1    3    3    0  502  0.51414102398E+03 -0.29928319941E+02 -0.26096909610E+03  0.57735740767E+03  0.10100000352E+00 0.  1.
</event>
<event>
 5   0  0.8908478E-04  0.1194326E+04  0.7818609E-02  0.9117838E-01
       -1   -1    0    0    0  501  0.00000000000E+00  0.00000000000E+00  0.74455454637E+03  0.74455454638E+03  0.50400001928E-02 0.  1.
        1   -1    0    0  501    0  0.00000000000E+00  0.00000000000E+00 -0.47894882324E+03  0.47894882327E+03  0.50400001928E-02 0. -1.
    10030    2    1    2    0    0  0.00000000000E+00  0.00000000000E+00  0.26560572313E+03  0.12235033696E+04  0.11943257911E+04 0.  0.
        4    1    3    3  502    0  0.17566676185E+03  0.53280750001E+03 -0.76790813072E+02  0.56625178601E+03  0.12699999809E+01 0.  1.
       -4    1    3    3    0  502 -0.17566676185E+03 -0.53280750001E+03  0.34239653620E+03  0.65725158364E+03  0.12699999809E+01 0. -1.
</event>
<event>
 5   0  0.1597352E-03  0.1197386E+04  0.7818609E-02  0.9115147E-01
        2   -1    0    0  501    0  0.00000000000E+00  0.00000000000E+00  0.11991503809E+04  0.11991503809E+04  0.25500000920E-02 0.  1.
       -2   -1    0    0    0  501  0.00000000000E+00  0.00000000000E+00 -0.29890629010E+03  0.29890629011E+03  0.25500000920E-02 0. -1.
    10030    2    1    2    0    0  0.00000000000E+00  0.00000000000E+00  0.90024409081E+03  0.14980566710E+04  0.11973864733E+04 0.  0.
        1    1    3    3  502    0  0.16418172141E+03 -0.63566639593E+02 -0.26578712944E+03  0.31880896085E+03  0.50400001928E-02 0. -1.
       -1    1    3    3    0  502 -0.16418172141E+03  0.63566639593E+02  0.11660312202E+04  0.11792477102E+04  0.50400001928E-02 0.  1.
</event>
<event>
 5   0  0.1537557E-03  0.1176350E+04  0.7818609E-02  0.9133813E-01
       -2   -1    0    0    0  501  0.00000000000E+00  0.00000000000E+00  0.25253269051E+03  0.25253269052E+03  0.25500000920E-02 0.  1.
        2   -1    0    0  501    0  0.00000000000E+00  0.00000000000E+00 -0.13699205117E+04  0.13699205117E+04  0.25500000920E-02 0. -1.
    10030    2    1    2    0    0  0.00000000000E+00  0.00000000000E+00 -0.11173878212E+04  0.16224532023E+04  0.11763497994E+04 0.  0.
        2    1    3    3  502    0 -0.16463307071E+03 -0.31947198910E+03 -0.12008618518E+04  0.12534893645E+04  0.25500000920E-02 0. -1.
       -2    1    3    3    0  502  0.16463307071E+03  0.31947198910E+03  0.83474030566E+02  0.36896383777E+03  0.25500000920E-02 0.  1.
</event>
<event>
 5   0  0.8908478E-04  0.1203518E+04  0.7818609E-02  0.9109783E-01
       -1   -1    0    0    0  501  0.00000000000E+00  0.00000000000E+00  0.64235336819E+03  0.64235336821E+03  0.50400001928E-02 0. -1.
        1   -1    0    0  501    0  0.00000000000E+00  0.00000000000E+00 -0.56373014249E+03  0.56373014251E+03  0.50400001928E-02 0.  1.
    10030    2    1    2    0    0  0.00000000000E+00  0.00000000000E+00  0.78623225698E+02  0.12060835107E+04  0.12035181026E+04 0.  0.
        4    1    3    3  502    0 -0.25397722256E+03 -0.49129289063E+03  0.27696518936E+03  0.61853412435E+03  0.12699999809E+01 0.  1.
       -4    1    3    3    0  502  0.25397722256E+03  0.49129289063E+03 -0.19834196366E+03  0.58754938636E+03  0.12699999809E+01 0. -1.
</event>
<event>
 5   0  0.9358428E-04  0.1095565E+04  0.7818609E-02  0.9209526E-01
        1   -1    0    0  501    0  0.00000000000E+00  0.00000000000E+00  0.49492516210E+03  0.49492516212E+03  0.50400001928E-02 0. -1.
       -1   -1    0    0    0  501  0.00000000000E+00  0.00000000000E+00 -0.60628466122E+03  0.60628466124E+03  0.50400001928E-02 0.  1.
    10030    2    1    2    0    0  0.00000000000E+00  0.00000000000E+00 -0.11135949912E+03  0.11012098234E+04  0.10955647571E+04 0.  0.
        2    1    3    3  502    0  0.29838860432E+03 -0.36174438662E+03  0.22892363565E+03  0.52182448333E+03  0.25500000920E-02 0. -1.
       -2    1    3    3    0  502 -0.29838860432E+03  0.36174438662E+03 -0.34028313477E+03  0.57938534004E+03  0.25500000920E-02 0.  1.
</event>
<event>
 5   0  0.1551501E-03  0.1194733E+04  0.7818609E-02  0.9117479E-01
        2   -1    0    0  501    0  0.00000000000E+00  0.00000000000E+00  0.25270973664E+04  0.25270973664E+04  0.25500000920E-02 0.  1.
       -2   -1    0    0    0  501  0.00000000000E+00  0.00000000000E+00 -0.14120826202E+03  0.14120826205E+03  0.25500000920E-02 0. -1.
    10030    2    1    2    0    0  0.00000000000E+00  0.00000000000E+00  0.23858891044E+04  0.26683056285E+04  0.11947334885E+04 0.  0.
        4    1    3    3  502    0  0.57900300814E+03 -0.10914456070E+03  0.97311277649E+03  0.11375882855E+04  0.12699999809E+01 0. -1.
       -4    1    3    3    0  502 -0.57900300814E+03  0.10914456070E+03  0.14127763279E+04  0.15307173430E+04  0.12699999809E+01 0.  1.
</event>
<event>
 5   0  0.1551501E-03  0.1209797E+04  0.7818609E-02  0.9104324E-01
        2   -1    0    0  501    0  0.00000000000E+00  0.00000000000E+00  0.19199095906E+04  0.19199095906E+04  0.25500000920E-02 0. -1.
       -2   -1    0    0    0  501  0.00000000000E+00  0.00000000000E+00 -0.19058307309E+03  0.19058307311E+03  0.25500000920E-02 0.  1.
    10030    2    1    2    0    0  0.00000000000E+00  0.00000000000E+00  0.17293265175E+04  0.21104926637E+04  0.12097971232E+04 0.  0.
        4    1    3    3  502    0 -0.23485082695E+03  0.51832610285E+03  0.50679040324E+03  0.76200720832E+03  0.12699999809E+01 0.  1.
       -4    1    3    3    0  502  0.23485082695E+03 -0.51832610285E+03  0.12225361142E+04  0.13484854553E+04  0.12699999809E+01 0. -1.
</event>
<event>
 5   0  0.8908478E-04  0.1202399E+04  0.7818609E-02  0.9110760E-01
       -1   -1    0    0    0  501  0.00000000000E+00  0.00000000000E+00  0.28276064950E+03  0.28276064954E+03  0.50400001928E-02 0. -1.
        1   -1    0    0  501    0  0.00000000000E+00  0.00000000000E+00 -0.12782562832E+04  0.12782562832E+04  0.50400001928E-02 0.  1.
    10030    2    1    2    0    0  0.00000000000E+00  0.00000000000E+00 -0.99549563367E+03  0.15610169327E+04  0.12023985644E+04 0.  0.
        4    1    3    3  502    0  0.34322473916E+03  0.17383953624E+03 -0.10975005049E+04  0.11629842549E+04  0.12699999809E+01 0.  1.
       -4    1    3    3    0  502 -0.34322473916E+03 -0.17383953624E+03  0.10200487127E+03  0.39803267780E+03  0.12699999809E+01 0. -1.
</event>
<event>
 5   0  0.9358428E-04  0.1199515E+04  0.7818609E-02  0.9113281E-01
       -1   -1    0    0    0  501  0.00000000000E+00  0.00000000000E+00  0.19782772947E+03  0.19782772953E+03  0.50400001928E-02 0. -1.
        1   -1    0    0  501    0  0.00000000000E+00  0.00000000000E+00 -0.18182957347E+04  0.18182957347E+04  0.50400001928E-02 0.  1.
    10030    2    1    2    0    0  0.00000000000E+00  0.00000000000E+00 -0.16204680052E+04  0.20161234642E+04  0.11995154301E+04 0.  0.
        2    1    3    3  502    0  0.21491193698E+03 -0.55006350314E+03 -0.98613338712E+03  0.11494416276E+04  0.25500000920E-02 0.  1.
       -2    1    3    3    0  502 -0.21491193698E+03  0.55006350314E+03 -0.63433461812E+03  0.86668183660E+03  0.25500000920E-02 0. -1.
</event>
<event>
 5   0  0.1567019E-03  0.1261660E+04  0.7818609E-02  0.9060534E-01
       -2   -1    0    0    0  501  0.00000000000E+00  0.00000000000E+00  0.46733057487E+03  0.46733057487E+03  0.25500000920E-02 0.  1.
        2   -1    0    0  501    0  0.00000000000E+00  0.00000000000E+00 -0.85153080911E+03  0.85153080911E+03  0.25500000920E-02 0. -1.
    10030    2    1    2    0    0  0.00000000000E+00  0.00000000000E+00 -0.38420023424E+03  0.13188613840E+04  0.12616598314E+04 0.  0.
        5    1    3    3  502    0  0.33155889306E+03 -0.17050469506E+03 -0.72401315185E+03  0.81438337695E+03  0.46999998093E+01 0. -1.
       -5    1    3    3    0  502 -0.33155889306E+03  0.17050469506E+03  0.33981291761E+03  0.50447800703E+03  0.46999998093E+01 0.  1.
</event>
<event>
 5   0  0.1567019E-03  0.1207305E+04  0.7818609E-02  0.9106486E-01
        2   -1    0    0  501    0  0.00000000000E+00  0.00000000000E+00  0.82719809368E+03  0.82719809368E+03  0.25500000920E-02 0. -1.
       -2   -1    0    0    0  501  0.00000000000E+00  0.00000000000E+00 -0.44051883968E+03  0.44051883969E+03  0.25500000920E-02 0.  1.
    10030    2    1    2    0    0  0.00000000000E+00  0.00000000000E+00  0.38667925400E+03  0.12677169334E+04  0.12073050061E+04 0.  0.
        5    1    3    3  502    0  0.36985618197E+03  0.26495640702E+03  0.60990038176E+03  0.76091790532E+03  0.46999998093E+01 0. -1.
       -5    1    3    3    0  502 -0.36985618197E+03 -0.26495640702E+03 -0.22322112777E+03  0.50679902806E+03  0.46999998093E+01 0.  1.
</event>
<event>
 5   0  0.9170776E-04  0.1190504E+04  0.7818609E-02  0.9121210E-01
       -1   -1    0    0    0  501  0.00000000000E+00  0.00000000000E+00  0.82773913397E+03  0.82773913398E+03  0.50400001928E-02 0.  1.
        1   -1    0    0  501    0  0.00000000000E+00  0.00000000000E+00 -0.42806328055E+03  0.42806328058E+03  0.50400001928E-02 0. -1.
    10030    2    1    2    0    0  0.00000000000E+00  0.00000000000E+00  0.39967585342E+03  0.12558024146E+04  0.11905036399E+04 0.  0.
        5    1    3    3  502    0 -0.23997210977E+03 -0.53206285578E+03  0.32296714543E+03  0.66708872198E+03  0.46999998093E+01 0. -1.
       -5    1    3    3    0  502  0.23997210977E+03  0.53206285578E+03  0.76708707987E+02  0.58871369259E+03  0.46999998093E+01 0.  1.
</event>
<event>
 5   0  0.1537557E-03  0.1202317E+04  0.7818609E-02  0.9110831E-01
       -2   -1    0    0    0  501  0.00000000000E+00  0.00000000000E+00  0.30770408419E+03  0.30770408420E+03  0.25500000920E-02 0. -1.
        2   -1    0    0  501    0  0.00000000000E+00  0.00000000000E+00 -0.11744784225E+04  0.11744784225E+04  0.25500000920E-02 0.  1.
    10030    2    1    2    0    0  0.00000000000E+00  0.00000000000E+00 -0.86677433827E+03  0.14821825067E+04  0.12023174413E+04 0.  0.
        2    1    3    3  502    0  0.43506304227E+03 -0.11186328326E+03  0.59102385366E+02  0.45308535272E+03  0.25500000920E-02 0. -1.
       -2    1    3    3    0  502 -0.43506304227E+03  0.11186328326E+03 -0.92587672364E+03  0.10290971540E+04  0.25500000920E-02 0.  1.
</event>
<event>
 5   0  0.8908478E-04  0.1199258E+04  0.7818609E-02  0.9113506E-01
       -1   -1    0    0    0  501  0.00000000000E+00  0.00000000000E+00  0.67420704863E+03  0.67420704865E+03  0.50400001928E-02 0.  1.
        1   -1    0    0  501    0  0.00000000000E+00  0.00000000000E+00 -0.53330059278E+03  0.53330059281E+03  0.50400001928E-02 0. -1.
    10030    2    1    2    0    0  0.00000000000E+00  0.00000000000E+00  0.14090645585E+03  0.12075076415E+04  0.11992581352E+04 0.  0.
        4    1    3    3  502    0 -0.35938095147E+02 -0.14322714861E+03  0.65561171268E+03  0.67203712211E+03  0.12699999809E+01 0.  1.
       -4    1    3    3    0  502  0.35938095147E+02  0.14322714861E+03 -0.51470525684E+03  0.53547051935E+03  0.12699999809E+01 0. -1.
</event>
<event>
 5   0  0.1647550E-03  0.1200209E+04  0.7818609E-02  0.9112674E-01
        2   -1    0    0  501    0  0.00000000000E+00  0.00000000000E+00  0.12915858692E+04  0.12915858692E+04  0.25500000920E-02 0. -1.
       -2   -1    0    0    0  501  0.00000000000E+00  0.00000000000E+00 -0.27882425366E+03  0.27882425367E+03  0.25500000920E-02 0.  1.
    10030    2    1    2    0    0  0.00000000000E+00  0.00000000000E+00  0.10127616155E+04  0.15704101228E+04  0.12002090918E+04 0.  0.
        3    1    3    3  502    0  0.53623912427E+03 -0.26503526273E+03  0.56953106534E+03  0.82593082851E+03  0.10100000352E+00 0. -1.
       -3    1    3    3    0  502 -0.53623912427E+03  0.26503526273E+03  0.44323055015E+03  0.74447929433E+03  0.10100000352E+00 0.  1.
</event>
<event>
 5   0  0.1567019E-03  0.1188671E+04  0.7818609E-02  0.9122831E-01
        2   -1    0    0  501    0  0.00000000000E+00  0.00000000000E+00  0.61577432123E+03  0.61577432123E+03  0.25500000920E-02 0.  1.
       -2   -1    0    0    0  501  0.00000000000E+00  0.00000000000E+00 -0.57364337203E+03  0.57364337204E+03  0.25500000920E-02 0. -1.
    10030    2    1    2    0    0  0.00000000000E+00  0.00000000000E+00  0.42130949197E+02  0.11894176933E+04  0.11886712885E+04 0.  0.
        5    1    3    3  502    0 -0.45836712214E+03  0.33094270848E+03 -0.16232337429E+03  0.58821294001E+03  0.46999998093E+01 0.  1.
       -5    1    3    3    0  502  0.45836712214E+03 -0.33094270848E+03  0.20445432348E+03  0.60120475326E+03  0.46999998093E+01 0. -1.
</event>
<event>
 5   0  0.1537557E-03  0.1158917E+04  0.7818609E-02  0.9149596E-01
        2   -1    0    0  501    0  0.00000000000E+00  0.00000000000E+00  0.54025259704E+03  0.54025259705E+03  0.25500000920E-02 0. -1.
       -2   -1    0    0    0  501  0.00000000000E+00  0.00000000000E+00 -0.62150978290E+03  0.62150978291E+03  0.25500000920E-02 0.  1.
    10030    2    1    2    0    0  0.00000000000E+00  0.00000000000E+00 -0.81257185864E+02  0.11617623800E+04  0.11589172090E+04 0.  0.
        2    1    3    3  502    0 -0.17320728499E+03  0.13004931131E+03 -0.57940381423E+03  0.61856476370E+03  0.25500000920E-02 0.  1.
       -2    1    3    3    0  502  0.17320728499E+03 -0.13004931131E+03  0.49814662836E+03  0.54319761625E+03  0.25500000920E-02 0. -1.
</event>
<event>
 5   0  0.9208078E-04  0.1192727E+04  0.7818609E-02  0.9119246E-01
       -1   -1    0    0    0  501  0.00000000000E+00  0.00000000000E+00  0.37113622625E+03  0.37113622629E+03  0.50400001928E-02 0.  1.
        1   -1    0    0  501    0  0.00000000000E+00  0.00000000000E+00 -0.95827238225E+03  0.95827238226E+03  0.50400001928E-02 0. -1.
    10030    2    1    2    0    0  0.00000000000E+00  0.00000000000E+00 -0.58713615600E+03  0.13294086086E+04  0.11927272877E+04 0.  0.
        3    1    3    3  502    0  0.27655688697E+03  0.43088796471E+03  0.47253019778E+02  0.51417993732E+03  0.10100000352E+00 0.  1.
       -3    1    3    3    0  502 -0.27655688697E+03 -0.43088796471E+03 -0.63438917578E+03  0.81522867124E+03  0.10100000352E+00 0. -1.
</event>
<event>
 5   0  0.1537557E-03  0.1206888E+04  0.7818609E-02  0.9106849E-01
       -2   -1    0    0    0  501  0.00000000000E+00  0.00000000000E+00  0.19053079757E+03  0.19053079759E+03  0.25500000920E-02 0.  1.
        2   -1    0    0  501    0  0.00000000000E+00  0.00000000000E+00 -0.19112115049E+04  0.19112115049E+04  0.25500000920E-02 0. -1.
    10030    2    1    2    0    0  0.00000000000E+00  0.00000000000E+00 -0.17206807074E+04  0.21017423025E+04  0.12068879855E+04 0.  0.
        2    1    3    3  502    0  0.31300363540E+03 -0.48194941368E+03 -0.53971310275E+03  0.78837601841E+03  0.25500000920E-02 0.  1.
       -2    1    3    3    0  502 -0.31300363540E+03  0.48194941368E+03 -0.11809676046E+04  0.13133662841E+04  0.25500000920E-02 0. -1.
</event>
<event>
 5   0  0.9170776E-04  0.1317479E+04  0.7818609E-02  0.9015818E-01
        1   -1    0    0  501    0  0.00000000000E+00  0.00000000000E+00  0.78150906096E+03  0.78150906098E+03  0.50400001928E-02 0. -1.
       -1   -1    0    0    0  501  0.00000000000E+00  0.00000000000E+00 -0.55525595006E+03  0.55525595008E+03  0.50400001928E-02 0.  1.
    10030    2    1    2    0    0  0.00000000000E+00  0.00000000000E+00  0.22625311090E+03  0.13367650111E+04  0.13174787378E+04 0.  0.
        5    1    3    3  502    0  0.55121795497E+03  0.11480674146E+03 -0.23377552467E+03  0.60966786671E+03  0.46999998093E+01 0.  1.
       -5    1    3    3    0  502 -0.55121795497E+03 -0.11480674146E+03  0.46002863558E+03  0.72709714434E+03  0.46999998093E+01 0. -1.
</event>
<event>
 5   0  0.8908478E-04  0.1207327E+04  0.7818609E-02  0.9106467E-01
        1   -1    0    0  501    0  0.00000000000E+00  0.00000000000E+00  0.38121373122E+03  0.38121373125E+03  0.50400001928E-02 0.  1.
       -1   -1    0    0    0  501  0.00000000000E+00  0.00000000000E+00 -0.95591915925E+03  0.95591915926E+03  0.50400001928E-02 0. -1.
    10030    2    1    2    0    0  0.00000000000E+00  0.00000000000E+00 -0.57470542803E+03  0.13371328905E+04  0.12073268149E+04 0.  0.
        4    1    3    3  502    0 -0.17684573966E+02 -0.94372853544E+02  0.37270122644E+03  0.38487244216E+03  0.12699999809E+01 0.  1.
       -4    1    3    3    0  502  0.17684573966E+02  0.94372853544E+02 -0.94740665447E+03  0.95226044835E+03  0.12699999809E+01 0. -1.
</event>
<event>
 5   0  0.1647550E-03  0.1218677E+04  0.7818609E-02  0.9096664E-01
       -2   -1    0    0    0  501  0.00000000000E+00  0.00000000000E+00  0.47711847993E+03  0.47711847994E+03  0.25500000920E-02 0.  1.
        2   -1    0    0  501    0  0.00000000000E+00  0.00000000000E+00 -0.77819979590E+03  0.77819979590E+03  0.25500000920E-02 0. -1.
    10030    2    1    2    0    0  0.00000000000E+00  0.00000000000E+00 -0.30108131597E+03  0.12553182758E+04  0.12186771577E+04 0.  0.
        3    1    3    3  502    0  0.39324880018E+03 -0.40452708798E+03  0.86613424023E+02  0.57077901080E+03  0.10100000352E+00 0. -1.
       -3    1    3    3    0  502 -0.39324880018E+03  0.40452708798E+03 -0.38769473999E+03  0.68453926503E+03  0.10100000352E+00 0.  1.
</event>
<event>
 5   0  0.9169078E-04  0.1195221E+04  0.7818609E-02  0.9117050E-01
       -1   -1    0    0    0  501  0.00000000000E+00  0.00000000000E+00  0.22947447791E+03  0.22947447796E+03  0.50400001928E-02 0.  1.
        1   -1    0    0  501    0  0.00000000000E+00  0.00000000000E+00 -0.15563300206E+04  0.15563300206E+04  0.50400001928E-02 0. -1.
    10030    2    1    2    0    0  0.00000000000E+00  0.00000000000E+00 -0.13268555427E+04  0.17858044985E+04  0.11952205135E+04 0.  0.
        1    1    3    3  502    0 -0.12919572591E+03  0.16645372053E+03  0.17213165273E+03  0.27208028699E+03  0.50400001928E-02 0.  1.
       -1    1    3    3    0  502  0.12919572591E+03 -0.16645372053E+03 -0.14989871954E+04  0.15137242116E+04  0.50400001928E-02 0. -1.
</event>
<event>
 5   0  0.9358428E-04  0.1196203E+04  0.7818609E-02  0.9116187E-01
        1   -1    0    0  501    0  0.00000000000E+00  0.00000000000E+00  0.16954433512E+04  0.16954433512E+04  0.50400001928E-02 0. -1.
       -1   -1    0    0    0  501  0.00000000000E+00  0.00000000000E+00 -0.21099221681E+03  0.21099221687E+03  0.50400001928E-02 0.  1.
    10030    2    1    2    0    0  0.00000000000E+00  0.00000000000E+00  0.14844511344E+04  0.19064355681E+04  0.11962029112E+04 0.  0.
        2    1    3    3  502    0  0.25988650424E+03 -0.44216073644E+02  0.15978562239E+04  0.16194568745E+04  0.25500000920E-02 0. -1.
       -2    1    3    3    0  502 -0.25988650424E+03  0.44216073644E+02 -0.11340508945E+03  0.28697869359E+03  0.25500000920E-02 0.  1.
</event>
<event>
 5   0  0.9358428E-04  0.1199793E+04  0.7818609E-02  0.9113038E-01
        1   -1    0    0  501    0  0.00000000000E+00  0.00000000000E+00  0.34868135268E+03  0.34868135272E+03  0.50400001928E-02 0.  1.
       -1   -1    0    0    0  501  0.00000000000E+00  0.00000000000E+00 -0.10321046686E+04  0.10321046687E+04  0.50400001928E-02 0. -1.
    10030    2    1    2    0    0  0.00000000000E+00  0.00000000000E+00 -0.68342331596E+03  0.13807860214E+04  0.11997927354E+04 0.  0.
        2    1    3    3  502    0 -0.35891473589E+02 -0.46358537966E+03 -0.77793845802E+03  0.90630449992E+03  0.25500000920E-02 0.  1.
       -2    1    3    3    0  502  0.35891473589E+02  0.46358537966E+03  0.94515142057E+02  0.47448152145E+03  0.25500000920E-02 0. -1.
</event>
<event>
 5   0  0.1551501E-03  0.1202211E+04  0.7818609E-02  0.9110924E-01
       -2   -1    0    0    0  501  0.00000000000E+00  0.00000000000E+00  0.50542007252E+03  0.50542007253E+03  0.25500000920E-02 0.  1.
        2   -1    0    0  501    0  0.00000000000E+00  0.00000000000E+00 -0.71490579897E+03  0.71490579897E+03  0.25500000920E-02 0. -1.
    10030    2    1    2    0    0  0.00000000000E+00  0.00000000000E+00 -0.20948572645E+03  0.12203258715E+04  0.12022108646E+04 0.  0.
        4    1    3    3  502    0 -0.48891370429E+03 -0.53934992882E+02 -0.45546399106E+03  0.67036904296E+03  0.12699999809E+01 0. -1.
       -4    1    3    3    0  502  0.48891370429E+03  0.53934992882E+02  0.24597826461E+03  0.54995682855E+03  0.12699999809E+01 0.  1.
</event>
<event>
 5   0  0.8908478E-04  0.1169402E+04  0.7818609E-02  0.9140069E-01
        1   -1    0    0  501    0  0.00000000000E+00  0.00000000000E+00  0.94447155579E+03  0.94447155581E+03  0.50400001928E-02 0. -1.
       -1   -1    0    0    0  501  0.00000000000E+00  0.00000000000E+00 -0.36197516285E+03  0.36197516288E+03  0.50400001928E-02 0.  1.
    10030    2    1    2    0    0  0.00000000000E+00  0.00000000000E+00  0.58249639294E+03  0.13064467187E+04  0.11694019758E+04 0.  0.
        4    1    3    3  502    0 -0.19878940759E+03  0.34681261190E+03 -0.18546362299E+03  0.44067514644E+03  0.12699999809E+01 0.  1.
       -4    1    3    3    0  502  0.19878940759E+03 -0.34681261190E+03  0.76796001593E+03  0.86577157225E+03  0.12699999809E+01 0. -1.
</event>
<event>
 5   0  0.9169078E-04  0.1201657E+04  0.7818609E-02  0.9111408E-01
       -1   -1    0    0    0  501  0.00000000000E+00  0.00000000000E+00  0.34048248251E+03  0.34048248255E+03  0.50400001928E-02 0. -1.
        1   -1    0    0  501    0  0.00000000000E+00  0.00000000000E+00 -0.10602443388E+04  0.10602443388E+04  0.50400001928E-02 0.  1.
    10030    2    1    2    0    0  0.00000000000E+00  0.00000000000E+00 -0.71976185628E+03  0.14007268213E+04  0.12016565642E+04 0.  0.
        1    1    3    3  502    0 -0.49254217646E+02  0.57798663417E+03 -0.17742541690E+03  0.60660885735E+03  0.50400001928E-02 0.  1.
       -1    1    3    3    0  502  0.49254217646E+02 -0.57798663417E+03 -0.54233643938E+03  0.79411796399E+03  0.50400001928E-02 0. -1.
</event>
<event>
 5   0  0.1567019E-03  0.1115689E+04  0.7818609E-02  0.9190034E-01
        2   -1    0    0  501    0  0.00000000000E+00  0.00000000000E+00  0.79441595056E+03  0.79441595056E+03  0.25500000920E-02 0. -1.
       -2   -1    0    0    0  501  0.00000000000E+00  0.00000000000E+00 -0.39172208816E+03  0.39172208817E+03  0.25500000920E-02 0.  1.
    10030    2    1    2    0    0  0.00000000000E+00  0.00000000000E+00  0.40269386240E+03  0.11861380387E+04  0.11156886215E+04 0.  0.
        5    1    3    3  502    0  0.12299272050E+03  0.11949762367E+03  0.76567661672E+03  0.78465894677E+03  0.46999998093E+01 0. -1.
       -5    1    3    3    0  502 -0.12299272050E+03 -0.11949762367E+03 -0.36298275432E+03  0.40147909197E+03  0.46999998093E+01 0.  1.
</event>
<event>
 5   0  0.1597352E-03  0.1206181E+04  0.7818609E-02  0.9107463E-01
       -2   -1    0    0    0  501  0.00000000000E+00  0.00000000000E+00  0.32304862316E+03  0.32304862317E+03  0.25500000920E-02 0.  1.
        2   -1    0    0  501    0  0.00000000000E+00  0.00000000000E+00 -0.11258932180E+04  0.11258932180E+04  0.25500000920E-02 0. -1.
    10030    2    1    2    0    0  0.00000000000E+00  0.00000000000E+00 -0.80284459484E+03  0.14489418412E+04  0.12061811703E+04 0.  0.
        1    1    3    3  502    0  0.39751447432E+03  0.10537337876E+03  0.12849295666E+03  0.43085002748E+03  0.50400001928E-02 0.  1.
       -1    1    3    3    0  502 -0.39751447432E+03 -0.10537337876E+03 -0.93133755149E+03  0.10180918137E+04  0.50400001928E-02 0. -1.
</event>
<event>
 5   0  0.1597352E-03  0.1197542E+04  0.7818609E-02  0.9115011E-01
        2   -1    0    0  501    0  0.00000000000E+00  0.00000000000E+00  0.22142516299E+04  0.22142516299E+04  0.25500000920E-02 0.  1.
       -2   -1    0    0    0  501  0.00000000000E+00  0.00000000000E+00 -0.16191774926E+03  0.16191774928E+03  0.25500000920E-02 0. -1.
    10030    2    1    2    0    0  0.00000000000E+00  0.00000000000E+00  0.20523338807E+04  0.23761693792E+04  0.11975418828E+04 0.  0.
        1    1    3    3  502    0 -0.45603737614E+03  0.14264977505E+03  0.17421534503E+04  0.18064932026E+04  0.50400001928E-02 0. -1.
       -1    1    3    3    0  502  0.45603737614E+03 -0.14264977505E+03  0.31018043038E+03  0.56967617659E+03  0.50400001928E-02 0.  1.
</event>
<event>
 5   0  0.9208078E-04  0.1156666E+04  0.7818609E-02  0.9151656E-01
        1   -1    0    0  501    0  0.00000000000E+00  0.00000000000E+00  0.38648374335E+03  0.38648374339E+03  0.50400001928E-02 0.  1.
       -1   -1    0    0    0  501  0.00000000000E+00  0.00000000000E+00 -0.86541554945E+03  0.86541554946E+03  0.50400001928E-02 0. -1.
    10030    2    1    2    0    0  0.00000000000E+00  0.00000000000E+00 -0.47893180609E+03  0.12518992928E+04  0.11566659693E+04 0.  0.
        3    1    3    3  502    0  0.13088324918E+03 -0.48774393965E+02 -0.84688564851E+03  0.85832667340E+03  0.10100000352E+00 0. -1.
       -3    1    3    3    0  502 -0.13088324918E+03  0.48774393965E+02  0.36795384242E+03  0.39357261944E+03  0.10100000352E+00 0.  1.
</event>
<event>
 5   0  0.1567019E-03  0.1164841E+04  0.7818609E-02  0.9144200E-01
        2   -1    0    0  501    0  0.00000000000E+00  0.00000000000E+00  0.11632625356E+04  0.11632625356E+04  0.25500000920E-02 0. -1.
       -2   -1    0    0    0  501  0.00000000000E+00  0.00000000000E+00 -0.29160553752E+03  0.29160553753E+03  0.25500000920E-02 0.  1.
    10030    2    1    2    0    0  0.00000000000E+00  0.00000000000E+00  0.87165699805E+03  0.14548680731E+04  0.11648412715E+04 0.  0.
        5    1    3    3  502    0  0.23975805970E+03 -0.42332797454E+03  0.35956171317E+02  0.48785800954E+03  0.46999998093E+01 0.  1.
       -5    1    3    3    0  502 -0.23975805970E+03  0.42332797454E+03  0.83570082673E+03  0.96701006356E+03  0.46999998093E+01 0. -1.
</event>
<event>
 5   0  0.1537557E-03  0.1199276E+04  0.7818609E-02  0.9113491E-01
       -2   -1    0    0    0  501  0.00000000000E+00  0.00000000000E+00  0.51708309412E+03  0.51708309413E+03  0.25500000920E-02 0. -1.
        2   -1    0    0  501    0  0.00000000000E+00  0.00000000000E+00 -0.69537274961E+03  0.69537274962E+03  0.25500000920E-02 0.  1.
    10030    2    1    2    0    0  0.00000000000E+00  0.00000000000E+00 -0.17828965549E+03  0.12124558437E+04  0.11992756029E+04 0.  0.
        2    1    3    3  502    0 -0.18178426714E+03  0.72780372827E+02 -0.66213904982E+03  0.69048578824E+03  0.25500000920E-02 0.  1.
       -2    1    3    3    0  502  0.18178426714E+03 -0.72780372827E+02  0.48384939434E+03  0.52197005551E+03  0.25500000920E-02 0. -1.
</event>
<event>
 5   0  0.9170776E-04  0.1202924E+04  0.7818609E-02  0.9110301E-01
        1   -1    0    0  501    0  0.00000000000E+00  0.00000000000E+00  0.37853890294E+03  0.37853890297E+03  0.50400001928E-02 0.  1.
       -1   -1    0    0    0  501  0.00000000000E+00  0.00000000000E+00 -0.95566563250E+03  0.95566563252E+03  0.50400001928E-02 0. -1.
    10030    2    1    2    0    0  0.00000000000E+00  0.00000000000E+00 -0.57712672957E+03  0.13342045355E+04  0.12029241375E+04 0.  0.
        5    1    3    3  502    0  0.32990725291E+03  0.64599567465E+02 -0.84171197347E+03  0.90637356311E+03  0.46999998093E+01 0. -1.
       -5    1    3    3    0  502 -0.32990725291E+03 -0.64599567465E+02  0.26458524390E+03  0.42783097238E+03  0.46999998093E+01 0.  1.
</event>
<event>
 5   0  0.1597352E-03  0.1210608E+04  0.7818609E-02  0.9103622E-01
       -2   -1    0    0    0  501  0.00000000000E+00  0.00000000000E+00  0.49161749313E+03  0.49161749314E+03  0.25500000920E-02 0. -1.
        2   -1    0    0  501    0  0.00000000000E+00  0.00000000000E+00 -0.74528033952E+03  0.74528033952E+03  0.25500000920E-02 0.  1.
    10030    2    1    2    0    0  0.00000000000E+00  0.00000000000E+00 -0.25366284639E+03  0.12368978327E+04  0.12106078675E+04 0.  0.
        1    1    3    3  502    0  0.28901829458E+03 -0.15450248356E+03  0.39313111189E+03  0.51181506737E+03  0.50400001928E-02 0. -1.
       -1    1    3    3    0  502 -0.28901829458E+03  0.15450248356E+03 -0.64679395828E+03  0.72508276529E+03  0.50400001928E-02 0.  1.
</event>
<event>
 5   0  0.1551501E-03  0.1215372E+04  0.7818609E-02  0.9099507E-01
        2   -1    0    0  501    0  0.00000000000E+00  0.00000000000E+00  0.91702760537E+03  0.91702760537E+03  0.25500000920E-02 0. -1.
       -2   -1    0    0    0  501  0.00000000000E+00  0.00000000000E+00 -0.40269456428E+03  0.40269456428E+03  0.25500000920E-02 0.  1.
    10030    2    1    2    0    0  0.00000000000E+00  0.00000000000E+00  0.51433304109E+03  0.13197221697E+04  0.12153716008E+04 0.  0.
        4    1    3    3  502    0 -0.44221136630E+03 -0.39808263918E+03  0.39130302382E+03  0.71213787250E+03  0.12699999809E+01 0. -1.
       -4    1    3    3    0  502  0.44221136630E+03  0.39808263918E+03  0.12303001728E+03  0.60758429716E+03  0.12699999809E+01 0.  1.
</event>
<event>
 5   0  0.1597352E-03  0.1174213E+04  0.7818609E-02  0.9135732E-01
       -2   -1    0    0    0  501  0.00000000000E+00  0.00000000000E+00  0.48253517541E+03  0.48253517541E+03  0.25500000920E-02 0.  1.
        2   -1    0    0  501    0  0.00000000000E+00  0.00000000000E+00 -0.71434005904E+03  0.71434005904E+03  0.25500000920E-02 0. -1.
    10030    2    1    2    0    0  0.00000000000E+00  0.00000000000E+00 -0.23180488363E+03  0.11968752345E+04  0.11742132782E+04 0.  0.
        1    1    3    3  502    0  0.85309078233E+02 -0.20062128850E+03 -0.67155417046E+03  0.70605349948E+03  0.50400001928E-02 0. -1.
       -1    1    3    3    0  502 -0.85309078233E+02  0.20062128850E+03  0.43974928683E+03  0.49082173498E+03  0.50400001928E-02 0.  1.
</event>
<event>
 5   0  0.1537557E-03  0.1200960E+04  0.7818609E-02  0.9112017E-01
        2   -1    0    0  501    0  0.00000000000E+00  0.00000000000E+00  0.10425050857E+04  0.10425050857E+04  0.25500000920E-02 0.  1.
       -2   -1    0    0    0  501  0.00000000000E+00  0.00000000000E+00 -0.34587460755E+03  0.34587460756E+03  0.25500000920E-02 0. -1.
    10030    2    1    2    0    0  0.00000000000E+00  0.00000000000E+00  0.69663047813E+03  0.13883796932E+04  0.12009596786E+04 0.  0.
        2    1    3    3  502    0  0.54605141661E+02 -0.34929666022E+03 -0.21280342202E+03  0.41264412605E+03  0.25500000920E-02 0. -1.
       -2    1    3    3    0  502 -0.54605141661E+02  0.34929666022E+03  0.90943390014E+03  0.97573556719E+03  0.25500000920E-02 0.  1.
</event>
<event>
 5   0  0.9358428E-04  0.1216232E+04  0.7818609E-02  0.9098766E-01
       -1   -1    0    0    0  501  0.00000000000E+00  0.00000000000E+00  0.66381562218E+03  0.66381562220E+03  0.50400001928E-02 0.  1.
        1   -1    0    0  501    0  0.00000000000E+00  0.00000000000E+00 -0.55709014722E+03  0.55709014724E+03  0.50400001928E-02 0. -1.
    10030    2    1    2    0    0  0.00000000000E+00  0.00000000000E+00  0.10672547496E+03  0.12209057694E+04  0.12162321205E+04 0.  0.
        2    1    3    3  502    0  0.24621245848E+03 -0.15664619034E+03  0.58893568362E+03  0.65726999255E+03  0.25500000920E-02 0.  1.
       -2    1    3    3    0  502 -0.24621245848E+03  0.15664619034E+03 -0.48221020866E+03  0.56363577690E+03  0.25500000920E-02 0. -1.
</event>
<event>
 5   0  0.9358428E-04  0.1201312E+04  0.7818609E-02  0.9111709E-01
       -1   -1    0    0    0  501  0.00000000000E+00  0.00000000000E+00  0.76854605909E+03  0.76854605911E+03  0.50400001928E-02 0. -1.
        1   -1    0    0  501    0  0.00000000000E+00  0.00000000000E+00 -0.46944175365E+03  0.46944175367E+03  0.50400001928E-02 0.  1.
    10030    2    1    2    0    0  0.00000000000E+00  0.00000000000E+00  0.29910430544E+03  0.12379878128E+04  0.12013119658E+04 0.  0.
        2    1    3    3  502    0 -0.14962932110E+03  0.44163298513E+03  0.53973935540E+03  0.71326516742E+03  0.25500000920E-02 0. -1.
       -2    1    3    3    0  502  0.14962932110E+03 -0.44163298513E+03 -0.24063504995E+03  0.52472264536E+03  0.25500000920E-02 0.  1.
</event>
<event>
 5   0  0.1597352E-03  0.1219635E+04  0.7818609E-02  0.9095841E-01
        2   -1    0    0  501    0  0.00000000000E+00  0.00000000000E+00  0.82040265601E+03  0.82040265601E+03  0.25500000920E-02 0. -1.
       -2   -1    0    0    0  501  0.00000000000E+00  0.00000000000E+00 -0.45328661473E+03  0.45328661474E+03  0.25500000920E-02 0.  1.
    10030    2    1    2    0    0  0.00000000000E+00  0.00000000000E+00  0.36711604127E+03  0.12736892708E+04  0.12196352613E+04 0.  0.
        1    1    3    3  502    0 -0.46267429011E+03  0.39534721296E+03  0.22414734930E+03  0.64854371615E+03  0.50400001928E-02 0. -1.
       -1    1    3    3    0  502  0.46267429011E+03 -0.39534721296E+03  0.14296869197E+03  0.62514555460E+03  0.50400001928E-02 0.  1.
</event>
<event>
 5   0  0.9169078E-04  0.1210941E+04  0.7818609E-02  0.9103334E-01
        1   -1    0    0  501    0  0.00000000000E+00  0.00000000000E+00  0.75030344687E+03  0.75030344689E+03  0.50400001928E-02 0.  1.
       -1   -1    0    0    0  501  0.00000000000E+00  0.00000000000E+00 -0.48859464623E+03  0.48859464625E+03  0.50400001928E-02 0. -1.
    10030    2    1    2    0    0  0.00000000000E+00  0.00000000000E+00  0.26170880065E+03  0.12388980931E+04  0.12109405389E+04 0.  0.
        1    1    3    3  502    0 -0.17092678578E+03  0.11414791905E+03 -0.45181033700E+03  0.49636508153E+03  0.50400001928E-02 0. -1.
       -1    1    3    3    0  502  0.17092678578E+03 -0.11414791905E+03  0.71351913764E+03  0.74253301161E+03  0.50400001928E-02 0.  1.
</event>
<event>
 5   0  0.9170776E-04  0.1225913E+04  0.7818609E-02  0.9090472E-01
       -1   -1    0    0    0  501  0.00000000000E+00  0.00000000000E+00  0.51016308638E+03  0.51016308641E+03  0.50400001928E-02 0.  1.
        1   -1    0    0  501    0  0.00000000000E+00  0.00000000000E+00 -0.73646224544E+03  0.73646224545E+03  0.50400001928E-02 0. -1.
    10030    2    1    2    0    0  0.00000000000E+00  0.00000000000E+00 -0.22629915905E+03  0.12466253319E+04  0.12259132957E+04 0.  0.
        5    1    3    3  502    0 -0.19073727540E+03  0.14648105899E+03  0.46016322386E+03  0.51923953187E+03  0.46999998093E+01 0.  1.
       -5    1    3    3    0  502  0.19073727540E+03 -0.14648105899E+03 -0.68646238292E+03  0.72738579999E+03  0.46999998093E+01 0. -1.
</event>
<event>
 5   0  0.1597352E-03  0.1197278E+04  0.7818609E-02  0.9115243E-01
        2   -1    0    0  501    0  0.00000000000E+00  0.00000000000E+00  0.59117693282E+03  0.59117693282E+03  0.25500000920E-02 0.  1.
       -2   -1    0    0    0  501  0.00000000000E+00  0.00000000000E+00 -0.60619488561E+03  0.60619488561E+03  0.25500000920E-02 0. -1.
    10030    2    1    2    0    0  0.00000000000E+00  0.00000000000E+00 -0.15017952788E+02  0.11973718184E+04  0.11972776339E+04 0.  0.
        1    1    3    3  502    0  0.21923743644E+03 -0.38305975355E+03  0.39695899547E+03  0.59361289780E+03  0.50400001928E-02 0.  1.
       -1    1    3    3    0  502 -0.21923743644E+03  0.38305975355E+03 -0.41197694826E+03  0.60375892064E+03  0.50400001928E-02 0. -1.
</event>
<event>
 5   0  0.8908478E-04  0.1197963E+04  0.7818609E-02  0.9114641E-01
       -1   -1    0    0    0  501  0.00000000000E+00  0.00000000000E+00  0.40043489337E+03  0.40043489340E+03  0.50400001928E-02 0. -1.
        1   -1    0    0  501    0  0.00000000000E+00  0.00000000000E+00 -0.89597292984E+03  0.89597292986E+03  0.50400001928E-02 0.  1.
    10030    2    1    2    0    0  0.00000000000E+00  0.00000000000E+00 -0.49553803647E+03  0.12964078233E+04  0.11979629788E+04 0.  0.
        4    1    3    3  502    0 -0.20998164381E+03 -0.55367377634E+03 -0.34534675508E+03  0.68550195878E+03  0.12699999809E+01 0.  1.
       -4    1    3    3    0  502  0.20998164381E+03  0.55367377634E+03 -0.15019128140E+03  0.61090586448E+03  0.12699999809E+01 0. -1.
</event>
<event>
 5   0  0.1537557E-03  0.1181978E+04  0.7818609E-02  0.9128779E-01
       -2   -1    0    0    0  501  0.00000000000E+00  0.00000000000E+00  0.33778661183E+03  0.33778661184E+03  0.25500000920E-02 0.  1.
        2   -1    0    0  501    0  0.00000000000E+00  0.00000000000E+00 -0.10339903806E+04  0.10339903806E+04  0.25500000920E-02 0. -1.
    10030    2    1    2    0    0  0.00000000000E+00  0.00000000000E+00 -0.69620376876E+03  0.13717769924E+04  0.11819781848E+04 0.  0.
        2    1    3    3  502    0  0.58318509299E+03 -0.86143626053E+02 -0.39654858745E+03  0.71047614964E+03  0.25500000920E-02 0. -1.
       -2    1    3    3    0  502 -0.58318509299E+03  0.86143626053E+02 -0.29965518131E+03  0.66130084280E+03  0.25500000920E-02 0.  1.
</event>
<event>
 5   0  0.8908478E-04  0.1205378E+04  0.7818609E-02  0.9108163E-01
       -1   -1    0    0    0  501  0.00000000000E+00  0.00000000000E+00  0.64374120576E+03  0.64374120578E+03  0.50400001928E-02 0. -1.
        1   -1    0    0  501    0  0.00000000000E+00  0.00000000000E+00 -0.56425438835E+03  0.56425438837E+03  0.50400001928E-02 0.  1.
    10030    2    1    2    0    0  0.00000000000E+00  0.00000000000E+00  0.79486817414E+02  0.12079955942E+04  0.12053776177E+04 0.  0.
        4    1    3    3  502    0  0.24177889170E+03 -0.12642359356E+03 -0.49881768901E+03  0.56856016150E+03  0.12699999809E+01 0.  1.
       -4    1    3    3    0  502 -0.24177889170E+03  0.12642359356E+03  0.57830450642E+03  0.63943543265E+03  0.12699999809E+01 0. -1.
</event>
<event>
 5   0  0.9169078E-04  0.1186995E+04  0.7818609E-02  0.9124317E-01
       -1   -1    0    0    0  501  0.00000000000E+00  0.00000000000E+00  0.23361757518E+03  0.23361757524E+03  0.50400001928E-02 0. -1.
        1   -1    0    0  501    0  0.00000000000E+00  0.00000000000E+00 -0.15077592014E+04  0.15077592014E+04  0.50400001928E-02 0.  1.
    10030    2    1    2    0    0  0.00000000000E+00  0.00000000000E+00 -0.12741416262E+04  0.17413767766E+04  0.11869946059E+04 0.  0.
        1    1    3    3  502    0 -0.13671529248E+03  0.43452005975E+03 -0.78936491276E+02  0.46230912083E+03  0.50400001928E-02 0. -1.
       -1    1    3    3    0  502  0.13671529248E+03 -0.43452005975E+03 -0.11952051349E+04  0.12790676558E+04  0.50400001928E-02 0.  1.
</event>
<event>
 5   0  0.1567019E-03  0.1194902E+04  0.7818609E-02  0.9117330E-01
       -2   -1    0    0    0  501  0.00000000000E+00  0.00000000000E+00  0.14972757235E+03  0.14972757237E+03  0.25500000920E-02 0.  1.
        2   -1    0    0  501    0  0.00000000000E+00  0.00000000000E+00 -0.23839819603E+04  0.23839819603E+04  0.25500000920E-02 0. -1.
    10030    2    1    2    0    0  0.00000000000E+00  0.00000000000E+00 -0.22342543880E+04  0.25337095327E+04  0.11949022244E+04 0.  0.
        5    1    3    3  502    0  0.54640411363E+03  0.22055339143E+03 -0.13262290173E+04  0.14512431740E+04  0.46999998093E+01 0. -1.
       -5    1    3    3    0  502 -0.54640411363E+03 -0.22055339143E+03 -0.90802537070E+03  0.10824663587E+04  0.46999998093E+01 0.  1.
</event>
<event>
 5   0  0.9208078E-04  0.1194869E+04  0.7818609E-02  0.9117360E-01
        1   -1    0    0  501    0  0.00000000000E+00  0.00000000000E+00  0.88079029154E+03  0.88079029155E+03  0.50400001928E-02 0. -1.
       -1   -1    0    0    0  501  0.00000000000E+00  0.00000000000E+00 -0.40523600391E+03  0.40523600394E+03  0.50400001928E-02 0.  1.
    10030    2    1    2    0    0  0.00000000000E+00  0.00000000000E+00  0.47555428763E+03  0.12860262955E+04  0.11948689268E+04 0.  0.
        3    1    3    3  502    0 -0.11882926368E+03  0.14210941890E+03 -0.37354501931E+03  0.41695488065E+03  0.10100000352E+00 0.  1.
       -3    1    3    3    0  502  0.11882926368E+03 -0.14210941890E+03  0.84909930694E+03  0.86907141484E+03  0.10100000352E+00 0. -1.
</event>
<event>
 5   0  0.9208078E-04  0.1200500E+04  0.7818609E-02  0.9112419E-01
       -1   -1    0    0    0  501  0.00000000000E+00  0.00000000000E+00  0.41117761641E+03  0.41117761644E+03  0.50400001928E-02 0.  1.
        1   -1    0    0  501    0  0.00000000000E+00  0.00000000000E+00 -0.87626309174E+03  0.87626309175E+03  0.50400001928E-02 0. -1.
    10030    2    1    2    0    0  0.00000000000E+00  0.00000000000E+00 -0.46508547532E+03  0.12874407082E+04  0.12004995118E+04 0.  0.
        3    1    3    3  502    0 -0.22587093603E+03  0.55427946389E+03 -0.18391161030E+03  0.62615245303E+03  0.10100000352E+00 0.  1.
       -3    1    3    3    0  502  0.22587093603E+03 -0.55427946389E+03 -0.28117386503E+03  0.66128825516E+03  0.10100000352E+00 0. -1.
</event>
<event>
 5   0  0.1537557E-03  0.1204619E+04  0.7818609E-02  0.9108823E-01
       -2   -1    0    0    0  501  0.00000000000E+00  0.00000000000E+00  0.38638897941E+03  0.38638897942E+03  0.25500000920E-02 0.  1.
        2   -1    0    0  501    0  0.00000000000E+00  0.00000000000E+00 -0.93889061259E+03  0.93889061259E+03  0.25500000920E-02 0. -1.
    10030    2    1    2    0    0  0.00000000000E+00  0.00000000000E+00 -0.55250163318E+03  0.13252795920E+04  0.12046194180E+04 0.  0.
        2    1    3    3  502    0  0.24368724432E+03 -0.19625429842E+03 -0.84246455228E+03  0.89869112856E+03  0.25500000920E-02 0. -1.
       -2    1    3    3    0  502 -0.24368724432E+03  0.19625429842E+03  0.28996291910E+03  0.42658846345E+03  0.25500000920E-02 0.  1.
</event>
<event>
 5   0  0.1551501E-03  0.1195461E+04  0.7818609E-02  0.9116839E-01
        2   -1    0    0  501    0  0.00000000000E+00  0.00000000000E+00  0.49960871292E+03  0.49960871293E+03  0.25500000920E-02 0. -1.
       -2   -1    0    0    0  501  0.00000000000E+00  0.00000000000E+00 -0.71512297780E+03  0.71512297780E+03  0.25500000920E-02 0.  1.
    10030    2    1    2    0    0  0.00000000000E+00  0.00000000000E+00 -0.21551426488E+03  0.12147316907E+04  0.11954608660E+04 0.  0.
        4    1    3    3  502    0  0.76167321684E+02 -0.53008132867E+03 -0.37754107068E+03  0.65523014953E+03  0.12699999809E+01 0.  1.
       -4    1    3    3    0  502 -0.76167321684E+02  0.53008132867E+03  0.16202680580E+03  0.55950154120E+03  0.12699999809E+01 0. -1.
</event>
<event>
 5   0  0.9208078E-04  0.1220326E+04  0.7818609E-02  0.9095249E-01
        1   -1    0    0  501    0  0.00000000000E+00  0.00000000000E+00  0.37108144146E+03  0.37108144149E+03  0.50400001928E-02 0. -1.
       -1   -1    0    0    0  501  0.00000000000E+00  0.00000000000E+00 -0.10032811236E+04  0.10032811236E+04  0.50400001928E-02 0.  1.
    10030    2    1    2    0    0  0.00000000000E+00  0.00000000000E+00 -0.63219968211E+03  0.13743625651E+04  0.12203261950E+04 0.  0.
        3    1    3    3  502    0 -0.53378375831E+01  0.53294455452E+03  0.18449070499E+02  0.53329051098E+03  0.10100000352E+00 0. -1.
       -3    1    3    3    0  502  0.53378375831E+01 -0.53294455452E+03 -0.65064875261E+03  0.84107205409E+03  0.10100000352E+00 0.  1.
</event>
<event>
 5   0  0.1537557E-03  0.1197322E+04  0.7818609E-02  0.9115203E-01
        2   -1    0    0  501    0  0.00000000000E+00  0.00000000000E+00  0.35268998550E+03  0.35268998551E+03  0.25500000920E-02 0. -1.
       -2   -1    0    0    0  501  0.00000000000E+00  0.00000000000E+00 -0.10161765424E+04  0.10161765424E+04  0.25500000920E-02 0.  1.
    10030    2    1    2    0    0  0.00000000000E+00  0.00000000000E+00 -0.66348655686E+03  0.13688665279E+04  0.11973224962E+04 0.  0.
        2    1    3    3  502    0 -0.25038847764E+03  0.41267350355E+03  0.73113385535E+02  0.48820014074E+03  0.25500000920E-02 0. -1.
       -2    1    3    3    0  502  0.25038847764E+03 -0.41267350355E+03 -0.73659994239E+03  0.88066638712E+03  0.25500000920E-02 0.  1.
</event>
<event>
 5   0  0.1551501E-03  0.1226210E+04  0.7818609E-02  0.9090220E-01
        2   -1    0    0  501    0  0.00000000000E+00  0.00000000000E+00  0.96677088678E+03  0.96677088678E+03  0.25500000920E-02 0. -1.
       -2   -1    0    0    0  501  0.00000000000E+00  0.00000000000E+00 -0.38881763026E+03  0.38881763027E+03  0.25500000920E-02 0.  1.
    10030    2    1    2    0    0  0.00000000000E+00  0.00000000000E+00  0.57795325652E+03  0.13555885170E+04  0.12262097132E+04 0.  0.
        4    1    3    3  502    0 -0.99757999819E+01  0.34650157889E+03  0.84803427715E+03  0.91614770036E+03  0.12699999809E+01 0. -1.
       -4    1    3    3    0  502  0.99757999819E+01 -0.34650157889E+03 -0.27008102064E+03  0.43944081668E+03  0.12699999809E+01 0.  1.
</event>
<event>
 5   0  0.1647550E-03  0.1191429E+04  0.7818609E-02  0.9120392E-01
       -2   -1    0    0    0  501  0.00000000000E+00  0.00000000000E+00  0.50914172720E+03  0.50914172721E+03  0.25500000920E-02 0. -1.
        2   -1    0    0  501    0  0.00000000000E+00  0.00000000000E+00 -0.69700788349E+03  0.69700788349E+03  0.25500000920E-02 0.  1.
    10030    2    1    2    0    0  0.00000000000E+00  0.00000000000E+00 -0.18786615628E+03  0.12061496107E+04  0.11914290540E+04 0.  0.
        3    1    3    3  502    0 -0.11695375810E+03  0.57894088567E+03 -0.17251335758E+03  0.61531422816E+03  0.10100000352E+00 0. -1.
       -3    1    3    3    0  502  0.11695375810E+03 -0.57894088567E+03 -0.15352798703E+02  0.59083538254E+03  0.10100000352E+00 0.  1.
</event>
<event>
 5   0  0.9208078E-04  0.1196583E+04  0.7818609E-02  0.9115853E-01
        1   -1    0    0  501    0  0.00000000000E+00  0.00000000000E+00  0.48319565226E+03  0.48319565229E+03  0.50400001928E-02 0.  1.
       -1   -1    0    0    0  501  0.00000000000E+00  0.00000000000E+00 -0.74080227646E+03  0.74080227648E+03  0.50400001928E-02 0. -1.
    10030    2    1    2    0    0  0.00000000000E+00  0.00000000000E+00 -0.25760662420E+03  0.12239979288E+04  0.11965825324E+04 0.  0.
        3    1    3    3  502    0 -0.33738765254E+02  0.17430788789E+03 -0.71323485194E+03  0.73500034577E+03  0.10100000352E+00 0. -1.
       -3    1    3    3    0  502  0.33738765254E+02 -0.17430788789E+03  0.45562822774E+03  0.48899758300E+03  0.10100000352E+00 0.  1.
</event>
<event>
 5   0  0.1537557E-03  0.1201131E+04  0.7818609E-02  0.9111867E-01
       -2   -1    0    0    0  501  0.00000000000E+00  0.00000000000E+00  0.40930277055E+03  0.40930277056E+03  0.25500000920E-02 0.  1.
        2   -1    0    0  501    0  0.00000000000E+00  0.00000000000E+00 -0.88120286694E+03  0.88120286694E+03  0.25500000920E-02 0. -1.
    10030    2    1    2    0    0  0.00000000000E+00  0.00000000000E+00 -0.47190009639E+03  0.12905056375E+04  0.12011307587E+04 0.  0.
        2    1    3    3  502    0 -0.42815471374E+03 -0.16909874558E+03  0.17845427541E+03  0.49371730076E+03  0.25500000920E-02 0.  1.
       -2    1    3    3    0  502  0.42815471374E+03  0.16909874558E+03 -0.65035437179E+03  0.79678833674E+03  0.25500000920E-02 0. -1.
</event>
<event>
 5   0  0.9170776E-04  0.1201310E+04  0.7818609E-02  0.9111711E-01
       -1   -1    0    0    0  501  0.00000000000E+00  0.00000000000E+00  0.68889734475E+03  0.68889734477E+03  0.50400001928E-02 0.  1.
        1   -1    0    0  501    0  0.00000000000E+00  0.00000000000E+00 -0.52371539907E+03  0.52371539909E+03  0.50400001928E-02 0. -1.
    10030    2    1    2    0    0  0.00000000000E+00  0.00000000000E+00  0.16518194568E+03  0.12126127439E+04  0.12013095319E+04 0.  0.
        5    1    3    3  502    0 -0.41462448551E+03 -0.13932744428E+03 -0.33291110427E+03  0.54970673459E+03  0.46999998093E+01 0. -1.
       -5    1    3    3    0  502  0.41462448551E+03  0.13932744428E+03  0.49809304995E+03  0.66290600927E+03  0.46999998093E+01 0.  1.
</event>
<event>
 5   0  0.8908478E-04  0.1128738E+04  0.7818609E-02  0.9177626E-01
       -1   -1    0    0    0  501  0.00000000000E+00  0.00000000000E+00  0.28411375843E+03  0.28411375847E+03  0.50400001928E-02 0. -1.
        1   -1    0    0  501    0  0.00000000000E+00  0.00000000000E+00 -0.11210738642E+04  0.11210738642E+04  0.50400001928E-02 0.  1.
    10030    2    1    2    0    0  0.00000000000E+00  0.00000000000E+00 -0.83696010579E+03  0.14051876227E+04  0.11287382497E+04 0.  0.
        4    1    3    3  502    0  0.39336397759E+03 -0.24179566513E+02 -0.92138882358E+03  0.10021371400E+04  0.12699999809E+01 0. -1.
       -4    1    3    3    0  502 -0.39336397759E+03  0.24179566513E+02  0.84428717785E+02  0.40305048268E+03  0.12699999809E+01 0.  1.
</event>
<event>
 5   0  0.1537557E-03  0.1201690E+04  0.7818609E-02  0.9111378E-01
       -2   -1    0    0    0  501  0.00000000000E+00  0.00000000000E+00  0.42224085207E+03  0.42224085208E+03  0.25500000920E-02 0. -1.
        2   -1    0    0  501    0  0.00000000000E+00  0.00000000000E+00 -0.85499732964E+03  0.85499732964E+03  0.25500000920E-02 0.  1.
    10030    2    1    2    0    0  0.00000000000E+00  0.00000000000E+00 -0.43275647757E+03  0.12772381817E+04  0.12016901447E+04 0.  0.
        2    1    3    3  502    0  0.46070538155E+03  0.34004828154E+03 -0.22911362900E+02  0.57306824456E+03  0.25500000920E-02 0. -1.
       -2    1    3    3    0  502 -0.46070538155E+03 -0.34004828154E+03 -0.40984511467E+03  0.70416993716E+03  0.25500000920E-02 0.  1.
</event>
<event>
 5   0  0.9170776E-04  0.1235019E+04  0.7818609E-02  0.9082745E-01
        1   -1    0    0  501    0  0.00000000000E+00  0.00000000000E+00  0.63596443766E+03  0.63596443768E+03  0.50400001928E-02 0. -1.
       -1   -1    0    0    0  501  0.00000000000E+00  0.00000000000E+00 -0.59959007803E+03  0.59959007805E+03  0.50400001928E-02 0.  1.
    10030    2    1    2    0    0  0.00000000000E+00  0.00000000000E+00  0.36374359628E+02  0.12355545157E+04  0.12350189745E+04 0.  0.
        5    1    3    3  502    0 -0.48112801010E+03 -0.27555116085E+03 -0.25374546326E+03  0.60977164125E+03  0.46999998093E+01 0.  1.
       -5    1    3    3    0  502  0.48112801010E+03  0.27555116085E+03  0.29011982289E+03  0.62578287447E+03  0.46999998093E+01 0. -1.
</event>
<event>
 5   0  0.9208078E-04  0.1197023E+04  0.7818609E-02  0.9115466E-01
       -1   -1    0    0    0  501  0.00000000000E+00  0.00000000000E+00  0.76485484056E+03  0.76485484058E+03  0.50400001928E-02 0. -1.
        1   -1    0    0  501    0  0.00000000000E+00  0.00000000000E+00 -0.46834547929E+03  0.46834547932E+03  0.50400001928E-02 0.  1.
    10030    2    1    2    0    0  0.00000000000E+00  0.00000000000E+00  0.29650936127E+03  0.12332003199E+04  0.11970234867E+04 0.  0.
        3    1    3    3  502    0  0.38435166269E+03  0.11714332915E+03  0.60524571647E+03  0.72647859410E+03  0.10100000352E+00 0. -1.
       -3    1    3    3    0  502 -0.38435166269E+03 -0.11714332915E+03 -0.30873635520E+03  0.50672172580E+03  0.10100000352E+00 0.  1.
</event>
<event>
 5   0  0.9208078E-04  0.1209686E+04  0.7818609E-02  0.9104420E-01
       -1   -1    0    0    0  501  0.00000000000E+00  0.00000000000E+00  0.15508869113E+03  0.15508869121E+03  0.50400001928E-02 0. -1.
        1   -1    0    0  501    0  0.00000000000E+00  0.00000000000E+00 -0.23588779967E+04  0.23588779967E+04  0.50400001928E-02 0.  1.
    10030    2    1    2    0    0  0.00000000000E+00  0.00000000000E+00 -0.22037893056E+04  0.25139666879E+04  0.12096864076E+04 0.  0.
        3    1    3    3  502    0 -0.49535154807E+03 -0.25107313058E+03 -0.60388814438E+03  0.82042170510E+03  0.10100000352E+00 0.  1.
       -3    1    3    3    0  502  0.49535154807E+03  0.25107313058E+03 -0.15999011612E+04  0.16935449828E+04  0.10100000352E+00 0. -1.
</event>
<event>
 5   0  0.9358428E-04  0.1212569E+04  0.7818609E-02  0.9101925E-01
        1   -1    0    0  501    0  0.00000000000E+00  0.00000000000E+00  0.94085311853E+03  0.94085311854E+03  0.50400001928E-02 0. -1.
       -1   -1    0    0    0  501  0.00000000000E+00  0.00000000000E+00 -0.39068914143E+03  0.39068914147E+03  0.50400001928E-02 0.  1.
    10030    2    1    2    0    0  0.00000000000E+00  0.00000000000E+00  0.55016397709E+03  0.13315422600E+04  0.12125693335E+04 0.  0.
        2    1    3    3  502    0 -0.32669477522E+03  0.12243965044E+03  0.81957517269E+03  0.89074373860E+03  0.25500000920E-02 0. -1.
       -2    1    3    3    0  502  0.32669477522E+03 -0.12243965044E+03 -0.26941119560E+03  0.44079852141E+03  0.25500000920E-02 0.  1.
</event>
<event>
 5   0  0.1567019E-03  0.1196642E+04  0.7818609E-02  0.9115801E-01
       -2   -1    0    0    0  501  0.00000000000E+00  0.00000000000E+00  0.27853633018E+03  0.27853633019E+03  0.25500000920E-02 0. -1.
        2   -1    0    0  501    0  0.00000000000E+00  0.00000000000E+00 -0.12852466932E+04  0.12852466932E+04  0.25500000920E-02 0.  1.
    10030    2    1    2    0    0  0.00000000000E+00  0.00000000000E+00 -0.10067103630E+04  0.15637830234E+04  0.11966417965E+04 0.  0.
        5    1    3    3  502    0 -0.13415123928E+03  0.57782701843E+03 -0.40141406995E+03  0.71626528868E+03  0.46999998093E+01 0.  1.
       -5    1    3    3    0  502  0.13415123928E+03 -0.57782701843E+03 -0.60529629305E+03  0.84751773468E+03  0.46999998093E+01 0. -1.
</event>
<event>
 5   0  0.8908478E-04  0.1179952E+04  0.7818609E-02  0.9130588E-01
       -1   -1    0    0    0  501  0.00000000000E+00  0.00000000000E+00  0.56222119580E+03  0.56222119582E+03  0.50400001928E-02 0.  1.
        1   -1    0    0  501    0  0.00000000000E+00  0.00000000000E+00 -0.61910078230E+03  0.61910078232E+03  0.50400001928E-02 0. -1.
    10030    2    1    2    0    0  0.00000000000E+00  0.00000000000E+00 -0.56879586500E+02  0.11813219781E+04  0.11799518332E+04 0.  0.
        4    1    3    3  502    0 -0.25289907403E+03 -0.52835712188E+03 -0.98883271466E+02  0.59405277894E+03  0.12699999809E+01 0. -1.
       -4    1    3    3    0  502  0.25289907403E+03  0.52835712188E+03  0.42003684966E+02  0.58726919921E+03  0.12699999809E+01 0.  1.
</event>
<event>
 5   0  0.9208078E-04  0.1203931E+04  0.7818609E-02  0.9109423E-01
       -1   -1    0    0    0  501  0.00000000000E+00  0.00000000000E+00  0.32973793102E+03  0.32973793106E+03  0.50400001928E-02 0.  1.
        1   -1    0    0  501    0  0.00000000000E+00  0.00000000000E+00 -0.10989404101E+04  0.10989404101E+04  0.50400001928E-02 0. -1.
    10030    2    1    2    0    0  0.00000000000E+00  0.00000000000E+00 -0.76920247911E+03  0.14286783412E+04  0.12039307907E+04 0.  0.
        3    1    3    3  502    0  0.27686302234E+03 -0.35980765243E+03  0.84470946776E+02  0.46179002906E+03  0.10100000352E+00 0.  1.
       -3    1    3    3    0  502 -0.27686302234E+03  0.35980765243E+03 -0.85367342589E+03  0.96688831214E+03  0.10100000352E+00 0. -1.
</event>
<event>
 5   0  0.1537557E-03  0.1183566E+04  0.7818609E-02  0.9127364E-01
        2   -1    0    0  501    0  0.00000000000E+00  0.00000000000E+00  0.43969365830E+03  0.43969365830E+03  0.25500000920E-02 0. -1.
       -2   -1    0    0    0  501  0.00000000000E+00  0.00000000000E+00 -0.79647914886E+03  0.79647914887E+03  0.25500000920E-02 0.  1.
    10030    2    1    2    0    0  0.00000000000E+00  0.00000000000E+00 -0.35678549057E+03  0.12361728072E+04  0.11835655127E+04 0.  0.
        2    1    3    3  502    0  0.46283392140E+02  0.58771327664E+03 -0.23223789964E+03  0.63362724844E+03  0.25500000920E-02 0. -1.
       -2    1    3    3    0  502 -0.46283392140E+02 -0.58771327664E+03 -0.12454759092E+03  0.60254555873E+03  0.25500000920E-02 0.  1.
</event>
<event>
 5   0  0.6137750E-04  0.1223400E+04  0.7818609E-02  0.9092617E-01
       -4   -1    0    0    0  501  0.00000000000E+00  0.00000000000E+00  0.50328894008E+03  0.50329054244E+03  0.12699999809E+01 0. -1.
        4   -1    0    0  501    0  0.00000000000E+00  0.00000000000E+00 -0.74346042599E+03  0.74346151071E+03  0.12699999809E+01 0.  1.
    10030    2    1    2    0    0  0.00000000000E+00  0.00000000000E+00 -0.24017148591E+03  0.12467520531E+04  0.12234003185E+04 0.  0.
        1    1    3    3  502    0  0.34328309537E+03  0.11147437682E+03 -0.62338219705E+03  0.72032991321E+03  0.50400001928E-02 0.  1.
       -1    1    3    3    0  502 -0.34328309537E+03 -0.11147437682E+03  0.38321071114E+03  0.52642213993E+03  0.50400001928E-02 0. -1.
</event>
<event>
 5   0  0.1567019E-03  0.1201219E+04  0.7818609E-02  0.9111790E-01
       -2   -1    0    0    0  501  0.00000000000E+00  0.00000000000E+00  0.42435444378E+03  0.42435444379E+03  0.25500000920E-02 0. -1.
        2   -1    0    0  501    0  0.00000000000E+00  0.00000000000E+00 -0.85007256716E+03  0.85007256716E+03  0.25500000920E-02 0.  1.
    10030    2    1    2    0    0  0.00000000000E+00  0.00000000000E+00 -0.42571812338E+03  0.12744270109E+04  0.12012194994E+04 0.  0.
        5    1    3    3  502    0  0.41168700884E+03  0.16251576979E+03 -0.64357163785E+03  0.78109161545E+03  0.46999998093E+01 0.  1.
       -5    1    3    3    0  502 -0.41168700884E+03 -0.16251576979E+03  0.21785351447E+03  0.49333539550E+03  0.46999998093E+01 0. -1.
</event>
<event>
 5   0  0.9169078E-04  0.1198817E+04  0.7818609E-02  0.9113893E-01
       -1   -1    0    0    0  501  0.00000000000E+00  0.00000000000E+00  0.58160449942E+03  0.58160449944E+03  0.50400001928E-02 0.  1.
        1   -1    0    0  501    0  0.00000000000E+00  0.00000000000E+00 -0.61775707248E+03  0.61775707250E+03  0.50400001928E-02 0. -1.
    10030    2    1    2    0    0  0.00000000000E+00  0.00000000000E+00 -0.36152573060E+02  0.11993615719E+04  0.11988165713E+04 0.  0.
        1    1    3    3  502    0  0.29619068337E+03  0.13759572840E+03  0.48477412627E+03  0.58452327491E+03  0.50400001928E-02 0.  1.
       -1    1    3    3    0  502 -0.29619068337E+03 -0.13759572840E+03 -0.52092669933E+03  0.61483829703E+03  0.50400001928E-02 0. -1.
</event>
<event>
 5   0  0.1647550E-03  0.1193454E+04  0.7818609E-02  0.9118606E-01
       -2   -1    0    0    0  501  0.00000000000E+00  0.00000000000E+00  0.41325882019E+03  0.41325882019E+03  0.25500000920E-02 0.  1.
        2   -1    0    0  501    0  0.00000000000E+00  0.00000000000E+00 -0.86164657704E+03  0.86164657704E+03  0.25500000920E-02 0. -1.
    10030    2    1    2    0    0  0.00000000000E+00  0.00000000000E+00 -0.44838775685E+03  0.12749053972E+04  0.11934538916E+04 0.  0.
        3    1    3    3  502    0  0.62623099601E+02 -0.14141239821E+03  0.39147690180E+03  0.42091958118E+03  0.10100000352E+00 0.  1.
       -3    1    3    3    0  502 -0.62623099601E+02  0.14141239821E+03 -0.83986465866E+03  0.85398581606E+03  0.10100000352E+00 0. -1.
</event>
<event>
 5   0  0.1567019E-03  0.1204761E+04  0.7818609E-02  0.9108699E-01
        2   -1    0    0  501    0  0.00000000000E+00  0.00000000000E+00  0.71382055615E+03  0.71382055616E+03  0.25500000920E-02 0. -1.
       -2   -1    0    0    0  501  0.00000000000E+00  0.00000000000E+00 -0.50833832894E+03  0.50833832895E+03  0.25500000920E-02 0.  1.
    10030    2    1    2    0    0  0.00000000000E+00  0.00000000000E+00  0.20548222721E+03  0.12221588851E+04  0.12047611360E+04 0.  0.
        5    1    3    3  502    0  0.34891709725E+02  0.57721721870E+03 -0.68345195967E+02  0.58231460979E+03  0.46999998093E+01 0.  1.
       -5    1    3    3    0  502 -0.34891709725E+02 -0.57721721870E+03  0.27382742318E+03  0.63984427531E+03  0.46999998093E+01 0. -1.
</event>
<event>
 5   0  0.9169078E-04  0.1196242E+04  0.7818609E-02  0.9116152E-01
        1   -1    0    0  501    0  0.00000000000E+00  0.00000000000E+00  0.18936863152E+04  0.18936863152E+04  0.50400001928E-02 0.  1.
       -1   -1    0    0    0  501  0.00000000000E+00  0.00000000000E+00 -0.18891649866E+03  0.18891649873E+03  0.50400001928E-02 0. -1.
    10030    2    1    2    0    0  0.00000000000E+00  0.00000000000E+00  0.17047698166E+04  0.20826028140E+04  0.11962417620E+04 0.  0.
        1    1    3    3  502    0 -0.28147949444E+03  0.20191913104E+03  0.17012615822E+04  0.17361719421E+04  0.50400001928E-02 0.  1.
       -1    1    3    3    0  502  0.28147949444E+03 -0.20191913104E+03  0.35082343492E+01  0.34643087190E+03  0.50400001928E-02 0. -1.
</event>
<event>
 5   0  0.1537557E-03  0.1195480E+04  0.7818609E-02  0.9116822E-01
        2   -1    0    0  501    0  0.00000000000E+00  0.00000000000E+00  0.18722643496E+04  0.18722643496E+04  0.25500000920E-02 0.  1.
       -2   -1    0    0    0  501  0.00000000000E+00  0.00000000000E+00 -0.19083483660E+03  0.19083483662E+03  0.25500000920E-02 0. -1.
    10030    2    1    2    0    0  0.00000000000E+00  0.00000000000E+00  0.16814295130E+04  0.20630991863E+04  0.11954802571E+04 0.  0.
        2    1    3    3  502    0  0.50804072331E+03 -0.25413933324E+03  0.51970180705E+03  0.76992346730E+03  0.25500000920E-02 0. -1.
       -2    1    3    3    0  502 -0.50804072331E+03  0.25413933324E+03  0.11617277060E+04  0.12931757190E+04  0.25500000920E-02 0.  1.
</event>
<event>
 5   0  0.1567019E-03  0.1178405E+04  0.7818609E-02  0.9131971E-01
        2   -1    0    0  501    0  0.00000000000E+00  0.00000000000E+00  0.64258674108E+03  0.64258674109E+03  0.25500000920E-02 0. -1.
       -2   -1    0    0    0  501  0.00000000000E+00  0.00000000000E+00 -0.54025324547E+03  0.54025324547E+03  0.25500000920E-02 0.  1.
    10030    2    1    2    0    0  0.00000000000E+00  0.00000000000E+00  0.10233349562E+03  0.11828399866E+04  0.11784049769E+04 0.  0.
        5    1    3    3  502    0 -0.26552387622E+03 -0.27837919149E+03  0.49909682215E+03  0.63017269932E+03  0.46999998093E+01 0. -1.
       -5    1    3    3    0  502  0.26552387622E+03  0.27837919149E+03 -0.39676332653E+03  0.55266728723E+03  0.46999998093E+01 0.  1.
</event>
<event>
 5   0  0.9358428E-04  0.1196628E+04  0.7818609E-02  0.9115813E-01
       -1   -1    0    0    0  501  0.00000000000E+00  0.00000000000E+00  0.24789728800E+03  0.24789728805E+03  0.50400001928E-02 0. -1.
        1   -1    0    0  501    0  0.00000000000E+00  0.00000000000E+00 -0.14440637579E+04  0.14440637579E+04  0.50400001928E-02 0.  1.
    10030    2    1    2    0    0  0.00000000000E+00  0.00000000000E+00 -0.11961664699E+04  0.16919610460E+04  0.11966277438E+04 0.  0.
        2    1    3    3  502    0  0.17868879111E+03 -0.71806353564E+02  0.20287866074E+03  0.27972412743E+03  0.25500000920E-02 0. -1.
       -2    1    3    3    0  502 -0.17868879111E+03  0.71806353564E+02 -0.13990451306E+04  0.14122369185E+04  0.25500000920E-02 0.  1.
</event>
<event>
 5   0  0.1567019E-03  0.1204720E+04  0.7818609E-02  0.9108735E-01
       -2   -1    0    0    0  501  0.00000000000E+00  0.00000000000E+00  0.36978433294E+03  0.36978433294E+03  0.25500000920E-02 0.  1.
        2   -1    0    0  501    0  0.00000000000E+00  0.00000000000E+00 -0.98121451351E+03  0.98121451352E+03  0.25500000920E-02 0. -1.
    10030    2    1    2    0    0  0.00000000000E+00  0.00000000000E+00 -0.61143018058E+03  0.13509988465E+04  0.12047203067E+04 0.  0.
        5    1    3    3  502    0 -0.73592315682E+02  0.13554748664E+03  0.34724360205E+03  0.37998573555E+03  0.46999998093E+01 0.  1.
       -5    1    3    3    0  502  0.73592315682E+02 -0.13554748664E+03 -0.95867378263E+03  0.97101311091E+03  0.46999998093E+01 0. -1.
</event>
<event>
 5   0  0.8908478E-04  0.1114987E+04  0.7818609E-02  0.9190706E-01
       -1   -1    0    0    0  501  0.00000000000E+00  0.00000000000E+00  0.36862083382E+03  0.36862083386E+03  0.50400001928E-02 0. -1.
        1   -1    0    0  501    0  0.00000000000E+00  0.00000000000E+00 -0.84314079172E+03  0.84314079174E+03  0.50400001928E-02 0.  1.
    10030    2    1    2    0    0  0.00000000000E+00  0.00000000000E+00 -0.47451995790E+03  0.12117616256E+04  0.11149874649E+04 0.  0.
        4    1    3    3  502    0  0.97739435189E+02  0.38017081540E+03  0.19297153650E+03  0.43740424423E+03  0.12699999809E+01 0. -1.
       -4    1    3    3    0  502 -0.97739435189E+02 -0.38017081540E+03 -0.66749149440E+03  0.77435738136E+03  0.12699999809E+01 0.  1.
</event>
<event>
 5   0  0.9170776E-04  0.1200128E+04  0.7818609E-02  0.9112745E-01
       -1   -1    0    0    0  501  0.00000000000E+00  0.00000000000E+00  0.17361596847E+03  0.17361596854E+03  0.50400001928E-02 0. -1.
        1   -1    0    0  501    0  0.00000000000E+00  0.00000000000E+00 -0.20739830664E+04  0.20739830664E+04  0.50400001928E-02 0.  1.
    10030    2    1    2    0    0  0.00000000000E+00  0.00000000000E+00 -0.19003670980E+04  0.22475990350E+04  0.12001276245E+04 0.  0.
        5    1    3    3  502    0 -0.15849769476E+02 -0.53264278302E+03 -0.14668012612E+04  0.15606048761E+04  0.46999998093E+01 0. -1.
       -5    1    3    3    0  502  0.15849769476E+02  0.53264278302E+03 -0.43356583673E+03  0.68699415884E+03  0.46999998093E+01 0.  1.
</event>
<event>
 5   0  0.9170776E-04  0.1186792E+04  0.7818609E-02  0.9124497E-01
       -1   -1    0    0    0  501  0.00000000000E+00  0.00000000000E+00  0.45508085843E+03  0.45508085846E+03  0.50400001928E-02 0.  1.
        1   -1    0    0  501    0  0.00000000000E+00  0.00000000000E+00 -0.77374987164E+03  0.77374987165E+03  0.50400001928E-02 0. -1.
    10030    2    1    2    0    0  0.00000000000E+00  0.00000000000E+00 -0.31866901320E+03  0.12288307301E+04  0.11867919040E+04 0.  0.
        5    1    3    3  502    0  0.42339658784E+03 -0.31857811809E+03  0.11722205928E+03  0.54269677454E+03  0.46999998093E+01 0.  1.
       -5    1    3    3    0  502 -0.42339658784E+03  0.31857811809E+03 -0.43589107249E+03  0.68613395557E+03  0.46999998093E+01 0. -1.
</event>
<event>
 5   0  0.9170776E-04  0.1204780E+04  0.7818609E-02  0.9108683E-01
        1   -1    0    0  501    0  0.00000000000E+00  0.00000000000E+00  0.10204032924E+04  0.10204032924E+04  0.50400001928E-02 0. -1.
       -1   -1    0    0    0  501  0.00000000000E+00  0.00000000000E+00 -0.35561806759E+03  0.35561806763E+03  0.50400001928E-02 0.  1.
    10030    2    1    2    0    0  0.00000000000E+00  0.00000000000E+00  0.66478522481E+03  0.13760213600E+04  0.12047802240E+04 0.  0.
        5    1    3    3  502    0  0.32727177839E+03 -0.16797880945E+03  0.87718976245E+03  0.95121378601E+03  0.46999998093E+01 0. -1.
       -5    1    3    3    0  502 -0.32727177839E+03  0.16797880945E+03 -0.21240453764E+03  0.42480757404E+03  0.46999998093E+01 0.  1.
</event>
<event>
 5   0  0.1647550E-03  0.1200225E+04  0.7818609E-02  0.9112659E-01
        2   -1    0    0  501    0  0.00000000000E+00  0.00000000000E+00  0.12257216978E+04  0.12257216978E+04  0.25500000920E-02 0. -1.
       -2   -1    0    0    0  501  0.00000000000E+00  0.00000000000E+00 -0.29381474619E+03  0.29381474620E+03  0.25500000920E-02 0.  1.
    10030    2    1    2    0    0  0.00000000000E+00  0.00000000000E+00  0.93190695165E+03  0.15195364440E+04  0.12002251615E+04 0.  0.
        3    1    3    3  502    0 -0.85388284612E+02 -0.58219504016E+03  0.61517946420E+03  0.85128609017E+03  0.10100000352E+00 0. -1.
       -3    1    3    3    0  502  0.85388284612E+02  0.58219504016E+03  0.31672748745E+03  0.66825035387E+03  0.10100000352E+00 0.  1.
</event>
<event>
 5   0  0.9170776E-04  0.1185703E+04  0.7818609E-02  0.9125463E-01
       -1   -1    0    0    0  501  0.00000000000E+00  0.00000000000E+00  0.31397203735E+03  0.31397203739E+03  0.50400001928E-02 0. -1.
        1   -1    0    0  501    0  0.00000000000E+00  0.00000000000E+00 -0.11194406689E+04  0.11194406689E+04  0.50400001928E-02 0.  1.
    10030    2    1    2    0    0  0.00000000000E+00  0.00000000000E+00 -0.80546863155E+03  0.14334127063E+04  0.11857032808E+04 0.  0.
        5    1    3    3  502    0  0.40453165626E+03 -0.18514422806E+03 -0.87641669593E+03  0.98287972866E+03  0.46999998093E+01 0.  1.
       -5    1    3    3    0  502 -0.40453165626E+03  0.18514422806E+03  0.70948064381E+02  0.45053297764E+03  0.46999998093E+01 0. -1.
</event>
<event>
 5   0  0.9170776E-04  0.1220167E+04  0.7818609E-02  0.9095386E-01
       -1   -1    0    0    0  501  0.00000000000E+00  0.00000000000E+00  0.56132950853E+03  0.56132950855E+03  0.50400001928E-02 0. -1.
        1   -1    0    0  501    0  0.00000000000E+00  0.00000000000E+00 -0.66307151367E+03  0.66307151369E+03  0.50400001928E-02 0.  1.
    10030    2    1    2    0    0  0.00000000000E+00  0.00000000000E+00 -0.10174200514E+03  0.12244010222E+04  0.12201665573E+04 0.  0.
        5    1    3    3  502    0 -0.17401587947E+02 -0.46438208117E+03  0.34575501636E+03  0.57924274179E+03  0.46999998093E+01 0. -1.
       -5    1    3    3    0  502  0.17401587947E+02  0.46438208117E+03 -0.44749702150E+03  0.64515828045E+03  0.46999998093E+01 0.  1.
</event>
<event>
 5   0  0.1647550E-03  0.1192094E+04  0.7818609E-02  0.9119805E-01
       -2   -1    0    0    0  501  0.00000000000E+00  0.00000000000E+00  0.14626241347E+03  0.14626241349E+03  0.25500000920E-02 0. -1.
        2   -1    0    0  501    0  0.00000000000E+00  0.00000000000E+00 -0.24290035569E+04  0.24290035569E+04  0.25500000920E-02 0.  1.
    10030    2    1    2    0    0  0.00000000000E+00  0.00000000000E+00 -0.22827411434E+04  0.25752659704E+04  0.11920938262E+04 0.  0.
        3    1    3    3  502    0  0.17330734004E+03 -0.32870547764E+03 -0.21481416950E+04  0.21800448337E+04  0.10100000352E+00 0.  1.
       -3    1    3    3    0  502 -0.17330734004E+03  0.32870547764E+03 -0.13459944845E+03  0.39522113667E+03  0.10100000352E+00 0. -1.
</event>
<event>
 5   0  0.1597352E-03  0.1193764E+04  0.7818609E-02  0.9118332E-01
        2   -1    0    0  501    0  0.00000000000E+00  0.00000000000E+00  0.13492288986E+04  0.13492288986E+04  0.25500000920E-02 0.  1.
       -2   -1    0    0    0  501  0.00000000000E+00  0.00000000000E+00 -0.26405331164E+03  0.26405331166E+03  0.25500000920E-02 0. -1.
    10030    2    1    2    0    0  0.00000000000E+00  0.00000000000E+00  0.10851755870E+04  0.16132822103E+04  0.11937643970E+04 0.  0.
        1    1    3    3  502    0 -0.36872696231E+03  0.23870372460E+03  0.10887527069E+04  0.11740193770E+04  0.50400001928E-02 0.  1.
       -1    1    3    3    0  502  0.36872696231E+03 -0.23870372460E+03 -0.35771198977E+01  0.43926283326E+03  0.50400001928E-02 0. -1.
</event>
<event>
 5   0  0.1551501E-03  0.1195402E+04  0.7818609E-02  0.9116890E-01
       -2   -1    0    0    0  501  0.00000000000E+00  0.00000000000E+00  0.25852355125E+03  0.25852355127E+03  0.25500000920E-02 0. -1.
        2   -1    0    0  501    0  0.00000000000E+00  0.00000000000E+00 -0.13818732610E+04  0.13818732610E+04  0.25500000920E-02 0.  1.
    10030    2    1    2    0    0  0.00000000000E+00  0.00000000000E+00 -0.11233497097E+04  0.16403968122E+04  0.11954024976E+04 0.  0.
        4    1    3    3  502    0  0.82075874149E+02 -0.23803161736E+03  0.18219568856E+03  0.31079314955E+03  0.12699999809E+01 0. -1.
       -4    1    3    3    0  502 -0.82075874149E+02  0.23803161736E+03 -0.13055453983E+04  0.13296036627E+04  0.12699999809E+01 0.  1.
</event>
<event>
 5   0  0.9358428E-04  0.1256530E+04  0.7818609E-02  0.9064766E-01
       -1   -1    0    0    0  501  0.00000000000E+00  0.00000000000E+00  0.11540498610E+04  0.11540498610E+04  0.50400001928E-02 0.  1.
        1   -1    0    0  501    0  0.00000000000E+00  0.00000000000E+00 -0.34202760020E+03  0.34202760024E+03  0.50400001928E-02 0. -1.
    10030    2    1    2    0    0  0.00000000000E+00  0.00000000000E+00  0.81202226082E+03  0.14960774613E+04  0.12565299909E+04 0.  0.
        2    1    3    3  502    0  0.59535860378E+03 -0.19589886635E+03  0.45775506423E+03  0.77612365752E+03  0.25500000920E-02 0.  1.
       -2    1    3    3    0  502 -0.59535860378E+03  0.19589886635E+03  0.35426719659E+03  0.71995380375E+03  0.25500000920E-02 0. -1.
</event>
<event>
 5   0  0.1567019E-03  0.1220365E+04  0.7818609E-02  0.9095215E-01
        2   -1    0    0  501    0  0.00000000000E+00  0.00000000000E+00  0.69005639860E+03  0.69005639860E+03  0.25500000920E-02 0. -1.
       -2   -1    0    0    0  501  0.00000000000E+00  0.00000000000E+00 -0.53955417805E+03  0.53955417805E+03  0.25500000920E-02 0.  1.
    10030    2    1    2    0    0  0.00000000000E+00  0.00000000000E+00  0.15050222055E+03  0.12296105767E+04  0.12203652125E+04 0.  0.
        5    1    3    3  502    0  0.53316337588E+02  0.60375862699E+03  0.14602291043E+03  0.62346763499E+03  0.46999998093E+01 0. -1.
       -5    1    3    3    0  502 -0.53316337588E+02 -0.60375862699E+03  0.44793101243E+01  0.60614294167E+03  0.46999998093E+01 0.  1.
</event>
<event>
 5   0  0.8908478E-04  0.1199357E+04  0.7818609E-02  0.9113420E-01
        1   -1    0    0  501    0  0.00000000000E+00  0.00000000000E+00  0.96442161195E+03  0.96442161196E+03  0.50400001928E-02 0. -1.
       -1   -1    0    0    0  501  0.00000000000E+00  0.00000000000E+00 -0.37288063132E+03  0.37288063135E+03  0.50400001928E-02 0.  1.
    10030    2    1    2    0    0  0.00000000000E+00  0.00000000000E+00  0.59154098064E+03  0.13373022433E+04  0.11993567268E+04 0.  0.
        4    1    3    3  502    0 -0.45287283032E+03  0.38042617343E+03  0.40612134983E+03  0.71746361410E+03  0.12699999809E+01 0. -1.
       -4    1    3    3    0  502  0.45287283032E+03 -0.38042617343E+03  0.18541963080E+03  0.61983862921E+03  0.12699999809E+01 0.  1.
</event>
<event>
 5   0  0.1597352E-03  0.1211161E+04  0.7818609E-02  0.9103143E-01
       -2   -1    0    0    0  501  0.00000000000E+00  0.00000000000E+00  0.44632420168E+03  0.44632420168E+03  0.25500000920E-02 0. -1.
        2   -1    0    0  501    0  0.00000000000E+00  0.00000000000E+00 -0.82166178368E+03  0.82166178368E+03  0.25500000920E-02 0.  1.
    10030    2    1    2    0    0  0.00000000000E+00  0.00000000000E+00 -0.37533758200E+03  0.12679859854E+04  0.12111606659E+04 0.  0.
        1    1    3    3  502    0  0.59729957272E+03  0.79556059861E+02 -0.25075890383E+03  0.65266834925E+03  0.50400001928E-02 0.  1.
       -1    1    3    3    0  502 -0.59729957272E+03 -0.79556059861E+02 -0.12457867818E+03  0.61531763612E+03  0.50400001928E-02 0. -1.
</event>
<event>
 5   0  0.1567019E-03  0.1335529E+04  0.7818609E-02  0.9001855E-01
       -2   -1    0    0    0  501  0.00000000000E+00  0.00000000000E+00  0.77604334889E+03  0.77604334889E+03  0.25500000920E-02 0.  1.
        2   -1    0    0  501    0  0.00000000000E+00  0.00000000000E+00 -0.57459379055E+03  0.57459379055E+03  0.25500000920E-02 0. -1.
    10030    2    1    2    0    0  0.00000000000E+00  0.00000000000E+00  0.20144955834E+03  0.13506371394E+04  0.13355293924E+04 0.  0.
        5    1    3    3  502    0 -0.66307439376E+03  0.27088375485E+02  0.25818232122E+02  0.66414614570E+03  0.46999998093E+01 0.  1.
       -5    1    3    3    0  502  0.66307439376E+03 -0.27088375485E+02  0.17563132622E+03  0.68649099374E+03  0.46999998093E+01 0. -1.
</event>
<event>
 5   0  0.1537557E-03  0.1201644E+04  0.7818609E-02  0.9111419E-01
        2   -1    0    0  501    0  0.00000000000E+00  0.00000000000E+00  0.60543832695E+03  0.60543832695E+03  0.25500000920E-02 0.  1.
       -2   -1    0    0    0  501  0.00000000000E+00  0.00000000000E+00 -0.59624058146E+03  0.59624058146E+03  0.25500000920E-02 0. -1.
    10030    2    1    2    0    0  0.00000000000E+00  0.00000000000E+00  0.91977454920E+01  0.12016789084E+04  0.12016437078E+04 0.  0.
        2    1    3    3  502    0  0.24812371085E+03  0.28156457052E+03  0.47380651830E+03  0.60443080667E+03  0.25500000920E-02 0.  1.
       -2    1    3    3    0  502 -0.24812371085E+03 -0.28156457052E+03 -0.46460877281E+03  0.59724810175E+03  0.25500000920E-02 0. -1.
</event>
<event>
 5   0  0.9169078E-04  0.1190817E+04  0.7818609E-02  0.9120933E-01
       -1   -1    0    0    0  501  0.00000000000E+00  0.00000000000E+00  0.10169330682E+04  0.10169330682E+04  0.50400001928E-02 0. -1.
        1   -1    0    0  501    0  0.00000000000E+00  0.00000000000E+00 -0.34860823933E+03  0.34860823937E+03  0.50400001928E-02 0.  1.
    10030    2    1    2    0    0  0.00000000000E+00  0.00000000000E+00  0.66832482887E+03  0.13655413076E+04  0.11908169405E+04 0.  0.
        1    1    3    3  502    0  0.50510745813E+03  0.30960734430E+03  0.26611799503E+03  0.64946827421E+03  0.50400001928E-02 0.  1.
       -1    1    3    3    0  502 -0.50510745813E+03 -0.30960734430E+03  0.40220683384E+03  0.71607303337E+03  0.50400001928E-02 0. -1.
</event>
<event>
 5   0  0.8908478E-04  0.1142880E+04  0.7818609E-02  0.9164377E-01
        1   -1    0    0  501    0  0.00000000000E+00  0.00000000000E+00  0.19735924163E+04  0.19735924163E+04  0.50400001928E-02 0. -1.
       -1   -1    0    0    0  501  0.00000000000E+00  0.00000000000E+00 -0.16545652427E+03  0.16545652435E+03  0.50400001928E-02 0.  1.
    10030    2    1    2    0    0  0.00000000000E+00  0.00000000000E+00  0.18081358921E+04  0.21390489407E+04  0.11428801190E+04 0.  0.
        4    1    3    3  502    0  0.12668784039E+03 -0.55604693412E+03  0.97165756012E+03  0.11266579023E+04  0.12699999809E+01 0. -1.
       -4    1    3    3    0  502 -0.12668784039E+03  0.55604693412E+03  0.83647833195E+03  0.10123910384E+04  0.12699999809E+01 0.  1.
</event>
<event>
 5   0  0.1537557E-03  0.1195547E+04  0.7818609E-02  0.9116763E-01
       -2   -1    0    0    0  501  0.00000000000E+00  0.00000000000E+00  0.16939172713E+03  0.16939172715E+03  0.25500000920E-02 0.  1.
        2   -1    0    0  501    0  0.00000000000E+00  0.00000000000E+00 -0.21095088941E+04  0.21095088941E+04  0.25500000920E-02 0. -1.
    10030    2    1    2    0    0  0.00000000000E+00  0.00000000000E+00 -0.19401171669E+04  0.22789006212E+04  0.11955473307E+04 0.  0.
        2    1    3    3  502    0  0.26024611290E+03  0.30692191506E+03 -0.18126666636E+04  0.18567955016E+04  0.25500000920E-02 0. -1.
       -2    1    3    3    0  502 -0.26024611290E+03 -0.30692191506E+03 -0.12745050329E+03  0.42210511963E+03  0.25500000920E-02 0.  1.
</event>
<event>
 5   0  0.1567019E-03  0.1201240E+04  0.7818609E-02  0.9111772E-01
       -2   -1    0    0    0  501  0.00000000000E+00  0.00000000000E+00  0.40315670486E+03  0.40315670487E+03  0.25500000920E-02 0. -1.
        2   -1    0    0  501    0  0.00000000000E+00  0.00000000000E+00 -0.89479943912E+03  0.89479943913E+03  0.25500000920E-02 0.  1.
    10030    2    1    2    0    0  0.00000000000E+00  0.00000000000E+00 -0.49164273427E+03  0.12979561440E+04  0.12012400150E+04 0.  0.
        5    1    3    3  502    0 -0.17757068810E+03  0.63656776916E+02  0.37029763918E+03  0.41560313533E+03  0.46999998093E+01 0. -1.
       -5    1    3    3    0  502  0.17757068810E+03 -0.63656776916E+02 -0.86194037344E+03  0.88235300866E+03  0.46999998093E+01 0.  1.
</event>
<event>
 5   0  0.8908478E-04  0.1208382E+04  0.7818609E-02  0.9105551E-01
       -1   -1    0    0    0  501  0.00000000000E+00  0.00000000000E+00  0.32099035958E+03  0.32099035962E+03  0.50400001928E-02 0. -1.
        1   -1    0    0  501    0  0.00000000000E+00  0.00000000000E+00 -0.11372511851E+04  0.11372511851E+04  0.50400001928E-02 0.  1.
    10030    2    1    2    0    0  0.00000000000E+00  0.00000000000E+00 -0.81626082556E+03  0.14582415448E+04  0.12083818385E+04 0.  0.
        4    1    3    3  502    0 -0.89471151136E+02  0.20742493421E+03  0.26810884680E+03  0.35059115342E+03  0.12699999809E+01 0. -1.
       -4    1    3    3    0  502  0.89471151136E+02 -0.20742493421E+03 -0.10843696724E+04  0.11076503913E+04  0.12699999809E+01 0.  1.
</event>
<event>
 5   0  0.9358428E-04  0.1207976E+04  0.7818609E-02  0.9105903E-01
       -1   -1    0    0    0  501  0.00000000000E+00  0.00000000000E+00  0.89030470073E+03  0.89030470074E+03  0.50400001928E-02 0. -1.
        1   -1    0    0  501    0  0.00000000000E+00  0.00000000000E+00 -0.40974923794E+03  0.40974923797E+03  0.50400001928E-02 0.  1.
    10030    2    1    2    0    0  0.00000000000E+00  0.00000000000E+00  0.48055546279E+03  0.13000539387E+04  0.12079762790E+04 0.  0.
        2    1    3    3  502    0 -0.27507895996E+03 -0.36624977246E+03  0.66398009674E+03  0.80664546048E+03  0.25500000920E-02 0. -1.
       -2    1    3    3    0  502  0.27507895996E+03  0.36624977246E+03 -0.18342463395E+03  0.49340847823E+03  0.25500000920E-02 0.  1.
</event>
<event>
 5   0  0.1551501E-03  0.1196685E+04  0.7818609E-02  0.9115763E-01
        2   -1    0    0  501    0  0.00000000000E+00  0.00000000000E+00  0.10141030459E+04  0.10141030459E+04  0.25500000920E-02 0.  1.
       -2   -1    0    0    0  501  0.00000000000E+00  0.00000000000E+00 -0.35303487043E+03  0.35303487043E+03  0.25500000920E-02 0. -1.
    10030    2    1    2    0    0  0.00000000000E+00  0.00000000000E+00  0.66106817549E+03  0.13671379164E+04  0.11966849835E+04 0.  0.
        4    1    3    3  502    0  0.39664100322E+03  0.42483484821E+03  0.49291860538E+03  0.76208864190E+03  0.12699999809E+01 0.  1.
       -4    1    3    3    0  502 -0.39664100322E+03 -0.42483484821E+03  0.16814957012E+03  0.60504927446E+03  0.12699999809E+01 0. -1.
</event>
<event>
 5   0  0.9170776E-04  0.1199311E+04  0.7818609E-02  0.9113460E-01
       -1   -1    0    0    0  501  0.00000000000E+00  0.00000000000E+00  0.40402542536E+03  0.40402542539E+03  0.50400001928E-02 0.  1.
        1   -1    0    0  501    0  0.00000000000E+00  0.00000000000E+00 -0.89001040582E+03  0.89001040584E+03  0.50400001928E-02 0. -1.
    10030    2    1    2    0    0  0.00000000000E+00  0.00000000000E+00 -0.48598498046E+03  0.12940358312E+04  0.11993111903E+04 0.  0.
        5    1    3    3  502    0 -0.12670649562E+03  0.25704781206E+03  0.32533192729E+03  0.43357936601E+03  0.46999998093E+01 0.  1.
       -5    1    3    3    0  502  0.12670649562E+03 -0.25704781206E+03 -0.81131690776E+03  0.86045646521E+03  0.46999998093E+01 0. -1.
</event>
<event>
 5   0  0.1551501E-03  0.1198745E+04  0.7818609E-02  0.9113956E-01
       -2   -1    0    0    0  501  0.00000000000E+00  0.00000000000E+00  0.55815357901E+03  0.55815357901E+03  0.25500000920E-02 0.  1.
        2   -1    0    0  501    0  0.00000000000E+00  0.00000000000E+00 -0.64363517396E+03  0.64363517397E+03  0.25500000920E-02 0. -1.
    10030    2    1    2    0    0  0.00000000000E+00  0.00000000000E+00 -0.85481594955E+02  0.12017887530E+04  0.11987448034E+04 0.  0.
        4    1    3    3  502    0 -0.47008287909E+03  0.34191553561E+03  0.10378612781E+03  0.59047211613E+03  0.12699999809E+01 0.  1.
       -4    1    3    3    0  502  0.47008287909E+03 -0.34191553561E+03 -0.18926772276E+03  0.61131663685E+03  0.12699999809E+01 0. -1.
</event>
<event>
 5   0  0.1551501E-03  0.1270120E+04  0.7818609E-02  0.9053602E-01
       -2   -1    0    0    0  501  0.00000000000E+00  0.00000000000E+00  0.25544355543E+03  0.25544355544E+03  0.25500000920E-02 0. -1.
        2   -1    0    0  501    0  0.00000000000E+00  0.00000000000E+00 -0.15788276827E+04  0.15788276827E+04  0.25500000920E-02 0.  1.
    10030    2    1    2    0    0  0.00000000000E+00  0.00000000000E+00 -0.13233841273E+04  0.18342712382E+04  0.12701202411E+04 0.  0.
        4    1    3    3  502    0  0.46282107309E+02  0.59902888424E+03 -0.95879186083E+03  0.11314862274E+04  0.12699999809E+01 0.  1.
       -4    1    3    3    0  502 -0.46282107309E+02 -0.59902888424E+03 -0.36459226645E+03  0.70278501070E+03  0.12699999809E+01 0. -1.
</event>
<event>
 5   0  0.1647550E-03  0.1198438E+04  0.7818609E-02  0.9114225E-01
        2   -1    0    0  501    0  0.00000000000E+00  0.00000000000E+00  0.74670093107E+03  0.74670093107E+03  0.25500000920E-02 0. -1.
       -2   -1    0    0    0  501  0.00000000000E+00  0.00000000000E+00 -0.48086639729E+03  0.48086639730E+03  0.25500000920E-02 0.  1.
    10030    2    1    2    0    0  0.00000000000E+00  0.00000000000E+00  0.26583453378E+03  0.12275673284E+04  0.11984379610E+04 0.  0.
        3    1    3    3  502    0  0.44115663027E+03 -0.13775734799E+03  0.52358917171E+03  0.69838520194E+03  0.10100000352E+00 0. -1.
       -3    1    3    3    0  502 -0.44115663027E+03  0.13775734799E+03 -0.25775463794E+03  0.52918212643E+03  0.10100000352E+00 0.  1.
</event>
<event>
 5   0  0.9358428E-04  0.1190304E+04  0.7818609E-02  0.9121386E-01
        1   -1    0    0  501    0  0.00000000000E+00  0.00000000000E+00  0.74305685141E+03  0.74305685142E+03  0.50400001928E-02 0.  1.
       -1   -1    0    0    0  501  0.00000000000E+00  0.00000000000E+00 -0.47668717433E+03  0.47668717436E+03  0.50400001928E-02 0. -1.
    10030    2    1    2    0    0  0.00000000000E+00  0.00000000000E+00  0.26636967707E+03  0.12197440258E+04  0.11903036098E+04 0.  0.
        2    1    3    3  502    0 -0.13708344559E+03  0.36150924914E+03 -0.33047154467E+03  0.50861798052E+03  0.25500000920E-02 0.  1.
       -2    1    3    3    0  502  0.13708344559E+03 -0.36150924914E+03  0.59684122174E+03  0.71112604526E+03  0.25500000920E-02 0. -1.
</event>
<event>
 5   0  0.8908478E-04  0.1194500E+04  0.7818609E-02  0.9117685E-01
        1   -1    0    0  501    0  0.00000000000E+00  0.00000000000E+00  0.14443607313E+04  0.14443607313E+04  0.50400001928E-02 0.  1.
       -1   -1    0    0    0  501  0.00000000000E+00  0.00000000000E+00 -0.24696559900E+03  0.24696559905E+03  0.50400001928E-02 0. -1.
    10030    2    1    2    0    0  0.00000000000E+00  0.00000000000E+00  0.11973951323E+04  0.16913263304E+04  0.11944997501E+04 0.  0.
        4    1    3    3  502    0  0.31038478873E+03 -0.12374968608E+03  0.12996223975E+04  0.13418914602E+04  0.12699999809E+01 0.  1.
       -4    1    3    3    0  502 -0.31038478873E+03  0.12374968608E+03 -0.10222726517E+03  0.34943487022E+03  0.12699999809E+01 0. -1.
</event>
<event>
 5   0  0.9170776E-04  0.1200015E+04  0.7818609E-02  0.9112843E-01
       -1   -1    0    0    0  501  0.00000000000E+00  0.00000000000E+00  0.82478361098E+03  0.82478361100E+03  0.50400001928E-02 0.  1.
        1   -1    0    0  501    0  0.00000000000E+00  0.00000000000E+00 -0.43648936761E+03  0.43648936764E+03  0.50400001928E-02 0. -1.
    10030    2    1    2    0    0  0.00000000000E+00  0.00000000000E+00  0.38829424337E+03  0.12612729786E+04  0.12000154612E+04 0.  0.
        5    1    3    3  502    0 -0.49766337796E+03  0.20749699257E+03  0.47076101371E+03  0.71579456670E+03  0.46999998093E+01 0.  1.
       -5    1    3    3    0  502  0.49766337796E+03 -0.20749699257E+03 -0.82466770340E+02  0.54547841194E+03  0.46999998093E+01 0. -1.
</event>
<event>
 5   0  0.1597352E-03  0.1196874E+04  0.7818609E-02  0.9115597E-01
        2   -1    0    0  501    0  0.00000000000E+00  0.00000000000E+00  0.43908464450E+03  0.43908464451E+03  0.25500000920E-02 0. -1.
       -2   -1    0    0    0  501  0.00000000000E+00  0.00000000000E+00 -0.81562148194E+03  0.81562148195E+03  0.25500000920E-02 0.  1.
    10030    2    1    2    0    0  0.00000000000E+00  0.00000000000E+00 -0.37653683744E+03  0.12547061265E+04  0.11968740426E+04 0.  0.
        1    1    3    3  502    0 -0.39777693901E+03  0.10374505565E+03 -0.64418166150E+03  0.76417245620E+03  0.50400001928E-02 0.  1.
       -1    1    3    3    0  502  0.39777693901E+03 -0.10374505565E+03  0.26764482405E+03  0.49053367025E+03  0.50400001928E-02 0. -1.
</event>
<event>
 5   0  0.1567019E-03  0.1200189E+04  0.7818609E-02  0.9112691E-01
        2   -1    0    0  501    0  0.00000000000E+00  0.00000000000E+00  0.98229170948E+03  0.98229170948E+03  0.25500000920E-02 0. -1.
       -2   -1    0    0    0  501  0.00000000000E+00  0.00000000000E+00 -0.36660519959E+03  0.36660519960E+03  0.25500000920E-02 0.  1.
    10030    2    1    2    0    0  0.00000000000E+00  0.00000000000E+00  0.61568650988E+03  0.13488969091E+04  0.12001887322E+04 0.  0.
        5    1    3    3  502    0  0.54668028541E+03  0.51937253966E+02  0.57975915127E+03  0.79856094087E+03  0.46999998093E+01 0. -1.
       -5    1    3    3    0  502 -0.54668028541E+03 -0.51937253966E+02  0.35927358616E+02  0.55033596821E+03  0.46999998093E+01 0.  1.
</event>
<event>
 5   0  0.1551501E-03  0.1201239E+04  0.7818609E-02  0.9111773E-01
        2   -1    0    0  501    0  0.00000000000E+00  0.00000000000E+00  0.11960792789E+04  0.11960792789E+04  0.25500000920E-02 0.  1.
       -2   -1    0    0    0  501  0.00000000000E+00  0.00000000000E+00 -0.30160518950E+03  0.30160518951E+03  0.25500000920E-02 0. -1.
    10030    2    1    2    0    0  0.00000000000E+00  0.00000000000E+00  0.89447408940E+03  0.14976844684E+04  0.12012388898E+04 0.  0.
        4    1    3    3  502    0 -0.57674926756E+03  0.85800107145E+02  0.26767979397E+03  0.64160381936E+03  0.12699999809E+01 0. -1.
       -4    1    3    3    0  502  0.57674926756E+03 -0.85800107145E+02  0.62679429543E+03  0.85608064906E+03  0.12699999809E+01 0.  1.
</event>
<event>
 5   0  0.9170776E-04  0.1200435E+04  0.7818609E-02  0.9112476E-01
       -1   -1    0    0    0  501  0.00000000000E+00  0.00000000000E+00  0.12568628257E+04  0.12568628257E+04  0.50400001928E-02 0.  1.
        1   -1    0    0  501    0  0.00000000000E+00  0.00000000000E+00 -0.28663517847E+03  0.28663517851E+03  0.50400001928E-02 0. -1.
    10030    2    1    2    0    0  0.00000000000E+00  0.00000000000E+00  0.97022764720E+03  0.15434980042E+04  0.12004350884E+04 0.  0.
        5    1    3    3  502    0  0.43236067210E+03 -0.38544419175E+03  0.68733770015E+03  0.89886493968E+03  0.46999998093E+01 0.  1.
       -5    1    3    3    0  502 -0.43236067210E+03  0.38544419175E+03  0.28288994705E+03  0.64463306452E+03  0.46999998093E+01 0. -1.
</event>
<event>
 5   0  0.9169078E-04  0.1190026E+04  0.7818609E-02  0.9121631E-01
       -1   -1    0    0    0  501  0.00000000000E+00  0.00000000000E+00  0.34782153670E+03  0.34782153673E+03  0.50400001928E-02 0. -1.
        1   -1    0    0  501    0  0.00000000000E+00  0.00000000000E+00 -0.10178803280E+04  0.10178803280E+04  0.50400001928E-02 0.  1.
    10030    2    1    2    0    0  0.00000000000E+00  0.00000000000E+00 -0.67005879129E+03  0.13657018647E+04  0.11900263861E+04 0.  0.
        1    1    3    3  502    0 -0.73702053051E+02  0.68205749480E+02 -0.10080853760E+04  0.10130745985E+04  0.50400001928E-02 0.  1.
       -1    1    3    3    0  502  0.73702053051E+02 -0.68205749480E+02  0.33802658469E+03  0.35262726620E+03  0.50400001928E-02 0. -1.
</event>
<event>
 5   0  0.6137750E-04  0.1198318E+04  0.7818609E-02  0.9114330E-01
       -4   -1    0    0    0  501  0.00000000000E+00  0.00000000000E+00  0.83538566467E+03  0.83538663003E+03  0.12699999809E+01 0. -1.
        4   -1    0    0  501    0  0.00000000000E+00  0.00000000000E+00 -0.42972958843E+03  0.42973146508E+03  0.12699999809E+01 0.  1.
    10030    2    1    2    0    0  0.00000000000E+00  0.00000000000E+00  0.40565607624E+03  0.12651180951E+04  0.11983183811E+04 0.  0.
        5    1    3    3  502    0 -0.29956700498E+02  0.61905988235E+02 -0.42553058425E+03  0.43107786236E+03  0.46999998093E+01 0.  1.
       -5    1    3    3    0  502  0.29956700498E+02 -0.61905988235E+02  0.83118666049E+03  0.83404023275E+03  0.46999998093E+01 0. -1.
</event>
<event>
 5   0  0.9358428E-04  0.1210413E+04  0.7818609E-02  0.9103790E-01
       -1   -1    0    0    0  501  0.00000000000E+00  0.00000000000E+00  0.52170793318E+03  0.52170793321E+03  0.50400001928E-02 0. -1.
        1   -1    0    0  501    0  0.00000000000E+00  0.00000000000E+00 -0.70206942110E+03  0.70206942111E+03  0.50400001928E-02 0.  1.
    10030    2    1    2    0    0  0.00000000000E+00  0.00000000000E+00 -0.18036148791E+03  0.12237773543E+04  0.12104134610E+04 0.  0.
        2    1    3    3  502    0  0.57470500786E+03  0.12709609079E+03  0.52214304840E+02  0.59090235740E+03  0.25500000920E-02 0.  1.
       -2    1    3    3    0  502 -0.57470500786E+03 -0.12709609079E+03 -0.23257579275E+03  0.63287499692E+03  0.25500000920E-02 0. -1.
</event>
<event>
 5   0  0.9208078E-04  0.1200002E+04  0.7818609E-02  0.9112855E-01
        1   -1    0    0  501    0  0.00000000000E+00  0.00000000000E+00  0.61692513835E+03  0.61692513837E+03  0.50400001928E-02 0. -1.
       -1   -1    0    0    0  501  0.00000000000E+00  0.00000000000E+00 -0.58354069669E+03  0.58354069672E+03  0.50400001928E-02 0.  1.
    10030    2    1    2    0    0  0.00000000000E+00  0.00000000000E+00  0.33384441651E+02  0.12004658351E+04  0.12000015418E+04 0.  0.
        3    1    3    3  502    0 -0.10465894791E+03  0.25736446007E+02  0.60716211398E+03  0.61665363283E+03  0.10100000352E+00 0. -1.
       -3    1    3    3    0  502  0.10465894791E+03 -0.25736446007E+02 -0.57377767233E+03  0.58381220225E+03  0.10100000352E+00 0.  1.
</event>
<event>
 5   0  0.1597352E-03  0.1194330E+04  0.7818609E-02  0.9117834E-01
       -2   -1    0    0    0  501  0.00000000000E+00  0.00000000000E+00  0.57980635208E+03  0.57980635209E+03  0.25500000920E-02 0.  1.
        2   -1    0    0  501    0  0.00000000000E+00  0.00000000000E+00 -0.61504334961E+03  0.61504334962E+03  0.25500000920E-02 0. -1.
    10030    2    1    2    0    0  0.00000000000E+00  0.00000000000E+00 -0.35236997531E+02  0.11948497017E+04  0.11943300062E+04 0.  0.
        1    1    3    3  502    0 -0.95041826583E+02  0.22637183806E+03  0.52697935804E+03  0.58136425904E+03  0.50400001928E-02 0.  1.
       -1    1    3    3    0  502  0.95041826583E+02 -0.22637183806E+03 -0.56221635557E+03  0.61348544267E+03  0.50400001928E-02 0. -1.
</event>
<event>
 5   0  0.9358428E-04  0.1194561E+04  0.7818609E-02  0.9117631E-01
        1   -1    0    0  501    0  0.00000000000E+00  0.00000000000E+00  0.31592396933E+03  0.31592396937E+03  0.50400001928E-02 0. -1.
       -1   -1    0    0    0  501  0.00000000000E+00  0.00000000000E+00 -0.11292081055E+04  0.11292081055E+04  0.50400001928E-02 0.  1.
    10030    2    1    2    0    0  0.00000000000E+00  0.00000000000E+00 -0.81328413618E+03  0.14451320749E+04  0.11945608514E+04 0.  0.
        2    1    3    3  502    0  0.24711419652E+03  0.45106646633E+03 -0.39270120442E+02  0.51581830671E+03  0.25500000920E-02 0. -1.
       -2    1    3    3    0  502 -0.24711419652E+03 -0.45106646633E+03 -0.77401401574E+03  0.92931376819E+03  0.25500000920E-02 0.  1.
</event>
<event>
 5   0  0.8908478E-04  0.1195645E+04  0.7818609E-02  0.9116677E-01
       -1   -1    0    0    0  501  0.00000000000E+00  0.00000000000E+00  0.27810345154E+03  0.27810345159E+03  0.50400001928E-02 0.  1.
        1   -1    0    0  501    0  0.00000000000E+00  0.00000000000E+00 -0.12851040269E+04  0.12851040269E+04  0.50400001928E-02 0. -1.
    10030    2    1    2    0    0  0.00000000000E+00  0.00000000000E+00 -0.10070005754E+04  0.15632074785E+04  0.11956452074E+04 0.  0.
        4    1    3    3  502    0  0.48967171598E+03 -0.13105523251E+03 -0.91784313126E+03  0.10485187122E+04  0.12699999809E+01 0. -1.
       -4    1    3    3    0  502 -0.48967171598E+03  0.13105523251E+03 -0.89157444118E+02  0.51468876629E+03  0.12699999809E+01 0.  1.
</event>
<event>
 5   0  0.1551501E-03  0.1195977E+04  0.7818609E-02  0.9116385E-01
       -2   -1    0    0    0  501  0.00000000000E+00  0.00000000000E+00  0.17609684430E+03  0.17609684432E+03  0.25500000920E-02 0. -1.
        2   -1    0    0  501    0  0.00000000000E+00  0.00000000000E+00 -0.20306451189E+04  0.20306451189E+04  0.25500000920E-02 0.  1.
    10030    2    1    2    0    0  0.00000000000E+00  0.00000000000E+00 -0.18545482746E+04  0.22067419632E+04  0.11959769184E+04 0.  0.
        4    1    3    3  502    0 -0.40868918863E+02  0.52338583723E+03 -0.39895359712E+03  0.65936984212E+03  0.12699999809E+01 0. -1.
       -4    1    3    3    0  502  0.40868918863E+02 -0.52338583723E+03 -0.14555946775E+04  0.15473721211E+04  0.12699999809E+01 0.  1.
</event>
<event>
 5   0  0.9170776E-04  0.1220151E+04  0.7818609E-02  0.9095399E-01
        1   -1    0    0  501    0  0.00000000000E+00  0.00000000000E+00  0.99153135024E+03  0.99153135026E+03  0.50400001928E-02 0. -1.
       -1   -1    0    0    0  501  0.00000000000E+00  0.00000000000E+00 -0.37537098410E+03  0.37537098413E+03  0.50400001928E-02 0.  1.
    10030    2    1    2    0    0  0.00000000000E+00  0.00000000000E+00  0.61616036614E+03  0.13669023344E+04  0.12201509722E+04 0.  0.
        5    1    3    3  502    0 -0.57426450445E+03 -0.18702676299E+03  0.40452312616E+03  0.72692487972E+03  0.46999998093E+01 0. -1.
       -5    1    3    3    0  502  0.57426450445E+03  0.18702676299E+03  0.21163723998E+03  0.63997745468E+03  0.46999998093E+01 0.  1.
</event>
<event>
 5   0  0.9170776E-04  0.1208435E+04  0.7818609E-02  0.9105505E-01
       -1   -1    0    0    0  501  0.00000000000E+00  0.00000000000E+00  0.32559836559E+03  0.32559836563E+03  0.50400001928E-02 0. -1.
        1   -1    0    0  501    0  0.00000000000E+00  0.00000000000E+00 -0.11212551730E+04  0.11212551730E+04  0.50400001928E-02 0.  1.
    10030    2    1    2    0    0  0.00000000000E+00  0.00000000000E+00 -0.79565680742E+03  0.14468535387E+04  0.12084351067E+04 0.  0.
        5    1    3    3  502    0 -0.50117446972E+03  0.22728214445E+03 -0.99166870001E+02  0.55918617686E+03  0.46999998093E+01 0. -1.
       -5    1    3    3    0  502  0.50117446972E+03 -0.22728214445E+03 -0.69648993742E+03  0.88766736180E+03  0.46999998093E+01 0.  1.
</event>
<event>
 5   0  0.9358428E-04  0.1206413E+04  0.7818609E-02  0.9107262E-01
       -1   -1    0    0    0  501  0.00000000000E+00  0.00000000000E+00  0.31702769872E+03  0.31702769876E+03  0.50400001928E-02 0.  1.
        1   -1    0    0  501    0  0.00000000000E+00  0.00000000000E+00 -0.11477167818E+04  0.11477167818E+04  0.50400001928E-02 0. -1.
    10030    2    1    2    0    0  0.00000000000E+00  0.00000000000E+00 -0.83068908305E+03  0.14647444805E+04  0.12064128815E+04 0.  0.
        2    1    3    3  502    0 -0.27279255364E+03 -0.31378411788E+03 -0.94593794978E+03  0.10332835307E+04  0.25500000920E-02 0. -1.
       -2    1    3    3    0  502  0.27279255364E+03  0.31378411788E+03  0.11524886673E+03  0.43146094984E+03  0.25500000920E-02 0.  1.
</event>
<event>
 5   0  0.1597352E-03  0.1171794E+04  0.7818609E-02  0.9137910E-01
        2   -1    0    0  501    0  0.00000000000E+00  0.00000000000E+00  0.65175363801E+03  0.65175363801E+03  0.25500000920E-02 0. -1.
       -2   -1    0    0    0  501  0.00000000000E+00  0.00000000000E+00 -0.52669477356E+03  0.52669477357E+03  0.25500000920E-02 0.  1.
    10030    2    1    2    0    0  0.00000000000E+00  0.00000000000E+00  0.12505886445E+03  0.11784484116E+04  0.11717938979E+04 0.  0.
        1    1    3    3  502    0 -0.32165114030E+03  0.41995985440E+03 -0.19079287989E+03  0.56234122951E+03  0.50400001928E-02 0.  1.
       -1    1    3    3    0  502  0.32165114030E+03 -0.41995985440E+03  0.31585174434E+03  0.61610718207E+03  0.50400001928E-02 0. -1.
</event>
<event>
 5   0  0.9358428E-04  0.1202570E+04  0.7818609E-02  0.9110610E-01
        1   -1    0    0  501    0  0.00000000000E+00  0.00000000000E+00  0.50400865491E+03  0.50400865493E+03  0.50400001928E-02 0. -1.
       -1   -1    0    0    0  501  0.00000000000E+00  0.00000000000E+00 -0.71733649670E+03  0.71733649672E+03  0.50400001928E-02 0.  1.
    10030    2    1    2    0    0  0.00000000000E+00  0.00000000000E+00 -0.21332784179E+03  0.12213451517E+04  0.12025702522E+04 0.  0.
        2    1    3    3  502    0 -0.56086408060E+03  0.19597229115E+03 -0.20068432047E+03  0.62709477138E+03  0.25500000920E-02 0.  1.
       -2    1    3    3    0  502  0.56086408060E+03 -0.19597229115E+03 -0.12643521319E+02  0.59425038027E+03  0.25500000920E-02 0. -1.
</event>
<event>
 5   0  0.1597352E-03  0.1196990E+04  0.7818609E-02  0.9115496E-01
       -2   -1    0    0    0  501  0.00000000000E+00  0.00000000000E+00  0.31099902618E+03  0.31099902619E+03  0.25500000920E-02 0. -1.
        2   -1    0    0  501    0  0.00000000000E+00  0.00000000000E+00 -0.11517593654E+04  0.11517593654E+04  0.25500000920E-02 0.  1.
    10030    2    1    2    0    0  0.00000000000E+00  0.00000000000E+00 -0.84076033921E+03  0.14627583916E+04  0.11969896257E+04 0.  0.
        1    1    3    3  502    0 -0.28594217821E+03 -0.24432997728E+03 -0.98929559950E+03  0.10583788784E+04  0.50400001928E-02 0.  1.
       -1    1    3    3    0  502  0.28594217821E+03  0.24432997728E+03  0.14853526029E+03  0.40437951315E+03  0.50400001928E-02 0. -1.
</event>
<event>
 5   0  0.1647550E-03  0.1183832E+04  0.7818609E-02  0.9127127E-01
        2   -1    0    0  501    0  0.00000000000E+00  0.00000000000E+00  0.11745644908E+04  0.11745644908E+04  0.25500000920E-02 0.  1.
       -2   -1    0    0    0  501  0.00000000000E+00  0.00000000000E+00 -0.29829331150E+03  0.29829331151E+03  0.25500000920E-02 0. -1.
    10030    2    1    2    0    0  0.00000000000E+00  0.00000000000E+00  0.87627117932E+03  0.14728578023E+04  0.11838323049E+04 0.  0.
        3    1    3    3  502    0  0.33935057302E+02  0.56536623794E+03  0.22417845654E+03  0.60913591397E+03  0.10100000352E+00 0.  1.
       -3    1    3    3    0  502 -0.33935057302E+02 -0.56536623794E+03  0.65209272278E+03  0.86372188835E+03  0.10100000352E+00 0. -1.
</event>
<event>
 5   0  0.1647550E-03  0.1209292E+04  0.7818609E-02  0.9104762E-01
        2   -1    0    0  501    0  0.00000000000E+00  0.00000000000E+00  0.58844940012E+03  0.58844940013E+03  0.25500000920E-02 0.  1.
       -2   -1    0    0    0  501  0.00000000000E+00  0.00000000000E+00 -0.62128864354E+03  0.62128864355E+03  0.25500000920E-02 0. -1.
    10030    2    1    2    0    0  0.00000000000E+00  0.00000000000E+00 -0.32839243418E+02  0.12097380437E+04  0.12092922386E+04 0.  0.
        3    1    3    3  502    0 -0.57259352337E+03 -0.73357309457E+02 -0.19635332964E+03  0.60975345683E+03  0.10100000352E+00 0. -1.
       -3    1    3    3    0  502  0.57259352337E+03  0.73357309457E+02  0.16351408623E+03  0.59998458684E+03  0.10100000352E+00 0.  1.
</event>
<event>
 5   0  0.9169078E-04  0.1198040E+04  0.7818609E-02  0.9114574E-01
       -1   -1    0    0    0  501  0.00000000000E+00  0.00000000000E+00  0.58662652912E+03  0.58662652914E+03  0.50400001928E-02 0. -1.
        1   -1    0    0  501    0  0.00000000000E+00  0.00000000000E+00 -0.61167526511E+03  0.61167526513E+03  0.50400001928E-02 0.  1.
    10030    2    1    2    0    0  0.00000000000E+00  0.00000000000E+00 -0.25048735989E+02  0.11983017943E+04  0.11980399622E+04 0.  0.
        1    1    3    3  502    0  0.51244896684E+03  0.33265740218E+02 -0.32099797099E+03  0.60559908396E+03  0.50400001928E-02 0.  1.
       -1    1    3    3    0  502 -0.51244896684E+03 -0.33265740218E+02  0.29594923500E+03  0.59270271031E+03  0.50400001928E-02 0. -1.
</event>
<event>
 5   0  0.9170776E-04  0.1195913E+04  0.7818609E-02  0.9116441E-01
       -1   -1    0    0    0  501  0.00000000000E+00  0.00000000000E+00  0.90991007674E+03  0.90991007675E+03  0.50400001928E-02 0.  1.
        1   -1    0    0  501    0  0.00000000000E+00  0.00000000000E+00 -0.39295308697E+03  0.39295308700E+03  0.50400001928E-02 0. -1.
    10030    2    1    2    0    0  0.00000000000E+00  0.00000000000E+00  0.51695698976E+03  0.13028631638E+04  0.11959129961E+04 0.  0.
        5    1    3    3  502    0 -0.14401352065E+03 -0.58029904900E+03  0.26562262488E+03  0.65426626785E+03  0.46999998093E+01 0.  1.
       -5    1    3    3    0  502  0.14401352065E+03  0.58029904900E+03  0.25133436489E+03  0.64859689590E+03  0.46999998093E+01 0. -1.
</event>
<event>
 5   0  0.1647550E-03  0.1207198E+04  0.7818609E-02  0.9106579E-01
        2   -1    0    0  501    0  0.00000000000E+00  0.00000000000E+00  0.15053246839E+04  0.15053246839E+04  0.25500000920E-02 0. -1.
       -2   -1    0    0    0  501  0.00000000000E+00  0.00000000000E+00 -0.24202868708E+03  0.24202868710E+03  0.25500000920E-02 0.  1.
    10030    2    1    2    0    0  0.00000000000E+00  0.00000000000E+00  0.12632959968E+04  0.17473533710E+04  0.12071980068E+04 0.  0.
        3    1    3    3  502    0  0.36443699727E+03 -0.50429058328E+02  0.13242689626E+04  0.13744255929E+04  0.10100000352E+00 0. -1.
       -3    1    3    3    0  502 -0.36443699727E+03  0.50429058328E+02 -0.60972965802E+02  0.37292777808E+03  0.10100000352E+00 0.  1.
</event>
<event>
 5   0  0.9170776E-04  0.1197455E+04  0.7818609E-02  0.9115087E-01
        1   -1    0    0  501    0  0.00000000000E+00  0.00000000000E+00  0.52847891719E+03  0.52847891721E+03  0.50400001928E-02 0.  1.
       -1   -1    0    0    0  501  0.00000000000E+00  0.00000000000E+00 -0.67831439116E+03  0.67831439118E+03  0.50400001928E-02 0. -1.
    10030    2    1    2    0    0  0.00000000000E+00  0.00000000000E+00 -0.14983547397E+03  0.12067933084E+04  0.11974553937E+04 0.  0.
        5    1    3    3  502    0  0.42070073450E+03  0.41236826896E+03 -0.18259693618E+03  0.61676610507E+03  0.46999998093E+01 0. -1.
       -5    1    3    3    0  502 -0.42070073450E+03 -0.41236826896E+03  0.32761462202E+02  0.59002720332E+03  0.46999998093E+01 0.  1.
</event>
<event>
 5   0  0.1537557E-03  0.1208491E+04  0.7818609E-02  0.9105456E-01
       -2   -1    0    0    0  501  0.00000000000E+00  0.00000000000E+00  0.37465220375E+03  0.37465220376E+03  0.25500000920E-02 0. -1.
        2   -1    0    0  501    0  0.00000000000E+00  0.00000000000E+00 -0.97453808838E+03  0.97453808838E+03  0.25500000920E-02 0.  1.
    10030    2    1    2    0    0  0.00000000000E+00  0.00000000000E+00 -0.59988588462E+03  0.13491902921E+04  0.12084913611E+04 0.  0.
        2    1    3    3  502    0  0.12196576702E+03 -0.32049195478E+03 -0.85538229848E+03  0.92155825533E+03  0.25500000920E-02 0.  1.
       -2    1    3    3    0  502 -0.12196576702E+03  0.32049195478E+03  0.25549641386E+03  0.42763203681E+03  0.25500000920E-02 0. -1.
</event>
<event>
 5   0  0.9169078E-04  0.1206302E+04  0.7818609E-02  0.9107358E-01
        1   -1    0    0  501    0  0.00000000000E+00  0.00000000000E+00  0.46162957538E+03  0.46162957540E+03  0.50400001928E-02 0.  1.
       -1   -1    0    0    0  501  0.00000000000E+00  0.00000000000E+00 -0.78805817860E+03  0.78805817862E+03  0.50400001928E-02 0. -1.
    10030    2    1    2    0    0  0.00000000000E+00  0.00000000000E+00 -0.32642860323E+03  0.12496877540E+04  0.12063017241E+04 0.  0.
        1    1    3    3  502    0  0.18479008344E+03 -0.33611347505E+03  0.31900687617E+03  0.49888378418E+03  0.50400001928E-02 0.  1.
       -1    1    3    3    0  502 -0.18479008344E+03  0.33611347505E+03 -0.64543547940E+03  0.75080396985E+03  0.50400001928E-02 0. -1.
</event>
<event>
 5   0  0.9169078E-04  0.1198177E+04  0.7818609E-02  0.9114454E-01
       -1   -1    0    0    0  501  0.00000000000E+00  0.00000000000E+00  0.37669841990E+03  0.37669841993E+03  0.50400001928E-02 0.  1.
        1   -1    0    0  501    0  0.00000000000E+00  0.00000000000E+00 -0.95277036932E+03  0.95277036933E+03  0.50400001928E-02 0. -1.
    10030    2    1    2    0    0  0.00000000000E+00  0.00000000000E+00 -0.57607194942E+03  0.13294687893E+04  0.11981771032E+04 0.  0.
        1    1    3    3  502    0  0.37233382057E+03  0.42018543419E+02  0.23063489259E+03  0.43998918809E+03  0.50400001928E-02 0.  1.
       -1    1    3    3    0  502 -0.37233382057E+03 -0.42018543419E+02 -0.80670684201E+03  0.88947960117E+03  0.50400001928E-02 0. -1.
</event>
<event>
 5   0  0.9358428E-04  0.1214846E+04  0.7818609E-02  0.9099960E-01
       -1   -1    0    0    0  501  0.00000000000E+00  0.00000000000E+00  0.19774604058E+03  0.19774604064E+03  0.50400001928E-02 0. -1.
        1   -1    0    0  501    0  0.00000000000E+00  0.00000000000E+00 -0.18658403268E+04  0.18658403268E+04  0.50400001928E-02 0.  1.
    10030    2    1    2    0    0  0.00000000000E+00  0.00000000000E+00 -0.16680942863E+04  0.20635863675E+04  0.12148457302E+04 0.  0.
        2    1    3    3  502    0 -0.15524320913E+03 -0.36280865968E+03 -0.16184292309E+04  0.16658462573E+04  0.25500000920E-02 0.  1.
       -2    1    3    3    0  502  0.15524320913E+03  0.36280865968E+03 -0.49665055356E+02  0.39774011019E+03  0.25500000920E-02 0. -1.
</event>
<event>
 5   0  0.1551501E-03  0.1203301E+04  0.7818609E-02  0.9109972E-01
       -2   -1    0    0    0  501  0.00000000000E+00  0.00000000000E+00  0.29063280543E+03  0.29063280544E+03  0.25500000920E-02 0.  1.
        2   -1    0    0  501    0  0.00000000000E+00  0.00000000000E+00 -0.12455005802E+04  0.12455005802E+04  0.25500000920E-02 0. -1.
    10030    2    1    2    0    0  0.00000000000E+00  0.00000000000E+00 -0.95486777475E+03  0.15361333856E+04  0.12033010061E+04 0.  0.
        4    1    3    3  502    0  0.11923994312E+03  0.69290234993E+02  0.27018095016E+03  0.30334577537E+03  0.12699999809E+01 0.  1.
       -4    1    3    3    0  502 -0.11923994312E+03 -0.69290234993E+02 -0.12250487249E+04  0.12327876103E+04  0.12699999809E+01 0. -1.
</event>
<event>
 5   0  0.9208078E-04  0.1218899E+04  0.7818609E-02  0.9096473E-01
       -1   -1    0    0    0  501  0.00000000000E+00  0.00000000000E+00  0.55485601864E+03  0.55485601866E+03  0.50400001928E-02 0. -1.
        1   -1    0    0  501    0  0.00000000000E+00  0.00000000000E+00 -0.66941488013E+03  0.66941488015E+03  0.50400001928E-02 0.  1.
    10030    2    1    2    0    0  0.00000000000E+00  0.00000000000E+00 -0.11455886150E+03  0.12242708988E+04  0.12188992989E+04 0.  0.
        3    1    3    3  502    0 -0.90469721463E+02  0.57317339111E+03 -0.24442380649E+03  0.62964713464E+03  0.10100000352E+00 0.  1.
       -3    1    3    3    0  502  0.90469721463E+02 -0.57317339111E+03  0.12986494500E+03  0.59462376417E+03  0.10100000352E+00 0. -1.
</event>
<event>
 5   0  0.9170776E-04  0.1206336E+04  0.7818609E-02  0.9107329E-01
        1   -1    0    0  501    0  0.00000000000E+00  0.00000000000E+00  0.13789992175E+04  0.13789992175E+04  0.50400001928E-02 0. -1.
       -1   -1    0    0    0  501  0.00000000000E+00  0.00000000000E+00 -0.26382291608E+03  0.26382291613E+03  0.50400001928E-02 0.  1.
    10030    2    1    2    0    0  0.00000000000E+00  0.00000000000E+00  0.11151763014E+04  0.16428221336E+04  0.12063359314E+04 0.  0.
        5    1    3    3  502    0 -0.10814123200E+03 -0.54283354642E+03  0.88393489646E+03  0.10429409266E+04  0.46999998093E+01 0. -1.
       -5    1    3    3    0  502  0.10814123200E+03  0.54283354642E+03  0.23124140494E+03  0.59988120702E+03  0.46999998093E+01 0.  1.
</event>
<event>
 5   0  0.9358428E-04  0.1202243E+04  0.7818609E-02  0.9110896E-01
        1   -1    0    0  501    0  0.00000000000E+00  0.00000000000E+00  0.30371457176E+03  0.30371457181E+03  0.50400001928E-02 0.  1.
       -1   -1    0    0    0  501  0.00000000000E+00  0.00000000000E+00 -0.11897583569E+04  0.11897583569E+04  0.50400001928E-02 0. -1.
    10030    2    1    2    0    0  0.00000000000E+00  0.00000000000E+00 -0.88604378516E+03  0.14934729287E+04  0.12022428206E+04 0.  0.
        2    1    3    3  502    0  0.12185585562E+03 -0.58637550592E+03 -0.50711307605E+03  0.78476031717E+03  0.25500000920E-02 0. -1.
       -2    1    3    3    0  502 -0.12185585562E+03  0.58637550592E+03 -0.37893070911E+03  0.70871261158E+03  0.25500000920E-02 0.  1.
</event>
<event>
 5   0  0.1537557E-03  0.1262193E+04  0.7818609E-02  0.9060096E-01
        2   -1    0    0  501    0  0.00000000000E+00  0.00000000000E+00  0.69968218243E+03  0.69968218244E+03  0.25500000920E-02 0.  1.
       -2   -1    0    0    0  501  0.00000000000E+00  0.00000000000E+00 -0.56923368832E+03  0.56923368833E+03  0.25500000920E-02 0. -1.
    10030    2    1    2    0    0  0.00000000000E+00  0.00000000000E+00  0.13044849411E+03  0.12689158708E+04  0.12621928052E+04 0.  0.
        2    1    3    3  502    0 -0.76054845530E+02  0.17410742721E+03  0.67024785234E+03  0.69665624185E+03  0.25500000920E-02 0.  1.
       -2    1    3    3    0  502  0.76054845530E+02 -0.17410742721E+03 -0.53979935823E+03  0.57225962892E+03  0.25500000920E-02 0. -1.
</event>
<event>
 5   0  0.6137750E-04  0.1209279E+04  0.7818609E-02  0.9104773E-01
       -3   -1    0    0    0  501  0.00000000000E+00  0.00000000000E+00  0.73872981416E+03  0.73872982107E+03  0.10100000352E+00 0. -1.
        3   -1    0    0  501    0  0.00000000000E+00  0.00000000000E+00 -0.49488865378E+03  0.49488866408E+03  0.10100000352E+00 0.  1.
    10030    2    1    2    0    0  0.00000000000E+00  0.00000000000E+00  0.24384116039E+03  0.12336184852E+04  0.12092791470E+04 0.  0.
        3    1    3    3  502    0  0.49508023016E+03 -0.10950119590E+03  0.45793450865E+03  0.68322688077E+03  0.10100000352E+00 0. -1.
       -3    1    3    3    0  502 -0.49508023016E+03  0.10950119590E+03 -0.21409334826E+03  0.55039160438E+03  0.10100000352E+00 0.  1.
</event>
<event>
 5   0  0.1551501E-03  0.1194903E+04  0.7818609E-02  0.9117329E-01
        2   -1    0    0  501    0  0.00000000000E+00  0.00000000000E+00  0.19246412964E+04  0.19246412964E+04  0.25500000920E-02 0.  1.
       -2   -1    0    0    0  501  0.00000000000E+00  0.00000000000E+00 -0.18546238807E+03  0.18546238809E+03  0.25500000920E-02 0. -1.
    10030    2    1    2    0    0  0.00000000000E+00  0.00000000000E+00  0.17391789083E+04  0.21101036845E+04  0.11949034622E+04 0.  0.
        4    1    3    3  502    0 -0.56075430896E+03 -0.88776579731E+02  0.11981657859E+04  0.13258693524E+04  0.12699999809E+01 0.  1.
       -4    1    3    3    0  502  0.56075430896E+03  0.88776579731E+02  0.54101312238E+03  0.78423433208E+03  0.12699999809E+01 0. -1.
</event>
<event>
 5   0  0.1551501E-03  0.1202175E+04  0.7818609E-02  0.9110955E-01
        2   -1    0    0  501    0  0.00000000000E+00  0.00000000000E+00  0.12885286719E+04  0.12885286719E+04  0.25500000920E-02 0. -1.
       -2   -1    0    0    0  501  0.00000000000E+00  0.00000000000E+00 -0.28040210749E+03  0.28040210750E+03  0.25500000920E-02 0.  1.
    10030    2    1    2    0    0  0.00000000000E+00  0.00000000000E+00  0.10081265644E+04  0.15689307794E+04  0.12021749543E+04 0.  0.
        4    1    3    3  502    0  0.15917771606E+03 -0.31789928025E+03  0.11365976509E+04  0.11909044170E+04  0.12699999809E+01 0. -1.
       -4    1    3    3    0  502 -0.15917771606E+03  0.31789928025E+03 -0.12847108647E+03  0.37802636235E+03  0.12699999809E+01 0.  1.
</event>
<event>
 5   0  0.8908478E-04  0.1203912E+04  0.7818609E-02  0.9109439E-01
        1   -1    0    0  501    0  0.00000000000E+00  0.00000000000E+00  0.78307987578E+03  0.78307987580E+03  0.50400001928E-02 0.  1.
       -1   -1    0    0    0  501  0.00000000000E+00  0.00000000000E+00 -0.46272554846E+03  0.46272554849E+03  0.50400001928E-02 0. -1.
    10030    2    1    2    0    0  0.00000000000E+00  0.00000000000E+00  0.32035432732E+03  0.12458054243E+04  0.12039120650E+04 0.  0.
        4    1    3    3  502    0  0.91390212239E+02 -0.10648733715E+03  0.76591641491E+03  0.77866635435E+03  0.12699999809E+01 0.  1.
       -4    1    3    3    0  502 -0.91390212239E+02  0.10648733715E+03 -0.44556208759E+03  0.46713906994E+03  0.12699999809E+01 0. -1.
</event>
<event>
 5   0  0.1537557E-03  0.1197562E+04  0.7818609E-02  0.9114993E-01
        2   -1    0    0  501    0  0.00000000000E+00  0.00000000000E+00  0.18372938813E+04  0.18372938813E+04  0.25500000920E-02 0. -1.
       -2   -1    0    0    0  501  0.00000000000E+00  0.00000000000E+00 -0.19514488625E+03  0.19514488626E+03  0.25500000920E-02 0.  1.
    10030    2    1    2    0    0  0.00000000000E+00  0.00000000000E+00  0.16421489950E+04  0.20324387675E+04  0.11975616986E+04 0.  0.
        2    1    3    3  502    0  0.26386607593E+03  0.18320563548E+02 -0.90623179922E+02  0.27959526073E+03  0.25500000920E-02 0.  1.
       -2    1    3    3    0  502 -0.26386607593E+03 -0.18320563548E+02  0.17327721750E+04  0.17528435068E+04  0.25500000920E-02 0. -1.
</event>
<event>
 5   0  0.1551501E-03  0.1197115E+04  0.7818609E-02  0.9115385E-01
       -2   -1    0    0    0  501  0.00000000000E+00  0.00000000000E+00  0.31442896982E+03  0.31442896983E+03  0.25500000920E-02 0.  1.
        2   -1    0    0  501    0  0.00000000000E+00  0.00000000000E+00 -0.11394341580E+04  0.11394341580E+04  0.25500000920E-02 0. -1.
    10030    2    1    2    0    0  0.00000000000E+00  0.00000000000E+00 -0.82500518814E+03  0.14538631278E+04  0.11971150462E+04 0.  0.
        4    1    3    3  502    0  0.41067981551E+03  0.49523222441E+02 -0.93790617903E+03  0.10250756431E+04  0.12699999809E+01 0. -1.
       -4    1    3    3    0  502 -0.41067981551E+03 -0.49523222441E+02  0.11290099089E+03  0.42878748474E+03  0.12699999809E+01 0.  1.
</event>
<event>
 5   0  0.1567019E-03  0.1209121E+04  0.7818609E-02  0.9104910E-01
       -2   -1    0    0    0  501  0.00000000000E+00  0.00000000000E+00  0.44542194347E+03  0.44542194348E+03  0.25500000920E-02 0. -1.
        2   -1    0    0  501    0  0.00000000000E+00  0.00000000000E+00 -0.82055564733E+03  0.82055564733E+03  0.25500000920E-02 0.  1.
    10030    2    1    2    0    0  0.00000000000E+00  0.00000000000E+00 -0.37513370385E+03  0.12659775908E+04  0.12091211538E+04 0.  0.
        5    1    3    3  502    0 -0.32499043274E+03  0.12792490109E+03  0.32908124857E+03  0.47989594690E+03  0.46999998093E+01 0. -1.
       -5    1    3    3    0  502  0.32499043274E+03 -0.12792490109E+03 -0.70421495242E+03  0.78608164392E+03  0.46999998093E+01 0.  1.
</event>
<event>
 5   0  0.6137750E-04  0.1200094E+04  0.7818609E-02  0.9112774E-01
       -4   -1    0    0    0  501  0.00000000000E+00  0.00000000000E+00  0.41381032442E+03  0.41381227326E+03  0.12699999809E+01 0.  1.
        4   -1    0    0  501    0  0.00000000000E+00  0.00000000000E+00 -0.87009550031E+03  0.87009642716E+03  0.12699999809E+01 0. -1.
    10030    2    1    2    0    0  0.00000000000E+00  0.00000000000E+00 -0.45628517588E+03  0.12839087004E+04  0.12000939085E+04 0.  0.
        2    1    3    3  502    0 -0.35619161229E+03  0.45529013815E+03 -0.40029969755E+03  0.70313684474E+03  0.25500000920E-02 0. -1.
       -2    1    3    3    0  502  0.35619161229E+03 -0.45529013815E+03 -0.55985478338E+02  0.58077185568E+03  0.25500000920E-02 0.  1.
</event>
<event>
 5   0  0.1647550E-03  0.1226631E+04  0.7818609E-02  0.9089860E-01
       -2   -1    0    0    0  501  0.00000000000E+00  0.00000000000E+00  0.50930025269E+03  0.50930025270E+03  0.25500000920E-02 0.  1.
        2   -1    0    0  501    0  0.00000000000E+00  0.00000000000E+00 -0.73857446726E+03  0.73857446726E+03  0.25500000920E-02 0. -1.
    10030    2    1    2    0    0  0.00000000000E+00  0.00000000000E+00 -0.22927421457E+03  0.12478747200E+04  0.12266314244E+04 0.  0.
        3    1    3    3  502    0 -0.37626743108E+02 -0.94640277839E+02  0.50063753181E+03  0.51089186962E+03  0.10100000352E+00 0.  1.
       -3    1    3    3    0  502  0.37626743108E+02  0.94640277839E+02 -0.72991174638E+03  0.73698285034E+03  0.10100000352E+00 0. -1.
</event>
<event>
 5   0  0.9170776E-04  0.1207940E+04  0.7818609E-02  0.9105935E-01
       -1   -1    0    0    0  501  0.00000000000E+00  0.00000000000E+00  0.22985322945E+03  0.22985322951E+03  0.50400001928E-02 0. -1.
        1   -1    0    0  501    0  0.00000000000E+00  0.00000000000E+00 -0.15870125285E+04  0.15870125285E+04  0.50400001928E-02 0.  1.
    10030    2    1    2    0    0  0.00000000000E+00  0.00000000000E+00 -0.13571592991E+04  0.18168657580E+04  0.12079403212E+04 0.  0.
        5    1    3    3  502    0  0.13904870861E+03 -0.43633634634E+03 -0.12708100787E+04  0.13508161594E+04  0.46999998093E+01 0.  1.
       -5    1    3    3    0  502 -0.13904870861E+03  0.43633634634E+03 -0.86349220397E+02  0.46604959861E+03  0.46999998093E+01 0. -1.
</event>
<event>
 5   0  0.9358428E-04  0.1204698E+04  0.7818609E-02  0.9108754E-01
       -1   -1    0    0    0  501  0.00000000000E+00  0.00000000000E+00  0.80019256532E+03  0.80019256533E+03  0.50400001928E-02 0.  1.
        1   -1    0    0  501    0  0.00000000000E+00  0.00000000000E+00 -0.45342119023E+03  0.45342119025E+03  0.50400001928E-02 0. -1.
    10030    2    1    2    0    0  0.00000000000E+00  0.00000000000E+00  0.34677137509E+03  0.12536137556E+04  0.12046979130E+04 0.  0.
        2    1    3    3  502    0  0.82587324713E+02 -0.24426548551E+03 -0.39308734925E+03  0.47011058035E+03  0.25500000920E-02 0. -1.
       -2    1    3    3    0  502 -0.82587324713E+02  0.24426548551E+03  0.73985872434E+03  0.78350317523E+03  0.25500000920E-02 0.  1.
</event>
<event>
 5   0  0.1597352E-03  0.1200107E+04  0.7818609E-02  0.9112763E-01
        2   -1    0    0  501    0  0.00000000000E+00  0.00000000000E+00  0.60032817631E+03  0.60032817631E+03  0.25500000920E-02 0. -1.
       -2   -1    0    0    0  501  0.00000000000E+00  0.00000000000E+00 -0.59977879304E+03  0.59977879305E+03  0.25500000920E-02 0.  1.
    10030    2    1    2    0    0  0.00000000000E+00  0.00000000000E+00  0.54938326615E+00  0.12001069694E+04  0.12001068436E+04 0.  0.
        1    1    3    3  502    0  0.42564781341E+03 -0.41964386563E+02 -0.42058998414E+03  0.59986082185E+03  0.50400001928E-02 0.  1.
       -1    1    3    3    0  502 -0.42564781341E+03  0.41964386563E+02  0.42113936740E+03  0.60024614751E+03  0.50400001928E-02 0. -1.
</event>
<event>
 5   0  0.8908478E-04  0.1287937E+04  0.7818609E-02  0.9039186E-01
       -1   -1    0    0    0  501  0.00000000000E+00  0.00000000000E+00  0.61865841611E+03  0.61865841613E+03  0.50400001928E-02 0. -1.
        1   -1    0    0  501    0  0.00000000000E+00  0.00000000000E+00 -0.67031431834E+03  0.67031431836E+03  0.50400001928E-02 0.  1.
    10030    2    1    2    0    0  0.00000000000E+00  0.00000000000E+00 -0.51655902224E+02  0.12889727345E+04  0.12879372570E+04 0.  0.
        4    1    3    3  502    0  0.62537733371E+03 -0.14859616339E+03 -0.64799627122E+02  0.64604816683E+03  0.12699999809E+01 0.  1.
       -4    1    3    3    0  502 -0.62537733371E+03  0.14859616339E+03  0.13143724898E+02  0.64292456766E+03  0.12699999809E+01 0. -1.
</event>
<event>
 5   0  0.1647550E-03  0.1198598E+04  0.7818609E-02  0.9114085E-01
        2   -1    0    0  501    0  0.00000000000E+00  0.00000000000E+00  0.49577190726E+03  0.49577190727E+03  0.25500000920E-02 0. -1.
       -2   -1    0    0    0  501  0.00000000000E+00  0.00000000000E+00 -0.72444409454E+03  0.72444409454E+03  0.25500000920E-02 0.  1.
    10030    2    1    2    0    0  0.00000000000E+00  0.00000000000E+00 -0.22867218727E+03  0.12202160018E+04  0.11985975646E+04 0.  0.
        3    1    3    3  502    0  0.13703183466E+02  0.46328346708E+03  0.27243693599E+03  0.53762555966E+03  0.10100000352E+00 0. -1.
       -3    1    3    3    0  502 -0.13703183466E+02 -0.46328346708E+03 -0.50110912326E+03  0.68259044215E+03  0.10100000352E+00 0.  1.
</event>
<event>
 5   0  0.9170776E-04  0.1195257E+04  0.7818609E-02  0.9117018E-01
        1   -1    0    0  501    0  0.00000000000E+00  0.00000000000E+00  0.93030954943E+03  0.93030954945E+03  0.50400001928E-02 0. -1.
       -1   -1    0    0    0  501  0.00000000000E+00  0.00000000000E+00 -0.38391503834E+03  0.38391503838E+03  0.50400001928E-02 0.  1.
    10030    2    1    2    0    0  0.00000000000E+00  0.00000000000E+00  0.54639451109E+03  0.13142245878E+04  0.11952570040E+04 0.  0.
        5    1    3    3  502    0  0.50368772292E+03  0.31969635386E+03  0.23462486672E+03  0.64107565776E+03  0.46999998093E+01 0. -1.
       -5    1    3    3    0  502 -0.50368772292E+03 -0.31969635386E+03  0.31176964437E+03  0.67314893006E+03  0.46999998093E+01 0.  1.
</event>
<event>
 5   0  0.9208078E-04  0.1211750E+04  0.7818609E-02  0.9102634E-01
        1   -1    0    0  501    0  0.00000000000E+00  0.00000000000E+00  0.43802891775E+03  0.43802891778E+03  0.50400001928E-02 0.  1.
       -1   -1    0    0    0  501  0.00000000000E+00  0.00000000000E+00 -0.83803702247E+03  0.83803702248E+03  0.50400001928E-02 0. -1.
    10030    2    1    2    0    0  0.00000000000E+00  0.00000000000E+00 -0.40000810471E+03  0.12760659403E+04  0.12117498917E+04 0.  0.
        3    1    3    3  502    0 -0.56007022744E+03  0.40119970229E+02 -0.43967144069E+03  0.71316145272E+03  0.10100000352E+00 0. -1.
       -3    1    3    3    0  502  0.56007022744E+03 -0.40119970229E+02  0.39663335977E+02  0.56290448755E+03  0.10100000352E+00 0.  1.
</event>
<event>
 5   0  0.9170776E-04  0.1183927E+04  0.7818609E-02  0.9127042E-01
       -1   -1    0    0    0  501  0.00000000000E+00  0.00000000000E+00  0.55138598008E+03  0.55138598010E+03  0.50400001928E-02 0.  1.
        1   -1    0    0  501    0  0.00000000000E+00  0.00000000000E+00 -0.63552772661E+03  0.63552772663E+03  0.50400001928E-02 0. -1.
    10030    2    1    2    0    0  0.00000000000E+00  0.00000000000E+00 -0.84141746540E+02  0.11869137067E+04  0.11839274951E+04 0.  0.
        5    1    3    3  502    0 -0.19080662440E+03 -0.47367369794E+02 -0.60182329735E+03  0.63313837893E+03  0.46999998093E+01 0. -1.
       -5    1    3    3    0  502  0.19080662440E+03  0.47367369794E+02  0.51768155081E+03  0.55377532781E+03  0.46999998093E+01 0.  1.
</event>
<event>
 5   0  0.1537557E-03  0.1176775E+04  0.7818609E-02  0.9133432E-01
        2   -1    0    0  501    0  0.00000000000E+00  0.00000000000E+00  0.85681667129E+03  0.85681667129E+03  0.25500000920E-02 0.  1.
       -2   -1    0    0    0  501  0.00000000000E+00  0.00000000000E+00 -0.40405350330E+03  0.40405350331E+03  0.25500000920E-02 0. -1.
    10030    2    1    2    0    0  0.00000000000E+00  0.00000000000E+00  0.45276316798E+03  0.12608701746E+04  0.11767748769E+04 0.  0.
        2    1    3    3  502    0  0.28350960498E+03 -0.36372943285E+03 -0.16513935545E+03  0.48984467249E+03  0.25500000920E-02 0. -1.
       -2    1    3    3    0  502 -0.28350960498E+03  0.36372943285E+03  0.61790252343E+03  0.77102550211E+03  0.25500000920E-02 0.  1.
</event>
<event>
 5   0  0.1567019E-03  0.1208030E+04  0.7818609E-02  0.9105857E-01
       -2   -1    0    0    0  501  0.00000000000E+00  0.00000000000E+00  0.12668502931E+04  0.12668502931E+04  0.25500000920E-02 0.  1.
        2   -1    0    0  501    0  0.00000000000E+00  0.00000000000E+00 -0.28798508374E+03  0.28798508375E+03  0.25500000920E-02 0. -1.
    10030    2    1    2    0    0  0.00000000000E+00  0.00000000000E+00  0.97886520938E+03  0.15548353769E+04  0.12080297807E+04 0.  0.
        5    1    3    3  502    0  0.51195517876E+03  0.31429715741E+03  0.57013069205E+03  0.82822213459E+03  0.46999998093E+01 0. -1.
       -5    1    3    3    0  502 -0.51195517876E+03 -0.31429715741E+03  0.40873451733E+03  0.72661324229E+03  0.46999998093E+01 0.  1.
</event>
<event>
 5   0  0.8908478E-04  0.1206160E+04  0.7818609E-02  0.9107482E-01
       -1   -1    0    0    0  501  0.00000000000E+00  0.00000000000E+00  0.12540838170E+04  0.12540838170E+04  0.50400001928E-02 0.  1.
        1   -1    0    0  501    0  0.00000000000E+00  0.00000000000E+00 -0.29001678003E+03  0.29001678007E+03  0.50400001928E-02 0. -1.
    10030    2    1    2    0    0  0.00000000000E+00  0.00000000000E+00  0.96406703693E+03  0.15441005970E+04  0.12061597747E+04 0.  0.
        4    1    3    3  502    0 -0.40574152353E+03 -0.32673249816E+03  0.93054020171E+02  0.52918897649E+03  0.12699999809E+01 0. -1.
       -4    1    3    3    0  502  0.40574152353E+03  0.32673249816E+03  0.87101301676E+03  0.10149116206E+04  0.12699999809E+01 0.  1.
</event>
<event>
 5   0  0.1551501E-03  0.1195788E+04  0.7818609E-02  0.9116551E-01
        2   -1    0    0  501    0  0.00000000000E+00  0.00000000000E+00  0.12272217007E+04  0.12272217007E+04  0.25500000920E-02 0. -1.
       -2   -1    0    0    0  501  0.00000000000E+00  0.00000000000E+00 -0.29129005975E+03  0.29129005976E+03  0.25500000920E-02 0.  1.
    10030    2    1    2    0    0  0.00000000000E+00  0.00000000000E+00  0.93593164093E+03  0.15185117605E+04  0.11957884136E+04 0.  0.
        4    1    3    3  502    0  0.14315119250E+03 -0.30121341787E+03  0.10981326487E+04  0.11476579256E+04  0.12699999809E+01 0. -1.
       -4    1    3    3    0  502 -0.14315119250E+03  0.30121341787E+03 -0.16220100779E+03  0.37085383489E+03  0.12699999809E+01 0.  1.
</event>
<event>
 5   0  0.9170776E-04  0.1200877E+04  0.7818609E-02  0.9112089E-01
        1   -1    0    0  501    0  0.00000000000E+00  0.00000000000E+00  0.78520270516E+03  0.78520270518E+03  0.50400001928E-02 0. -1.
       -1   -1    0    0    0  501  0.00000000000E+00  0.00000000000E+00 -0.45915101068E+03  0.45915101071E+03  0.50400001928E-02 0.  1.
    10030    2    1    2    0    0  0.00000000000E+00  0.00000000000E+00  0.32605169448E+03  0.12443537159E+04  0.12008773721E+04 0.  0.
        5    1    3    3  502    0  0.53788337885E+03  0.26680626103E+03  0.16235789850E+03  0.62200183872E+03  0.46999998093E+01 0. -1.
       -5    1    3    3    0  502 -0.53788337885E+03 -0.26680626103E+03  0.16369379598E+03  0.62235187717E+03  0.46999998093E+01 0.  1.
</event>
<event>
 5   0  0.1537557E-03  0.1219326E+04  0.7818609E-02  0.9096107E-01
        2   -1    0    0  501    0  0.00000000000E+00  0.00000000000E+00  0.10507092734E+04  0.10507092734E+04  0.25500000920E-02 0. -1.
       -2   -1    0    0    0  501  0.00000000000E+00  0.00000000000E+00 -0.35375046281E+03  0.35375046282E+03  0.25500000920E-02 0.  1.
    10030    2    1    2    0    0  0.00000000000E+00  0.00000000000E+00  0.69695881056E+03  0.14044597362E+04  0.12193258658E+04 0.  0.
        2    1    3    3  502    0 -0.16920176418E+03 -0.58399514873E+03  0.40011083689E+03  0.72785180672E+03  0.25500000920E-02 0.  1.
       -2    1    3    3    0  502  0.16920176418E+03  0.58399514873E+03  0.29684797367E+03  0.67660792947E+03  0.25500000920E-02 0. -1.
</event>
<event>
 5   0  0.1647550E-03  0.1196666E+04  0.7818609E-02  0.9115780E-01
       -2   -1    0    0    0  501  0.00000000000E+00  0.00000000000E+00  0.66529339819E+03  0.66529339819E+03  0.25500000920E-02 0.  1.
        2   -1    0    0  501    0  0.00000000000E+00  0.00000000000E+00 -0.53811212483E+03  0.53811212484E+03  0.25500000920E-02 0. -1.
    10030    2    1    2    0    0  0.00000000000E+00  0.00000000000E+00  0.12718127336E+03  0.12034055230E+04  0.11966661091E+04 0.  0.
        3    1    3    3  502    0  0.35733044457E+03  0.49092619601E+02 -0.41649435443E+03  0.55096523429E+03  0.10100000352E+00 0. -1.
       -3    1    3    3    0  502 -0.35733044457E+03 -0.49092619601E+02  0.54367562779E+03  0.65244028874E+03  0.10100000352E+00 0.  1.
</event>
<event>
 5   0  0.9358428E-04  0.1203380E+04  0.7818609E-02  0.9109904E-01
        1   -1    0    0  501    0  0.00000000000E+00  0.00000000000E+00  0.21161593675E+03  0.21161593681E+03  0.50400001928E-02 0. -1.
       -1   -1    0    0    0  501  0.00000000000E+00  0.00000000000E+00 -0.17107907054E+04  0.17107907054E+04  0.50400001928E-02 0.  1.
    10030    2    1    2    0    0  0.00000000000E+00  0.00000000000E+00 -0.14991747687E+04  0.19224066423E+04  0.12033795374E+04 0.  0.
        2    1    3    3  502    0 -0.48138034354E+03 -0.15264949725E+03 -0.22702526877E+03  0.55368707482E+03  0.25500000920E-02 0.  1.
       -2    1    3    3    0  502  0.48138034354E+03  0.15264949725E+03 -0.12721494999E+04  0.13687195674E+04  0.25500000920E-02 0. -1.
</event>
<event>
 5   0  0.9170776E-04  0.1192088E+04  0.7818609E-02  0.9119810E-01
        1   -1    0    0  501    0  0.00000000000E+00  0.00000000000E+00  0.12851607912E+04  0.12851607912E+04  0.50400001928E-02 0.  1.
       -1   -1    0    0    0  501  0.00000000000E+00  0.00000000000E+00 -0.27643880872E+03  0.27643880876E+03  0.50400001928E-02 0. -1.
    10030    2    1    2    0    0  0.00000000000E+00  0.00000000000E+00  0.10087219825E+04  0.15615996000E+04  0.11920877789E+04 0.  0.
        5    1    3    3  502    0 -0.47192063569E+03  0.36369240264E+03  0.48303710311E+03  0.76702554267E+03  0.46999998093E+01 0. -1.
       -5    1    3    3    0  502  0.47192063569E+03 -0.36369240264E+03  0.52568487935E+03  0.79457405728E+03  0.46999998093E+01 0.  1.
</event>
<event>
 5   0  0.1647550E-03  0.1186815E+04  0.7818609E-02  0.9124477E-01
        2   -1    0    0  501    0  0.00000000000E+00  0.00000000000E+00  0.41913801356E+03  0.41913801357E+03  0.25500000920E-02 0.  1.
       -2   -1    0    0    0  501  0.00000000000E+00  0.00000000000E+00 -0.84013430603E+03  0.84013430603E+03  0.25500000920E-02 0. -1.
    10030    2    1    2    0    0  0.00000000000E+00  0.00000000000E+00 -0.42099629246E+03  0.12592723196E+04  0.11868146008E+04 0.  0.
        3    1    3    3  502    0 -0.31825362692E+03  0.32396641040E+03  0.19478021864E+03  0.49414466494E+03  0.10100000352E+00 0.  1.
       -3    1    3    3    0  502  0.31825362692E+03 -0.32396641040E+03 -0.61577651110E+03  0.76512765467E+03  0.10100000352E+00 0. -1.
</event>
<event>
 5   0  0.1647550E-03  0.1195439E+04  0.7818609E-02  0.9116858E-01
        2   -1    0    0  501    0  0.00000000000E+00  0.00000000000E+00  0.16787611046E+04  0.16787611046E+04  0.25500000920E-02 0.  1.
       -2   -1    0    0    0  501  0.00000000000E+00  0.00000000000E+00 -0.21281683818E+03  0.21281683819E+03  0.25500000920E-02 0. -1.
    10030    2    1    2    0    0  0.00000000000E+00  0.00000000000E+00  0.14659442664E+04  0.18915779428E+04  0.11954390496E+04 0.  0.
        3    1    3    3  502    0 -0.19380675184E+03 -0.34918295652E+03  0.29273511718E+02  0.40043319402E+03  0.10100000352E+00 0. -1.
       -3    1    3    3    0  502  0.19380675184E+03  0.34918295652E+03  0.14366707547E+04  0.14911447488E+04  0.10100000352E+00 0.  1.
</event>
<event>
 5   0  0.1537557E-03  0.1212158E+04  0.7818609E-02  0.9102281E-01
        2   -1    0    0  501    0  0.00000000000E+00  0.00000000000E+00  0.47432394647E+03  0.47432394648E+03  0.25500000920E-02 0. -1.
       -2   -1    0    0    0  501  0.00000000000E+00  0.00000000000E+00 -0.77443211023E+03  0.77443211023E+03  0.25500000920E-02 0.  1.
    10030    2    1    2    0    0  0.00000000000E+00  0.00000000000E+00 -0.30010816376E+03  0.12487560567E+04  0.12121579019E+04 0.  0.
        2    1    3    3  502    0 -0.45017464398E+03  0.24743546756E+03  0.18129366644E+03  0.54474665137E+03  0.25500000920E-02 0. -1.
       -2    1    3    3    0  502  0.45017464398E+03 -0.24743546756E+03 -0.48140183019E+03  0.70400940534E+03  0.25500000920E-02 0.  1.
</event>
<event>
 5   0  0.9169078E-04  0.1201672E+04  0.7818609E-02  0.9111394E-01
       -1   -1    0    0    0  501  0.00000000000E+00  0.00000000000E+00  0.60911789656E+03  0.60911789658E+03  0.50400001928E-02 0.  1.
        1   -1    0    0  501    0  0.00000000000E+00  0.00000000000E+00 -0.59266694639E+03  0.59266694641E+03  0.50400001928E-02 0. -1.
    10030    2    1    2    0    0  0.00000000000E+00  0.00000000000E+00  0.16450950173E+02  0.12017848430E+04  0.12016722411E+04 0.  0.
        1    1    3    3  502    0  0.21962926551E+03  0.33256864699E+03  0.45789536931E+03  0.60704784696E+03  0.50400001928E-02 0. -1.
       -1    1    3    3    0  502 -0.21962926551E+03 -0.33256864699E+03 -0.44144441914E+03  0.59473699603E+03  0.50400001928E-02 0.  1.
</event>
<event>
 5   0  0.1551501E-03  0.1194514E+04  0.7818609E-02  0.9117672E-01
        2   -1    0    0  501    0  0.00000000000E+00  0.00000000000E+00  0.47947971291E+03  0.47947971291E+03  0.25500000920E-02 0.  1.
       -2   -1    0    0    0  501  0.00000000000E+00  0.00000000000E+00 -0.74396509243E+03  0.74396509243E+03  0.25500000920E-02 0. -1.
    10030    2    1    2    0    0  0.00000000000E+00  0.00000000000E+00 -0.26448537952E+03  0.12234448053E+04  0.11945144100E+04 0.  0.
        4    1    3    3  502    0  0.35566668610E+03  0.40025322719E+03 -0.40325105681E+03  0.67030923103E+03  0.12699999809E+01 0. -1.
       -4    1    3    3    0  502 -0.35566668610E+03 -0.40025322719E+03  0.13876567729E+03  0.55313557432E+03  0.12699999809E+01 0.  1.
</event>
<event>
 5   0  0.1647550E-03  0.1204495E+04  0.7818609E-02  0.9108931E-01
        2   -1    0    0  501    0  0.00000000000E+00  0.00000000000E+00  0.89445913098E+03  0.89445913099E+03  0.25500000920E-02 0. -1.
       -2   -1    0    0    0  501  0.00000000000E+00  0.00000000000E+00 -0.40549879771E+03  0.40549879772E+03  0.25500000920E-02 0.  1.
    10030    2    1    2    0    0  0.00000000000E+00  0.00000000000E+00  0.48896033327E+03  0.12999579287E+04  0.12044950846E+04 0.  0.
        3    1    3    3  502    0 -0.15232908598E+03 -0.16580592510E+03 -0.35836526258E+03  0.42322739380E+03  0.10100000352E+00 0.  1.
       -3    1    3    3    0  502  0.15232908598E+03  0.16580592510E+03  0.84732559586E+03  0.87673053490E+03  0.10100000352E+00 0. -1.
</event>
<event>
 5   0  0.6137750E-04  0.1191167E+04  0.7818609E-02  0.9120623E-01
        4   -1    0    0  501    0  0.00000000000E+00  0.00000000000E+00  0.70878529194E+03  0.70878642973E+03  0.12699999809E+01 0. -1.
       -4   -1    0    0    0  501  0.00000000000E+00  0.00000000000E+00 -0.50045922242E+03  0.50046083383E+03  0.12699999809E+01 0.  1.
    10030    2    1    2    0    0  0.00000000000E+00  0.00000000000E+00  0.20832606953E+03  0.12092472636E+04  0.11911671559E+04 0.  0.
        5    1    3    3  502    0 -0.14180705001E+03  0.38819554280E+03  0.53949908777E+03  0.67962222932E+03  0.46999998093E+01 0. -1.
       -5    1    3    3    0  502  0.14180705001E+03 -0.38819554280E+03 -0.33117301825E+03  0.52962503424E+03  0.46999998093E+01 0.  1.
</event>
<event>
 5   0  0.9169078E-04  0.1197495E+04  0.7818609E-02  0.9115052E-01
       -1   -1    0    0    0  501  0.00000000000E+00  0.00000000000E+00  0.20271669690E+03  0.20271669697E+03  0.50400001928E-02 0. -1.
        1   -1    0    0  501    0  0.00000000000E+00  0.00000000000E+00 -0.17684710392E+04  0.17684710392E+04  0.50400001928E-02 0.  1.
    10030    2    1    2    0    0  0.00000000000E+00  0.00000000000E+00 -0.15657543423E+04  0.19711877362E+04  0.11974950651E+04 0.  0.
        1    1    3    3  502    0  0.22135681608E+03  0.18017545480E+03 -0.16492858808E+04  0.16737998540E+04  0.50400001928E-02 0.  1.
       -1    1    3    3    0  502 -0.22135681608E+03 -0.18017545480E+03  0.83531538494E+02  0.29738788221E+03  0.50400001928E-02 0. -1.
</event>
<event>
 5   0  0.1597352E-03  0.1206298E+04  0.7818609E-02  0.9107362E-01
        2   -1    0    0  501    0  0.00000000000E+00  0.00000000000E+00  0.94367544292E+03  0.94367544293E+03  0.25500000920E-02 0.  1.
       -2   -1    0    0    0  501  0.00000000000E+00  0.00000000000E+00 -0.38550189897E+03  0.38550189897E+03  0.25500000920E-02 0. -1.
    10030    2    1    2    0    0  0.00000000000E+00  0.00000000000E+00  0.55817354396E+03  0.13291773419E+04  0.12062979321E+04 0.  0.
        1    1    3    3  502    0 -0.23962184382E+03  0.57757304488E+01  0.88894354643E+03  0.92069137927E+03  0.50400001928E-02 0.  1.
       -1    1    3    3    0  502  0.23962184382E+03 -0.57757304488E+01 -0.33077000248E+03  0.40848596263E+03  0.50400001928E-02 0. -1.
</event>
<event>
 5   0  0.9170776E-04  0.1200382E+04  0.7818609E-02  0.9112522E-01
       -1   -1    0    0    0  501  0.00000000000E+00  0.00000000000E+00  0.37416033392E+03  0.37416033395E+03  0.50400001928E-02 0. -1.
        1   -1    0    0  501    0  0.00000000000E+00  0.00000000000E+00 -0.96276676339E+03  0.96276676340E+03  0.50400001928E-02 0.  1.
    10030    2    1    2    0    0  0.00000000000E+00  0.00000000000E+00 -0.58860642947E+03  0.13369270974E+04  0.12003818288E+04 0.  0.
        5    1    3    3  502    0  0.16565574966E+01  0.53030899336E+03 -0.60729844928E+03  0.80626538381E+03  0.46999998093E+01 0.  1.
       -5    1    3    3    0  502 -0.16565574966E+01 -0.53030899336E+03  0.18692019813E+02  0.53066171355E+03  0.46999998093E+01 0. -1.
</event>
<event>
 5   0  0.8908478E-04  0.1197338E+04  0.7818609E-02  0.9115190E-01
        1   -1    0    0  501    0  0.00000000000E+00  0.00000000000E+00  0.72624465032E+03  0.72624465034E+03  0.50400001928E-02 0.  1.
       -1   -1    0    0    0  501  0.00000000000E+00  0.00000000000E+00 -0.49350394045E+03  0.49350394047E+03  0.50400001928E-02 0. -1.
    10030    2    1    2    0    0  0.00000000000E+00  0.00000000000E+00  0.23274070987E+03  0.12197485908E+04  0.11973380420E+04 0.  0.
        4    1    3    3  502    0 -0.21791729974E+03  0.16243762549E+03  0.65976687439E+03  0.71355999968E+03  0.12699999809E+01 0.  1.
       -4    1    3    3    0  502  0.21791729974E+03 -0.16243762549E+03 -0.42702616452E+03  0.50618859113E+03  0.12699999809E+01 0. -1.
</event>
<event>
 5   0  0.1647550E-03  0.1245452E+04  0.7818609E-02  0.9073977E-01
       -2   -1    0    0    0  501  0.00000000000E+00  0.00000000000E+00  0.30734107397E+03  0.30734107398E+03  0.25500000920E-02 0.  1.
        2   -1    0    0  501    0  0.00000000000E+00  0.00000000000E+00 -0.12617501156E+04  0.12617501156E+04  0.25500000920E-02 0. -1.
    10030    2    1    2    0    0  0.00000000000E+00  0.00000000000E+00 -0.95440904165E+03  0.15690911896E+04  0.12454519431E+04 0.  0.
        3    1    3    3  502    0 -0.98440896677E+02 -0.47718930760E+03 -0.96577464433E+03  0.10817212761E+04  0.10100000352E+00 0. -1.
       -3    1    3    3    0  502  0.98440896677E+02  0.47718930760E+03  0.11365602678E+02  0.48736991347E+03  0.10100000352E+00 0.  1.
</event>
<event>
 5   0  0.8908478E-04  0.1191248E+04  0.7818609E-02  0.9120552E-01
       -1   -1    0    0    0  501  0.00000000000E+00  0.00000000000E+00  0.44663036621E+03  0.44663036623E+03  0.50400001928E-02 0. -1.
        1   -1    0    0  501    0  0.00000000000E+00  0.00000000000E+00 -0.79432074742E+03  0.79432074744E+03  0.50400001928E-02 0.  1.
    10030    2    1    2    0    0  0.00000000000E+00  0.00000000000E+00 -0.34769038122E+03  0.12409511137E+04  0.11912476927E+04 0.  0.
        4    1    3    3  502    0  0.40996319018E+03  0.36704488320E+03 -0.41133626953E+03  0.68701594095E+03  0.12699999809E+01 0.  1.
       -4    1    3    3    0  502 -0.40996319018E+03 -0.36704488320E+03  0.63645888315E+02  0.55393517273E+03  0.12699999809E+01 0. -1.
</event>
<event>
 5   0  0.9169078E-04  0.1194169E+04  0.7818609E-02  0.9117975E-01
       -1   -1    0    0    0  501  0.00000000000E+00  0.00000000000E+00  0.68264966467E+03  0.68264966468E+03  0.50400001928E-02 0. -1.
        1   -1    0    0  501    0  0.00000000000E+00  0.00000000000E+00 -0.52224457455E+03  0.52224457458E+03  0.50400001928E-02 0.  1.
    10030    2    1    2    0    0  0.00000000000E+00  0.00000000000E+00  0.16040509011E+03  0.12048942393E+04  0.11941693075E+04 0.  0.
        1    1    3    3  502    0  0.31282642528E+03 -0.48761058158E+03  0.22601910045E+03  0.62185937753E+03  0.50400001928E-02 0. -1.
       -1    1    3    3    0  502 -0.31282642528E+03  0.48761058158E+03 -0.65614010343E+02  0.58303486174E+03  0.50400001928E-02 0.  1.
</event>
<event>
 5   0  0.9358428E-04  0.1206463E+04  0.7818609E-02  0.9107219E-01
        1   -1    0    0  501    0  0.00000000000E+00  0.00000000000E+00  0.16795720285E+04  0.16795720285E+04  0.50400001928E-02 0. -1.
       -1   -1    0    0    0  501  0.00000000000E+00  0.00000000000E+00 -0.21665516725E+03  0.21665516731E+03  0.50400001928E-02 0.  1.
    10030    2    1    2    0    0  0.00000000000E+00  0.00000000000E+00  0.14629168613E+04  0.18962271958E+04  0.12064625296E+04 0.  0.
        2    1    3    3  502    0  0.44589059179E+03  0.20186829525E+03  0.17728612824E+03  0.52057621896E+03  0.25500000920E-02 0.  1.
       -2    1    3    3    0  502 -0.44589059179E+03 -0.20186829525E+03  0.12856307330E+04  0.13756509769E+04  0.25500000920E-02 0. -1.
</event>
<event>
 5   0  0.1597352E-03  0.1201701E+04  0.7818609E-02  0.9111369E-01
       -2   -1    0    0    0  501  0.00000000000E+00  0.00000000000E+00  0.34973817497E+03  0.34973817498E+03  0.25500000920E-02 0.  1.
        2   -1    0    0  501    0  0.00000000000E+00  0.00000000000E+00 -0.10322624900E+04  0.10322624900E+04  0.25500000920E-02 0. -1.
    10030    2    1    2    0    0  0.00000000000E+00  0.00000000000E+00 -0.68252431504E+03  0.13820006650E+04  0.12017014594E+04 0.  0.
        1    1    3    3  502    0  0.10639160266E+03  0.53264839805E+03 -0.63668529705E+03  0.83690002782E+03  0.50400001928E-02 0. -1.
       -1    1    3    3    0  502 -0.10639160266E+03 -0.53264839805E+03 -0.45839017995E+02  0.54510063718E+03  0.50400001928E-02 0.  1.
</event>
<event>
 5   0  0.9170776E-04  0.1198983E+04  0.7818609E-02  0.9113747E-01
        1   -1    0    0  501    0  0.00000000000E+00  0.00000000000E+00  0.68454854035E+03  0.68454854037E+03  0.50400001928E-02 0. -1.
       -1   -1    0    0    0  501  0.00000000000E+00  0.00000000000E+00 -0.52500322737E+03  0.52500322739E+03  0.50400001928E-02 0.  1.
    10030    2    1    2    0    0  0.00000000000E+00  0.00000000000E+00  0.15954531299E+03  0.12095517678E+04  0.11989832242E+04 0.  0.
        5    1    3    3  502    0  0.37817019295E+03 -0.10041762830E+03  0.53794744319E+03  0.66521119694E+03  0.46999998093E+01 0. -1.
       -5    1    3    3    0  502 -0.37817019295E+03  0.10041762830E+03 -0.37840213020E+03  0.54434057082E+03  0.46999998093E+01 0.  1.
</event>
<event>
 5   0  0.1647550E-03  0.1229723E+04  0.7818609E-02  0.9087230E-01
       -2   -1    0    0    0  501  0.00000000000E+00  0.00000000000E+00  0.62735663045E+03  0.62735663045E+03  0.25500000920E-02 0.  1.
        2   -1    0    0  501    0  0.00000000000E+00  0.00000000000E+00 -0.60261555563E+03  0.60261555563E+03  0.25500000920E-02 0. -1.
    10030    2    1    2    0    0  0.00000000000E+00  0.00000000000E+00  0.24741074818E+02  0.12299721861E+04  0.12297233257E+04 0.  0.
        3    1    3    3  502    0 -0.13570032031E+03 -0.38873150510E+03 -0.44437063972E+03  0.60579867583E+03  0.10100000352E+00 0. -1.
       -3    1    3    3    0  502  0.13570032031E+03  0.38873150510E+03  0.46911171454E+03  0.62417351026E+03  0.10100000352E+00 0.  1.
</event>
<event>
 5   0  0.1537557E-03  0.1197192E+04  0.7818609E-02  0.9115318E-01
        2   -1    0    0  501    0  0.00000000000E+00  0.00000000000E+00  0.48693946130E+03  0.48693946131E+03  0.25500000920E-02 0.  1.
       -2   -1    0    0    0  501  0.00000000000E+00  0.00000000000E+00 -0.73585610186E+03  0.73585610186E+03  0.25500000920E-02 0. -1.
    10030    2    1    2    0    0  0.00000000000E+00  0.00000000000E+00 -0.24891664055E+03  0.12227955632E+04  0.11971923385E+04 0.  0.
        2    1    3    3  502    0 -0.33843431963E+03 -0.55222163329E+02  0.37667712507E+03  0.50938485704E+03  0.25500000920E-02 0.  1.
       -2    1    3    3    0  502  0.33843431963E+03  0.55222163329E+02 -0.62559376562E+03  0.71341070613E+03  0.25500000920E-02 0. -1.
</event>
<event>
 5   0  0.1551501E-03  0.1199660E+04  0.7818609E-02  0.9113154E-01
       -2   -1    0    0    0  501  0.00000000000E+00  0.00000000000E+00  0.16402890309E+03  0.16402890311E+03  0.25500000920E-02 0. -1.
        2   -1    0    0  501    0  0.00000000000E+00  0.00000000000E+00 -0.21934917779E+04  0.21934917779E+04  0.25500000920E-02 0.  1.
    10030    2    1    2    0    0  0.00000000000E+00  0.00000000000E+00 -0.20294628748E+04  0.23575206810E+04  0.11996600356E+04 0.  0.
        4    1    3    3  502    0 -0.24700124652E+03 -0.36558119460E+03 -0.21615376475E+03  0.49130773304E+03  0.12699999809E+01 0. -1.
       -4    1    3    3    0  502  0.24700124652E+03  0.36558119460E+03 -0.18133091100E+04  0.18662129479E+04  0.12699999809E+01 0.  1.
</event>
<event>
 5   0  0.1647550E-03  0.1200979E+04  0.7818609E-02  0.9112000E-01
        2   -1    0    0  501    0  0.00000000000E+00  0.00000000000E+00  0.61344772359E+03  0.61344772359E+03  0.25500000920E-02 0.  1.
       -2   -1    0    0    0  501  0.00000000000E+00  0.00000000000E+00 -0.58780503714E+03  0.58780503714E+03  0.25500000920E-02 0. -1.
    10030    2    1    2    0    0  0.00000000000E+00  0.00000000000E+00  0.25642686454E+02  0.12012527607E+04  0.12009790372E+04 0.  0.
        3    1    3    3  502    0  0.18925298228E+02  0.56386316527E+03 -0.19286554042E+03  0.59623566058E+03  0.10100000352E+00 0. -1.
       -3    1    3    3    0  502 -0.18925298228E+02 -0.56386316527E+03  0.21850822688E+03  0.60501710015E+03  0.10100000352E+00 0.  1.
</event>
<event>
 5   0  0.9169078E-04  0.1209034E+04  0.7818609E-02  0.9104985E-01
        1   -1    0    0  501    0  0.00000000000E+00  0.00000000000E+00  0.42532157867E+03  0.42532157870E+03  0.50400001928E-02 0.  1.
       -1   -1    0    0    0  501  0.00000000000E+00  0.00000000000E+00 -0.85921093682E+03  0.85921093684E+03  0.50400001928E-02 0. -1.
    10030    2    1    2    0    0  0.00000000000E+00  0.00000000000E+00 -0.43388935815E+03  0.12845325155E+04  0.12090342461E+04 0.  0.
        1    1    3    3  502    0 -0.46693091307E+03  0.24637010081E+03 -0.52981311198E+03  0.74794694852E+03  0.50400001928E-02 0.  1.
       -1    1    3    3    0  502  0.46693091307E+03 -0.24637010081E+03  0.95923753827E+02  0.53658556701E+03  0.50400001928E-02 0. -1.
</event>
<event>
 5   0  0.9170776E-04  0.1192686E+04  0.7818609E-02  0.9119283E-01
        1   -1    0    0  501    0  0.00000000000E+00  0.00000000000E+00  0.70181978131E+03  0.70181978133E+03  0.50400001928E-02 0. -1.
       -1   -1    0    0    0  501  0.00000000000E+00  0.00000000000E+00 -0.50671804752E+03  0.50671804754E+03  0.50400001928E-02 0.  1.
    10030    2    1    2    0    0  0.00000000000E+00  0.00000000000E+00  0.19510173379E+03  0.12085378289E+04  0.11926856238E+04 0.  0.
        5    1    3    3  502    0 -0.40003102649E+03  0.15157746387E+03 -0.32342511082E+03  0.53630815957E+03  0.46999998093E+01 0.  1.
       -5    1    3    3    0  502  0.40003102649E+03 -0.15157746387E+03  0.51852684462E+03  0.67222966931E+03  0.46999998093E+01 0. -1.
</event>
<event>
 5   0  0.6137750E-04  0.1197213E+04  0.7818609E-02  0.9115299E-01
       -3   -1    0    0    0  501  0.00000000000E+00  0.00000000000E+00  0.98527924473E+03  0.98527924991E+03  0.10100000352E+00 0.  1.
        3   -1    0    0  501    0  0.00000000000E+00  0.00000000000E+00 -0.36368352015E+03  0.36368353418E+03  0.10100000352E+00 0. -1.
    10030    2    1    2    0    0  0.00000000000E+00  0.00000000000E+00  0.62159572458E+03  0.13489627841E+04  0.11972131590E+04 0.  0.
        4    1    3    3  502    0  0.93890807522E+02 -0.14493649329E+03  0.95660113420E+03  0.97206451107E+03  0.12699999809E+01 0.  1.
       -4    1    3    3    0  502 -0.93890807522E+02  0.14493649329E+03 -0.33500540963E+03  0.37689827302E+03  0.12699999809E+01 0. -1.
</event>
<event>
 5   0  0.1551501E-03  0.1199165E+04  0.7818609E-02  0.9113587E-01
        2   -1    0    0  501    0  0.00000000000E+00  0.00000000000E+00  0.13416408096E+04  0.13416408096E+04  0.25500000920E-02 0.  1.
       -2   -1    0    0    0  501  0.00000000000E+00  0.00000000000E+00 -0.26795501467E+03  0.26795501469E+03  0.25500000920E-02 0. -1.
    10030    2    1    2    0    0  0.00000000000E+00  0.00000000000E+00  0.10736857950E+04  0.16095958243E+04  0.11991653478E+04 0.  0.
        4    1    3    3  502    0  0.24957945523E+03 -0.49848314329E+03  0.24056299164E+03  0.60716349896E+03  0.12699999809E+01 0.  1.
       -4    1    3    3    0  502 -0.24957945523E+03  0.49848314329E+03  0.83312280332E+03  0.10024323254E+04  0.12699999809E+01 0. -1.
</event>
<event>
 5   0  0.1537557E-03  0.1195080E+04  0.7818609E-02  0.9117174E-01
        2   -1    0    0  501    0  0.00000000000E+00  0.00000000000E+00  0.21945150235E+04  0.21945150235E+04  0.25500000920E-02 0. -1.
       -2   -1    0    0    0  501  0.00000000000E+00  0.00000000000E+00 -0.16270298866E+03  0.16270298868E+03  0.25500000920E-02 0.  1.
    10030    2    1    2    0    0  0.00000000000E+00  0.00000000000E+00  0.20318120349E+04  0.23572180122E+04  0.11950801697E+04 0.  0.
        2    1    3    3  502    0  0.23330401632E+02  0.34093458631E+03  0.49063799457E+02  0.34523608764E+03  0.25500000920E-02 0.  1.
       -2    1    3    3    0  502 -0.23330401632E+02 -0.34093458631E+03  0.19827482354E+04  0.20119819246E+04  0.25500000920E-02 0. -1.
</event>
<event>
 5   0  0.9358428E-04  0.1160117E+04  0.7818609E-02  0.9148500E-01
        1   -1    0    0  501    0  0.00000000000E+00  0.00000000000E+00  0.11830651196E+04  0.11830651196E+04  0.50400001928E-02 0. -1.
       -1   -1    0    0    0  501  0.00000000000E+00  0.00000000000E+00 -0.28440372107E+03  0.28440372111E+03  0.50400001928E-02 0.  1.
    10030    2    1    2    0    0  0.00000000000E+00  0.00000000000E+00  0.89866139849E+03  0.14674688407E+04  0.11601174463E+04 0.  0.
        2    1    3    3  502    0  0.24998744361E+03 -0.28055258834E+03  0.10082881367E+04  0.10760336627E+04  0.25500000920E-02 0. -1.
       -2    1    3    3    0  502 -0.24998744361E+03  0.28055258834E+03 -0.10962673820E+03  0.39143517793E+03  0.25500000920E-02 0.  1.
</event>
<event>
 5   0  0.6137750E-04  0.1197312E+04  0.7818609E-02  0.9115213E-01
       -4   -1    0    0    0  501  0.00000000000E+00  0.00000000000E+00  0.31992365376E+03  0.31992617451E+03  0.12699999809E+01 0. -1.
        4   -1    0    0  501    0  0.00000000000E+00  0.00000000000E+00 -0.11202257428E+04  0.11202264627E+04  0.12699999809E+01 0.  1.
    10030    2    1    2    0    0  0.00000000000E+00  0.00000000000E+00 -0.80030208905E+03  0.14401526372E+04  0.11973120666E+04 0.  0.
        2    1    3    3  502    0  0.16073287299E+03 -0.32223192235E+03 -0.97539727907E+03  0.10397443533E+04  0.25500000920E-02 0.  1.
       -2    1    3    3    0  502 -0.16073287299E+03  0.32223192235E+03  0.17509519002E+03  0.40040828390E+03  0.25500000920E-02 0. -1.
</event>
<event>
 5   0  0.1597352E-03  0.1245618E+04  0.7818609E-02  0.9073839E-01
       -2   -1    0    0    0  501  0.00000000000E+00  0.00000000000E+00  0.33675210765E+03  0.33675210766E+03  0.25500000920E-02 0.  1.
        2   -1    0    0  501    0  0.00000000000E+00  0.00000000000E+00 -0.11518586679E+04  0.11518586679E+04  0.25500000920E-02 0. -1.
    10030    2    1    2    0    0  0.00000000000E+00  0.00000000000E+00 -0.81510656023E+03  0.14886107756E+04  0.12456176526E+04 0.  0.
        1    1    3    3  502    0  0.19435075373E+03  0.34106757955E+03 -0.98539751644E+03  0.10607108818E+04  0.50400001928E-02 0. -1.
       -1    1    3    3    0  502 -0.19435075373E+03 -0.34106757955E+03  0.17029095621E+03  0.42789989377E+03  0.50400001928E-02 0.  1.
</event>
<event>
 5   0  0.8908478E-04  0.1201666E+04  0.7818609E-02  0.9111400E-01
        1   -1    0    0  501    0  0.00000000000E+00  0.00000000000E+00  0.10517482858E+04  0.10517482858E+04  0.50400001928E-02 0. -1.
       -1   -1    0    0    0  501  0.00000000000E+00  0.00000000000E+00 -0.34323826349E+03  0.34323826353E+03  0.50400001928E-02 0.  1.
    10030    2    1    2    0    0  0.00000000000E+00  0.00000000000E+00  0.70851002227E+03  0.13949865493E+04  0.12016659357E+04 0.  0.
        4    1    3    3  502    0  0.34377120877E+03 -0.39030684988E+03  0.70344671169E+03  0.87484682666E+03  0.12699999809E+01 0. -1.
       -4    1    3    3    0  502 -0.34377120877E+03  0.39030684988E+03  0.50633105813E+01  0.52013972263E+03  0.12699999809E+01 0.  1.
</event>
<event>
 5   0  0.9170776E-04  0.1196098E+04  0.7818609E-02  0.9116279E-01
       -1   -1    0    0    0  501  0.00000000000E+00  0.00000000000E+00  0.96853297680E+03  0.96853297681E+03  0.50400001928E-02 0. -1.
        1   -1    0    0  501    0  0.00000000000E+00  0.00000000000E+00 -0.36928273747E+03  0.36928273751E+03  0.50400001928E-02 0.  1.
    10030    2    1    2    0    0  0.00000000000E+00  0.00000000000E+00  0.59925023932E+03  0.13378157143E+04  0.11960978372E+04 0.  0.
        5    1    3    3  502    0 -0.12314005941E+03  0.56893358132E+03  0.14630095781E+03  0.60022908497E+03  0.46999998093E+01 0.  1.
       -5    1    3    3    0  502  0.12314005941E+03 -0.56893358132E+03  0.45294928151E+03  0.73758662935E+03  0.46999998093E+01 0. -1.
</event>
<event>
 5   0  0.9169078E-04  0.1206379E+04  0.7818609E-02  0.9107291E-01
        1   -1    0    0  501    0  0.00000000000E+00  0.00000000000E+00  0.53524085309E+03  0.53524085312E+03  0.50400001928E-02 0. -1.
       -1   -1    0    0    0  501  0.00000000000E+00  0.00000000000E+00 -0.67976395631E+03  0.67976395633E+03  0.50400001928E-02 0.  1.
    10030    2    1    2    0    0  0.00000000000E+00  0.00000000000E+00 -0.14452310321E+03  0.12150048094E+04  0.12063787795E+04 0.  0.
        1    1    3    3  502    0 -0.51930652844E+03 -0.73430716670E+01  0.23669607745E+03  0.57075233183E+03  0.50400001928E-02 0. -1.
       -1    1    3    3    0  502  0.51930652844E+03  0.73430716670E+01 -0.38121918066E+03  0.64425247762E+03  0.50400001928E-02 0.  1.
</event>
<event>
 5   0  0.9208078E-04  0.1211310E+04  0.7818609E-02  0.9103014E-01
       -1   -1    0    0    0  501  0.00000000000E+00  0.00000000000E+00  0.42346309342E+03  0.42346309345E+03  0.50400001928E-02 0. -1.
        1   -1    0    0  501    0  0.00000000000E+00  0.00000000000E+00 -0.86623326318E+03  0.86623326320E+03  0.50400001928E-02 0.  1.
    10030    2    1    2    0    0  0.00000000000E+00  0.00000000000E+00 -0.44277016976E+03  0.12896963567E+04  0.12113097329E+04 0.  0.
        3    1    3    3  502    0 -0.36151892689E+03 -0.44224213687E+03 -0.43577003963E+03  0.71844942743E+03  0.10100000352E+00 0.  1.
       -3    1    3    3    0  502  0.36151892689E+03  0.44224213687E+03 -0.70001301303E+01  0.57124692923E+03  0.10100000352E+00 0. -1.
</event>
<event>
 5   0  0.1597352E-03  0.1202864E+04  0.7818609E-02  0.9110353E-01
        2   -1    0    0  501    0  0.00000000000E+00  0.00000000000E+00  0.91121731121E+03  0.91121731121E+03  0.25500000920E-02 0. -1.
       -2   -1    0    0    0  501  0.00000000000E+00  0.00000000000E+00 -0.39696395899E+03  0.39696395900E+03  0.25500000920E-02 0.  1.
    10030    2    1    2    0    0  0.00000000000E+00  0.00000000000E+00  0.51425335222E+03  0.13081812702E+04  0.12028639680E+04 0.  0.
        1    1    3    3  502    0 -0.17793462035E+03 -0.57425185879E+03  0.23846297945E+03  0.64675383187E+03  0.50400001928E-02 0.  1.
       -1    1    3    3    0  502  0.17793462035E+03  0.57425185879E+03  0.27579037277E+03  0.66142743834E+03  0.50400001928E-02 0. -1.
</event>
<event>
 5   0  0.1597352E-03  0.1194686E+04  0.7818609E-02  0.9117521E-01
        2   -1    0    0  501    0  0.00000000000E+00  0.00000000000E+00  0.78115582260E+03  0.78115582260E+03  0.25500000920E-02 0.  1.
       -2   -1    0    0    0  501  0.00000000000E+00  0.00000000000E+00 -0.45678284853E+03  0.45678284853E+03  0.25500000920E-02 0. -1.
    10030    2    1    2    0    0  0.00000000000E+00  0.00000000000E+00  0.32437297407E+03  0.12379386711E+04  0.11946858697E+04 0.  0.
        1    1    3    3  502    0 -0.26746087592E+03  0.51775743272E+03  0.29812489453E+03  0.65458882671E+03  0.50400001928E-02 0.  1.
       -1    1    3    3    0  502  0.26746087592E+03 -0.51775743272E+03  0.26248079539E+02  0.58334984443E+03  0.50400001928E-02 0. -1.
</event>
<event>
 5   0  0.6137750E-04  0.1201802E+04  0.7818609E-02  0.9111280E-01
        3   -1    0    0  501    0  0.00000000000E+00  0.00000000000E+00  0.35295002317E+03  0.35295003762E+03  0.10100000352E+00 0.  1.
       -3   -1    0    0    0  501  0.00000000000E+00  0.00000000000E+00 -0.10230407733E+04  0.10230407783E+04  0.10100000352E+00 0. -1.
    10030    2    1    2    0    0  0.00000000000E+00  0.00000000000E+00 -0.67009075014E+03  0.13759908159E+04  0.12018024430E+04 0.  0.
        2    1    3    3  502    0 -0.22958879571E+03  0.31381976644E+03  0.18949230221E+03  0.43255195471E+03  0.25500000920E-02 0.  1.
       -2    1    3    3    0  502  0.22958879571E+03 -0.31381976644E+03 -0.85958305236E+03  0.94343886120E+03  0.25500000920E-02 0. -1.
</event>
<event>
 5   0  0.1551501E-03  0.1188501E+04  0.7818609E-02  0.9122981E-01
       -2   -1    0    0    0  501  0.00000000000E+00  0.00000000000E+00  0.32115758138E+03  0.32115758139E+03  0.25500000920E-02 0. -1.
        2   -1    0    0  501    0  0.00000000000E+00  0.00000000000E+00 -0.10995656090E+04  0.10995656090E+04  0.25500000920E-02 0.  1.
    10030    2    1    2    0    0  0.00000000000E+00  0.00000000000E+00 -0.77840802757E+03  0.14207231904E+04  0.11885012942E+04 0.  0.
        4    1    3    3  502    0 -0.47949407526E+03 -0.57636671628E+01 -0.80875787342E+03  0.94023332146E+03  0.12699999809E+01 0.  1.
       -4    1    3    3    0  502  0.47949407526E+03  0.57636671628E+01  0.30349845846E+02  0.48048986889E+03  0.12699999809E+01 0. -1.
</event>
<event>
 5   0  0.9358428E-04  0.1199201E+04  0.7818609E-02  0.9113556E-01
        1   -1    0    0  501    0  0.00000000000E+00  0.00000000000E+00  0.55714849114E+03  0.55714849117E+03  0.50400001928E-02 0.  1.
       -1   -1    0    0    0  501  0.00000000000E+00  0.00000000000E+00 -0.64528724341E+03  0.64528724343E+03  0.50400001928E-02 0. -1.
    10030    2    1    2    0    0  0.00000000000E+00  0.00000000000E+00 -0.88138752271E+02  0.12024357346E+04  0.11992010908E+04 0.  0.
        2    1    3    3  502    0 -0.32362764477E+03  0.22582527966E+03  0.40857812481E+03  0.56803872533E+03  0.25500000920E-02 0.  1.
       -2    1    3    3    0  502  0.32362764477E+03 -0.22582527966E+03 -0.49671687708E+03  0.63439700927E+03  0.25500000920E-02 0. -1.
</event>
<event>
 5   0  0.1567019E-03  0.1192826E+04  0.7818609E-02  0.9119159E-01
        2   -1    0    0  501    0  0.00000000000E+00  0.00000000000E+00  0.87860155662E+03  0.87860155662E+03  0.25500000920E-02 0. -1.
       -2   -1    0    0    0  501  0.00000000000E+00  0.00000000000E+00 -0.40485742908E+03  0.40485742909E+03  0.25500000920E-02 0.  1.
    10030    2    1    2    0    0  0.00000000000E+00  0.00000000000E+00  0.47374412754E+03  0.12834589857E+04  0.11928258337E+04 0.  0.
        5    1    3    3  502    0  0.19640002987E+03  0.20034973232E+03  0.80314251977E+03  0.85074848459E+03  0.46999998093E+01 0. -1.
       -5    1    3    3    0  502 -0.19640002987E+03 -0.20034973232E+03 -0.32939839223E+03  0.43271050112E+03  0.46999998093E+01 0.  1.
</event>
<event>
 5   0  0.1567019E-03  0.1181171E+04  0.7818609E-02  0.9129499E-01
       -2   -1    0    0    0  501  0.00000000000E+00  0.00000000000E+00  0.28177351578E+03  0.28177351579E+03  0.25500000920E-02 0.  1.
        2   -1    0    0  501    0  0.00000000000E+00  0.00000000000E+00 -0.12378424337E+04  0.12378424337E+04  0.25500000920E-02 0. -1.
    10030    2    1    2    0    0  0.00000000000E+00  0.00000000000E+00 -0.95606891797E+03  0.15196159495E+04  0.11811709691E+04 0.  0.
        5    1    3    3  502    0 -0.35394386042E+03 -0.46921000729E+03 -0.55232925634E+03  0.80655067087E+03  0.46999998093E+01 0. -1.
       -5    1    3    3    0  502  0.35394386042E+03  0.46921000729E+03 -0.40373966163E+03  0.71306527867E+03  0.46999998093E+01 0.  1.
</event>
<event>
 5   0  0.1647550E-03  0.1197769E+04  0.7818609E-02  0.9114811E-01
        2   -1    0    0  501    0  0.00000000000E+00  0.00000000000E+00  0.10148703999E+04  0.10148703999E+04  0.25500000920E-02 0.  1.
       -2   -1    0    0    0  501  0.00000000000E+00  0.00000000000E+00 -0.35340737951E+03  0.35340737951E+03  0.25500000920E-02 0. -1.
    10030    2    1    2    0    0  0.00000000000E+00  0.00000000000E+00  0.66146302042E+03  0.13682777794E+04  0.11977690739E+04 0.  0.
        3    1    3    3  502    0 -0.54981172679E+03  0.10651816118E+03  0.57312525429E+03  0.80131867624E+03  0.10100000352E+00 0. -1.
       -3    1    3    3    0  502  0.54981172679E+03 -0.10651816118E+03  0.88337766125E+02  0.56695910320E+03  0.10100000352E+00 0.  1.
</event>
<event>
 5   0  0.1567019E-03  0.1196775E+04  0.7818609E-02  0.9115684E-01
       -2   -1    0    0    0  501  0.00000000000E+00  0.00000000000E+00  0.46495681077E+03  0.46495681077E+03  0.25500000920E-02 0.  1.
        2   -1    0    0  501    0  0.00000000000E+00  0.00000000000E+00 -0.77010937600E+03  0.77010937600E+03  0.25500000920E-02 0. -1.
    10030    2    1    2    0    0  0.00000000000E+00  0.00000000000E+00 -0.30515256523E+03  0.12350661868E+04  0.11967749988E+04 0.  0.
        5    1    3    3  502    0 -0.59819211547E+03 -0.11544577085E+02 -0.14343714113E+03  0.61527505046E+03  0.46999998093E+01 0. -1.
       -5    1    3    3    0  502  0.59819211547E+03  0.11544577085E+02 -0.16171542410E+03  0.61979113632E+03  0.46999998093E+01 0.  1.
</event>
<event>
 5   0  0.1537557E-03  0.1198873E+04  0.7818609E-02  0.9113844E-01
       -2   -1    0    0    0  501  0.00000000000E+00  0.00000000000E+00  0.30770196863E+03  0.30770196864E+03  0.25500000920E-02 0. -1.
        2   -1    0    0  501    0  0.00000000000E+00  0.00000000000E+00 -0.11677664674E+04  0.11677664674E+04  0.25500000920E-02 0.  1.
    10030    2    1    2    0    0  0.00000000000E+00  0.00000000000E+00 -0.86006449878E+03  0.14754684361E+04  0.11988728722E+04 0.  0.
        2    1    3    3  502    0  0.29986168266E+03 -0.36148552346E+03  0.28373617222E+02  0.47052510513E+03  0.25500000920E-02 0. -1.
       -2    1    3    3    0  502 -0.29986168266E+03  0.36148552346E+03 -0.88843811600E+03  0.10049433309E+04  0.25500000920E-02 0.  1.
</event>
<event>
 5   0  0.1567019E-03  0.1194070E+04  0.7818609E-02  0.9118063E-01
       -2   -1    0    0    0  501  0.00000000000E+00  0.00000000000E+00  0.10382712040E+04  0.10382712040E+04  0.25500000920E-02 0. -1.
        2   -1    0    0  501    0  0.00000000000E+00  0.00000000000E+00 -0.34331160691E+03  0.34331160692E+03  0.25500000920E-02 0.  1.
    10030    2    1    2    0    0  0.00000000000E+00  0.00000000000E+00  0.69495959704E+03  0.13815828109E+04  0.11940696051E+04 0.  0.
        5    1    3    3  502    0  0.19377008059E+03  0.36499912525E+03 -0.15106391684E+03  0.44001545715E+03  0.46999998093E+01 0.  1.
       -5    1    3    3    0  502 -0.19377008059E+03 -0.36499912525E+03  0.84602351388E+03  0.94156735373E+03  0.46999998093E+01 0. -1.
</event>
<event>
 5   0  0.1537557E-03  0.1199847E+04  0.7818609E-02  0.9112991E-01
        2   -1    0    0  501    0  0.00000000000E+00  0.00000000000E+00  0.14353226724E+04  0.14353226724E+04  0.25500000920E-02 0. -1.
       -2   -1    0    0    0  501  0.00000000000E+00  0.00000000000E+00 -0.25075068591E+03  0.25075068593E+03  0.25500000920E-02 0.  1.
    10030    2    1    2    0    0  0.00000000000E+00  0.00000000000E+00  0.11845719865E+04  0.16860733583E+04  0.11998468979E+04 0.  0.
        2    1    3    3  502    0 -0.37395333871E+03 -0.24734064636E+03  0.32143607285E+02  0.44950161999E+03  0.25500000920E-02 0. -1.
       -2    1    3    3    0  502  0.37395333871E+03  0.24734064636E+03  0.11524283792E+04  0.12365717383E+04  0.25500000920E-02 0.  1.
</event>
<event>
 5   0  0.1551501E-03  0.1202112E+04  0.7818609E-02  0.9111010E-01
        2   -1    0    0  501    0  0.00000000000E+00  0.00000000000E+00  0.24666566157E+04  0.24666566157E+04  0.25500000920E-02 0. -1.
       -2   -1    0    0    0  501  0.00000000000E+00  0.00000000000E+00 -0.14646080059E+03  0.14646080061E+03  0.25500000920E-02 0.  1.
    10030    2    1    2    0    0  0.00000000000E+00  0.00000000000E+00  0.23201958151E+04  0.26131174163E+04  0.12021123121E+04 0.  0.
        4    1    3    3  502    0  0.40433707844E+03 -0.20116526069E+03  0.20222688119E+04  0.20720831778E+04  0.12699999809E+01 0. -1.
       -4    1    3    3    0  502 -0.40433707844E+03  0.20116526069E+03  0.29792700314E+03  0.54103423848E+03  0.12699999809E+01 0.  1.
</event>
<event>
 5   0  0.1597352E-03  0.1198166E+04  0.7818609E-02  0.9114463E-01
        2   -1    0    0  501    0  0.00000000000E+00  0.00000000000E+00  0.41024536139E+03  0.41024536140E+03  0.25500000920E-02 0.  1.
       -2   -1    0    0    0  501  0.00000000000E+00  0.00000000000E+00 -0.87484345952E+03  0.87484345952E+03  0.25500000920E-02 0. -1.
    10030    2    1    2    0    0  0.00000000000E+00  0.00000000000E+00 -0.46459809813E+03  0.12850888209E+04  0.11981660506E+04 0.  0.
        1    1    3    3  502    0 -0.29563043195E+03  0.31231278779E+03  0.21504908513E+03  0.48081466154E+03  0.50400001928E-02 0.  1.
       -1    1    3    3    0  502  0.29563043195E+03 -0.31231278779E+03 -0.67964718326E+03  0.80427415938E+03  0.50400001928E-02 0. -1.
</event>
<event>
 5   0  0.9169078E-04  0.1199044E+04  0.7818609E-02  0.9113694E-01
       -1   -1    0    0    0  501  0.00000000000E+00  0.00000000000E+00  0.53816039650E+03  0.53816039652E+03  0.50400001928E-02 0. -1.
        1   -1    0    0  501    0  0.00000000000E+00  0.00000000000E+00 -0.66787974482E+03  0.66787974484E+03  0.50400001928E-02 0.  1.
    10030    2    1    2    0    0  0.00000000000E+00  0.00000000000E+00 -0.12971934832E+03  0.12060401414E+04  0.11990436661E+04 0.  0.
        1    1    3    3  502    0 -0.43442276384E+02  0.59704792518E+03 -0.31912289350E+02  0.59947631360E+03  0.50400001928E-02 0. -1.
       -1    1    3    3    0  502  0.43442276384E+02 -0.59704792518E+03 -0.97807058970E+02  0.60656382776E+03  0.50400001928E-02 0.  1.
</event>
<event>
 5   0  0.9170776E-04  0.1197990E+04  0.7818609E-02  0.9114617E-01
       -1   -1    0    0    0  501  0.00000000000E+00  0.00000000000E+00  0.39784031856E+03  0.39784031859E+03  0.50400001928E-02 0. -1.
        1   -1    0    0  501    0  0.00000000000E+00  0.00000000000E+00 -0.90185730378E+03  0.90185730380E+03  0.50400001928E-02 0.  1.
    10030    2    1    2    0    0  0.00000000000E+00  0.00000000000E+00 -0.50401698522E+03  0.12996976224E+04  0.11979903123E+04 0.  0.
        5    1    3    3  502    0 -0.45344089346E+03  0.39135739805E+03 -0.25413727084E+03  0.65067434197E+03  0.46999998093E+01 0.  1.
       -5    1    3    3    0  502  0.45344089346E+03 -0.39135739805E+03 -0.24987971438E+03  0.64902328042E+03  0.46999998093E+01 0. -1.
</event>
<event>
 5   0  0.9358428E-04  0.1195052E+04  0.7818609E-02  0.9117198E-01
       -1   -1    0    0    0  501  0.00000000000E+00  0.00000000000E+00  0.48046955939E+03  0.48046955942E+03  0.50400001928E-02 0. -1.
        1   -1    0    0  501    0  0.00000000000E+00  0.00000000000E+00 -0.74310119767E+03  0.74310119769E+03  0.50400001928E-02 0.  1.
    10030    2    1    2    0    0  0.00000000000E+00  0.00000000000E+00 -0.26263163828E+03  0.12235707571E+04  0.11950523086E+04 0.  0.
        2    1    3    3  502    0 -0.39918608423E+03  0.38433976955E+03  0.97560485160E+02  0.56265854350E+03  0.25500000920E-02 0. -1.
       -2    1    3    3    0  502  0.39918608423E+03 -0.38433976955E+03 -0.36019212344E+03  0.66091221361E+03  0.25500000920E-02 0.  1.
</event>
<event>
 5   0  0.9170776E-04  0.1197385E+04  0.7818609E-02  0.9115148E-01
        1   -1    0    0  501    0  0.00000000000E+00  0.00000000000E+00  0.15329597851E+04  0.15329597851E+04  0.50400001928E-02 0. -1.
       -1   -1    0    0    0  501  0.00000000000E+00  0.00000000000E+00 -0.23381743484E+03  0.23381743490E+03  0.50400001928E-02 0.  1.
    10030    2    1    2    0    0  0.00000000000E+00  0.00000000000E+00  0.12991423503E+04  0.17667772200E+04  0.11973850253E+04 0.  0.
        5    1    3    3  502    0 -0.10565227100E+03 -0.33783585282E+03  0.13619864714E+04  0.14072401018E+04  0.46999998093E+01 0. -1.
       -5    1    3    3    0  502  0.10565227100E+03  0.33783585282E+03 -0.62844121133E+02  0.35953711822E+03  0.46999998093E+01 0.  1.
</event>
<event>
 5   0  0.1597352E-03  0.1197200E+04  0.7818609E-02  0.9115311E-01
       -2   -1    0    0    0  501  0.00000000000E+00  0.00000000000E+00  0.49949748539E+03  0.49949748539E+03  0.25500000920E-02 0. -1.
        2   -1    0    0  501    0  0.00000000000E+00  0.00000000000E+00 -0.71736465148E+03  0.71736465149E+03  0.25500000920E-02 0.  1.
    10030    2    1    2    0    0  0.00000000000E+00  0.00000000000E+00 -0.21786716609E+03  0.12168621369E+04  0.11971997987E+04 0.  0.
        1    1    3    3  502    0  0.36013530211E+03 -0.43899257755E+03  0.83677806753E+02  0.57394589844E+03  0.50400001928E-02 0.  1.
       -1    1    3    3    0  502 -0.36013530211E+03  0.43899257755E+03 -0.30154497285E+03  0.64291623844E+03  0.50400001928E-02 0. -1.
</event>
<event>
 5   0  0.1551501E-03  0.1200140E+04  0.7818609E-02  0.9112734E-01
       -2   -1    0    0    0  501  0.00000000000E+00  0.00000000000E+00  0.23078219447E+03  0.23078219448E+03  0.25500000920E-02 0. -1.
        2   -1    0    0  501    0  0.00000000000E+00  0.00000000000E+00 -0.15602753173E+04  0.15602753173E+04  0.25500000920E-02 0.  1.
    10030    2    1    2    0    0  0.00000000000E+00  0.00000000000E+00 -0.13294931228E+04  0.17910575118E+04  0.12001395947E+04 0.  0.
        4    1    3    3  502    0 -0.20872661955E+02 -0.39322499942E+03  0.10988567632E+02  0.39393391541E+03  0.12699999809E+01 0. -1.
       -4    1    3    3    0  502  0.20872661955E+02  0.39322499942E+03 -0.13404816905E+04  0.13971235964E+04  0.12699999809E+01 0.  1.
</event>
<event>
 5   0  0.8908478E-04  0.1258115E+04  0.7818609E-02  0.9063456E-01
        1   -1    0    0  501    0  0.00000000000E+00  0.00000000000E+00  0.70546938864E+03  0.70546938866E+03  0.50400001928E-02 0.  1.
       -1   -1    0    0    0  501  0.00000000000E+00  0.00000000000E+00 -0.56092191262E+03  0.56092191264E+03  0.50400001928E-02 0. -1.
    10030    2    1    2    0    0  0.00000000000E+00  0.00000000000E+00  0.14454747602E+03  0.12663913013E+04  0.12581148418E+04 0.  0.
        4    1    3    3  502    0 -0.52963126225E+03  0.16319634838E+03  0.37183748112E+03  0.66738822835E+03  0.12699999809E+01 0.  1.
       -4    1    3    3    0  502  0.52963126225E+03 -0.16319634838E+03 -0.22729000510E+03  0.59900307295E+03  0.12699999809E+01 0. -1.
</event>
<event>
 5   0  0.9358428E-04  0.1144696E+04  0.7818609E-02  0.9162691E-01
       -1   -1    0    0    0  501  0.00000000000E+00  0.00000000000E+00  0.34055336038E+03  0.34055336042E+03  0.50400001928E-02 0.  1.
        1   -1    0    0  501    0  0.00000000000E+00  0.00000000000E+00 -0.96191102664E+03  0.96191102665E+03  0.50400001928E-02 0. -1.
    10030    2    1    2    0    0  0.00000000000E+00  0.00000000000E+00 -0.62135766625E+03  0.13024643871E+04  0.11446956496E+04 0.  0.
        2    1    3    3  502    0  0.50069055420E+02 -0.49038509484E+03  0.20265384596E+02  0.49335092720E+03  0.25500000920E-02 0.  1.
       -2    1    3    3    0  502 -0.50069055420E+02  0.49038509484E+03 -0.64162305085E+03  0.80911345987E+03  0.25500000920E-02 0. -1.
</event>
<event>
 5   0  0.9358428E-04  0.1204362E+04  0.7818609E-02  0.9109047E-01
        1   -1    0    0  501    0  0.00000000000E+00  0.00000000000E+00  0.86615188451E+03  0.86615188453E+03  0.50400001928E-02 0.  1.
       -1   -1    0    0    0  501  0.00000000000E+00  0.00000000000E+00 -0.41865895603E+03  0.41865895606E+03  0.50400001928E-02 0. -1.
    10030    2    1    2    0    0  0.00000000000E+00  0.00000000000E+00  0.44749292848E+03  0.12848108406E+04  0.12043624766E+04 0.  0.
        2    1    3    3  502    0  0.20940643553E+02 -0.50572409751E+03 -0.12427627580E+03  0.52119091136E+03  0.25500000920E-02 0. -1.
       -2    1    3    3    0  502 -0.20940643553E+02  0.50572409751E+03  0.57176920428E+03  0.76361992923E+03  0.25500000920E-02 0.  1.
</event>
<event>
 5   0  0.1537557E-03  0.1193112E+04  0.7818609E-02  0.9118907E-01
       -2   -1    0    0    0  501  0.00000000000E+00  0.00000000000E+00  0.90294034120E+03  0.90294034120E+03  0.25500000920E-02 0.  1.
        2   -1    0    0  501    0  0.00000000000E+00  0.00000000000E+00 -0.39413319945E+03  0.39413319946E+03  0.25500000920E-02 0. -1.
    10030    2    1    2    0    0  0.00000000000E+00  0.00000000000E+00  0.50880714174E+03  0.12970735407E+04  0.11931115046E+04 0.  0.
        2    1    3    3  502    0 -0.18621066638E+03 -0.22232476202E+03 -0.31234333877E+03  0.42621716690E+03  0.25500000920E-02 0. -1.
       -2    1    3    3    0  502  0.18621066638E+03  0.22232476202E+03  0.82115048051E+03  0.87085637376E+03  0.25500000920E-02 0.  1.
</event>
<event>
 5   0  0.8908478E-04  0.1212943E+04  0.7818609E-02  0.9101602E-01
       -1   -1    0    0    0  501  0.00000000000E+00  0.00000000000E+00  0.67293862017E+03  0.67293862019E+03  0.50400001928E-02 0.  1.
        1   -1    0    0  501    0  0.00000000000E+00  0.00000000000E+00 -0.54656966494E+03  0.54656966496E+03  0.50400001928E-02 0. -1.
    10030    2    1    2    0    0  0.00000000000E+00  0.00000000000E+00  0.12636895523E+03  0.12195082852E+04  0.12129432570E+04 0.  0.
        4    1    3    3  502    0 -0.29531076201E+03 -0.34183269213E+03 -0.34366383746E+03  0.56759535027E+03  0.12699999809E+01 0. -1.
       -4    1    3    3    0  502  0.29531076201E+03  0.34183269213E+03  0.47003279269E+03  0.65191293489E+03  0.12699999809E+01 0.  1.
</event>
<event>
 5   0  0.9358428E-04  0.1209849E+04  0.7818609E-02  0.9104279E-01
       -1   -1    0    0    0  501  0.00000000000E+00  0.00000000000E+00  0.43031695900E+03  0.43031695903E+03  0.50400001928E-02 0.  1.
        1   -1    0    0  501    0  0.00000000000E+00  0.00000000000E+00 -0.85038217604E+03  0.85038217606E+03  0.50400001928E-02 0. -1.
    10030    2    1    2    0    0  0.00000000000E+00  0.00000000000E+00 -0.42006521704E+03  0.12806991351E+04  0.12098493659E+04 0.  0.
        2    1    3    3  502    0 -0.41154059509E+03 -0.24348966828E+03 -0.60224473712E+03  0.76899389033E+03  0.25500000920E-02 0. -1.
       -2    1    3    3    0  502  0.41154059509E+03  0.24348966828E+03  0.18217952008E+03  0.51170524476E+03  0.25500000920E-02 0.  1.
</event>
<event>
 5   0  0.9208078E-04  0.1218602E+04  0.7818609E-02  0.9096729E-01
        1   -1    0    0  501    0  0.00000000000E+00  0.00000000000E+00  0.11909519004E+04  0.11909519004E+04  0.50400001928E-02 0. -1.
       -1   -1    0    0    0  501  0.00000000000E+00  0.00000000000E+00 -0.31172337317E+03  0.31172337321E+03  0.50400001928E-02 0.  1.
    10030    2    1    2    0    0  0.00000000000E+00  0.00000000000E+00  0.87922852722E+03  0.15026752736E+04  0.12186017294E+04 0.  0.
        3    1    3    3  502    0 -0.52774878949E+03  0.46630417930E+02  0.81068611889E+03  0.96845504503E+03  0.10100000352E+00 0. -1.
       -3    1    3    3    0  502  0.52774878949E+03 -0.46630417930E+02  0.68542408329E+02  0.53422022858E+03  0.10100000352E+00 0.  1.
</event>
<event>
 5   0  0.8908478E-04  0.1197215E+04  0.7818609E-02  0.9115298E-01
       -1   -1    0    0    0  501  0.00000000000E+00  0.00000000000E+00  0.32373509099E+03  0.32373509103E+03  0.50400001928E-02 0.  1.
        1   -1    0    0  501    0  0.00000000000E+00  0.00000000000E+00 -0.11068642730E+04  0.11068642731E+04  0.50400001928E-02 0. -1.
    10030    2    1    2    0    0  0.00000000000E+00  0.00000000000E+00 -0.78312918206E+03  0.14305993641E+04  0.11972147780E+04 0.  0.
        4    1    3    3  502    0 -0.45001473771E+03  0.11694635120E+03 -0.84207343381E+03  0.96191423425E+03  0.12699999809E+01 0. -1.
       -4    1    3    3    0  502  0.45001473771E+03 -0.11694635120E+03  0.58944251749E+02  0.46868512984E+03  0.12699999809E+01 0.  1.
</event>
<event>
 5   0  0.1551501E-03  0.1199598E+04  0.7818609E-02  0.9113208E-01
       -2   -1    0    0    0  501  0.00000000000E+00  0.00000000000E+00  0.31751729895E+03  0.31751729896E+03  0.25500000920E-02 0. -1.
        2   -1    0    0  501    0  0.00000000000E+00  0.00000000000E+00 -0.11330371888E+04  0.11330371888E+04  0.25500000920E-02 0.  1.
    10030    2    1    2    0    0  0.00000000000E+00  0.00000000000E+00 -0.81551988980E+03  0.14505544877E+04  0.11995981124E+04 0.  0.
        4    1    3    3  502    0  0.13401641653E+03 -0.78625166145E+02  0.29275747707E+03  0.33143758075E+03  0.12699999809E+01 0. -1.
       -4    1    3    3    0  502 -0.13401641653E+03  0.78625166145E+02 -0.11082773669E+04  0.11191169070E+04  0.12699999809E+01 0.  1.
</event>
<event>
 5   0  0.1537557E-03  0.1198298E+04  0.7818609E-02  0.9114348E-01
       -2   -1    0    0    0  501  0.00000000000E+00  0.00000000000E+00  0.19634308862E+03  0.19634308864E+03  0.25500000920E-02 0. -1.
        2   -1    0    0  501    0  0.00000000000E+00  0.00000000000E+00 -0.18283272096E+04  0.18283272096E+04  0.25500000920E-02 0.  1.
    10030    2    1    2    0    0  0.00000000000E+00  0.00000000000E+00 -0.16319841210E+04  0.20246702982E+04  0.11982978117E+04 0.  0.
        2    1    3    3  502    0 -0.21835869347E+03  0.11068312639E+03 -0.17399667971E+04  0.17571043590E+04  0.25500000920E-02 0.  1.
       -2    1    3    3    0  502  0.21835869347E+03 -0.11068312639E+03  0.10798267612E+03  0.26756593922E+03  0.25500000920E-02 0. -1.
</event>
<event>
 5   0  0.1567019E-03  0.1189054E+04  0.7818609E-02  0.9122492E-01
        2   -1    0    0  501    0  0.00000000000E+00  0.00000000000E+00  0.96671553837E+03  0.96671553838E+03  0.25500000920E-02 0.  1.
       -2   -1    0    0    0  501  0.00000000000E+00  0.00000000000E+00 -0.36563209878E+03  0.36563209879E+03  0.25500000920E-02 0. -1.
    10030    2    1    2    0    0  0.00000000000E+00  0.00000000000E+00  0.60108343959E+03  0.13323476372E+04  0.11890537939E+04 0.  0.
        5    1    3    3  502    0 -0.76329878384E+02 -0.44278081842E+02  0.95931569407E+03  0.96337712748E+03  0.46999998093E+01 0.  1.
       -5    1    3    3    0  502  0.76329878384E+02  0.44278081842E+02 -0.35823225448E+03  0.36897050968E+03  0.46999998093E+01 0. -1.
</event>
<event>
 5   0  0.1647550E-03  0.1205169E+04  0.7818609E-02  0.9108344E-01
       -2   -1    0    0    0  501  0.00000000000E+00  0.00000000000E+00  0.15954361838E+03  0.15954361840E+03  0.25500000920E-02 0. -1.
        2   -1    0    0  501    0  0.00000000000E+00  0.00000000000E+00 -0.22759170008E+04  0.22759170008E+04  0.25500000920E-02 0.  1.
    10030    2    1    2    0    0  0.00000000000E+00  0.00000000000E+00 -0.21163733824E+04  0.24354606192E+04  0.12051689234E+04 0.  0.
        3    1    3    3  502    0 -0.42102574306E+03  0.36074627397E+03 -0.15351554298E+04  0.16322079384E+04  0.10100000352E+00 0.  1.
       -3    1    3    3    0  502  0.42102574306E+03 -0.36074627397E+03 -0.58121795264E+03  0.80325268077E+03  0.10100000352E+00 0. -1.
</event>
<event>
 5   0  0.1597352E-03  0.1138197E+04  0.7818609E-02  0.9168742E-01
        2   -1    0    0  501    0  0.00000000000E+00  0.00000000000E+00  0.75721938098E+03  0.75721938099E+03  0.25500000920E-02 0. -1.
       -2   -1    0    0    0  501  0.00000000000E+00  0.00000000000E+00 -0.42771341020E+03  0.42771341021E+03  0.25500000920E-02 0.  1.
    10030    2    1    2    0    0  0.00000000000E+00  0.00000000000E+00  0.32950597078E+03  0.11849327912E+04  0.11381966152E+04 0.  0.
        1    1    3    3  502    0 -0.53380412954E+03  0.18179536444E+03  0.84947071368E+02  0.57027397644E+03  0.50400001928E-02 0. -1.
       -1    1    3    3    0  502  0.53380412954E+03 -0.18179536444E+03  0.24455889941E+03  0.61465881475E+03  0.50400001928E-02 0.  1.
</event>
<event>
 5   0  0.9208078E-04  0.1230869E+04  0.7818609E-02  0.9086258E-01
       -1   -1    0    0    0  501  0.00000000000E+00  0.00000000000E+00  0.26390987666E+03  0.26390987671E+03  0.50400001928E-02 0.  1.
        1   -1    0    0  501    0  0.00000000000E+00  0.00000000000E+00 -0.14351854621E+04  0.14351854621E+04  0.50400001928E-02 0. -1.
    10030    2    1    2    0    0  0.00000000000E+00  0.00000000000E+00 -0.11712755854E+04  0.16990953388E+04  0.12308689911E+04 0.  0.
        3    1    3    3  502    0 -0.33688629743E+03 -0.51483230307E+03 -0.56540038426E+03  0.83559696170E+03  0.10100000352E+00 0.  1.
       -3    1    3    3    0  502  0.33688629743E+03  0.51483230307E+03 -0.60587520114E+03  0.86349837709E+03  0.10100000352E+00 0. -1.
</event>
<event>
 5   0  0.9208078E-04  0.1188349E+04  0.7818609E-02  0.9123117E-01
       -1   -1    0    0    0  501  0.00000000000E+00  0.00000000000E+00  0.82783929986E+03  0.82783929987E+03  0.50400001928E-02 0.  1.
        1   -1    0    0  501    0  0.00000000000E+00  0.00000000000E+00 -0.42646327360E+03  0.42646327363E+03  0.50400001928E-02 0. -1.
    10030    2    1    2    0    0  0.00000000000E+00  0.00000000000E+00  0.40137602626E+03  0.12543025735E+04  0.11883485311E+04 0.  0.
        3    1    3    3  502    0  0.46423021520E+03  0.36983790741E+03  0.17171885409E+03  0.61788117427E+03  0.10100000352E+00 0. -1.
       -3    1    3    3    0  502 -0.46423021520E+03 -0.36983790741E+03  0.22965717217E+03  0.63642139923E+03  0.10100000352E+00 0.  1.
</event>
<event>
 5   0  0.1647550E-03  0.1207512E+04  0.7818609E-02  0.9106307E-01
       -2   -1    0    0    0  501  0.00000000000E+00  0.00000000000E+00  0.12346368690E+04  0.12346368690E+04  0.25500000920E-02 0.  1.
        2   -1    0    0  501    0  0.00000000000E+00  0.00000000000E+00 -0.29524569218E+03  0.29524569219E+03  0.25500000920E-02 0. -1.
    10030    2    1    2    0    0  0.00000000000E+00  0.00000000000E+00  0.93939117683E+03  0.15298825612E+04  0.12075118500E+04 0.  0.
        3    1    3    3  502    0 -0.37543388944E+03 -0.31767413861E+03  0.91341363868E+03  0.10373967174E+04  0.10100000352E+00 0.  1.
       -3    1    3    3    0  502  0.37543388944E+03  0.31767413861E+03  0.25977538153E+02  0.49248584383E+03  0.10100000352E+00 0. -1.
</event>
<event>
 5   0  0.8908478E-04  0.1206903E+04  0.7818609E-02  0.9106835E-01
       -1   -1    0    0    0  501  0.00000000000E+00  0.00000000000E+00  0.57816936880E+03  0.57816936882E+03  0.50400001928E-02 0.  1.
        1   -1    0    0  501    0  0.00000000000E+00  0.00000000000E+00 -0.62983949710E+03  0.62983949712E+03  0.50400001928E-02 0. -1.
    10030    2    1    2    0    0  0.00000000000E+00  0.00000000000E+00 -0.51670128298E+02  0.12080088659E+04  0.12069033176E+04 0.  0.
        4    1    3    3  502    0  0.26939407135E+03 -0.28037446691E+02 -0.56558131596E+03  0.62709098380E+03  0.12699999809E+01 0. -1.
       -4    1    3    3    0  502 -0.26939407135E+03  0.28037446691E+02  0.51391118766E+03  0.58091788215E+03  0.12699999809E+01 0.  1.
</event>
<event>
 5   0  0.1597352E-03  0.1196603E+04  0.7818609E-02  0.9115835E-01
        2   -1    0    0  501    0  0.00000000000E+00  0.00000000000E+00  0.16974839339E+04  0.16974839339E+04  0.25500000920E-02 0. -1.
       -2   -1    0    0    0  501  0.00000000000E+00  0.00000000000E+00 -0.21087966196E+03  0.21087966197E+03  0.25500000920E-02 0.  1.
    10030    2    1    2    0    0  0.00000000000E+00  0.00000000000E+00  0.14866042720E+04  0.19083635959E+04  0.11966032562E+04 0.  0.
        1    1    3    3  502    0 -0.10646347881E+03 -0.35168834996E+03 -0.97247185651E+01  0.36757820664E+03  0.50400001928E-02 0.  1.
       -1    1    3    3    0  502  0.10646347881E+03  0.35168834996E+03  0.14963289905E+04  0.15407853893E+04  0.50400001928E-02 0. -1.
</event>
<event>
 5   0  0.1647550E-03  0.1195509E+04  0.7818609E-02  0.9116796E-01
       -2   -1    0    0    0  501  0.00000000000E+00  0.00000000000E+00  0.33825471154E+03  0.33825471155E+03  0.25500000920E-02 0.  1.
        2   -1    0    0  501    0  0.00000000000E+00  0.00000000000E+00 -0.10563360155E+04  0.10563360156E+04  0.25500000920E-02 0. -1.
    10030    2    1    2    0    0  0.00000000000E+00  0.00000000000E+00 -0.71808130401E+03  0.13945907271E+04  0.11955093212E+04 0.  0.
        3    1    3    3  502    0 -0.29854770363E+02 -0.16274193188E+03  0.31100993665E+03  0.35228317388E+03  0.10100000352E+00 0.  1.
       -3    1    3    3    0  502  0.29854770363E+02  0.16274193188E+03 -0.10290912407E+04  0.10423075532E+04  0.10100000352E+00 0. -1.
</event>
<event>
 5   0  0.9169078E-04  0.1198919E+04  0.7818609E-02  0.9113804E-01
        1   -1    0    0  501    0  0.00000000000E+00  0.00000000000E+00  0.83336876144E+03  0.83336876145E+03  0.50400001928E-02 0. -1.
       -1   -1    0    0    0  501  0.00000000000E+00  0.00000000000E+00 -0.43120349669E+03  0.43120349672E+03  0.50400001928E-02 0.  1.
    10030    2    1    2    0    0  0.00000000000E+00  0.00000000000E+00  0.40216526475E+03  0.12645722582E+04  0.11989187195E+04 0.  0.
        1    1    3    3  502    0  0.23152123770E+03  0.53353585617E+03  0.47909995697E+02  0.58357344099E+03  0.50400001928E-02 0. -1.
       -1    1    3    3    0  502 -0.23152123770E+03 -0.53353585617E+03  0.35425526905E+03  0.68099881718E+03  0.50400001928E-02 0.  1.
</event>
<event>
 5   0  0.1647550E-03  0.1216550E+04  0.7818609E-02  0.9098493E-01
        2   -1    0    0  501    0  0.00000000000E+00  0.00000000000E+00  0.75474263765E+03  0.75474263765E+03  0.25500000920E-02 0. -1.
       -2   -1    0    0    0  501  0.00000000000E+00  0.00000000000E+00 -0.49023121851E+03  0.49023121851E+03  0.25500000920E-02 0.  1.
    10030    2    1    2    0    0  0.00000000000E+00  0.00000000000E+00  0.26451141914E+03  0.12449738562E+04  0.12165498805E+04 0.  0.
        3    1    3    3  502    0 -0.13549493082E+03 -0.24384898509E+03  0.68541914395E+03  0.74001393021E+03  0.10100000352E+00 0. -1.
       -3    1    3    3    0  502  0.13549493082E+03  0.24384898509E+03 -0.42090772481E+03  0.50495992595E+03  0.10100000352E+00 0.  1.
</event>
<event>
 5   0  0.1597352E-03  0.1197499E+04  0.7818609E-02  0.9115049E-01
        2   -1    0    0  501    0  0.00000000000E+00  0.00000000000E+00  0.16269471859E+04  0.16269471859E+04  0.25500000920E-02 0. -1.
       -2   -1    0    0    0  501  0.00000000000E+00  0.00000000000E+00 -0.22035184425E+03  0.22035184427E+03  0.25500000920E-02 0.  1.
    10030    2    1    2    0    0  0.00000000000E+00  0.00000000000E+00  0.14065953417E+04  0.18472990302E+04  0.11974987481E+04 0.  0.
        1    1    3    3  502    0  0.25095733657E+03 -0.46388969374E+03  0.11405120899E+04  0.12565592147E+04  0.50400001928E-02 0. -1.
       -1    1    3    3    0  502 -0.25095733657E+03  0.46388969374E+03  0.26608325175E+03  0.59073981550E+03  0.50400001928E-02 0.  1.
</event>
<event>
 5   0  0.9358428E-04  0.1188316E+04  0.7818609E-02  0.9123145E-01
        1   -1    0    0  501    0  0.00000000000E+00  0.00000000000E+00  0.10818483896E+04  0.10818483896E+04  0.50400001928E-02 0. -1.
       -1   -1    0    0    0  501  0.00000000000E+00  0.00000000000E+00 -0.32631547900E+03  0.32631547904E+03  0.50400001928E-02 0.  1.
    10030    2    1    2    0    0  0.00000000000E+00  0.00000000000E+00  0.75553291061E+03  0.14081638686E+04  0.11883162466E+04 0.  0.
        2    1    3    3  502    0  0.56183078223E+03  0.16455816603E+03  0.25755586594E+03  0.63958442910E+03  0.25500000920E-02 0. -1.
       -2    1    3    3    0  502 -0.56183078223E+03 -0.16455816603E+03  0.49797704467E+03  0.76857943954E+03  0.25500000920E-02 0.  1.
</event>
<event>
 5   0  0.1551501E-03  0.1200365E+04  0.7818609E-02  0.9112537E-01
        2   -1    0    0  501    0  0.00000000000E+00  0.00000000000E+00  0.49366774437E+03  0.49366774438E+03  0.25500000920E-02 0. -1.
       -2   -1    0    0    0  501  0.00000000000E+00  0.00000000000E+00 -0.72967947615E+03  0.72967947615E+03  0.25500000920E-02 0.  1.
    10030    2    1    2    0    0  0.00000000000E+00  0.00000000000E+00 -0.23601173177E+03  0.12233472205E+04  0.12003653129E+04 0.  0.
        4    1    3    3  502    0 -0.53266050540E+03 -0.24668282871E+03 -0.24545197370E+03  0.63626088697E+03  0.12699999809E+01 0. -1.
       -4    1    3    3    0  502  0.53266050540E+03  0.24668282871E+03  0.94402419215E+01  0.58708633357E+03  0.12699999809E+01 0.  1.
</event>
<event>
 5   0  0.1537557E-03  0.1212957E+04  0.7818609E-02  0.9101590E-01
       -2   -1    0    0    0  501  0.00000000000E+00  0.00000000000E+00  0.24673716343E+03  0.24673716345E+03  0.25500000920E-02 0. -1.
        2   -1    0    0  501    0  0.00000000000E+00  0.00000000000E+00 -0.14907203647E+04  0.14907203647E+04  0.25500000920E-02 0.  1.
    10030    2    1    2    0    0  0.00000000000E+00  0.00000000000E+00 -0.12439832013E+04  0.17374575282E+04  0.12129569065E+04 0.  0.
        2    1    3    3  502    0  0.14761850913E+03 -0.19430753781E+01  0.22060582082E+03  0.26544665747E+03  0.25500000920E-02 0. -1.
       -2    1    3    3    0  502 -0.14761850913E+03  0.19430753781E+01 -0.14645890221E+04  0.14720108707E+04  0.25500000920E-02 0.  1.
</event>
<event>
 5   0  0.9208078E-04  0.1197821E+04  0.7818609E-02  0.9114766E-01
       -1   -1    0    0    0  501  0.00000000000E+00  0.00000000000E+00  0.23919556331E+03  0.23919556336E+03  0.50400001928E-02 0. -1.
        1   -1    0    0  501    0  0.00000000000E+00  0.00000000000E+00 -0.14995846539E+04  0.14995846540E+04  0.50400001928E-02 0.  1.
    10030    2    1    2    0    0  0.00000000000E+00  0.00000000000E+00 -0.12603890906E+04  0.17387802173E+04  0.11978213491E+04 0.  0.
        3    1    3    3  502    0 -0.33966076674E+03 -0.16069162872E+03  0.46799762457E+02  0.37865744938E+03  0.10100000352E+00 0. -1.
       -3    1    3    3    0  502  0.33966076674E+03  0.16069162872E+03 -0.13071888531E+04  0.13601227679E+04  0.10100000352E+00 0.  1.
</event>
<event>
 5   0  0.8908478E-04  0.1194377E+04  0.7818609E-02  0.9117793E-01
        1   -1    0    0  501    0  0.00000000000E+00  0.00000000000E+00  0.80158812095E+03  0.80158812097E+03  0.50400001928E-02 0. -1.
       -1   -1    0    0    0  501  0.00000000000E+00  0.00000000000E+00 -0.44490937205E+03  0.44490937208E+03  0.50400001928E-02 0.  1.
    10030    2    1    2    0    0  0.00000000000E+00  0.00000000000E+00  0.35667874890E+03  0.12464974930E+04  0.11943769381E+04 0.  0.
        4    1    3    3  502    0  0.47826051788E+02 -0.53917595019E+03 -0.84927391858E+02  0.54791633602E+03  0.12699999809E+01 0.  1.
       -4    1    3    3    0  502 -0.47826051788E+02  0.53917595019E+03  0.44160614076E+03  0.69858115702E+03  0.12699999809E+01 0. -1.
</event>
<event>
 5   0  0.9170776E-04  0.1189491E+04  0.7818609E-02  0.9122105E-01
       -1   -1    0    0    0  501  0.00000000000E+00  0.00000000000E+00  0.85756226587E+03  0.85756226588E+03  0.50400001928E-02 0.  1.
        1   -1    0    0  501    0  0.00000000000E+00  0.00000000000E+00 -0.41247425971E+03  0.41247425974E+03  0.50400001928E-02 0. -1.
    10030    2    1    2    0    0  0.00000000000E+00  0.00000000000E+00  0.44508800616E+03  0.12700365256E+04  0.11894912539E+04 0.  0.
        5    1    3    3  502    0  0.22244698532E+03  0.98466352266E+02  0.80199113689E+03  0.83808720159E+03  0.46999998093E+01 0.  1.
       -5    1    3    3    0  502 -0.22244698532E+03 -0.98466352266E+02 -0.35690313073E+03  0.43194932404E+03  0.46999998093E+01 0. -1.
</event>
<event>
 5   0  0.8908478E-04  0.1204049E+04  0.7818609E-02  0.9109320E-01
        1   -1    0    0  501    0  0.00000000000E+00  0.00000000000E+00  0.45967964433E+03  0.45967964436E+03  0.50400001928E-02 0. -1.
       -1   -1    0    0    0  501  0.00000000000E+00  0.00000000000E+00 -0.78844816379E+03  0.78844816380E+03  0.50400001928E-02 0.  1.
    10030    2    1    2    0    0  0.00000000000E+00  0.00000000000E+00 -0.32876851945E+03  0.12481278082E+04  0.12040491211E+04 0.  0.
        4    1    3    3  502    0 -0.45820841861E+03 -0.22883476275E+03 -0.49237167098E+03  0.71045885089E+03  0.12699999809E+01 0.  1.
       -4    1    3    3    0  502  0.45820841861E+03  0.22883476275E+03  0.16360315153E+03  0.53766895727E+03  0.12699999809E+01 0. -1.
</event>
<event>
 5   0  0.9169078E-04  0.1200566E+04  0.7818609E-02  0.9112361E-01
       -1   -1    0    0    0  501  0.00000000000E+00  0.00000000000E+00  0.49347824149E+03  0.49347824152E+03  0.50400001928E-02 0.  1.
        1   -1    0    0  501    0  0.00000000000E+00  0.00000000000E+00 -0.73020410741E+03  0.73020410742E+03  0.50400001928E-02 0. -1.
    10030    2    1    2    0    0  0.00000000000E+00  0.00000000000E+00 -0.23672586591E+03  0.12236823489E+04  0.12005662645E+04 0.  0.
        1    1    3    3  502    0 -0.21187691816E+03 -0.23100701582E+03 -0.64016118842E+03  0.71278497248E+03  0.50400001928E-02 0. -1.
       -1    1    3    3    0  502  0.21187691816E+03  0.23100701582E+03  0.40343532251E+03  0.51089737646E+03  0.50400001928E-02 0.  1.
</event>
<event>
 5   0  0.1567019E-03  0.1199473E+04  0.7818609E-02  0.9113318E-01
       -2   -1    0    0    0  501  0.00000000000E+00  0.00000000000E+00  0.78710267569E+03  0.78710267570E+03  0.25500000920E-02 0.  1.
        2   -1    0    0  501    0  0.00000000000E+00  0.00000000000E+00 -0.45697210205E+03  0.45697210206E+03  0.25500000920E-02 0. -1.
    10030    2    1    2    0    0  0.00000000000E+00  0.00000000000E+00  0.33013057364E+03  0.12440747778E+04  0.11994731581E+04 0.  0.
        5    1    3    3  502    0 -0.52982892037E+03 -0.59892656267E+02 -0.11965278947E+03  0.54648393861E+03  0.46999998093E+01 0. -1.
       -5    1    3    3    0  502  0.52982892037E+03  0.59892656267E+02  0.44978336311E+03  0.69759083915E+03  0.46999998093E+01 0.  1.
</event>
<event>
 5   0  0.8908478E-04  0.1197140E+04  0.7818609E-02  0.9115364E-01
        1   -1    0    0  501    0  0.00000000000E+00  0.00000000000E+00  0.57867148424E+03  0.57867148426E+03  0.50400001928E-02 0.  1.
       -1   -1    0    0    0  501  0.00000000000E+00  0.00000000000E+00 -0.61915245094E+03  0.61915245096E+03  0.50400001928E-02 0. -1.
    10030    2    1    2    0    0  0.00000000000E+00  0.00000000000E+00 -0.40480966701E+02  0.11978239352E+04  0.11971397041E+04 0.  0.
        4    1    3    3  502    0 -0.42238334770E+03 -0.19447507907E+03  0.35687811620E+03  0.58616708498E+03  0.12699999809E+01 0.  1.
       -4    1    3    3    0  502  0.42238334770E+03  0.19447507907E+03 -0.39735908290E+03  0.61165685025E+03  0.12699999809E+01 0. -1.
</event>
<event>
 5   0  0.1567019E-03  0.1204054E+04  0.7818609E-02  0.9109315E-01
        2   -1    0    0  501    0  0.00000000000E+00  0.00000000000E+00  0.82057848576E+03  0.82057848576E+03  0.25500000920E-02 0. -1.
       -2   -1    0    0    0  501  0.00000000000E+00  0.00000000000E+00 -0.44168429866E+03  0.44168429867E+03  0.25500000920E-02 0.  1.
    10030    2    1    2    0    0  0.00000000000E+00  0.00000000000E+00  0.37889418710E+03  0.12622627844E+04  0.12040542064E+04 0.  0.
        5    1    3    3  502    0  0.91209819107E+02  0.15392594532E+03  0.79204157246E+03  0.81201254316E+03  0.46999998093E+01 0. -1.
       -5    1    3    3    0  502 -0.91209819107E+02 -0.15392594532E+03 -0.41314738536E+03  0.45025024128E+03  0.46999998093E+01 0.  1.
</event>
<event>
 5   0  0.1647550E-03  0.1214223E+04  0.7818609E-02  0.9100498E-01
        2   -1    0    0  501    0  0.00000000000E+00  0.00000000000E+00  0.11675671201E+04  0.11675671202E+04  0.25500000920E-02 0. -1.
       -2   -1    0    0    0  501  0.00000000000E+00  0.00000000000E+00 -0.31568556455E+03  0.31568556456E+03  0.25500000920E-02 0.  1.
    10030    2    1    2    0    0  0.00000000000E+00  0.00000000000E+00  0.85188155560E+03  0.14832526847E+04  0.12142225257E+04 0.  0.
        3    1    3    3  502    0 -0.30363086112E+03 -0.40155482583E+03  0.84045694046E+03  0.97969681889E+03  0.10100000352E+00 0. -1.
       -3    1    3    3    0  502  0.30363086112E+03  0.40155482583E+03  0.11424615145E+02  0.50355586582E+03  0.10100000352E+00 0.  1.
</event>
<event>
 5   0  0.1647550E-03  0.1195791E+04  0.7818609E-02  0.9116548E-01
       -2   -1    0    0    0  501  0.00000000000E+00  0.00000000000E+00  0.21545149430E+03  0.21545149432E+03  0.25500000920E-02 0.  1.
        2   -1    0    0  501    0  0.00000000000E+00  0.00000000000E+00 -0.16592095497E+04  0.16592095497E+04  0.25500000920E-02 0. -1.
    10030    2    1    2    0    0  0.00000000000E+00  0.00000000000E+00 -0.14437580554E+04  0.18746610440E+04  0.11957912474E+04 0.  0.
        3    1    3    3  502    0 -0.46831061780E+03 -0.36557144180E+03 -0.82729965533E+03  0.10185195353E+04  0.10100000352E+00 0. -1.
       -3    1    3    3    0  502  0.46831061780E+03  0.36557144180E+03 -0.61645840008E+03  0.85614150877E+03  0.10100000352E+00 0.  1.
</event>
<event>
 5   0  0.9170776E-04  0.1202404E+04  0.7818609E-02  0.9110755E-01
        1   -1    0    0  501    0  0.00000000000E+00  0.00000000000E+00  0.54497133859E+03  0.54497133861E+03  0.50400001928E-02 0.  1.
       -1   -1    0    0    0  501  0.00000000000E+00  0.00000000000E+00 -0.66323486405E+03  0.66323486407E+03  0.50400001928E-02 0. -1.
    10030    2    1    2    0    0  0.00000000000E+00  0.00000000000E+00 -0.11826352546E+03  0.12082062027E+04  0.12024042443E+04 0.  0.
        5    1    3    3  502    0  0.11479109448E+03  0.39540073749E+03 -0.49931310155E+03  0.64718961824E+03  0.46999998093E+01 0. -1.
       -5    1    3    3    0  502 -0.11479109448E+03 -0.39540073749E+03  0.38104957609E+03  0.56101658444E+03  0.46999998093E+01 0.  1.
</event>
<event>
 5   0  0.1567019E-03  0.1208229E+04  0.7818609E-02  0.9105684E-01
        2   -1    0    0  501    0  0.00000000000E+00  0.00000000000E+00  0.79392736785E+03  0.79392736785E+03  0.25500000920E-02 0.  1.
       -2   -1    0    0    0  501  0.00000000000E+00  0.00000000000E+00 -0.45968199578E+03  0.45968199579E+03  0.25500000920E-02 0. -1.
    10030    2    1    2    0    0  0.00000000000E+00  0.00000000000E+00  0.33424537206E+03  0.12536093636E+04  0.12082286488E+04 0.  0.
        5    1    3    3  502    0 -0.30817667494E+03 -0.45390036535E+03 -0.95225311554E+02  0.55685577540E+03  0.46999998093E+01 0. -1.
       -5    1    3    3    0  502  0.30817667494E+03  0.45390036535E+03  0.42947068362E+03  0.69675358824E+03  0.46999998093E+01 0.  1.
</event>
<event>
 5   0  0.1647550E-03  0.1199046E+04  0.7818609E-02  0.9113692E-01
        2   -1    0    0  501    0  0.00000000000E+00  0.00000000000E+00  0.72541934882E+03  0.72541934883E+03  0.25500000920E-02 0.  1.
       -2   -1    0    0    0  501  0.00000000000E+00  0.00000000000E+00 -0.49547607629E+03  0.49547607629E+03  0.25500000920E-02 0. -1.
    10030    2    1    2    0    0  0.00000000000E+00  0.00000000000E+00  0.22994327254E+03  0.12208954251E+04  0.11990461753E+04 0.  0.
        3    1    3    3  502    0 -0.28703717344E+03 -0.24432872034E+03  0.58966531513E+03  0.69985145323E+03  0.10100000352E+00 0.  1.
       -3    1    3    3    0  502  0.28703717344E+03  0.24432872034E+03 -0.35972204259E+03  0.52104397189E+03  0.10100000352E+00 0. -1.
</event>
<event>
 5   0  0.9169078E-04  0.1211164E+04  0.7818609E-02  0.9103140E-01
       -1   -1    0    0    0  501  0.00000000000E+00  0.00000000000E+00  0.30559587138E+03  0.30559587143E+03  0.50400001928E-02 0. -1.
        1   -1    0    0  501    0  0.00000000000E+00  0.00000000000E+00 -0.12000481056E+04  0.12000481056E+04  0.50400001928E-02 0.  1.
    10030    2    1    2    0    0  0.00000000000E+00  0.00000000000E+00 -0.89445223424E+03  0.15056439771E+04  0.12111643102E+04 0.  0.
        1    1    3    3  502    0 -0.50049805720E+03 -0.19156290816E+03 -0.79781539056E+03  0.96109523487E+03  0.50400001928E-02 0.  1.
       -1    1    3    3    0  502  0.50049805720E+03  0.19156290816E+03 -0.96636843680E+02  0.54454874219E+03  0.50400001928E-02 0. -1.
</event>
<event>
 5   0  0.9208078E-04  0.1192048E+04  0.7818609E-02  0.9119845E-01
        1   -1    0    0  501    0  0.00000000000E+00  0.00000000000E+00  0.41591486670E+03  0.41591486673E+03  0.50400001928E-02 0.  1.
       -1   -1    0    0    0  501  0.00000000000E+00  0.00000000000E+00 -0.85412831654E+03  0.85412831655E+03  0.50400001928E-02 0. -1.
    10030    2    1    2    0    0  0.00000000000E+00  0.00000000000E+00 -0.43821344983E+03  0.12700431833E+04  0.11920480946E+04 0.  0.
        3    1    3    3  502    0 -0.56386083846E+03  0.55938263780E+02 -0.22141919662E+02  0.56706120420E+03  0.10100000352E+00 0. -1.
       -3    1    3    3    0  502  0.56386083846E+03 -0.55938263780E+02 -0.41607153017E+03  0.70298197909E+03  0.10100000352E+00 0.  1.
</event>
<event>
 5   0  0.8908478E-04  0.1195842E+04  0.7818609E-02  0.9116503E-01
        1   -1    0    0  501    0  0.00000000000E+00  0.00000000000E+00  0.71137526468E+03  0.71137526470E+03  0.50400001928E-02 0.  1.
       -1   -1    0    0    0  501  0.00000000000E+00  0.00000000000E+00 -0.50256146265E+03  0.50256146268E+03  0.50400001928E-02 0. -1.
    10030    2    1    2    0    0  0.00000000000E+00  0.00000000000E+00  0.20881380203E+03  0.12139367274E+04  0.11958424537E+04 0.  0.
        4    1    3    3  502    0 -0.11481362236E+03 -0.15371362953E+01  0.70007660257E+03  0.70943173952E+03  0.12699999809E+01 0.  1.
       -4    1    3    3    0  502  0.11481362236E+03  0.15371362953E+01 -0.49126280055E+03  0.50450498785E+03  0.12699999809E+01 0. -1.
</event>
<event>
 5   0  0.1597352E-03  0.1203113E+04  0.7818609E-02  0.9110136E-01
        2   -1    0    0  501    0  0.00000000000E+00  0.00000000000E+00  0.22940379816E+03  0.22940379817E+03  0.25500000920E-02 0. -1.
       -2   -1    0    0    0  501  0.00000000000E+00  0.00000000000E+00 -0.15774368586E+04  0.15774368586E+04  0.25500000920E-02 0.  1.
    10030    2    1    2    0    0  0.00000000000E+00  0.00000000000E+00 -0.13480330605E+04  0.18068406568E+04  0.12031126410E+04 0.  0.
        1    1    3    3  502    0  0.40601051215E+03 -0.18130080142E+03 -0.12824894722E+04  0.13573848986E+04  0.50400001928E-02 0.  1.
       -1    1    3    3    0  502 -0.40601051215E+03  0.18130080142E+03 -0.65543588210E+02  0.44945575817E+03  0.50400001928E-02 0. -1.
</event>
<event>
 5   0  0.1567019E-03  0.1200261E+04  0.7818609E-02  0.9112628E-01
        2   -1    0    0  501    0  0.00000000000E+00  0.00000000000E+00  0.42830515762E+03  0.42830515763E+03  0.25500000920E-02 0.  1.
       -2   -1    0    0    0  501  0.00000000000E+00  0.00000000000E+00 -0.84088765541E+03  0.84088765541E+03  0.25500000920E-02 0. -1.
    10030    2    1    2    0    0  0.00000000000E+00  0.00000000000E+00 -0.41258249779E+03  0.12691928130E+04  0.12002608380E+04 0.  0.
        5    1    3    3  502    0 -0.50921973173E+03 -0.25676410974E+03 -0.87415285137E+01  0.57037798656E+03  0.46999998093E+01 0.  1.
       -5    1    3    3    0  502  0.50921973173E+03  0.25676410974E+03 -0.40384096927E+03  0.69881482647E+03  0.46999998093E+01 0. -1.
</event>
<event>
 5   0  0.1537557E-03  0.1207140E+04  0.7818609E-02  0.9106630E-01
        2   -1    0    0  501    0  0.00000000000E+00  0.00000000000E+00  0.14597535329E+04  0.14597535329E+04  0.25500000920E-02 0.  1.
       -2   -1    0    0    0  501  0.00000000000E+00  0.00000000000E+00 -0.24956056984E+03  0.24956056985E+03  0.25500000920E-02 0. -1.
    10030    2    1    2    0    0  0.00000000000E+00  0.00000000000E+00  0.12101929631E+04  0.17093141028E+04  0.12071402959E+04 0.  0.
        2    1    3    3  502    0  0.27237158815E+03 -0.53859065541E+03  0.59724469994E+03  0.84909799655E+03  0.25500000920E-02 0. -1.
       -2    1    3    3    0  502 -0.27237158815E+03  0.53859065541E+03  0.61294826314E+03  0.86021610623E+03  0.25500000920E-02 0.  1.
</event>
<event>
 5   0  0.1647550E-03  0.1196701E+04  0.7818609E-02  0.9115749E-01
        2   -1    0    0  501    0  0.00000000000E+00  0.00000000000E+00  0.25746165695E+03  0.25746165696E+03  0.25500000920E-02 0.  1.
       -2   -1    0    0    0  501  0.00000000000E+00  0.00000000000E+00 -0.13905893498E+04  0.13905893498E+04  0.25500000920E-02 0. -1.
    10030    2    1    2    0    0  0.00000000000E+00  0.00000000000E+00 -0.11331276929E+04  0.16480510068E+04  0.11967011960E+04 0.  0.
        3    1    3    3  502    0 -0.20140113791E+03  0.14232235700E+03 -0.13173447884E+04  0.13402295973E+04  0.10100000352E+00 0. -1.
       -3    1    3    3    0  502  0.20140113791E+03 -0.14232235700E+03  0.18421709555E+03  0.30782140950E+03  0.10100000352E+00 0.  1.
</event>
<event>
 5   0  0.9358428E-04  0.1198970E+04  0.7818609E-02  0.9113758E-01
       -1   -1    0    0    0  501  0.00000000000E+00  0.00000000000E+00  0.11722590534E+04  0.11722590535E+04  0.50400001928E-02 0. -1.
        1   -1    0    0  501    0  0.00000000000E+00  0.00000000000E+00 -0.30657258575E+03  0.30657258579E+03  0.50400001928E-02 0.  1.
    10030    2    1    2    0    0  0.00000000000E+00  0.00000000000E+00  0.86568646770E+03  0.14788316392E+04  0.11989703737E+04 0.  0.
        2    1    3    3  502    0 -0.30276781932E+02  0.53676316836E+03  0.10569411955E+03  0.54790750072E+03  0.25500000920E-02 0. -1.
       -2    1    3    3    0  502  0.30276781932E+02 -0.53676316836E+03  0.75999234815E+03  0.93092413852E+03  0.25500000920E-02 0.  1.
</event>
<event>
 5   0  0.9169078E-04  0.1192769E+04  0.7818609E-02  0.9119210E-01
       -1   -1    0    0    0  501  0.00000000000E+00  0.00000000000E+00  0.81178074150E+03  0.81178074151E+03  0.50400001928E-02 0.  1.
        1   -1    0    0  501    0  0.00000000000E+00  0.00000000000E+00 -0.43814095909E+03  0.43814095912E+03  0.50400001928E-02 0. -1.
    10030    2    1    2    0    0  0.00000000000E+00  0.00000000000E+00  0.37363978241E+03  0.12499217006E+04  0.11927688673E+04 0.  0.
        1    1    3    3  502    0 -0.30591483639E+03  0.11537613697E+03  0.70949671508E+03  0.78120492116E+03  0.50400001928E-02 0.  1.
       -1    1    3    3    0  502  0.30591483639E+03 -0.11537613697E+03 -0.33585693267E+03  0.46871677947E+03  0.50400001928E-02 0. -1.
</event>
<event>
 5   0  0.1647550E-03  0.1196226E+04  0.7818609E-02  0.9116166E-01
        2   -1    0    0  501    0  0.00000000000E+00  0.00000000000E+00  0.70558168219E+03  0.70558168219E+03  0.25500000920E-02 0.  1.
       -2   -1    0    0    0  501  0.00000000000E+00  0.00000000000E+00 -0.50701294786E+03  0.50701294787E+03  0.25500000920E-02 0. -1.
    10030    2    1    2    0    0  0.00000000000E+00  0.00000000000E+00  0.19856873433E+03  0.12125946301E+04  0.11962258125E+04 0.  0.
        3    1    3    3  502    0  0.23471476691E+03 -0.25479160657E+03  0.59353107454E+03  0.68723280715E+03  0.10100000352E+00 0.  1.
       -3    1    3    3    0  502 -0.23471476691E+03  0.25479160657E+03 -0.39496234021E+03  0.52536182291E+03  0.10100000352E+00 0. -1.
</event>
<event>
 5   0  0.1567019E-03  0.1202394E+04  0.7818609E-02  0.9110763E-01
        2   -1    0    0  501    0  0.00000000000E+00  0.00000000000E+00  0.17066668782E+04  0.17066668782E+04  0.25500000920E-02 0.  1.
       -2   -1    0    0    0  501  0.00000000000E+00  0.00000000000E+00 -0.21178009606E+03  0.21178009608E+03  0.25500000920E-02 0. -1.
    10030    2    1    2    0    0  0.00000000000E+00  0.00000000000E+00  0.14948867822E+04  0.19184469743E+04  0.12023944036E+04 0.  0.
        5    1    3    3  502    0 -0.66700126658E+02  0.23569264118E+03  0.16234069635E+04  0.16417893248E+04  0.46999998093E+01 0.  1.
       -5    1    3    3    0  502  0.66700126658E+02 -0.23569264118E+03 -0.12852018133E+03  0.27665764947E+03  0.46999998093E+01 0. -1.
</event>
<event>
 5   0  0.9208078E-04  0.1116633E+04  0.7818609E-02  0.9189130E-01
       -1   -1    0    0    0  501  0.00000000000E+00  0.00000000000E+00  0.30935265853E+03  0.30935265857E+03  0.50400001928E-02 0.  1.
        1   -1    0    0  501    0  0.00000000000E+00  0.00000000000E+00 -0.10076446987E+04  0.10076446987E+04  0.50400001928E-02 0. -1.
    10030    2    1    2    0    0  0.00000000000E+00  0.00000000000E+00 -0.69829204016E+03  0.13169973573E+04  0.11166334518E+04 0.  0.
        3    1    3    3  502    0  0.33435357009E+03  0.44632111670E+03 -0.38085304200E+03  0.67531022416E+03  0.10100000352E+00 0.  1.
       -3    1    3    3    0  502 -0.33435357009E+03 -0.44632111670E+03 -0.31743899815E+03  0.64168713311E+03  0.10100000352E+00 0. -1.
</event>
<event>
 5   0  0.9358428E-04  0.1190064E+04  0.7818609E-02  0.9121598E-01
        1   -1    0    0  501    0  0.00000000000E+00  0.00000000000E+00  0.26495401282E+04  0.26495401282E+04  0.50400001928E-02 0.  1.
       -1   -1    0    0    0  501  0.00000000000E+00  0.00000000000E+00 -0.13363201110E+03  0.13363201119E+03  0.50400001928E-02 0. -1.
    10030    2    1    2    0    0  0.00000000000E+00  0.00000000000E+00  0.25159081171E+04  0.27831721394E+04  0.11900644957E+04 0.  0.
        2    1    3    3  502    0  0.20071044806E+03  0.40496008137E+03  0.35283602730E+03  0.57338522272E+03  0.25500000920E-02 0. -1.
       -2    1    3    3    0  502 -0.20071044806E+03 -0.40496008137E+03  0.21630720898E+04  0.22097869167E+04  0.25500000920E-02 0.  1.
</event>
<event>
 5   0  0.9358428E-04  0.1048893E+04  0.7818609E-02  0.9256488E-01
        1   -1    0    0  501    0  0.00000000000E+00  0.00000000000E+00  0.46362766359E+03  0.46362766361E+03  0.50400001928E-02 0. -1.
       -1   -1    0    0    0  501  0.00000000000E+00  0.00000000000E+00 -0.59324329088E+03  0.59324329091E+03  0.50400001928E-02 0.  1.
    10030    2    1    2    0    0  0.00000000000E+00  0.00000000000E+00 -0.12961562730E+03  0.10568709545E+04  0.10488927513E+04 0.  0.
        2    1    3    3  502    0  0.13824292430E+03  0.46949609752E+03 -0.25467225854E+03  0.55172062766E+03  0.25500000920E-02 0.  1.
       -2    1    3    3    0  502 -0.13824292430E+03 -0.46949609752E+03  0.12505663124E+03  0.50515032686E+03  0.25500000920E-02 0. -1.
</event>
<event>
 5   0  0.1551501E-03  0.1196852E+04  0.7818609E-02  0.9115616E-01
       -2   -1    0    0    0  501  0.00000000000E+00  0.00000000000E+00  0.44534398799E+03  0.44534398799E+03  0.25500000920E-02 0. -1.
        2   -1    0    0  501    0  0.00000000000E+00  0.00000000000E+00 -0.80412884373E+03  0.80412884373E+03  0.25500000920E-02 0.  1.
    10030    2    1    2    0    0  0.00000000000E+00  0.00000000000E+00 -0.35878485574E+03  0.12494728317E+04  0.11968524489E+04 0.  0.
        4    1    3    3  502    0 -0.20311343178E+03  0.31805724822E+03  0.30545836476E+03  0.48551200275E+03  0.12699999809E+01 0. -1.
       -4    1    3    3    0  502  0.20311343178E+03 -0.31805724822E+03 -0.66424322050E+03  0.76396082897E+03  0.12699999809E+01 0.  1.
</event>
<event>
 5   0  0.9170776E-04  0.1202211E+04  0.7818609E-02  0.9110923E-01
        1   -1    0    0  501    0  0.00000000000E+00  0.00000000000E+00  0.62851473515E+03  0.62851473517E+03  0.50400001928E-02 0. -1.
       -1   -1    0    0    0  501  0.00000000000E+00  0.00000000000E+00 -0.57489163463E+03  0.57489163465E+03  0.50400001928E-02 0.  1.
    10030    2    1    2    0    0  0.00000000000E+00  0.00000000000E+00  0.53623100526E+02  0.12034063698E+04  0.12022110688E+04 0.  0.
        5    1    3    3  502    0  0.46686386307E+03  0.22206435483E+03 -0.28013861481E+03  0.58802566087E+03  0.46999998093E+01 0.  1.
       -5    1    3    3    0  502 -0.46686386307E+03 -0.22206435483E+03  0.33376171534E+03  0.61538070895E+03  0.46999998093E+01 0. -1.
</event>
<event>
 5   0  0.1567019E-03  0.1198996E+04  0.7818609E-02  0.9113736E-01
       -2   -1    0    0    0  501  0.00000000000E+00  0.00000000000E+00  0.33762094590E+03  0.33762094591E+03  0.25500000920E-02 0. -1.
        2   -1    0    0  501    0  0.00000000000E+00  0.00000000000E+00 -0.10645015100E+04  0.10645015100E+04  0.25500000920E-02 0.  1.
    10030    2    1    2    0    0  0.00000000000E+00  0.00000000000E+00 -0.72688056412E+03  0.14021224559E+04  0.11989962581E+04 0.  0.
        5    1    3    3  502    0  0.33233263670E+03  0.28315316918E+03 -0.84383333953E+03  0.95010393828E+03  0.46999998093E+01 0.  1.
       -5    1    3    3    0  502 -0.33233263670E+03 -0.28315316918E+03  0.11695277541E+03  0.45201851766E+03  0.46999998093E+01 0. -1.
</event>
<event>
 5   0  0.9358428E-04  0.1194717E+04  0.7818609E-02  0.9117493E-01
        1   -1    0    0  501    0  0.00000000000E+00  0.00000000000E+00  0.10536568312E+04  0.10536568312E+04  0.50400001928E-02 0.  1.
       -1   -1    0    0    0  501  0.00000000000E+00  0.00000000000E+00 -0.33866539856E+03  0.33866539860E+03  0.50400001928E-02 0. -1.
    10030    2    1    2    0    0  0.00000000000E+00  0.00000000000E+00  0.71499143260E+03  0.13923222298E+04  0.11947168881E+04 0.  0.
        2    1    3    3  502    0 -0.38396430227E+03 -0.40140769804E+03  0.61356655134E+03  0.82765973587E+03  0.25500000920E-02 0.  1.
       -2    1    3    3    0  502  0.38396430227E+03  0.40140769804E+03  0.10142488126E+03  0.56466249389E+03  0.25500000920E-02 0. -1.
</event>
<event>
 5   0  0.1597352E-03  0.1225008E+04  0.7818609E-02  0.9091244E-01
       -2   -1    0    0    0  501  0.00000000000E+00  0.00000000000E+00  0.26391706866E+03  0.26391706867E+03  0.25500000920E-02 0.  1.
        2   -1    0    0  501    0  0.00000000000E+00  0.00000000000E+00 -0.14215124172E+04  0.14215124172E+04  0.25500000920E-02 0. -1.
    10030    2    1    2    0    0  0.00000000000E+00  0.00000000000E+00 -0.11575953486E+04  0.16854294859E+04  0.12250083922E+04 0.  0.
        1    1    3    3  502    0 -0.12069561268E+03  0.28244822096E+03  0.15029576732E+03  0.34195503527E+03  0.50400001928E-02 0.  1.
       -1    1    3    3    0  502  0.12069561268E+03 -0.28244822096E+03 -0.13078911159E+04  0.13434744506E+04  0.50400001928E-02 0. -1.
</event>
<event>
 5   0  0.9170776E-04  0.1190525E+04  0.7818609E-02  0.9121190E-01
       -1   -1    0    0    0  501  0.00000000000E+00  0.00000000000E+00  0.56243148191E+03  0.56243148193E+03  0.50400001928E-02 0. -1.
        1   -1    0    0  501    0  0.00000000000E+00  0.00000000000E+00 -0.63001027940E+03  0.63001027942E+03  0.50400001928E-02 0.  1.
    10030    2    1    2    0    0  0.00000000000E+00  0.00000000000E+00 -0.67578797488E+02  0.11924417613E+04  0.11905252876E+04 0.  0.
        5    1    3    3  502    0  0.52731081747E+03 -0.87492014885E+02  0.22855584218E+03  0.58135308882E+03  0.46999998093E+01 0. -1.
       -5    1    3    3    0  502 -0.52731081747E+03  0.87492014885E+02 -0.29613463967E+03  0.61108867253E+03  0.46999998093E+01 0.  1.
</event>
<event>
 5   0  0.6137750E-04  0.1206986E+04  0.7818609E-02  0.9106763E-01
        4   -1    0    0  501    0  0.00000000000E+00  0.00000000000E+00  0.19967224595E+04  0.19967228634E+04  0.12699999809E+01 0.  1.
       -4   -1    0    0    0  501  0.00000000000E+00  0.00000000000E+00 -0.18239829339E+03  0.18240271471E+03  0.12699999809E+01 0. -1.
    10030    2    1    2    0    0  0.00000000000E+00  0.00000000000E+00  0.18143241661E+04  0.21791255781E+04  0.12069863733E+04 0.  0.
        4    1    3    3  502    0  0.38584099717E+03 -0.80273168232E+02  0.82010210573E+02  0.40254731917E+03  0.12699999809E+01 0. -1.
       -4    1    3    3    0  502 -0.38584099717E+03  0.80273168232E+02  0.17323139555E+04  0.17765782589E+04  0.12699999809E+01 0.  1.
</event>
<event>
 5   0  0.1537557E-03  0.1200553E+04  0.7818609E-02  0.9112372E-01
        2   -1    0    0  501    0  0.00000000000E+00  0.00000000000E+00  0.86487748495E+03  0.86487748496E+03  0.25500000920E-02 0.  1.
       -2   -1    0    0    0  501  0.00000000000E+00  0.00000000000E+00 -0.41662784399E+03  0.41662784400E+03  0.25500000920E-02 0. -1.
    10030    2    1    2    0    0  0.00000000000E+00  0.00000000000E+00  0.44824964096E+03  0.12815053290E+04  0.12005532756E+04 0.  0.
        2    1    3    3  502    0 -0.45726321115E+03 -0.10234139493E+03  0.62461505560E+03  0.78083760993E+03  0.25500000920E-02 0.  1.
       -2    1    3    3    0  502  0.45726321115E+03  0.10234139493E+03 -0.17636541464E+03  0.50066771903E+03  0.25500000920E-02 0. -1.
</event>
<event>
 5   0  0.1537557E-03  0.1203549E+04  0.7818609E-02  0.9109756E-01
        2   -1    0    0  501    0  0.00000000000E+00  0.00000000000E+00  0.10582257600E+04  0.10582257600E+04  0.25500000920E-02 0.  1.
       -2   -1    0    0    0  501  0.00000000000E+00  0.00000000000E+00 -0.34220733726E+03  0.34220733727E+03  0.25500000920E-02 0. -1.
    10030    2    1    2    0    0  0.00000000000E+00  0.00000000000E+00  0.71601842276E+03  0.14004330973E+04  0.12035491175E+04 0.  0.
        2    1    3    3  502    0 -0.76247381688E+02 -0.59003726464E+03  0.46321556483E+03  0.75400682781E+03  0.25500000920E-02 0.  1.
       -2    1    3    3    0  502  0.76247381688E+02  0.59003726464E+03  0.25280285793E+03  0.64642626947E+03  0.25500000920E-02 0. -1.
</event>
<event>
 5   0  0.1551501E-03  0.1205233E+04  0.7818609E-02  0.9108289E-01
       -2   -1    0    0    0  501  0.00000000000E+00  0.00000000000E+00  0.42174479032E+03  0.42174479032E+03  0.25500000920E-02 0. -1.
        2   -1    0    0  501    0  0.00000000000E+00  0.00000000000E+00 -0.86105730208E+03  0.86105730208E+03  0.25500000920E-02 0.  1.
    10030    2    1    2    0    0  0.00000000000E+00  0.00000000000E+00 -0.43931251176E+03  0.12828020924E+04  0.12052326436E+04 0.  0.
        4    1    3    3  502    0 -0.39808176270E+03 -0.45208876781E+03 -0.23782768832E+03  0.64762409314E+03  0.12699999809E+01 0. -1.
       -4    1    3    3    0  502  0.39808176270E+03  0.45208876781E+03 -0.20148482344E+03  0.63517799927E+03  0.12699999809E+01 0.  1.
</event>
<event>
 5   0  0.1537557E-03  0.1209480E+04  0.7818609E-02  0.9104599E-01
        2   -1    0    0  501    0  0.00000000000E+00  0.00000000000E+00  0.15687587650E+04  0.15687587650E+04  0.25500000920E-02 0.  1.
       -2   -1    0    0    0  501  0.00000000000E+00  0.00000000000E+00 -0.23312089441E+03  0.23312089443E+03  0.25500000920E-02 0. -1.
    10030    2    1    2    0    0  0.00000000000E+00  0.00000000000E+00  0.13356378706E+04  0.18018796595E+04  0.12094799650E+04 0.  0.
        2    1    3    3  502    0 -0.38079733989E+03 -0.46925296176E+03  0.70131420610E+03  0.92576809833E+03  0.25500000920E-02 0. -1.
       -2    1    3    3    0  502  0.38079733989E+03  0.46925296176E+03  0.63432366453E+03  0.87611156115E+03  0.25500000920E-02 0.  1.
</event>
<event>
 5   0  0.1537557E-03  0.1196731E+04  0.7818609E-02  0.9115723E-01
       -2   -1    0    0    0  501  0.00000000000E+00  0.00000000000E+00  0.23953075268E+03  0.23953075269E+03  0.25500000920E-02 0.  1.
        2   -1    0    0  501    0  0.00000000000E+00  0.00000000000E+00 -0.14947604302E+04  0.14947604302E+04  0.25500000920E-02 0. -1.
    10030    2    1    2    0    0  0.00000000000E+00  0.00000000000E+00 -0.12552296776E+04  0.17342911829E+04  0.11967306981E+04 0.  0.
        2    1    3    3  502    0 -0.52808668482E+03 -0.15520150516E+03 -0.96772124436E+03  0.11133047474E+04  0.25500000920E-02 0. -1.
       -2    1    3    3    0  502  0.52808668482E+03  0.15520150516E+03 -0.28750843320E+03  0.62098643549E+03  0.25500000920E-02 0.  1.
</event>
<event>
 5   0  0.1647550E-03  0.1187374E+04  0.7818609E-02  0.9123980E-01
        2   -1    0    0  501    0  0.00000000000E+00  0.00000000000E+00  0.17789682563E+04  0.17789682563E+04  0.25500000920E-02 0. -1.
       -2   -1    0    0    0  501  0.00000000000E+00  0.00000000000E+00 -0.19812861468E+03  0.19812861470E+03  0.25500000920E-02 0.  1.
    10030    2    1    2    0    0  0.00000000000E+00  0.00000000000E+00  0.15808396416E+04  0.19770968710E+04  0.11873744417E+04 0.  0.
        3    1    3    3  502    0  0.27098947387E+03 -0.25438790466E+03  0.15612656996E+04  0.16048984690E+04  0.10100000352E+00 0. -1.
       -3    1    3    3    0  502 -0.27098947387E+03  0.25438790466E+03  0.19573941981E+02  0.37219840192E+03  0.10100000352E+00 0.  1.
</event>
<event>
 5   0  0.9358428E-04  0.1199969E+04  0.7818609E-02  0.9112884E-01
       -1   -1    0    0    0  501  0.00000000000E+00  0.00000000000E+00  0.45800733067E+03  0.45800733070E+03  0.50400001928E-02 0. -1.
        1   -1    0    0  501    0  0.00000000000E+00  0.00000000000E+00 -0.78597299703E+03  0.78597299704E+03  0.50400001928E-02 0.  1.
    10030    2    1    2    0    0  0.00000000000E+00  0.00000000000E+00 -0.32796566635E+03  0.12439803277E+04  0.11999689902E+04 0.  0.
        2    1    3    3  502    0 -0.39661522498E+02 -0.58208713164E+03 -0.18911261509E+02  0.58374318069E+03  0.25500000920E-02 0. -1.
       -2    1    3    3    0  502  0.39661522498E+02  0.58208713164E+03 -0.30905440484E+03  0.66023714705E+03  0.25500000920E-02 0.  1.
</event>
<event>
 5   0  0.9169078E-04  0.1201135E+04  0.7818609E-02  0.9111864E-01
       -1   -1    0    0    0  501  0.00000000000E+00  0.00000000000E+00  0.20699979539E+03  0.20699979545E+03  0.50400001928E-02 0. -1.
        1   -1    0    0  501    0  0.00000000000E+00  0.00000000000E+00 -0.17424221875E+04  0.17424221875E+04  0.50400001928E-02 0.  1.
    10030    2    1    2    0    0  0.00000000000E+00  0.00000000000E+00 -0.15354223921E+04  0.19494219830E+04  0.12011345243E+04 0.  0.
        1    1    3    3  502    0 -0.30691406906E+03  0.10942166369E+03  0.51070407754E+02  0.32981439150E+03  0.50400001928E-02 0. -1.
       -1    1    3    3    0  502  0.30691406906E+03 -0.10942166369E+03 -0.15864927999E+04  0.16196075915E+04  0.50400001928E-02 0.  1.
</event>
<event>
 5   0  0.9208078E-04  0.1203743E+04  0.7818609E-02  0.9109587E-01
        1   -1    0    0  501    0  0.00000000000E+00  0.00000000000E+00  0.42834227530E+03  0.42834227533E+03  0.50400001928E-02 0.  1.
       -1   -1    0    0    0  501  0.00000000000E+00  0.00000000000E+00 -0.84570061232E+03  0.84570061233E+03  0.50400001928E-02 0. -1.
    10030    2    1    2    0    0  0.00000000000E+00  0.00000000000E+00 -0.41735833701E+03  0.12740428877E+04  0.12037430366E+04 0.  0.
        3    1    3    3  502    0  0.97790445262E+02  0.91161824716E+02  0.41242810251E+03  0.43355553209E+03  0.10100000352E+00 0.  1.
       -3    1    3    3    0  502 -0.97790445262E+02 -0.91161824716E+02 -0.82978643952E+03  0.84048735557E+03  0.10100000352E+00 0. -1.
</event>
<event>
 5   0  0.6137750E-04  0.1200671E+04  0.7818609E-02  0.9112270E-01
       -3   -1    0    0    0  501  0.00000000000E+00  0.00000000000E+00  0.19223771048E+04  0.19223771075E+04  0.10100000352E+00 0.  1.
        3   -1    0    0  501    0  0.00000000000E+00  0.00000000000E+00 -0.18747750049E+03  0.18747752769E+03  0.10100000352E+00 0. -1.
    10030    2    1    2    0    0  0.00000000000E+00  0.00000000000E+00  0.17348996043E+04  0.21098546351E+04  0.12006706228E+04 0.  0.
        5    1    3    3  502    0  0.42456709602E+03 -0.39309207162E+03  0.11486165143E+04  0.12861261924E+04  0.46999998093E+01 0. -1.
       -5    1    3    3    0  502 -0.42456709602E+03  0.39309207162E+03  0.58628308999E+03  0.82372844276E+03  0.46999998093E+01 0.  1.
</event>
<event>
 5   0  0.9358428E-04  0.1200988E+04  0.7818609E-02  0.9111992E-01
       -1   -1    0    0    0  501  0.00000000000E+00  0.00000000000E+00  0.31150819887E+03  0.31150819891E+03  0.50400001928E-02 0.  1.
        1   -1    0    0  501    0  0.00000000000E+00  0.00000000000E+00 -0.11575712125E+04  0.11575712125E+04  0.50400001928E-02 0. -1.
    10030    2    1    2    0    0  0.00000000000E+00  0.00000000000E+00 -0.84606301363E+03  0.14690794114E+04  0.12009877993E+04 0.  0.
        2    1    3    3  502    0  0.36010420804E+03 -0.11292700589E+03  0.14831501581E+03  0.40549339480E+03  0.25500000920E-02 0.  1.
       -2    1    3    3    0  502 -0.36010420804E+03  0.11292700589E+03 -0.99437802944E+03  0.10635860166E+04  0.25500000920E-02 0. -1.
</event>
<event>
 5   0  0.9169078E-04  0.1185565E+04  0.7818609E-02  0.9125586E-01
       -1   -1    0    0    0  501  0.00000000000E+00  0.00000000000E+00  0.57030259117E+03  0.57030259119E+03  0.50400001928E-02 0. -1.
        1   -1    0    0  501    0  0.00000000000E+00  0.00000000000E+00 -0.61614895358E+03  0.61614895360E+03  0.50400001928E-02 0.  1.
    10030    2    1    2    0    0  0.00000000000E+00  0.00000000000E+00 -0.45846362414E+02  0.11864515448E+04  0.11855654259E+04 0.  0.
        1    1    3    3  502    0  0.29944008244E+03 -0.35416702752E+03 -0.39237752365E+03  0.60750207197E+03  0.50400001928E-02 0.  1.
       -1    1    3    3    0  502 -0.29944008244E+03  0.35416702752E+03  0.34653116123E+03  0.57894947283E+03  0.50400001928E-02 0. -1.
</event>
<event>
 5   0  0.1551501E-03  0.1198109E+04  0.7818609E-02  0.9114514E-01
        2   -1    0    0  501    0  0.00000000000E+00  0.00000000000E+00  0.60700870458E+03  0.60700870458E+03  0.25500000920E-02 0. -1.
       -2   -1    0    0    0  501  0.00000000000E+00  0.00000000000E+00 -0.59120423690E+03  0.59120423690E+03  0.25500000920E-02 0.  1.
    10030    2    1    2    0    0  0.00000000000E+00  0.00000000000E+00  0.15804467682E+02  0.11982129415E+04  0.11981087062E+04 0.  0.
        4    1    3    3  502    0 -0.29375995577E+02 -0.31681283288E+02  0.60544718819E+03  0.60698810813E+03  0.12699999809E+01 0. -1.
       -4    1    3    3    0  502  0.29375995577E+02  0.31681283288E+02 -0.58964272051E+03  0.59122483335E+03  0.12699999809E+01 0.  1.
</event>
<event>
 5   0  0.1551501E-03  0.1232261E+04  0.7818609E-02  0.9085078E-01
       -2   -1    0    0    0  501  0.00000000000E+00  0.00000000000E+00  0.37018359890E+03  0.37018359891E+03  0.25500000920E-02 0.  1.
        2   -1    0    0  501    0  0.00000000000E+00  0.00000000000E+00 -0.10254816879E+04  0.10254816879E+04  0.25500000920E-02 0. -1.
    10030    2    1    2    0    0  0.00000000000E+00  0.00000000000E+00 -0.65529808897E+03  0.13956652868E+04  0.12322605274E+04 0.  0.
        4    1    3    3  502    0  0.21683928078E+03 -0.38942855074E+02  0.32404627598E+03  0.39184617074E+03  0.12699999809E+01 0.  1.
       -4    1    3    3    0  502 -0.21683928078E+03  0.38942855074E+02 -0.97934436495E+03  0.10038191160E+04  0.12699999809E+01 0. -1.
</event>
<event>
 5   0  0.1537557E-03  0.1199012E+04  0.7818609E-02  0.9113722E-01
        2   -1    0    0  501    0  0.00000000000E+00  0.00000000000E+00  0.74161786318E+03  0.74161786318E+03  0.25500000920E-02 0. -1.
       -2   -1    0    0    0  501  0.00000000000E+00  0.00000000000E+00 -0.48462601837E+03  0.48462601838E+03  0.25500000920E-02 0.  1.
    10030    2    1    2    0    0  0.00000000000E+00  0.00000000000E+00  0.25699184480E+03  0.12262438816E+04  0.11990117801E+04 0.  0.
        2    1    3    3  502    0  0.32702875014E+03 -0.44876766037E+03  0.35960871399E+03  0.66155774018E+03  0.25500000920E-02 0. -1.
       -2    1    3    3    0  502 -0.32702875014E+03  0.44876766037E+03 -0.10261686918E+03  0.56468614138E+03  0.25500000920E-02 0.  1.
</event>
<event>
 5   0  0.9170776E-04  0.1073668E+04  0.7818609E-02  0.9231244E-01
       -1   -1    0    0    0  501  0.00000000000E+00  0.00000000000E+00  0.41298392110E+03  0.41298392113E+03  0.50400001928E-02 0.  1.
        1   -1    0    0  501    0  0.00000000000E+00  0.00000000000E+00 -0.69782535533E+03  0.69782535535E+03  0.50400001928E-02 0. -1.
    10030    2    1    2    0    0  0.00000000000E+00  0.00000000000E+00 -0.28484143423E+03  0.11108092765E+04  0.10736678285E+04 0.  0.
        5    1    3    3  502    0  0.18583553838E+03 -0.75294782271E+02  0.37276549748E+03  0.42329700881E+03  0.46999998093E+01 0.  1.
       -5    1    3    3    0  502 -0.18583553838E+03  0.75294782271E+02 -0.65760693171E+03  0.68751226767E+03  0.46999998093E+01 0. -1.
</event>
<event>
 5   0  0.8908478E-04  0.1207142E+04  0.7818609E-02  0.9106628E-01
        1   -1    0    0  501    0  0.00000000000E+00  0.00000000000E+00  0.94616059649E+03  0.94616059651E+03  0.50400001928E-02 0. -1.
       -1   -1    0    0    0  501  0.00000000000E+00  0.00000000000E+00 -0.38502752730E+03  0.38502752733E+03  0.50400001928E-02 0.  1.
    10030    2    1    2    0    0  0.00000000000E+00  0.00000000000E+00  0.56113306919E+03  0.13311881238E+04  0.12071418722E+04 0.  0.
        4    1    3    3  502    0  0.57466072100E+03  0.18349658583E+03  0.25877981025E+03  0.65641034755E+03  0.12699999809E+01 0.  1.
       -4    1    3    3    0  502 -0.57466072100E+03 -0.18349658583E+03  0.30235325894E+03  0.67477777629E+03  0.12699999809E+01 0. -1.
</event>
<event>
 5   0  0.9208078E-04  0.1192635E+04  0.7818609E-02  0.9119328E-01
        1   -1    0    0  501    0  0.00000000000E+00  0.00000000000E+00  0.15960011161E+04  0.15960011161E+04  0.50400001928E-02 0.  1.
       -1   -1    0    0    0  501  0.00000000000E+00  0.00000000000E+00 -0.22280342621E+03  0.22280342627E+03  0.50400001928E-02 0. -1.
    10030    2    1    2    0    0  0.00000000000E+00  0.00000000000E+00  0.13731976899E+04  0.18188045424E+04  0.11926349265E+04 0.  0.
        3    1    3    3  502    0  0.37682182044E+03 -0.35722540579E+03  0.23939857557E+03  0.57176600379E+03  0.10100000352E+00 0. -1.
       -3    1    3    3    0  502 -0.37682182044E+03  0.35722540579E+03  0.11337991143E+04  0.12470385386E+04  0.10100000352E+00 0.  1.
</event>
<event>
 5   0  0.6137750E-04  0.1203623E+04  0.7818609E-02  0.9109691E-01
       -3   -1    0    0    0  501  0.00000000000E+00  0.00000000000E+00  0.61464043439E+03  0.61464044269E+03  0.10100000352E+00 0.  1.
        3   -1    0    0  501    0  0.00000000000E+00  0.00000000000E+00 -0.58925026457E+03  0.58925027322E+03  0.10100000352E+00 0. -1.
    10030    2    1    2    0    0  0.00000000000E+00  0.00000000000E+00  0.25390169829E+02  0.12038907159E+04  0.12036229456E+04 0.  0.
        3    1    3    3  502    0  0.31108568776E+03  0.13517866282E+02 -0.50241463253E+03  0.59108164497E+03  0.10100000352E+00 0. -1.
       -3    1    3    3    0  502 -0.31108568776E+03 -0.13517866282E+02  0.52780480236E+03  0.61280907095E+03  0.10100000352E+00 0.  1.
</event>
<event>
 5   0  0.8908478E-04  0.1208440E+04  0.7818609E-02  0.9105501E-01
       -1   -1    0    0    0  501  0.00000000000E+00  0.00000000000E+00  0.40084554396E+03  0.40084554399E+03  0.50400001928E-02 0. -1.
        1   -1    0    0  501    0  0.00000000000E+00  0.00000000000E+00 -0.91077994994E+03  0.91077994995E+03  0.50400001928E-02 0.  1.
    10030    2    1    2    0    0  0.00000000000E+00  0.00000000000E+00 -0.50993440598E+03  0.13116254939E+04  0.12084404569E+04 0.  0.
        4    1    3    3  502    0  0.50975767437E+03 -0.29361406919E+03 -0.10528465629E+03  0.59761909269E+03  0.12699999809E+01 0. -1.
       -4    1    3    3    0  502 -0.50975767437E+03  0.29361406919E+03 -0.40464974969E+03  0.71400640125E+03  0.12699999809E+01 0.  1.
</event>
<event>
 5   0  0.9358428E-04  0.1196879E+04  0.7818609E-02  0.9115592E-01
        1   -1    0    0  501    0  0.00000000000E+00  0.00000000000E+00  0.81121858654E+03  0.81121858656E+03  0.50400001928E-02 0.  1.
       -1   -1    0    0    0  501  0.00000000000E+00  0.00000000000E+00 -0.44147179842E+03  0.44147179845E+03  0.50400001928E-02 0. -1.
    10030    2    1    2    0    0  0.00000000000E+00  0.00000000000E+00  0.36974678812E+03  0.12526903850E+04  0.11968794899E+04 0.  0.
        2    1    3    3  502    0  0.39922068426E+03 -0.40449850091E+03 -0.11307506720E+02  0.56844001591E+03  0.25500000920E-02 0. -1.
       -2    1    3    3    0  502 -0.39922068426E+03  0.40449850091E+03  0.38105429484E+03  0.68425036909E+03  0.25500000920E-02 0.  1.
</event>
<event>
 5   0  0.1597352E-03  0.1189155E+04  0.7818609E-02  0.9122402E-01
        2   -1    0    0  501    0  0.00000000000E+00  0.00000000000E+00  0.10128382911E+04  0.10128382911E+04  0.25500000920E-02 0. -1.
       -2   -1    0    0    0  501  0.00000000000E+00  0.00000000000E+00 -0.34904142330E+03  0.34904142331E+03  0.25500000920E-02 0.  1.
    10030    2    1    2    0    0  0.00000000000E+00  0.00000000000E+00  0.66379686776E+03  0.13618797144E+04  0.11891551937E+04 0.  0.
        1    1    3    3  502    0 -0.33198856176E+03  0.30804446571E+03  0.77310168448E+03  0.89598773014E+03  0.50400001928E-02 0. -1.
       -1    1    3    3    0  502  0.33198856176E+03 -0.30804446571E+03 -0.10930481671E+03  0.46589198424E+03  0.50400001928E-02 0.  1.
</event>
<event>
 5   0  0.1537557E-03  0.1202371E+04  0.7818609E-02  0.9110783E-01
       -2   -1    0    0    0  501  0.00000000000E+00  0.00000000000E+00  0.59998972264E+03  0.59998972264E+03  0.25500000920E-02 0.  1.
        2   -1    0    0  501    0  0.00000000000E+00  0.00000000000E+00 -0.60238402126E+03  0.60238402127E+03  0.25500000920E-02 0. -1.
    10030    2    1    2    0    0  0.00000000000E+00  0.00000000000E+00 -0.23942986265E+01  0.12023737439E+04  0.12023713600E+04 0.  0.
        2    1    3    3  502    0  0.33192018356E+03 -0.29854563145E+03  0.40144954743E+03  0.60038507764E+03  0.25500000920E-02 0.  1.
       -2    1    3    3    0  502 -0.33192018356E+03  0.29854563145E+03 -0.40384384606E+03  0.60198866627E+03  0.25500000920E-02 0. -1.
</event>
<event>
 5   0  0.1647550E-03  0.1263043E+04  0.7818609E-02  0.9059397E-01
       -2   -1    0    0    0  501  0.00000000000E+00  0.00000000000E+00  0.39813560826E+03  0.39813560827E+03  0.25500000920E-02 0.  1.
        2   -1    0    0  501    0  0.00000000000E+00  0.00000000000E+00 -0.10017174906E+04  0.10017174906E+04  0.25500000920E-02 0. -1.
    10030    2    1    2    0    0  0.00000000000E+00  0.00000000000E+00 -0.60358188235E+03  0.13998530989E+04  0.12630429960E+04 0.  0.
        3    1    3    3  502    0  0.30716733912E+03  0.33685225910E+03 -0.78616283553E+03  0.90877567796E+03  0.10100000352E+00 0. -1.
       -3    1    3    3    0  502 -0.30716733912E+03 -0.33685225910E+03  0.18258095318E+03  0.49107742093E+03  0.10100000352E+00 0.  1.
</event>
<event>
 5   0  0.1567019E-03  0.1196738E+04  0.7818609E-02  0.9115716E-01
       -2   -1    0    0    0  501  0.00000000000E+00  0.00000000000E+00  0.37426855185E+03  0.37426855186E+03  0.25500000920E-02 0. -1.
        2   -1    0    0  501    0  0.00000000000E+00  0.00000000000E+00 -0.95665442035E+03  0.95665442035E+03  0.25500000920E-02 0.  1.
    10030    2    1    2    0    0  0.00000000000E+00  0.00000000000E+00 -0.58238586850E+03  0.13309229722E+04  0.11967383415E+04 0.  0.
        5    1    3    3  502    0  0.38308232272E+03  0.80973198081E+02 -0.79437874885E+03  0.88564575955E+03  0.46999998093E+01 0.  1.
       -5    1    3    3    0  502 -0.38308232272E+03 -0.80973198081E+02  0.21199288036E+03  0.44527721265E+03  0.46999998093E+01 0. -1.
</event>
<event>
 5   0  0.9170776E-04  0.1179891E+04  0.7818609E-02  0.9130643E-01
       -1   -1    0    0    0  501  0.00000000000E+00  0.00000000000E+00  0.20427305407E+03  0.20427305414E+03  0.50400001928E-02 0.  1.
        1   -1    0    0  501    0  0.00000000000E+00  0.00000000000E+00 -0.17037755176E+04  0.17037755176E+04  0.50400001928E-02 0. -1.
    10030    2    1    2    0    0  0.00000000000E+00  0.00000000000E+00 -0.14995024636E+04  0.19080485718E+04  0.11798905517E+04 0.  0.
        5    1    3    3  502    0 -0.55472211862E+03 -0.43033932136E+02 -0.10668294805E+04  0.12032106128E+04  0.46999998093E+01 0. -1.
       -5    1    3    3    0  502  0.55472211862E+03  0.43033932136E+02 -0.43267298305E+03  0.70483795901E+03  0.46999998093E+01 0.  1.
</event>
<event>
 5   0  0.9358428E-04  0.1240832E+04  0.7818609E-02  0.9077849E-01
       -1   -1    0    0    0  501  0.00000000000E+00  0.00000000000E+00  0.63465861571E+03  0.63465861573E+03  0.50400001928E-02 0. -1.
        1   -1    0    0  501    0  0.00000000000E+00  0.00000000000E+00 -0.60649267179E+03  0.60649267181E+03  0.50400001928E-02 0.  1.
    10030    2    1    2    0    0  0.00000000000E+00  0.00000000000E+00  0.28165943919E+02  0.12411512875E+04  0.12408316558E+04 0.  0.
        2    1    3    3  502    0 -0.51384299206E+03  0.23242696029E+03  0.27272043367E+03  0.62644500741E+03  0.25500000920E-02 0. -1.
       -2    1    3    3    0  502  0.51384299206E+03 -0.23242696029E+03 -0.24455448975E+03  0.61470628012E+03  0.25500000920E-02 0.  1.
</event>
<event>
 5   0  0.9170776E-04  0.1218261E+04  0.7818609E-02  0.9097021E-01
       -1   -1    0    0    0  501  0.00000000000E+00  0.00000000000E+00  0.12347377075E+04  0.12347377075E+04  0.50400001928E-02 0.  1.
        1   -1    0    0  501    0  0.00000000000E+00  0.00000000000E+00 -0.30050095242E+03  0.30050095246E+03  0.50400001928E-02 0. -1.
    10030    2    1    2    0    0  0.00000000000E+00  0.00000000000E+00  0.93423675504E+03  0.15352386599E+04  0.12182608212E+04 0.  0.
        5    1    3    3  502    0 -0.57128655815E+03 -0.37562117513E+02  0.20507629317E+03  0.60815920630E+03  0.46999998093E+01 0. -1.
       -5    1    3    3    0  502  0.57128655815E+03  0.37562117513E+02  0.72916046187E+03  0.92707945363E+03  0.46999998093E+01 0.  1.
</event>
<event>
 5   0  0.1537557E-03  0.1187347E+04  0.7818609E-02  0.9124004E-01
       -2   -1    0    0    0  501  0.00000000000E+00  0.00000000000E+00  0.27466375639E+03  0.27466375640E+03  0.25500000920E-02 0. -1.
        2   -1    0    0  501    0  0.00000000000E+00  0.00000000000E+00 -0.12831996227E+04  0.12831996227E+04  0.25500000920E-02 0.  1.
    10030    2    1    2    0    0  0.00000000000E+00  0.00000000000E+00 -0.10085358663E+04  0.15578633791E+04  0.11873473436E+04 0.  0.
        2    1    3    3  502    0 -0.47428633287E+03 -0.11298159351E+03 -0.94869607821E+03  0.10666473714E+04  0.25500000920E-02 0.  1.
       -2    1    3    3    0  502  0.47428633287E+03  0.11298159351E+03 -0.59839788103E+02  0.49121600775E+03  0.25500000920E-02 0. -1.
</event>
<event>
 5   0  0.1597352E-03  0.1192990E+04  0.7818609E-02  0.9119015E-01
        2   -1    0    0  501    0  0.00000000000E+00  0.00000000000E+00  0.23122991907E+04  0.23122991907E+04  0.25500000920E-02 0.  1.
       -2   -1    0    0    0  501  0.00000000000E+00  0.00000000000E+00 -0.15387545221E+03  0.15387545223E+03  0.25500000920E-02 0. -1.
    10030    2    1    2    0    0  0.00000000000E+00  0.00000000000E+00  0.21584237385E+04  0.24661746429E+04  0.11929896624E+04 0.  0.
        1    1    3    3  502    0  0.43342201467E+03  0.48814047395E+02  0.23805659049E+03  0.49689877674E+03  0.50400001928E-02 0. -1.
       -1    1    3    3    0  502 -0.43342201467E+03 -0.48814047395E+02  0.19203671480E+04  0.19692758662E+04  0.50400001928E-02 0.  1.
</event>
<event>
 5   0  0.1597352E-03  0.1185796E+04  0.7818609E-02  0.9125380E-01
       -2   -1    0    0    0  501  0.00000000000E+00  0.00000000000E+00  0.52658309411E+03  0.52658309412E+03  0.25500000920E-02 0. -1.
        2   -1    0    0  501    0  0.00000000000E+00  0.00000000000E+00 -0.66756477944E+03  0.66756477945E+03  0.25500000920E-02 0.  1.
    10030    2    1    2    0    0  0.00000000000E+00  0.00000000000E+00 -0.14098168533E+03  0.11941478736E+04  0.11857964869E+04 0.  0.
        1    1    3    3  502    0 -0.50639237070E+03  0.16271282407E+03 -0.33428923161E+03  0.62821810434E+03  0.50400001928E-02 0.  1.
       -1    1    3    3    0  502  0.50639237070E+03 -0.16271282407E+03  0.19330754629E+03  0.56592976923E+03  0.50400001928E-02 0. -1.
</event>
<event>
 5   0  0.1647550E-03  0.1204405E+04  0.7818609E-02  0.9109010E-01
        2   -1    0    0  501    0  0.00000000000E+00  0.00000000000E+00  0.12788948143E+04  0.12788948143E+04  0.25500000920E-02 0. -1.
       -2   -1    0    0    0  501  0.00000000000E+00  0.00000000000E+00 -0.28356325949E+03  0.28356325951E+03  0.25500000920E-02 0.  1.
    10030    2    1    2    0    0  0.00000000000E+00  0.00000000000E+00  0.99533155483E+03  0.15624580738E+04  0.12044045535E+04 0.  0.
        3    1    3    3  502    0 -0.41819559459E+03 -0.21200052104E+03  0.98792311867E+03  0.10935373221E+04  0.10100000352E+00 0. -1.
       -3    1    3    3    0  502  0.41819559459E+03  0.21200052104E+03  0.74084361544E+01  0.46892075171E+03  0.10100000352E+00 0.  1.
</event>
<event>
 5   0  0.8908478E-04  0.1187130E+04  0.7818609E-02  0.9124197E-01
        1   -1    0    0  501    0  0.00000000000E+00  0.00000000000E+00  0.85003404885E+03  0.85003404886E+03  0.50400001928E-02 0.  1.
       -1   -1    0    0    0  501  0.00000000000E+00  0.00000000000E+00 -0.41447673675E+03  0.41447673678E+03  0.50400001928E-02 0. -1.
    10030    2    1    2    0    0  0.00000000000E+00  0.00000000000E+00  0.43555731210E+03  0.12645107856E+04  0.11871298812E+04 0.  0.
        4    1    3    3  502    0  0.16607558412E+03  0.54416983335E+02  0.82200649779E+03  0.84038003488E+03  0.12699999809E+01 0.  1.
       -4    1    3    3    0  502 -0.16607558412E+03 -0.54416983335E+02 -0.38644918569E+03  0.42413075076E+03  0.12699999809E+01 0. -1.
</event>
<event>
 5   0  0.1597352E-03  0.1127380E+04  0.7818609E-02  0.9178909E-01
        2   -1    0    0  501    0  0.00000000000E+00  0.00000000000E+00  0.19766824387E+04  0.19766824387E+04  0.25500000920E-02 0.  1.
       -2   -1    0    0    0  501  0.00000000000E+00  0.00000000000E+00 -0.16074741349E+03  0.16074741351E+03  0.25500000920E-02 0. -1.
    10030    2    1    2    0    0  0.00000000000E+00  0.00000000000E+00  0.18159350252E+04  0.21374298522E+04  0.11273803073E+04 0.  0.
        1    1    3    3  502    0  0.23722075650E+03  0.35826577657E+03  0.21623101374E+03  0.48102380950E+03  0.50400001928E-02 0. -1.
       -1    1    3    3    0  502 -0.23722075650E+03 -0.35826577657E+03  0.15997040114E+04  0.16564060427E+04  0.50400001928E-02 0.  1.
</event>
<event>
 5   0  0.9358428E-04  0.1278269E+04  0.7818609E-02  0.9046978E-01
        1   -1    0    0  501    0  0.00000000000E+00  0.00000000000E+00  0.12263652765E+04  0.12263652765E+04  0.50400001928E-02 0.  1.
       -1   -1    0    0    0  501  0.00000000000E+00  0.00000000000E+00 -0.33309215828E+03  0.33309215832E+03  0.50400001928E-02 0. -1.
    10030    2    1    2    0    0  0.00000000000E+00  0.00000000000E+00  0.89327311822E+03  0.15594574348E+04  0.12782686053E+04 0.  0.
        2    1    3    3  502    0 -0.24943169970E+03 -0.11273017441E+03 -0.25796540290E+03  0.37612552976E+03  0.25500000920E-02 0. -1.
       -2    1    3    3    0  502  0.24943169970E+03  0.11273017441E+03  0.11512385211E+04  0.11833319051E+04  0.25500000920E-02 0.  1.
</event>
<event>
 5   0  0.1567019E-03  0.1193272E+04  0.7818609E-02  0.9118766E-01
       -2   -1    0    0    0  501  0.00000000000E+00  0.00000000000E+00  0.34917008346E+03  0.34917008347E+03  0.25500000920E-02 0.  1.
        2   -1    0    0  501    0  0.00000000000E+00  0.00000000000E+00 -0.10194877648E+04  0.10194877648E+04  0.25500000920E-02 0. -1.
    10030    2    1    2    0    0  0.00000000000E+00  0.00000000000E+00 -0.67031768130E+03  0.13686578482E+04  0.11932721867E+04 0.  0.
        5    1    3    3  502    0 -0.22647275070E+03  0.53691946415E+02  0.29492807559E+03  0.37573580038E+03  0.46999998093E+01 0.  1.
       -5    1    3    3    0  502  0.22647275070E+03 -0.53691946415E+02 -0.96524575689E+03  0.99292204785E+03  0.46999998093E+01 0. -1.
</event>
<event>
 5   0  0.1647550E-03  0.1208827E+04  0.7818609E-02  0.9105165E-01
       -2   -1    0    0    0  501  0.00000000000E+00  0.00000000000E+00  0.27503810164E+03  0.27503810165E+03  0.25500000920E-02 0.  1.
        2   -1    0    0  501    0  0.00000000000E+00  0.00000000000E+00 -0.13282363797E+04  0.13282363797E+04  0.25500000920E-02 0. -1.
    10030    2    1    2    0    0  0.00000000000E+00  0.00000000000E+00 -0.10531982781E+04  0.16032744813E+04  0.12088268899E+04 0.  0.
        3    1    3    3  502    0  0.27895119779E+03  0.28618096417E+03 -0.11279912667E+04  0.11966944568E+04  0.10100000352E+00 0. -1.
       -3    1    3    3    0  502 -0.27895119779E+03 -0.28618096417E+03  0.74792988641E+02  0.40658002454E+03  0.10100000352E+00 0.  1.
</event>
<event>
 5   0  0.9358428E-04  0.1176027E+04  0.7818609E-02  0.9134103E-01
        1   -1    0    0  501    0  0.00000000000E+00  0.00000000000E+00  0.26906503756E+03  0.26906503760E+03  0.50400001928E-02 0. -1.
       -1   -1    0    0    0  501  0.00000000000E+00  0.00000000000E+00 -0.12850421678E+04  0.12850421678E+04  0.50400001928E-02 0.  1.
    10030    2    1    2    0    0  0.00000000000E+00  0.00000000000E+00 -0.10159771303E+04  0.15541072054E+04  0.11760270731E+04 0.  0.
        2    1    3    3  502    0 -0.17599364508E+03 -0.83630011115E+02 -0.12411378972E+04  0.12563403288E+04  0.25500000920E-02 0.  1.
       -2    1    3    3    0  502  0.17599364508E+03  0.83630011115E+02  0.22516076692E+03  0.29776687666E+03  0.25500000920E-02 0. -1.
</event>
<event>
 5   0  0.9358428E-04  0.1205685E+04  0.7818609E-02  0.9107895E-01
       -1   -1    0    0    0  501  0.00000000000E+00  0.00000000000E+00  0.24535818382E+03  0.24535818387E+03  0.50400001928E-02 0.  1.
        1   -1    0    0  501    0  0.00000000000E+00  0.00000000000E+00 -0.14811768730E+04  0.14811768731E+04  0.50400001928E-02 0. -1.
    10030    2    1    2    0    0  0.00000000000E+00  0.00000000000E+00 -0.12358186892E+04  0.17265350569E+04  0.12056846479E+04 0.  0.
        2    1    3    3  502    0 -0.11960906290E+03  0.33976963565E+03 -0.13101264784E+04  0.13587424784E+04  0.25500000920E-02 0. -1.
       -2    1    3    3    0  502  0.11960906290E+03 -0.33976963565E+03  0.74307789211E+02  0.36779257848E+03  0.25500000920E-02 0.  1.
</event>
<event>
 5   0  0.9170776E-04  0.1196200E+04  0.7818609E-02  0.9116189E-01
        1   -1    0    0  501    0  0.00000000000E+00  0.00000000000E+00  0.11364692737E+04  0.11364692737E+04  0.50400001928E-02 0.  1.
       -1   -1    0    0    0  501  0.00000000000E+00  0.00000000000E+00 -0.31476736885E+03  0.31476736889E+03  0.50400001928E-02 0. -1.
    10030    2    1    2    0    0  0.00000000000E+00  0.00000000000E+00  0.82170190483E+03  0.14512366426E+04  0.11961997209E+04 0.  0.
        5    1    3    3  502    0 -0.48903211189E+03  0.30544434778E+03  0.60364269239E+03  0.83477856113E+03  0.46999998093E+01 0.  1.
       -5    1    3    3    0  502  0.48903211189E+03 -0.30544434778E+03  0.21805921244E+03  0.61645808145E+03  0.46999998093E+01 0. -1.
</event>
<event>
 5   0  0.1537557E-03  0.1196123E+04  0.7818609E-02  0.9116257E-01
        2   -1    0    0  501    0  0.00000000000E+00  0.00000000000E+00  0.31565374997E+03  0.31565374998E+03  0.25500000920E-02 0. -1.
       -2   -1    0    0    0  501  0.00000000000E+00  0.00000000000E+00 -0.11331329343E+04  0.11331329343E+04  0.25500000920E-02 0.  1.
    10030    2    1    2    0    0  0.00000000000E+00  0.00000000000E+00 -0.81747918436E+03  0.14487866843E+04  0.11961231708E+04 0.  0.
        2    1    3    3  502    0 -0.41703710414E+03 -0.19535619846E+03  0.53428318536E+02  0.46361468456E+03  0.25500000920E-02 0. -1.
       -2    1    3    3    0  502  0.41703710414E+03  0.19535619846E+03 -0.87090750290E+03  0.98517199976E+03  0.25500000920E-02 0.  1.
</event>
<event>
 5   0  0.1537557E-03  0.1201815E+04  0.7818609E-02  0.9111270E-01
       -2   -1    0    0    0  501  0.00000000000E+00  0.00000000000E+00  0.74132822036E+03  0.74132822036E+03  0.25500000920E-02 0.  1.
        2   -1    0    0  501    0  0.00000000000E+00  0.00000000000E+00 -0.48708458982E+03  0.48708458983E+03  0.25500000920E-02 0. -1.
    10030    2    1    2    0    0  0.00000000000E+00  0.00000000000E+00  0.25424363054E+03  0.12284128102E+04  0.12018145483E+04 0.  0.
        2    1    3    3  502    0 -0.40437894164E+03 -0.12314533363E+03  0.56365997576E+03  0.70455636390E+03  0.25500000920E-02 0.  1.
       -2    1    3    3    0  502  0.40437894164E+03  0.12314533363E+03 -0.30941634522E+03  0.52385644630E+03  0.25500000920E-02 0. -1.
</event>
<event>
 5   0  0.9208078E-04  0.1198943E+04  0.7818609E-02  0.9113783E-01
        1   -1    0    0  501    0  0.00000000000E+00  0.00000000000E+00  0.19267062954E+04  0.19267062954E+04  0.50400001928E-02 0.  1.
       -1   -1    0    0    0  501  0.00000000000E+00  0.00000000000E+00 -0.18651824058E+03  0.18651824065E+03  0.50400001928E-02 0. -1.
    10030    2    1    2    0    0  0.00000000000E+00  0.00000000000E+00  0.17401880548E+04  0.21132245361E+04  0.11989426482E+04 0.  0.
        3    1    3    3  502    0  0.58912323764E+03 -0.11039223798E+03  0.85133914539E+03  0.10411680873E+04  0.10100000352E+00 0. -1.
       -3    1    3    3    0  502 -0.58912323764E+03  0.11039223798E+03  0.88884890945E+03  0.10720564488E+04  0.10100000352E+00 0.  1.
</event>
<event>
 5   0  0.1551501E-03  0.1197275E+04  0.7818609E-02  0.9115245E-01
       -2   -1    0    0    0  501  0.00000000000E+00  0.00000000000E+00  0.84946367223E+03  0.84946367223E+03  0.25500000920E-02 0. -1.
        2   -1    0    0  501    0  0.00000000000E+00  0.00000000000E+00 -0.42187452022E+03  0.42187452023E+03  0.25500000920E-02 0.  1.
    10030    2    1    2    0    0  0.00000000000E+00  0.00000000000E+00  0.42758915201E+03  0.12713381925E+04  0.11972753721E+04 0.  0.
        4    1    3    3  502    0 -0.50721723462E+03 -0.21287906665E+03 -0.36990119310E+02  0.55132268405E+03  0.12699999809E+01 0.  1.
       -4    1    3    3    0  502  0.50721723462E+03  0.21287906665E+03  0.46457927132E+03  0.72001550841E+03  0.12699999809E+01 0. -1.
</event>
<event>
 5   0  0.9169078E-04  0.1203912E+04  0.7818609E-02  0.9109439E-01
       -1   -1    0    0    0  501  0.00000000000E+00  0.00000000000E+00  0.33417869815E+03  0.33417869819E+03  0.50400001928E-02 0.  1.
        1   -1    0    0  501    0  0.00000000000E+00  0.00000000000E+00 -0.10843036454E+04  0.10843036454E+04  0.50400001928E-02 0. -1.
    10030    2    1    2    0    0  0.00000000000E+00  0.00000000000E+00 -0.75012494727E+03  0.14184823436E+04  0.12039122570E+04 0.  0.
        1    1    3    3  502    0  0.26183669967E+03 -0.29682914821E+03 -0.90941836137E+03  0.99182042556E+03  0.50400001928E-02 0. -1.
       -1    1    3    3    0  502 -0.26183669967E+03  0.29682914821E+03  0.15929341410E+03  0.42666191806E+03  0.50400001928E-02 0.  1.
</event>
<event>
 5   0  0.1537557E-03  0.1247457E+04  0.7818609E-02  0.9072303E-01
        2   -1    0    0  501    0  0.00000000000E+00  0.00000000000E+00  0.20326761923E+04  0.20326761923E+04  0.25500000920E-02 0.  1.
       -2   -1    0    0    0  501  0.00000000000E+00  0.00000000000E+00 -0.19139150671E+03  0.19139150673E+03  0.25500000920E-02 0. -1.
    10030    2    1    2    0    0  0.00000000000E+00  0.00000000000E+00  0.18412846856E+04  0.22240676991E+04  0.12474565470E+04 0.  0.
        2    1    3    3  502    0  0.17410754844E+03  0.59435223576E+03  0.10524905343E+04  0.12211897246E+04  0.25500000920E-02 0.  1.
       -2    1    3    3    0  502 -0.17410754844E+03 -0.59435223576E+03  0.78879415133E+03  0.10028779745E+04  0.25500000920E-02 0. -1.
</event>
<event>
 5   0  0.9208078E-04  0.1300794E+04  0.7818609E-02  0.9028935E-01
        1   -1    0    0  501    0  0.00000000000E+00  0.00000000000E+00  0.11867611972E+04  0.11867611972E+04  0.50400001928E-02 0. -1.
       -1   -1    0    0    0  501  0.00000000000E+00  0.00000000000E+00 -0.35644622861E+03  0.35644622864E+03  0.50400001928E-02 0.  1.
    10030    2    1    2    0    0  0.00000000000E+00  0.00000000000E+00  0.83031496856E+03  0.15432074258E+04  0.13007944542E+04 0.  0.
        3    1    3    3  502    0  0.50972013924E+03  0.33628393643E+03  0.68074010589E+03  0.91449910236E+03  0.10100000352E+00 0. -1.
       -3    1    3    3    0  502 -0.50972013924E+03 -0.33628393643E+03  0.14957486267E+03  0.62870832347E+03  0.10100000352E+00 0.  1.
</event>
<event>
 5   0  0.1597352E-03  0.1195663E+04  0.7818609E-02  0.9116661E-01
       -2   -1    0    0    0  501  0.00000000000E+00  0.00000000000E+00  0.11205067310E+04  0.11205067310E+04  0.25500000920E-02 0.  1.
        2   -1    0    0  501    0  0.00000000000E+00  0.00000000000E+00 -0.31896511311E+03  0.31896511312E+03  0.25500000920E-02 0. -1.
    10030    2    1    2    0    0  0.00000000000E+00  0.00000000000E+00  0.80154161793E+03  0.14394718442E+04  0.11956630900E+04 0.  0.
        1    1    3    3  502    0  0.49653244453E+03  0.21463198768E+03  0.94325939020E+02  0.54909811637E+03  0.50400001928E-02 0. -1.
       -1    1    3    3    0  502 -0.49653244453E+03 -0.21463198768E+03  0.70721567891E+03  0.89037372778E+03  0.50400001928E-02 0.  1.
</event>
<event>
 5   0  0.1567019E-03  0.1174919E+04  0.7818609E-02  0.9135097E-01
       -2   -1    0    0    0  501  0.00000000000E+00  0.00000000000E+00  0.27796813082E+03  0.27796813084E+03  0.25500000920E-02 0.  1.
        2   -1    0    0  501    0  0.00000000000E+00  0.00000000000E+00 -0.12415410663E+04  0.12415410663E+04  0.25500000920E-02 0. -1.
    10030    2    1    2    0    0  0.00000000000E+00  0.00000000000E+00 -0.96357293550E+03  0.15195091972E+04  0.11749193156E+04 0.  0.
        5    1    3    3  502    0 -0.14476212052E+03 -0.28050043058E+03 -0.11225193043E+04  0.11660652819E+04  0.46999998093E+01 0. -1.
       -5    1    3    3    0  502  0.14476212052E+03  0.28050043058E+03  0.15894636880E+03  0.35344391528E+03  0.46999998093E+01 0.  1.
</event>
<event>
 5   0  0.9169078E-04  0.1188928E+04  0.7818609E-02  0.9122603E-01
        1   -1    0    0  501    0  0.00000000000E+00  0.00000000000E+00  0.13331295061E+04  0.13331295061E+04  0.50400001928E-02 0.  1.
       -1   -1    0    0    0  501  0.00000000000E+00  0.00000000000E+00 -0.26508126781E+03  0.26508126786E+03  0.50400001928E-02 0. -1.
    10030    2    1    2    0    0  0.00000000000E+00  0.00000000000E+00  0.10680482383E+04  0.15982107740E+04  0.11889283573E+04 0.  0.
        1    1    3    3  502    0  0.27003698136E+03 -0.40036641401E+02  0.12438881702E+04  0.12734915327E+04  0.50400001928E-02 0.  1.
       -1    1    3    3    0  502 -0.27003698136E+03  0.40036641401E+02 -0.17583993190E+03  0.32471924124E+03  0.50400001928E-02 0. -1.
</event>
<event>
 5   0  0.9358428E-04  0.1200809E+04  0.7818609E-02  0.9112149E-01
       -1   -1    0    0    0  501  0.00000000000E+00  0.00000000000E+00  0.11041144955E+04  0.11041144955E+04  0.50400001928E-02 0. -1.
        1   -1    0    0  501    0  0.00000000000E+00  0.00000000000E+00 -0.32649292175E+03  0.32649292179E+03  0.50400001928E-02 0.  1.
    10030    2    1    2    0    0  0.00000000000E+00  0.00000000000E+00  0.77762157379E+03  0.14306074173E+04  0.12008090067E+04 0.  0.
        2    1    3    3  502    0  0.21520362860E+03 -0.51173021965E+03  0.66128082596E+03  0.86340763852E+03  0.25500000920E-02 0. -1.
       -2    1    3    3    0  502 -0.21520362860E+03  0.51173021965E+03  0.11634074782E+03  0.56719977880E+03  0.25500000920E-02 0.  1.
</event>
<event>
 5   0  0.8908478E-04  0.1204006E+04  0.7818609E-02  0.9109357E-01
       -1   -1    0    0    0  501  0.00000000000E+00  0.00000000000E+00  0.62742951985E+03  0.62742951987E+03  0.50400001928E-02 0. -1.
        1   -1    0    0  501    0  0.00000000000E+00  0.00000000000E+00 -0.57760689125E+03  0.57760689127E+03  0.50400001928E-02 0.  1.
    10030    2    1    2    0    0  0.00000000000E+00  0.00000000000E+00  0.49822628604E+02  0.12050364111E+04  0.12040060041E+04 0.  0.
        4    1    3    3  502    0 -0.67711203710E+02 -0.50161355889E+03  0.35108135220E+03  0.61600381357E+03  0.12699999809E+01 0.  1.
       -4    1    3    3    0  502  0.67711203710E+02  0.50161355889E+03 -0.30125872360E+03  0.58903259758E+03  0.12699999809E+01 0. -1.
</event>
<event>
 5   0  0.1537557E-03  0.1205956E+04  0.7818609E-02  0.9107659E-01
        2   -1    0    0  501    0  0.00000000000E+00  0.00000000000E+00  0.21181866412E+04  0.21181866413E+04  0.25500000920E-02 0.  1.
       -2   -1    0    0    0  501  0.00000000000E+00  0.00000000000E+00 -0.17164790055E+03  0.17164790057E+03  0.25500000920E-02 0. -1.
    10030    2    1    2    0    0  0.00000000000E+00  0.00000000000E+00  0.19465387407E+04  0.22898345418E+04  0.12059557040E+04 0.  0.
        2    1    3    3  502    0  0.74583654211E+02 -0.11252845469E+03 -0.14258321681E+03  0.19635515861E+03  0.25500000920E-02 0. -1.
       -2    1    3    3    0  502 -0.74583654211E+02  0.11252845469E+03  0.20891219575E+04  0.20934793832E+04  0.25500000920E-02 0.  1.
</event>
<event>
 5   0  0.1537557E-03  0.1190379E+04  0.7818609E-02  0.9121319E-01
       -2   -1    0    0    0  501  0.00000000000E+00  0.00000000000E+00  0.29281203321E+03  0.29281203322E+03  0.25500000920E-02 0.  1.
        2   -1    0    0  501    0  0.00000000000E+00  0.00000000000E+00 -0.12098230916E+04  0.12098230916E+04  0.25500000920E-02 0. -1.
    10030    2    1    2    0    0  0.00000000000E+00  0.00000000000E+00 -0.91701105837E+03  0.15026351248E+04  0.11903793669E+04 0.  0.
        2    1    3    3  502    0  0.26237701485E+02  0.18879162184E+03  0.25324388072E+03  0.31695923489E+03  0.25500000920E-02 0.  1.
       -2    1    3    3    0  502 -0.26237701485E+02 -0.18879162184E+03 -0.11702549391E+04  0.11856758899E+04  0.25500000920E-02 0. -1.
</event>
<event>
 5   0  0.1551501E-03  0.1200775E+04  0.7818609E-02  0.9112179E-01
        2   -1    0    0  501    0  0.00000000000E+00  0.00000000000E+00  0.15701656331E+04  0.15701656331E+04  0.25500000920E-02 0.  1.
       -2   -1    0    0    0  501  0.00000000000E+00  0.00000000000E+00 -0.22957132149E+03  0.22957132151E+03  0.25500000920E-02 0. -1.
    10030    2    1    2    0    0  0.00000000000E+00  0.00000000000E+00  0.13405943116E+04  0.17997369546E+04  0.12007747488E+04 0.  0.
        4    1    3    3  502    0  0.30929018409E+03  0.50513374174E+03  0.81747779212E+03  0.10095009007E+04  0.12699999809E+01 0.  1.
       -4    1    3    3    0  502 -0.30929018409E+03 -0.50513374174E+03  0.52311651948E+03  0.79023605389E+03  0.12699999809E+01 0. -1.
</event>
<event>
 5   0  0.1567019E-03  0.1201013E+04  0.7818609E-02  0.9111971E-01
        2   -1    0    0  501    0  0.00000000000E+00  0.00000000000E+00  0.44259311512E+03  0.44259311512E+03  0.25500000920E-02 0.  1.
       -2   -1    0    0    0  501  0.00000000000E+00  0.00000000000E+00 -0.81476142471E+03  0.81476142472E+03  0.25500000920E-02 0. -1.
    10030    2    1    2    0    0  0.00000000000E+00  0.00000000000E+00 -0.37216830960E+03  0.12573545398E+04  0.12010125679E+04 0.  0.
        5    1    3    3  502    0 -0.50438247001E+03 -0.29424139746E+03 -0.39493918537E+02  0.58528756662E+03  0.46999998093E+01 0.  1.
       -5    1    3    3    0  502  0.50438247001E+03  0.29424139746E+03 -0.33267439106E+03  0.67206697322E+03  0.46999998093E+01 0. -1.
</event>
<event>
 5   0  0.1537557E-03  0.1205983E+04  0.7818609E-02  0.9107635E-01
        2   -1    0    0  501    0  0.00000000000E+00  0.00000000000E+00  0.73995082181E+03  0.73995082181E+03  0.25500000920E-02 0.  1.
       -2   -1    0    0    0  501  0.00000000000E+00  0.00000000000E+00 -0.49138272087E+03  0.49138272088E+03  0.25500000920E-02 0. -1.
    10030    2    1    2    0    0  0.00000000000E+00  0.00000000000E+00  0.24856810094E+03  0.12313335427E+04  0.12059834960E+04 0.  0.
        2    1    3    3  502    0  0.35625828061E+02  0.55351089135E+03  0.36580560640E+03  0.66442249221E+03  0.25500000920E-02 0.  1.
       -2    1    3    3    0  502 -0.35625828061E+02 -0.55351089135E+03 -0.11723750546E+03  0.56691105049E+03  0.25500000920E-02 0. -1.
</event>
<event>
 5   0  0.1597352E-03  0.1186697E+04  0.7818609E-02  0.9124581E-01
       -2   -1    0    0    0  501  0.00000000000E+00  0.00000000000E+00  0.76814748640E+03  0.76814748641E+03  0.25500000920E-02 0. -1.
        2   -1    0    0  501    0  0.00000000000E+00  0.00000000000E+00 -0.45832667953E+03  0.45832667953E+03  0.25500000920E-02 0.  1.
    10030    2    1    2    0    0  0.00000000000E+00  0.00000000000E+00  0.30982080687E+03  0.12264741659E+04  0.11866970748E+04 0.  0.
        1    1    3    3  502    0  0.59240728536E+03  0.22518628657E+02  0.12940516024E+03  0.60679417920E+03  0.50400001928E-02 0.  1.
       -1    1    3    3    0  502 -0.59240728536E+03 -0.22518628657E+02  0.18041564663E+03  0.61967998674E+03  0.50400001928E-02 0. -1.
</event>
<event>
 5   0  0.1551501E-03  0.1193431E+04  0.7818609E-02  0.9118626E-01
       -2   -1    0    0    0  501  0.00000000000E+00  0.00000000000E+00  0.89800810469E+03  0.89800810470E+03  0.25500000920E-02 0. -1.
        2   -1    0    0  501    0  0.00000000000E+00  0.00000000000E+00 -0.39650988591E+03  0.39650988591E+03  0.25500000920E-02 0.  1.
    10030    2    1    2    0    0  0.00000000000E+00  0.00000000000E+00  0.50149821879E+03  0.12945179906E+04  0.11934305026E+04 0.  0.
        4    1    3    3  502    0  0.51712350814E+03  0.12686458653E+03  0.54292745029E+03  0.76044932452E+03  0.12699999809E+01 0. -1.
       -4    1    3    3    0  502 -0.51712350814E+03 -0.12686458653E+03 -0.41429231497E+02  0.53406866610E+03  0.12699999809E+01 0.  1.
</event>
<event>
 5   0  0.1551501E-03  0.1191540E+04  0.7818609E-02  0.9120294E-01
       -2   -1    0    0    0  501  0.00000000000E+00  0.00000000000E+00  0.21288211047E+03  0.21288211049E+03  0.25500000920E-02 0. -1.
        2   -1    0    0  501    0  0.00000000000E+00  0.00000000000E+00 -0.16673163551E+04  0.16673163551E+04  0.25500000920E-02 0.  1.
    10030    2    1    2    0    0  0.00000000000E+00  0.00000000000E+00 -0.14544342447E+04  0.18801984656E+04  0.11915398852E+04 0.  0.
        4    1    3    3  502    0  0.18240853602E+03 -0.45770024554E+03 -0.12557215293E+04  0.13489257062E+04  0.12699999809E+01 0.  1.
       -4    1    3    3    0  502 -0.18240853602E+03  0.45770024554E+03 -0.19871271538E+03  0.53127275945E+03  0.12699999809E+01 0. -1.
</event>
<event>
 5   0  0.1567019E-03  0.1195395E+04  0.7818609E-02  0.9116897E-01
       -2   -1    0    0    0  501  0.00000000000E+00  0.00000000000E+00  0.39629633228E+03  0.39629633229E+03  0.25500000920E-02 0. -1.
        2   -1    0    0  501    0  0.00000000000E+00  0.00000000000E+00 -0.90145201304E+03  0.90145201304E+03  0.25500000920E-02 0.  1.
    10030    2    1    2    0    0  0.00000000000E+00  0.00000000000E+00 -0.50515568075E+03  0.12977483453E+04  0.11953947072E+04 0.  0.
        5    1    3    3  502    0  0.92020068181E+02 -0.29110654603E+03  0.30523535876E+03  0.43174231705E+03  0.46999998093E+01 0. -1.
       -5    1    3    3    0  502 -0.92020068181E+02  0.29110654603E+03 -0.81039103952E+03  0.86600602828E+03  0.46999998093E+01 0.  1.
</event>
<event>
 5   0  0.9358428E-04  0.1206347E+04  0.7818609E-02  0.9107319E-01
        1   -1    0    0  501    0  0.00000000000E+00  0.00000000000E+00  0.16412707905E+04  0.16412707905E+04  0.50400001928E-02 0. -1.
       -1   -1    0    0    0  501  0.00000000000E+00  0.00000000000E+00 -0.22166863296E+03  0.22166863302E+03  0.50400001928E-02 0.  1.
    10030    2    1    2    0    0  0.00000000000E+00  0.00000000000E+00  0.14196021575E+04  0.18629394235E+04  0.12063469692E+04 0.  0.
        2    1    3    3  502    0  0.35159346725E+03  0.39810706362E+03  0.11512362143E+04  0.12678533122E+04  0.25500000920E-02 0. -1.
       -2    1    3    3    0  502 -0.35159346725E+03 -0.39810706362E+03  0.26836594325E+03  0.59508611126E+03  0.25500000920E-02 0.  1.
</event>
<event>
 5   0  0.1567019E-03  0.1201463E+04  0.7818609E-02  0.9111577E-01
       -2   -1    0    0    0  501  0.00000000000E+00  0.00000000000E+00  0.31337637901E+03  0.31337637902E+03  0.25500000920E-02 0.  1.
        2   -1    0    0  501    0  0.00000000000E+00  0.00000000000E+00 -0.11515812906E+04  0.11515812906E+04  0.25500000920E-02 0. -1.
    10030    2    1    2    0    0  0.00000000000E+00  0.00000000000E+00 -0.83820491160E+03  0.14649576696E+04  0.12014630664E+04 0.  0.
        5    1    3    3  502    0  0.21892186401E+03 -0.35977345244E+03  0.10320218799E+03  0.43363175763E+03  0.46999998093E+01 0.  1.
       -5    1    3    3    0  502 -0.21892186401E+03  0.35977345244E+03 -0.94140709959E+03  0.10313259120E+04  0.46999998093E+01 0. -1.
</event>
<event>
 5   0  0.1647550E-03  0.1211126E+04  0.7818609E-02  0.9103173E-01
        2   -1    0    0  501    0  0.00000000000E+00  0.00000000000E+00  0.63818805241E+03  0.63818805241E+03  0.25500000920E-02 0.  1.
       -2   -1    0    0    0  501  0.00000000000E+00  0.00000000000E+00 -0.57460569659E+03  0.57460569660E+03  0.25500000920E-02 0. -1.
    10030    2    1    2    0    0  0.00000000000E+00  0.00000000000E+00  0.63582355814E+02  0.12127937490E+04  0.12111259066E+04 0.  0.
        3    1    3    3  502    0  0.19562462877E+03  0.45204900505E+03  0.38453922369E+03  0.62489016883E+03  0.10100000352E+00 0.  1.
       -3    1    3    3    0  502 -0.19562462877E+03 -0.45204900505E+03 -0.32095686787E+03  0.58790358018E+03  0.10100000352E+00 0. -1.
</event>
<event>
 5   0  0.1567019E-03  0.1208487E+04  0.7818609E-02  0.9105460E-01
       -2   -1    0    0    0  501  0.00000000000E+00  0.00000000000E+00  0.73975444124E+03  0.73975444125E+03  0.25500000920E-02 0.  1.
        2   -1    0    0  501    0  0.00000000000E+00  0.00000000000E+00 -0.49355595578E+03  0.49355595579E+03  0.25500000920E-02 0. -1.
    10030    2    1    2    0    0  0.00000000000E+00  0.00000000000E+00  0.24619848546E+03  0.12333103970E+04  0.12084870050E+04 0.  0.
        5    1    3    3  502    0  0.44319337891E+03  0.37962652687E+03 -0.36808309314E+02  0.58473379639E+03  0.46999998093E+01 0. -1.
       -5    1    3    3    0  502 -0.44319337891E+03 -0.37962652687E+03  0.28300679478E+03  0.64857660064E+03  0.46999998093E+01 0.  1.
</event>
<event>
 5   0  0.8908478E-04  0.1206871E+04  0.7818609E-02  0.9106863E-01
       -1   -1    0    0    0  501  0.00000000000E+00  0.00000000000E+00  0.35153442535E+03  0.35153442539E+03  0.50400001928E-02 0. -1.
        1   -1    0    0  501    0  0.00000000000E+00  0.00000000000E+00 -0.10358431549E+04  0.10358431549E+04  0.50400001928E-02 0.  1.
    10030    2    1    2    0    0  0.00000000000E+00  0.00000000000E+00 -0.68430872957E+03  0.13873775803E+04  0.12068712081E+04 0.  0.
        4    1    3    3  502    0 -0.34277135034E+02 -0.11688686689E+03 -0.10215616697E+04  0.10287989695E+04  0.12699999809E+01 0.  1.
       -4    1    3    3    0  502  0.34277135034E+02  0.11688686689E+03  0.33725294014E+03  0.35857861086E+03  0.12699999809E+01 0. -1.
</event>
<event>
 5   0  0.9170776E-04  0.1199093E+04  0.7818609E-02  0.9113651E-01
        1   -1    0    0  501    0  0.00000000000E+00  0.00000000000E+00  0.75669153553E+03  0.75669153554E+03  0.50400001928E-02 0.  1.
       -1   -1    0    0    0  501  0.00000000000E+00  0.00000000000E+00 -0.47503640695E+03  0.47503640698E+03  0.50400001928E-02 0. -1.
    10030    2    1    2    0    0  0.00000000000E+00  0.00000000000E+00  0.28165512857E+03  0.12317279425E+04  0.11990930376E+04 0.  0.
        5    1    3    3  502    0  0.11875541061E+02 -0.59920684349E+03  0.15687544745E+03  0.61953358729E+03  0.46999998093E+01 0.  1.
       -5    1    3    3    0  502 -0.11875541061E+02  0.59920684349E+03  0.12477968112E+03  0.61219435524E+03  0.46999998093E+01 0. -1.
</event>
<event>
 5   0  0.9170776E-04  0.1153471E+04  0.7818609E-02  0.9154587E-01
       -1   -1    0    0    0  501  0.00000000000E+00  0.00000000000E+00  0.36171550891E+03  0.36171550894E+03  0.50400001928E-02 0. -1.
        1   -1    0    0  501    0  0.00000000000E+00  0.00000000000E+00 -0.91957329763E+03  0.91957329764E+03  0.50400001928E-02 0.  1.
    10030    2    1    2    0    0  0.00000000000E+00  0.00000000000E+00 -0.55785778872E+03  0.12812888066E+04  0.11534711498E+04 0.  0.
        5    1    3    3  502    0 -0.15992998145E+03 -0.42905049188E+03  0.11055252200E+03  0.47106886298E+03  0.46999998093E+01 0. -1.
       -5    1    3    3    0  502  0.15992998145E+03  0.42905049188E+03 -0.66841031072E+03  0.81021994361E+03  0.46999998093E+01 0.  1.
</event>
<event>
 5   0  0.6137750E-04  0.1209765E+04  0.7818609E-02  0.9104352E-01
       -3   -1    0    0    0  501  0.00000000000E+00  0.00000000000E+00  0.61451134135E+03  0.61451134965E+03  0.10100000352E+00 0.  1.
        3   -1    0    0  501    0  0.00000000000E+00  0.00000000000E+00 -0.59540453458E+03  0.59540454315E+03  0.10100000352E+00 0. -1.
    10030    2    1    2    0    0  0.00000000000E+00  0.00000000000E+00  0.19106806774E+02  0.12099158928E+04  0.12097650175E+04 0.  0.
        5    1    3    3  502    0 -0.12139812219E+03  0.47591486110E+03 -0.34351796074E+03  0.59938229740E+03  0.46999998093E+01 0. -1.
       -5    1    3    3    0  502  0.12139812219E+03 -0.47591486110E+03  0.36262476752E+03  0.61053359539E+03  0.46999998093E+01 0.  1.
</event>
<event>
 5   0  0.1597352E-03  0.1214632E+04  0.7818609E-02  0.9100144E-01
        2   -1    0    0  501    0  0.00000000000E+00  0.00000000000E+00  0.30442076184E+04  0.30442076184E+04  0.25500000920E-02 0.  1.
       -2   -1    0    0    0  501  0.00000000000E+00  0.00000000000E+00 -0.12115894701E+03  0.12115894704E+03  0.25500000920E-02 0. -1.
    10030    2    1    2    0    0  0.00000000000E+00  0.00000000000E+00  0.29230486714E+04  0.31653665654E+04  0.12146324375E+04 0.  0.
        1    1    3    3  502    0 -0.31173699113E+03  0.80386111321E+02  0.28035431892E+04  0.28219667418E+04  0.50400001928E-02 0.  1.
       -1    1    3    3    0  502  0.31173699113E+03 -0.80386111321E+02  0.11950548219E+03  0.34339982357E+03  0.50400001928E-02 0. -1.
</event>
<event>
 5   0  0.1597352E-03  0.1201358E+04  0.7818609E-02  0.9111669E-01
        2   -1    0    0  501    0  0.00000000000E+00  0.00000000000E+00  0.74759701258E+03  0.74759701259E+03  0.25500000920E-02 0.  1.
       -2   -1    0    0    0  501  0.00000000000E+00  0.00000000000E+00 -0.48263303632E+03  0.48263303633E+03  0.25500000920E-02 0. -1.
    10030    2    1    2    0    0  0.00000000000E+00  0.00000000000E+00  0.26496397626E+03  0.12302300489E+04  0.12013575923E+04 0.  0.
        1    1    3    3  502    0 -0.45119492427E+03 -0.35285667522E+03  0.31774519615E+03  0.65501656669E+03  0.50400001928E-02 0.  1.
       -1    1    3    3    0  502  0.45119492427E+03  0.35285667522E+03 -0.52781219887E+02  0.57521348223E+03  0.50400001928E-02 0. -1.
</event>
<event>
 5   0  0.8908478E-04  0.1192610E+04  0.7818609E-02  0.9119349E-01
        1   -1    0    0  501    0  0.00000000000E+00  0.00000000000E+00  0.92402677330E+03  0.92402677332E+03  0.50400001928E-02 0.  1.
       -1   -1    0    0    0  501  0.00000000000E+00  0.00000000000E+00 -0.38481547888E+03  0.38481547891E+03  0.50400001928E-02 0. -1.
    10030    2    1    2    0    0  0.00000000000E+00  0.00000000000E+00  0.53921129442E+03  0.13088422522E+04  0.11926102554E+04 0.  0.
        4    1    3    3  502    0 -0.26415163689E+03  0.44950531359E+03 -0.47989310671E+02  0.52357969885E+03  0.12699999809E+01 0. -1.
       -4    1    3    3    0  502  0.26415163689E+03 -0.44950531359E+03  0.58720060509E+03  0.78526255338E+03  0.12699999809E+01 0.  1.
</event>
<event>
 5   0  0.1537557E-03  0.1201143E+04  0.7818609E-02  0.9111857E-01
       -2   -1    0    0    0  501  0.00000000000E+00  0.00000000000E+00  0.18411667286E+03  0.18411667288E+03  0.25500000920E-02 0. -1.
        2   -1    0    0  501    0  0.00000000000E+00  0.00000000000E+00 -0.19590073506E+04  0.19590073506E+04  0.25500000920E-02 0.  1.
    10030    2    1    2    0    0  0.00000000000E+00  0.00000000000E+00 -0.17748906777E+04  0.21431240235E+04  0.12011426485E+04 0.  0.
        2    1    3    3  502    0 -0.51853975656E+03 -0.26428926603E+03 -0.62307922270E+03  0.85261950074E+03  0.25500000920E-02 0. -1.
       -2    1    3    3    0  502  0.51853975656E+03  0.26428926603E+03 -0.11518114550E+04  0.12905045227E+04  0.25500000920E-02 0.  1.
</event>
<event>
 5   0  0.6137750E-04  0.1189451E+04  0.7818609E-02  0.9122140E-01
       -3   -1    0    0    0  501  0.00000000000E+00  0.00000000000E+00  0.37124502204E+03  0.37124503578E+03  0.10100000352E+00 0.  1.
        3   -1    0    0  501    0  0.00000000000E+00  0.00000000000E+00 -0.95273591993E+03  0.95273592528E+03  0.10100000352E+00 0. -1.
    10030    2    1    2    0    0  0.00000000000E+00  0.00000000000E+00 -0.58149089789E+03  0.13239809611E+04  0.11894511007E+04 0.  0.
        2    1    3    3  502    0  0.11865004316E+03  0.41539474200E+03 -0.74571422943E+03  0.86181223965E+03  0.25500000920E-02 0. -1.
       -2    1    3    3    0  502 -0.11865004316E+03 -0.41539474200E+03  0.16422333155E+03  0.46216872141E+03  0.25500000920E-02 0.  1.
</event>
<event>
 5   0  0.1567019E-03  0.1196975E+04  0.7818609E-02  0.9115508E-01
        2   -1    0    0  501    0  0.00000000000E+00  0.00000000000E+00  0.10705097283E+04  0.10705097283E+04  0.25500000920E-02 0.  1.
       -2   -1    0    0    0  501  0.00000000000E+00  0.00000000000E+00 -0.33459507238E+03  0.33459507239E+03  0.25500000920E-02 0. -1.
    10030    2    1    2    0    0  0.00000000000E+00  0.00000000000E+00  0.73591465592E+03  0.14051048007E+04  0.11969749873E+04 0.  0.
        5    1    3    3  502    0  0.12922601252E+03  0.42371622146E+03  0.84033332890E+03  0.94995631073E+03  0.46999998093E+01 0.  1.
       -5    1    3    3    0  502 -0.12922601252E+03 -0.42371622146E+03 -0.10441867298E+03  0.45514848996E+03  0.46999998093E+01 0. -1.
</event>
<event>
 5   0  0.1567019E-03  0.1194934E+04  0.7818609E-02  0.9117303E-01
       -2   -1    0    0    0  501  0.00000000000E+00  0.00000000000E+00  0.44515874762E+03  0.44515874762E+03  0.25500000920E-02 0. -1.
        2   -1    0    0  501    0  0.00000000000E+00  0.00000000000E+00 -0.80188607553E+03  0.80188607554E+03  0.25500000920E-02 0.  1.
    10030    2    1    2    0    0  0.00000000000E+00  0.00000000000E+00 -0.35672732792E+03  0.12470448232E+04  0.11949336402E+04 0.  0.
        5    1    3    3  502    0 -0.55661111802E+03 -0.21695784445E+03 -0.18630252284E+03  0.62579338682E+03  0.46999998093E+01 0. -1.
       -5    1    3    3    0  502  0.55661111802E+03  0.21695784445E+03 -0.17042480508E+03  0.62125143634E+03  0.46999998093E+01 0.  1.
</event>
<event>
 5   0  0.9169078E-04  0.1200179E+04  0.7818609E-02  0.9112700E-01
       -1   -1    0    0    0  501  0.00000000000E+00  0.00000000000E+00  0.47216620127E+03  0.47216620130E+03  0.50400001928E-02 0. -1.
        1   -1    0    0  501    0  0.00000000000E+00  0.00000000000E+00 -0.76267029179E+03  0.76267029181E+03  0.50400001928E-02 0.  1.
    10030    2    1    2    0    0  0.00000000000E+00  0.00000000000E+00 -0.29050409052E+03  0.12348364931E+04  0.12001785443E+04 0.  0.
        1    1    3    3  502    0 -0.16938448532E+03  0.28262906662E+03  0.37076541704E+03  0.49602145887E+03  0.50400001928E-02 0. -1.
       -1    1    3    3    0  502  0.16938448532E+03 -0.28262906662E+03 -0.66126950755E+03  0.73881503424E+03  0.50400001928E-02 0.  1.
</event>
<event>
 5   0  0.8908478E-04  0.1279198E+04  0.7818609E-02  0.9046226E-01
       -1   -1    0    0    0  501  0.00000000000E+00  0.00000000000E+00  0.46544691672E+03  0.46544691674E+03  0.50400001928E-02 0. -1.
        1   -1    0    0  501    0  0.00000000000E+00  0.00000000000E+00 -0.87891226496E+03  0.87891226497E+03  0.50400001928E-02 0.  1.
    10030    2    1    2    0    0  0.00000000000E+00  0.00000000000E+00 -0.41346534824E+03  0.13443591817E+04  0.12791981923E+04 0.  0.
        4    1    3    3  502    0 -0.18137863171E+02 -0.62282157844E+03 -0.54983168660E+02  0.62550816333E+03  0.12699999809E+01 0.  1.
       -4    1    3    3    0  502  0.18137863171E+02  0.62282157844E+03 -0.35848217958E+03  0.71885101839E+03  0.12699999809E+01 0. -1.
</event>
<event>
 5   0  0.1647550E-03  0.1201457E+04  0.7818609E-02  0.9111583E-01
       -2   -1    0    0    0  501  0.00000000000E+00  0.00000000000E+00  0.27960997793E+03  0.27960997794E+03  0.25500000920E-02 0. -1.
        2   -1    0    0  501    0  0.00000000000E+00  0.00000000000E+00 -0.12906351323E+04  0.12906351323E+04  0.25500000920E-02 0.  1.
    10030    2    1    2    0    0  0.00000000000E+00  0.00000000000E+00 -0.10110251544E+04  0.15702451102E+04  0.12014565508E+04 0.  0.
        3    1    3    3  502    0 -0.49810752527E+03 -0.21132593366E+03 -0.84658601763E+03  0.10047276509E+04  0.10100000352E+00 0.  1.
       -3    1    3    3    0  502  0.49810752527E+03  0.21132593366E+03 -0.16443913674E+03  0.56551745938E+03  0.10100000352E+00 0. -1.
</event>
<event>
 5   0  0.1597352E-03  0.1196474E+04  0.7818609E-02  0.9115948E-01
        2   -1    0    0  501    0  0.00000000000E+00  0.00000000000E+00  0.98620332493E+03  0.98620332493E+03  0.25500000920E-02 0.  1.
       -2   -1    0    0    0  501  0.00000000000E+00  0.00000000000E+00 -0.36289442559E+03  0.36289442560E+03  0.25500000920E-02 0. -1.
    10030    2    1    2    0    0  0.00000000000E+00  0.00000000000E+00  0.62330889933E+03  0.13490977505E+04  0.11964743025E+04 0.  0.
        1    1    3    3  502    0  0.15699438408E+03  0.26178327309E+03 -0.26847537396E+03  0.40651782882E+03  0.50400001928E-02 0. -1.
       -1    1    3    3    0  502 -0.15699438408E+03 -0.26178327309E+03  0.89178427329E+03  0.94257992171E+03  0.50400001928E-02 0.  1.
</event>
<event>
 5   0  0.1567019E-03  0.1197395E+04  0.7818609E-02  0.9115140E-01
        2   -1    0    0  501    0  0.00000000000E+00  0.00000000000E+00  0.12918527841E+04  0.12918527841E+04  0.25500000920E-02 0. -1.
       -2   -1    0    0    0  501  0.00000000000E+00  0.00000000000E+00 -0.27746090372E+03  0.27746090373E+03  0.25500000920E-02 0.  1.
    10030    2    1    2    0    0  0.00000000000E+00  0.00000000000E+00  0.10143918804E+04  0.15693136879E+04  0.11973949072E+04 0.  0.
        5    1    3    3  502    0 -0.44856425336E+03  0.12271095172E+03  0.13063032346E+02  0.46525326423E+03  0.46999998093E+01 0.  1.
       -5    1    3    3    0  502  0.44856425336E+03 -0.12271095172E+03  0.10013288481E+04  0.11040604236E+04  0.46999998093E+01 0. -1.
</event>
<event>
 5   0  0.1567019E-03  0.1177146E+04  0.7818609E-02  0.9133099E-01
       -2   -1    0    0    0  501  0.00000000000E+00  0.00000000000E+00  0.21537336302E+03  0.21537336303E+03  0.25500000920E-02 0. -1.
        2   -1    0    0  501    0  0.00000000000E+00  0.00000000000E+00 -0.16084533069E+04  0.16084533069E+04  0.25500000920E-02 0.  1.
    10030    2    1    2    0    0  0.00000000000E+00  0.00000000000E+00 -0.13930799438E+04  0.18238266699E+04  0.11771456970E+04 0.  0.
        5    1    3    3  502    0  0.42100421013E+03 -0.39757061907E+03 -0.53338554345E+03  0.78729230280E+03  0.46999998093E+01 0. -1.
       -5    1    3    3    0  502 -0.42100421013E+03  0.39757061907E+03 -0.85969440039E+03  0.10365343671E+04  0.46999998093E+01 0.  1.
</event>
<event>
 5   0  0.1647550E-03  0.1197541E+04  0.7818609E-02  0.9115012E-01
       -2   -1    0    0    0  501  0.00000000000E+00  0.00000000000E+00  0.23855151361E+03  0.23855151362E+03  0.25500000920E-02 0.  1.
        2   -1    0    0  501    0  0.00000000000E+00  0.00000000000E+00 -0.15029284827E+04  0.15029284827E+04  0.25500000920E-02 0. -1.
    10030    2    1    2    0    0  0.00000000000E+00  0.00000000000E+00 -0.12643769691E+04  0.17414799964E+04  0.11975405871E+04 0.  0.
        3    1    3    3  502    0  0.54624539535E+03 -0.17404814022E+03 -0.38094568130E+03  0.68832870734E+03  0.10100000352E+00 0. -1.
       -3    1    3    3    0  502 -0.54624539535E+03  0.17404814022E+03 -0.88343128784E+03  0.10531512890E+04  0.10100000352E+00 0.  1.
</event>
<event>
 5   0  0.1551501E-03  0.1206554E+04  0.7818609E-02  0.9107139E-01
       -2   -1    0    0    0  501  0.00000000000E+00  0.00000000000E+00  0.27159258000E+03  0.27159258001E+03  0.25500000920E-02 0. -1.
        2   -1    0    0  501    0  0.00000000000E+00  0.00000000000E+00 -0.13400329825E+04  0.13400329825E+04  0.25500000920E-02 0.  1.
    10030    2    1    2    0    0  0.00000000000E+00  0.00000000000E+00 -0.10684404025E+04  0.16116255625E+04  0.12065537949E+04 0.  0.
        4    1    3    3  502    0  0.70881312237E+02  0.43081529123E+03 -0.10902986544E+04  0.11744695587E+04  0.12699999809E+01 0.  1.
       -4    1    3    3    0  502 -0.70881312237E+02 -0.43081529123E+03  0.21858251932E+02  0.43715600380E+03  0.12699999809E+01 0. -1.
</event>
<event>
 5   0  0.9170776E-04  0.1203562E+04  0.7818609E-02  0.9109744E-01
       -1   -1    0    0    0  501  0.00000000000E+00  0.00000000000E+00  0.25440486025E+03  0.25440486030E+03  0.50400001928E-02 0.  1.
        1   -1    0    0  501    0  0.00000000000E+00  0.00000000000E+00 -0.14234812713E+04  0.14234812713E+04  0.50400001928E-02 0. -1.
    10030    2    1    2    0    0  0.00000000000E+00  0.00000000000E+00 -0.11690764111E+04  0.16778861316E+04  0.12035623024E+04 0.  0.
        5    1    3    3  502    0 -0.50053289650E+03  0.32998939541E+03 -0.51220225160E+03  0.78854259118E+03  0.46999998093E+01 0. -1.
       -5    1    3    3    0  502  0.50053289650E+03 -0.32998939541E+03 -0.65687415948E+03  0.88934354045E+03  0.46999998093E+01 0.  1.
</event>
<event>
 5   0  0.1647550E-03  0.1202911E+04  0.7818609E-02  0.9110313E-01
        2   -1    0    0  501    0  0.00000000000E+00  0.00000000000E+00  0.24070985001E+04  0.24070985001E+04  0.25500000920E-02 0. -1.
       -2   -1    0    0    0  501  0.00000000000E+00  0.00000000000E+00 -0.15028409022E+03  0.15028409024E+03  0.25500000920E-02 0.  1.
    10030    2    1    2    0    0  0.00000000000E+00  0.00000000000E+00  0.22568144099E+04  0.25573825903E+04  0.12029108166E+04 0.  0.
        3    1    3    3  502    0 -0.80202624695E+02  0.20238327353E+03  0.23204008607E+04  0.23305904005E+04  0.10100000352E+00 0. -1.
       -3    1    3    3    0  502  0.80202624695E+02 -0.20238327353E+03 -0.63586450866E+02  0.22679218978E+03  0.10100000352E+00 0.  1.
</event>
<event>
 5   0  0.1551501E-03  0.1199696E+04  0.7818609E-02  0.9113122E-01
        2   -1    0    0  501    0  0.00000000000E+00  0.00000000000E+00  0.20854165771E+04  0.20854165771E+04  0.25500000920E-02 0. -1.
       -2   -1    0    0    0  501  0.00000000000E+00  0.00000000000E+00 -0.17254005892E+03  0.17254005894E+03  0.25500000920E-02 0.  1.
    10030    2    1    2    0    0  0.00000000000E+00  0.00000000000E+00  0.19128765182E+04  0.22579566361E+04  0.11996964601E+04 0.  0.
        4    1    3    3  502    0 -0.52509727169E+03  0.46711082868E+02  0.14950865703E+04  0.15853058177E+04  0.12699999809E+01 0. -1.
       -4    1    3    3    0  502  0.52509727169E+03 -0.46711082868E+02  0.41778994788E+03  0.67265081836E+03  0.12699999809E+01 0.  1.
</event>
<event>
 5   0  0.1597352E-03  0.1206268E+04  0.7818609E-02  0.9107388E-01
        2   -1    0    0  501    0  0.00000000000E+00  0.00000000000E+00  0.22520531537E+03  0.22520531539E+03  0.25500000920E-02 0. -1.
       -2   -1    0    0    0  501  0.00000000000E+00  0.00000000000E+00 -0.16152843452E+04  0.16152843452E+04  0.25500000920E-02 0.  1.
    10030    2    1    2    0    0  0.00000000000E+00  0.00000000000E+00 -0.13900790298E+04  0.18404896606E+04  0.12062679974E+04 0.  0.
        1    1    3    3  502    0  0.58083336362E+03  0.13000525472E+03 -0.54631113750E+03  0.80791374634E+03  0.50400001928E-02 0. -1.
       -1    1    3    3    0  502 -0.58083336362E+03 -0.13000525472E+03 -0.84376789234E+03  0.10325759143E+04  0.50400001928E-02 0.  1.
</event>
<event>
 5   0  0.8908478E-04  0.1188367E+04  0.7818609E-02  0.9123100E-01
        1   -1    0    0  501    0  0.00000000000E+00  0.00000000000E+00  0.94451140275E+03  0.94451140277E+03  0.50400001928E-02 0.  1.
       -1   -1    0    0    0  501  0.00000000000E+00  0.00000000000E+00 -0.37379526700E+03  0.37379526703E+03  0.50400001928E-02 0. -1.
    10030    2    1    2    0    0  0.00000000000E+00  0.00000000000E+00  0.57071613575E+03  0.13183066698E+04  0.11883667649E+04 0.  0.
        4    1    3    3  502    0  0.47111140065E+02 -0.46601269185E+03 -0.12022030455E+03  0.48357194192E+03  0.12699999809E+01 0. -1.
       -4    1    3    3    0  502 -0.47111140065E+02  0.46601269185E+03  0.69093644030E+03  0.83473472788E+03  0.12699999809E+01 0.  1.
</event>
<event>
 5   0  0.1647550E-03  0.1135710E+04  0.7818609E-02  0.9171069E-01
        2   -1    0    0  501    0  0.00000000000E+00  0.00000000000E+00  0.17439761473E+04  0.17439761473E+04  0.25500000920E-02 0. -1.
       -2   -1    0    0    0  501  0.00000000000E+00  0.00000000000E+00 -0.18489887955E+03  0.18489887957E+03  0.25500000920E-02 0.  1.
    10030    2    1    2    0    0  0.00000000000E+00  0.00000000000E+00  0.15590772677E+04  0.19288750268E+04  0.11357098848E+04 0.  0.
        3    1    3    3  502    0  0.37417795887E+03 -0.36843164792E+03  0.11465954188E+04  0.12611233440E+04  0.10100000352E+00 0. -1.
       -3    1    3    3    0  502 -0.37417795887E+03  0.36843164792E+03  0.41248184893E+03  0.66775168289E+03  0.10100000352E+00 0.  1.
</event>
<event>
 5   0  0.1567019E-03  0.1209664E+04  0.7818609E-02  0.9104439E-01
        2   -1    0    0  501    0  0.00000000000E+00  0.00000000000E+00  0.14345715088E+04  0.14345715088E+04  0.25500000920E-02 0. -1.
       -2   -1    0    0    0  501  0.00000000000E+00  0.00000000000E+00 -0.25500428130E+03  0.25500428132E+03  0.25500000920E-02 0.  1.
    10030    2    1    2    0    0  0.00000000000E+00  0.00000000000E+00  0.11795672275E+04  0.16895757901E+04  0.12096642122E+04 0.  0.
        5    1    3    3  502    0 -0.57264683268E+03  0.47793760768E+02  0.85328557024E+03  0.10287502092E+04  0.46999998093E+01 0. -1.
       -5    1    3    3    0  502  0.57264683268E+03 -0.47793760768E+02  0.32628165726E+03  0.66082558093E+03  0.46999998093E+01 0.  1.
</event>
<event>
 5   0  0.9208078E-04  0.1190496E+04  0.7818609E-02  0.9121216E-01
       -1   -1    0    0    0  501  0.00000000000E+00  0.00000000000E+00  0.52010118398E+03  0.52010118401E+03  0.50400001928E-02 0.  1.
        1   -1    0    0  501    0  0.00000000000E+00  0.00000000000E+00 -0.68125283928E+03  0.68125283930E+03  0.50400001928E-02 0. -1.
    10030    2    1    2    0    0  0.00000000000E+00  0.00000000000E+00 -0.16115165530E+03  0.12013540233E+04  0.11904963811E+04 0.  0.
        3    1    3    3  502    0 -0.19414268994E+03 -0.55877603934E+03 -0.13650899131E+02  0.59169958885E+03  0.10100000352E+00 0.  1.
       -3    1    3    3    0  502  0.19414268994E+03  0.55877603934E+03 -0.14750075617E+03  0.60965443447E+03  0.10100000352E+00 0. -1.
</event>
<event>
 5   0  0.6137750E-04  0.1200321E+04  0.7818609E-02  0.9112575E-01
       -3   -1    0    0    0  501  0.00000000000E+00  0.00000000000E+00  0.19635753776E+03  0.19635756374E+03  0.10100000352E+00 0. -1.
        3   -1    0    0  501    0  0.00000000000E+00  0.00000000000E+00 -0.18343721292E+04  0.18343721319E+04  0.10100000352E+00 0.  1.
    10030    2    1    2    0    0  0.00000000000E+00  0.00000000000E+00 -0.16380145914E+04  0.20307296957E+04  0.12003213300E+04 0.  0.
        1    1    3    3  502    0  0.47868591531E+03 -0.82741787012E+02 -0.14152548481E+04  0.14963063503E+04  0.50400001928E-02 0.  1.
       -1    1    3    3    0  502 -0.47868591531E+03  0.82741787012E+02 -0.22275974330E+03  0.53442334539E+03  0.50400001928E-02 0. -1.
</event>
<event>
 5   0  0.8908478E-04  0.1201290E+04  0.7818609E-02  0.9111728E-01
       -1   -1    0    0    0  501  0.00000000000E+00  0.00000000000E+00  0.28107616308E+03  0.28107616312E+03  0.50400001928E-02 0. -1.
        1   -1    0    0  501    0  0.00000000000E+00  0.00000000000E+00 -0.12835470066E+04  0.12835470066E+04  0.50400001928E-02 0.  1.
    10030    2    1    2    0    0  0.00000000000E+00  0.00000000000E+00 -0.10024708435E+04  0.15646231697E+04  0.12012900862E+04 0.  0.
        4    1    3    3  502    0  0.11279273532E+03  0.36787128947E+03 -0.11019489645E+04  0.11671951936E+04  0.12699999809E+01 0.  1.
       -4    1    3    3    0  502 -0.11279273532E+03 -0.36787128947E+03  0.99478120961E+02  0.39742797612E+03  0.12699999809E+01 0. -1.
</event>
<event>
 5   0  0.1551501E-03  0.1197752E+04  0.7818609E-02  0.9114827E-01
        2   -1    0    0  501    0  0.00000000000E+00  0.00000000000E+00  0.87966292879E+03  0.87966292879E+03  0.25500000920E-02 0.  1.
       -2   -1    0    0    0  501  0.00000000000E+00  0.00000000000E+00 -0.40771545905E+03  0.40771545905E+03  0.25500000920E-02 0. -1.
    10030    2    1    2    0    0  0.00000000000E+00  0.00000000000E+00  0.47194746974E+03  0.12873783878E+04  0.11977515182E+04 0.  0.
        4    1    3    3  502    0  0.11130180130E+03  0.36982542897E+03  0.72792583031E+03  0.82403675053E+03  0.12699999809E+01 0.  1.
       -4    1    3    3    0  502 -0.11130180130E+03 -0.36982542897E+03 -0.25597836057E+03  0.46334163731E+03  0.12699999809E+01 0. -1.
</event>
<event>
 5   0  0.9208078E-04  0.1203024E+04  0.7818609E-02  0.9110214E-01
       -1   -1    0    0    0  501  0.00000000000E+00  0.00000000000E+00  0.19481313495E+03  0.19481313502E+03  0.50400001928E-02 0. -1.
        1   -1    0    0  501    0  0.00000000000E+00  0.00000000000E+00 -0.18572488263E+04  0.18572488263E+04  0.50400001928E-02 0.  1.
    10030    2    1    2    0    0  0.00000000000E+00  0.00000000000E+00 -0.16624356913E+04  0.20520619613E+04  0.12030236345E+04 0.  0.
        3    1    3    3  502    0 -0.20996400890E+03 -0.20653292077E+03 -0.17258457551E+04  0.17507953372E+04  0.10100000352E+00 0.  1.
       -3    1    3    3    0  502  0.20996400890E+03  0.20653292077E+03  0.63410063735E+02  0.30126662407E+03  0.10100000352E+00 0. -1.
</event>
<event>
 5   0  0.1567019E-03  0.1204096E+04  0.7818609E-02  0.9109279E-01
       -2   -1    0    0    0  501  0.00000000000E+00  0.00000000000E+00  0.33888767585E+03  0.33888767586E+03  0.25500000920E-02 0. -1.
        2   -1    0    0  501    0  0.00000000000E+00  0.00000000000E+00 -0.10695637376E+04  0.10695637376E+04  0.25500000920E-02 0.  1.
    10030    2    1    2    0    0  0.00000000000E+00  0.00000000000E+00 -0.73067606179E+03  0.14084514135E+04  0.12040962906E+04 0.  0.
        5    1    3    3  502    0  0.13812740262E+03  0.45730926194E+03  0.63214170082E+02  0.48190150623E+03  0.46999998093E+01 0. -1.
       -5    1    3    3    0  502 -0.13812740262E+03 -0.45730926194E+03 -0.79389023187E+03  0.92654990727E+03  0.46999998093E+01 0.  1.
</event>
<event>
 5   0  0.1537557E-03  0.1207253E+04  0.7818609E-02  0.9106531E-01
        2   -1    0    0  501    0  0.00000000000E+00  0.00000000000E+00  0.11815250757E+04  0.11815250757E+04  0.25500000920E-02 0.  1.
       -2   -1    0    0    0  501  0.00000000000E+00  0.00000000000E+00 -0.30838553252E+03  0.30838553253E+03  0.25500000920E-02 0. -1.
    10030    2    1    2    0    0  0.00000000000E+00  0.00000000000E+00  0.87313954314E+03  0.14899106082E+04  0.12072534774E+04 0.  0.
        2    1    3    3  502    0  0.47849025017E+03  0.28974993795E+03  0.71652283080E+03  0.90901755380E+03  0.25500000920E-02 0.  1.
       -2    1    3    3    0  502 -0.47849025017E+03 -0.28974993795E+03  0.15661671234E+03  0.58089305439E+03  0.25500000920E-02 0. -1.
</event>
<event>
 5   0  0.1567019E-03  0.1198465E+04  0.7818609E-02  0.9114201E-01
        2   -1    0    0  501    0  0.00000000000E+00  0.00000000000E+00  0.10276946911E+04  0.10276946911E+04  0.25500000920E-02 0. -1.
       -2   -1    0    0    0  501  0.00000000000E+00  0.00000000000E+00 -0.34940320012E+03  0.34940320013E+03  0.25500000920E-02 0.  1.
    10030    2    1    2    0    0  0.00000000000E+00  0.00000000000E+00  0.67829149094E+03  0.13770978912E+04  0.11984653751E+04 0.  0.
        5    1    3    3  502    0 -0.54640890938E+03  0.94006272288E+02  0.77985253330E+02  0.55991398020E+03  0.46999998093E+01 0.  1.
       -5    1    3    3    0  502  0.54640890938E+03 -0.94006272288E+02  0.60030623761E+03  0.81718391100E+03  0.46999998093E+01 0. -1.
</event>
<event>
 5   0  0.9208078E-04  0.1199408E+04  0.7818609E-02  0.9113375E-01
        1   -1    0    0  501    0  0.00000000000E+00  0.00000000000E+00  0.56368163570E+03  0.56368163573E+03  0.50400001928E-02 0.  1.
       -1   -1    0    0    0  501  0.00000000000E+00  0.00000000000E+00 -0.63802792076E+03  0.63802792078E+03  0.50400001928E-02 0. -1.
    10030    2    1    2    0    0  0.00000000000E+00  0.00000000000E+00 -0.74346285052E+02  0.12017095565E+04  0.11994075571E+04 0.  0.
        3    1    3    3  502    0 -0.26715302148E+03  0.19405375276E+03  0.46440431689E+03  0.56982363552E+03  0.10100000352E+00 0.  1.
       -3    1    3    3    0  502  0.26715302148E+03 -0.19405375276E+03 -0.53875060194E+03  0.63188592099E+03  0.10100000352E+00 0. -1.
</event>
<event>
 5   0  0.9358428E-04  0.1198722E+04  0.7818609E-02  0.9113976E-01
       -1   -1    0    0    0  501  0.00000000000E+00  0.00000000000E+00  0.56227865007E+03  0.56227865010E+03  0.50400001928E-02 0.  1.
        1   -1    0    0  501    0  0.00000000000E+00  0.00000000000E+00 -0.63888867416E+03  0.63888867418E+03  0.50400001928E-02 0. -1.
    10030    2    1    2    0    0  0.00000000000E+00  0.00000000000E+00 -0.76610024083E+02  0.12011673243E+04  0.11987217547E+04 0.  0.
        2    1    3    3  502    0 -0.58896932056E+03 -0.10401335717E+03  0.88772627812E+00  0.59808396325E+03  0.25500000920E-02 0. -1.
       -2    1    3    3    0  502  0.58896932056E+03  0.10401335717E+03 -0.77497750361E+02  0.60308336103E+03  0.25500000920E-02 0.  1.
</event>
<event>
 5   0  0.1647550E-03  0.1192643E+04  0.7818609E-02  0.9119321E-01
        2   -1    0    0  501    0  0.00000000000E+00  0.00000000000E+00  0.27514909928E+03  0.27514909929E+03  0.25500000920E-02 0. -1.
       -2   -1    0    0    0  501  0.00000000000E+00  0.00000000000E+00 -0.12923876286E+04  0.12923876286E+04  0.25500000920E-02 0.  1.
    10030    2    1    2    0    0  0.00000000000E+00  0.00000000000E+00 -0.10172385293E+04  0.15675367279E+04  0.11926429339E+04 0.  0.
        3    1    3    3  502    0 -0.58842193321E+03 -0.13249706615E+02 -0.63457211056E+03  0.86550430381E+03  0.10100000352E+00 0.  1.
       -3    1    3    3    0  502  0.58842193321E+03  0.13249706615E+02 -0.38266641874E+03  0.70203242406E+03  0.10100000352E+00 0. -1.
</event>
<event>
 5   0  0.9358428E-04  0.1203155E+04  0.7818609E-02  0.9110099E-01
        1   -1    0    0  501    0  0.00000000000E+00  0.00000000000E+00  0.25555619408E+03  0.25555619413E+03  0.50400001928E-02 0. -1.
       -1   -1    0    0    0  501  0.00000000000E+00  0.00000000000E+00 -0.14161101496E+04  0.14161101496E+04  0.50400001928E-02 0.  1.
    10030    2    1    2    0    0  0.00000000000E+00  0.00000000000E+00 -0.11605539555E+04  0.16716663438E+04  0.12031553853E+04 0.  0.
        2    1    3    3  502    0 -0.55467210101E+03 -0.22128884779E+03 -0.47945362130E+03  0.76583658099E+03  0.25500000920E-02 0. -1.
       -2    1    3    3    0  502  0.55467210101E+03  0.22128884779E+03 -0.68110033424E+03  0.90582976276E+03  0.25500000920E-02 0.  1.
</event>
<event>
 5   0  0.1551501E-03  0.1233288E+04  0.7818609E-02  0.9084209E-01
       -2   -1    0    0    0  501  0.00000000000E+00  0.00000000000E+00  0.23764328569E+03  0.23764328570E+03  0.25500000920E-02 0. -1.
        2   -1    0    0  501    0  0.00000000000E+00  0.00000000000E+00 -0.16000860591E+04  0.16000860591E+04  0.25500000920E-02 0.  1.
    10030    2    1    2    0    0  0.00000000000E+00  0.00000000000E+00 -0.13624427735E+04  0.18377293449E+04  0.12332878147E+04 0.  0.
        4    1    3    3  502    0 -0.94757578713E+02 -0.52427128568E+03 -0.21854721219E+03  0.57585056791E+03  0.12699999809E+01 0. -1.
       -4    1    3    3    0  502  0.94757578713E+02  0.52427128568E+03 -0.11438955613E+04  0.12618787769E+04  0.12699999809E+01 0.  1.
</event>
<event>
 5   0  0.8908478E-04  0.1203080E+04  0.7818609E-02  0.9110165E-01
        1   -1    0    0  501    0  0.00000000000E+00  0.00000000000E+00  0.40368338809E+03  0.40368338812E+03  0.50400001928E-02 0. -1.
       -1   -1    0    0    0  501  0.00000000000E+00  0.00000000000E+00 -0.89637128874E+03  0.89637128876E+03  0.50400001928E-02 0.  1.
    10030    2    1    2    0    0  0.00000000000E+00  0.00000000000E+00 -0.49268790065E+03  0.13000546769E+04  0.12030797128E+04 0.  0.
        4    1    3    3  502    0 -0.16402609683E+03  0.20465428513E+03 -0.83133061776E+03  0.87172251650E+03  0.12699999809E+01 0.  1.
       -4    1    3    3    0  502  0.16402609683E+03 -0.20465428513E+03  0.33864271710E+03  0.42833216037E+03  0.12699999809E+01 0. -1.
</event>
<event>
 5   0  0.9169078E-04  0.1204117E+04  0.7818609E-02  0.9109261E-01
        1   -1    0    0  501    0  0.00000000000E+00  0.00000000000E+00  0.10695024967E+04  0.10695024967E+04  0.50400001928E-02 0. -1.
       -1   -1    0    0    0  501  0.00000000000E+00  0.00000000000E+00 -0.33891848927E+03  0.33891848931E+03  0.50400001928E-02 0.  1.
    10030    2    1    2    0    0  0.00000000000E+00  0.00000000000E+00  0.73058400741E+03  0.14084209860E+04  0.12041165566E+04 0.  0.
        1    1    3    3  502    0 -0.23743431211E+03 -0.30049065494E+03  0.90866017076E+03  0.98606946623E+03  0.50400001928E-02 0. -1.
       -1    1    3    3    0  502  0.23743431211E+03  0.30049065494E+03 -0.17807616335E+03  0.42235151977E+03  0.50400001928E-02 0.  1.
</event>
<event>
 5   0  0.9170776E-04  0.1209562E+04  0.7818609E-02  0.9104528E-01
       -1   -1    0    0    0  501  0.00000000000E+00  0.00000000000E+00  0.17929756698E+03  0.17929756705E+03  0.50400001928E-02 0. -1.
        1   -1    0    0  501    0  0.00000000000E+00  0.00000000000E+00 -0.20399624116E+04  0.20399624116E+04  0.50400001928E-02 0.  1.
    10030    2    1    2    0    0  0.00000000000E+00  0.00000000000E+00 -0.18606648446E+04  0.22192599787E+04  0.12095623956E+04 0.  0.
        5    1    3    3  502    0 -0.57064866554E+02  0.59732909038E+03 -0.79205695752E+03  0.99369751694E+03  0.46999998093E+01 0. -1.
       -5    1    3    3    0  502  0.57064866554E+02 -0.59732909038E+03 -0.10686078871E+04  0.12255624617E+04  0.46999998093E+01 0.  1.
</event>
<event>
 5   0  0.9208078E-04  0.1195941E+04  0.7818609E-02  0.9116417E-01
       -1   -1    0    0    0  501  0.00000000000E+00  0.00000000000E+00  0.90121414545E+03  0.90121414547E+03  0.50400001928E-02 0.  1.
        1   -1    0    0  501    0  0.00000000000E+00  0.00000000000E+00 -0.39676324068E+03  0.39676324071E+03  0.50400001928E-02 0. -1.
    10030    2    1    2    0    0  0.00000000000E+00  0.00000000000E+00  0.50445090478E+03  0.12979773862E+04  0.11959408763E+04 0.  0.
        3    1    3    3  502    0  0.35355980495E+03 -0.78788920671E+02 -0.26413599568E+03  0.44830800139E+03  0.10100000352E+00 0. -1.
       -3    1    3    3    0  502 -0.35355980495E+03  0.78788920671E+02  0.76858690045E+03  0.84966938479E+03  0.10100000352E+00 0.  1.
</event>
<event>
 5   0  0.1537557E-03  0.1201352E+04  0.7818609E-02  0.9111674E-01
        2   -1    0    0  501    0  0.00000000000E+00  0.00000000000E+00  0.19573775022E+04  0.19573775022E+04  0.25500000920E-02 0.  1.
       -2   -1    0    0    0  501  0.00000000000E+00  0.00000000000E+00 -0.18433432026E+03  0.18433432027E+03  0.25500000920E-02 0. -1.
    10030    2    1    2    0    0  0.00000000000E+00  0.00000000000E+00  0.17730431820E+04  0.21417118225E+04  0.12013523236E+04 0.  0.
        2    1    3    3  502    0  0.11436057480E+03 -0.16249156926E+03 -0.12404812268E+03  0.23424301034E+03  0.25500000920E-02 0. -1.
       -2    1    3    3    0  502 -0.11436057480E+03  0.16249156926E+03  0.18970913046E+04  0.19074688121E+04  0.25500000920E-02 0.  1.
</event>
<event>
 5   0  0.8908478E-04  0.1193304E+04  0.7818609E-02  0.9118738E-01
       -1   -1    0    0    0  501  0.00000000000E+00  0.00000000000E+00  0.76299444129E+03  0.76299444131E+03  0.50400001928E-02 0. -1.
        1   -1    0    0  501    0  0.00000000000E+00  0.00000000000E+00 -0.46657428994E+03  0.46657428997E+03  0.50400001928E-02 0.  1.
    10030    2    1    2    0    0  0.00000000000E+00  0.00000000000E+00  0.29642015135E+03  0.12295687313E+04  0.11933039675E+04 0.  0.
        4    1    3    3  502    0 -0.29809530399E+03  0.35737790243E+03 -0.23651643904E+03  0.52203583616E+03  0.12699999809E+01 0.  1.
       -4    1    3    3    0  502  0.29809530399E+03 -0.35737790243E+03  0.53293659038E+03  0.70753289512E+03  0.12699999809E+01 0. -1.
</event>
<event>
 5   0  0.1647550E-03  0.1089018E+04  0.7818609E-02  0.9215962E-01
       -2   -1    0    0    0  501  0.00000000000E+00  0.00000000000E+00  0.35403543033E+03  0.35403543034E+03  0.25500000920E-02 0.  1.
        2   -1    0    0  501    0  0.00000000000E+00  0.00000000000E+00 -0.83745851295E+03  0.83745851296E+03  0.25500000920E-02 0. -1.
    10030    2    1    2    0    0  0.00000000000E+00  0.00000000000E+00 -0.48342308262E+03  0.11914939433E+04  0.10890178787E+04 0.  0.
        3    1    3    3  502    0  0.40991447393E+02 -0.50151130388E+03 -0.14054462515E+02  0.50338000039E+03  0.10100000352E+00 0.  1.
       -3    1    3    3    0  502 -0.40991447393E+02  0.50151130388E+03 -0.46936862011E+03  0.68811394291E+03  0.10100000352E+00 0. -1.
</event>
<event>
 5   0  0.6137750E-04  0.1196583E+04  0.7818609E-02  0.9115853E-01
        3   -1    0    0  501    0  0.00000000000E+00  0.00000000000E+00  0.50248477022E+03  0.50248478037E+03  0.10100000352E+00 0. -1.
       -3   -1    0    0    0  501  0.00000000000E+00  0.00000000000E+00 -0.71236508784E+03  0.71236509500E+03  0.10100000352E+00 0.  1.
    10030    2    1    2    0    0  0.00000000000E+00  0.00000000000E+00 -0.20988031762E+03  0.12148498754E+04  0.11965828312E+04 0.  0.
        1    1    3    3  502    0 -0.53650150322E+03  0.63444795723E+02  0.15607111371E+03  0.56233201725E+03  0.50400001928E-02 0. -1.
       -1    1    3    3    0  502  0.53650150322E+03 -0.63444795723E+02 -0.36595143133E+03  0.65251785813E+03  0.50400001928E-02 0.  1.
</event>
<event>
 5   0  0.1551501E-03  0.1192714E+04  0.7818609E-02  0.9119258E-01
       -2   -1    0    0    0  501  0.00000000000E+00  0.00000000000E+00  0.73066811154E+03  0.73066811155E+03  0.25500000920E-02 0.  1.
        2   -1    0    0  501    0  0.00000000000E+00  0.00000000000E+00 -0.48673505505E+03  0.48673505505E+03  0.25500000920E-02 0. -1.
    10030    2    1    2    0    0  0.00000000000E+00  0.00000000000E+00  0.24393305649E+03  0.12174031666E+04  0.11927141879E+04 0.  0.
        4    1    3    3  502    0  0.19482840158E+02  0.92281613665E+02  0.72300594343E+03  0.72913283043E+03  0.12699999809E+01 0.  1.
       -4    1    3    3    0  502 -0.19482840158E+02 -0.92281613665E+02 -0.47907288694E+03  0.48827033617E+03  0.12699999809E+01 0. -1.
</event>
<event>
 5   0  0.9169078E-04  0.1194725E+04  0.7818609E-02  0.9117486E-01
        1   -1    0    0  501    0  0.00000000000E+00  0.00000000000E+00  0.87609575168E+03  0.87609575169E+03  0.50400001928E-02 0. -1.
       -1   -1    0    0    0  501  0.00000000000E+00  0.00000000000E+00 -0.40730936928E+03  0.40730936931E+03  0.50400001928E-02 0.  1.
    10030    2    1    2    0    0  0.00000000000E+00  0.00000000000E+00  0.46878638239E+03  0.12834051210E+04  0.11947250865E+04 0.  0.
        1    1    3    3  502    0  0.35228134156E+03 -0.17884748652E+03 -0.24691946746E+03  0.46589461307E+03  0.50400001928E-02 0.  1.
       -1    1    3    3    0  502 -0.35228134156E+03  0.17884748652E+03  0.71570584985E+03  0.81751050794E+03  0.50400001928E-02 0. -1.
</event>
<event>
 5   0  0.1567019E-03  0.1175591E+04  0.7818609E-02  0.9134494E-01
       -2   -1    0    0    0  501  0.00000000000E+00  0.00000000000E+00  0.11787264976E+04  0.11787264976E+04  0.25500000920E-02 0. -1.
        2   -1    0    0  501    0  0.00000000000E+00  0.00000000000E+00 -0.29311575173E+03  0.29311575174E+03  0.25500000920E-02 0.  1.
    10030    2    1    2    0    0  0.00000000000E+00  0.00000000000E+00  0.88561074585E+03  0.14718422493E+04  0.11755905808E+04 0.  0.
        5    1    3    3  502    0 -0.37872844958E+03  0.61041501001E+02  0.10003611575E+04  0.10714036768E+04  0.46999998093E+01 0. -1.
       -5    1    3    3    0  502  0.37872844958E+03 -0.61041501001E+02 -0.11475041163E+03  0.40043857248E+03  0.46999998093E+01 0.  1.
</event>
<event>
 5   0  0.6137750E-04  0.1200896E+04  0.7818609E-02  0.9112072E-01
        3   -1    0    0  501    0  0.00000000000E+00  0.00000000000E+00  0.11140812700E+04  0.11140812746E+04  0.10100000352E+00 0.  1.
       -3   -1    0    0    0  501  0.00000000000E+00  0.00000000000E+00 -0.32361919321E+03  0.32361920897E+03  0.10100000352E+00 0. -1.
    10030    2    1    2    0    0  0.00000000000E+00  0.00000000000E+00  0.79046207681E+03  0.14377004836E+04  0.12008964924E+04 0.  0.
        4    1    3    3  502    0 -0.37178839334E+03  0.43120463654E+03  0.62355370799E+03  0.84438432461E+03  0.12699999809E+01 0.  1.
       -4    1    3    3    0  502  0.37178839334E+03 -0.43120463654E+03  0.16690836881E+03  0.59331615895E+03  0.12699999809E+01 0. -1.
</event>
<event>
 5   0  0.1597352E-03  0.1199434E+04  0.7818609E-02  0.9113352E-01
       -2   -1    0    0    0  501  0.00000000000E+00  0.00000000000E+00  0.25491986666E+03  0.25491986667E+03  0.25500000920E-02 0. -1.
        2   -1    0    0  501    0  0.00000000000E+00  0.00000000000E+00 -0.14108757406E+04  0.14108757406E+04  0.25500000920E-02 0.  1.
    10030    2    1    2    0    0  0.00000000000E+00  0.00000000000E+00 -0.11559558739E+04  0.16657956072E+04  0.11994336258E+04 0.  0.
        1    1    3    3  502    0  0.11487920702E+03  0.35386997009E+03  0.75267526426E+02  0.37958712899E+03  0.50400001928E-02 0. -1.
       -1    1    3    3    0  502 -0.11487920702E+03 -0.35386997009E+03 -0.12312234003E+04  0.12862084782E+04  0.50400001928E-02 0.  1.
</event>
<event>
 5   0  0.1647550E-03  0.1209141E+04  0.7818609E-02  0.9104893E-01
        2   -1    0    0  501    0  0.00000000000E+00  0.00000000000E+00  0.42710269292E+03  0.42710269292E+03  0.25500000920E-02 0.  1.
       -2   -1    0    0    0  501  0.00000000000E+00  0.00000000000E+00 -0.85577915876E+03  0.85577915876E+03  0.25500000920E-02 0. -1.
    10030    2    1    2    0    0  0.00000000000E+00  0.00000000000E+00 -0.42867646584E+03  0.12828818517E+04  0.12091411551E+04 0.  0.
        3    1    3    3  502    0 -0.15046556244E+03 -0.57778956742E+03 -0.11354510148E+03  0.60776078350E+03  0.10100000352E+00 0.  1.
       -3    1    3    3    0  502  0.15046556244E+03  0.57778956742E+03 -0.31513136436E+03  0.67512106818E+03  0.10100000352E+00 0. -1.
</event>
<event>
 5   0  0.9169078E-04  0.1198277E+04  0.7818609E-02  0.9114366E-01
        1   -1    0    0  501    0  0.00000000000E+00  0.00000000000E+00  0.45972183629E+03  0.45972183632E+03  0.50400001928E-02 0.  1.
       -1   -1    0    0    0  501  0.00000000000E+00  0.00000000000E+00 -0.78083456629E+03  0.78083456630E+03  0.50400001928E-02 0. -1.
    10030    2    1    2    0    0  0.00000000000E+00  0.00000000000E+00 -0.32111273000E+03  0.12405564026E+04  0.11982765969E+04 0.  0.
        1    1    3    3  502    0 -0.58253276285E+03 -0.54081229384E+02 -0.29433451399E+03  0.65490610420E+03  0.50400001928E-02 0.  1.
       -1    1    3    3    0  502  0.58253276285E+03  0.54081229384E+02 -0.26778216008E+02  0.58565029842E+03  0.50400001928E-02 0. -1.
</event>
<event>
 5   0  0.6137750E-04  0.1221804E+04  0.7818609E-02  0.9093983E-01
        4   -1    0    0  501    0  0.00000000000E+00  0.00000000000E+00  0.28403144806E+03  0.28403428734E+03  0.12699999809E+01 0.  1.
       -4   -1    0    0    0  501  0.00000000000E+00  0.00000000000E+00 -0.13139334523E+04  0.13139340660E+04  0.12699999809E+01 0. -1.
    10030    2    1    2    0    0  0.00000000000E+00  0.00000000000E+00 -0.10299020042E+04  0.15979683534E+04  0.12218038796E+04 0.  0.
        3    1    3    3  502    0 -0.20329740180E+03 -0.19301968195E+03 -0.12248456617E+04  0.12565163494E+04  0.10100000352E+00 0. -1.
       -3    1    3    3    0  502  0.20329740180E+03  0.19301968195E+03  0.19494365749E+03  0.34145200395E+03  0.10100000352E+00 0.  1.
</event>
<event>
 5   0  0.1597352E-03  0.1179674E+04  0.7818609E-02  0.9130836E-01
       -2   -1    0    0    0  501  0.00000000000E+00  0.00000000000E+00  0.67128829215E+03  0.67128829216E+03  0.25500000920E-02 0. -1.
        2   -1    0    0  501    0  0.00000000000E+00  0.00000000000E+00 -0.51826850086E+03  0.51826850086E+03  0.25500000920E-02 0.  1.
    10030    2    1    2    0    0  0.00000000000E+00  0.00000000000E+00  0.15301979129E+03  0.11895567930E+04  0.11796738139E+04 0.  0.
        1    1    3    3  502    0  0.76484291360E+02 -0.44345729272E+03  0.46102239561E+03  0.64424053471E+03  0.50400001928E-02 0. -1.
       -1    1    3    3    0  502 -0.76484291360E+02  0.44345729272E+03 -0.30800260431E+03  0.54531625831E+03  0.50400001928E-02 0.  1.
</event>
<event>
 5   0  0.1647550E-03  0.1200881E+04  0.7818609E-02  0.9112086E-01
       -2   -1    0    0    0  501  0.00000000000E+00  0.00000000000E+00  0.37450621275E+03  0.37450621276E+03  0.25500000920E-02 0. -1.
        2   -1    0    0  501    0  0.00000000000E+00  0.00000000000E+00 -0.96267785062E+03  0.96267785062E+03  0.25500000920E-02 0.  1.
    10030    2    1    2    0    0  0.00000000000E+00  0.00000000000E+00 -0.58817163787E+03  0.13371840634E+04  0.12008810698E+04 0.  0.
        3    1    3    3  502    0 -0.78046551448E+02  0.36290559388E+03  0.23143202290E+03  0.43743859648E+03  0.10100000352E+00 0. -1.
       -3    1    3    3    0  502  0.78046551448E+02 -0.36290559388E+03 -0.81960366077E+03  0.89974546690E+03  0.10100000352E+00 0.  1.
</event>
<event>
 5   0  0.9170776E-04  0.1196110E+04  0.7818609E-02  0.9116268E-01
        1   -1    0    0  501    0  0.00000000000E+00  0.00000000000E+00  0.93513175232E+03  0.93513175234E+03  0.50400001928E-02 0.  1.
       -1   -1    0    0    0  501  0.00000000000E+00  0.00000000000E+00 -0.38248090684E+03  0.38248090687E+03  0.50400001928E-02 0. -1.
    10030    2    1    2    0    0  0.00000000000E+00  0.00000000000E+00  0.55265084548E+03  0.13176126592E+04  0.11961104308E+04 0.  0.
        5    1    3    3  502    0  0.48986990439E+03  0.30168575950E+03  0.45619418950E+03  0.73424931001E+03  0.46999998093E+01 0.  1.
       -5    1    3    3    0  502 -0.48986990439E+03 -0.30168575950E+03  0.96456655983E+02  0.58336334921E+03  0.46999998093E+01 0. -1.
</event>
<event>
 5   0  0.1647550E-03  0.1199978E+04  0.7818609E-02  0.9112876E-01
       -2   -1    0    0    0  501  0.00000000000E+00  0.00000000000E+00  0.35557669843E+03  0.35557669844E+03  0.25500000920E-02 0. -1.
        2   -1    0    0  501    0  0.00000000000E+00  0.00000000000E+00 -0.10124031895E+04  0.10124031895E+04  0.25500000920E-02 0.  1.
    10030    2    1    2    0    0  0.00000000000E+00  0.00000000000E+00 -0.65682649102E+03  0.13679798879E+04  0.11999783058E+04 0.  0.
        3    1    3    3  502    0  0.51338604718E+03 -0.17888193531E+03 -0.39061059824E+02  0.54505940668E+03  0.10100000352E+00 0. -1.
       -3    1    3    3    0  502 -0.51338604718E+03  0.17888193531E+03 -0.61776543120E+03  0.82292048121E+03  0.10100000352E+00 0.  1.
</event>
<event>
 5   0  0.9358428E-04  0.1198469E+04  0.7818609E-02  0.9114198E-01
        1   -1    0    0  501    0  0.00000000000E+00  0.00000000000E+00  0.48868802584E+03  0.48868802586E+03  0.50400001928E-02 0.  1.
       -1   -1    0    0    0  501  0.00000000000E+00  0.00000000000E+00 -0.73478749298E+03  0.73478749300E+03  0.50400001928E-02 0. -1.
    10030    2    1    2    0    0  0.00000000000E+00  0.00000000000E+00 -0.24609946715E+03  0.12234755189E+04  0.11984687720E+04 0.  0.
        2    1    3    3  502    0 -0.16633747183E+03  0.56779492751E+03 -0.22001914908E+03  0.63124294864E+03  0.25500000920E-02 0. -1.
       -2    1    3    3    0  502  0.16633747183E+03 -0.56779492751E+03 -0.26080318067E+02  0.59223257022E+03  0.25500000920E-02 0.  1.
</event>
<event>
 5   0  0.8908478E-04  0.1192071E+04  0.7818609E-02  0.9119825E-01
       -1   -1    0    0    0  501  0.00000000000E+00  0.00000000000E+00  0.91143366405E+03  0.91143366407E+03  0.50400001928E-02 0.  1.
        1   -1    0    0  501    0  0.00000000000E+00  0.00000000000E+00 -0.38977990860E+03  0.38977990863E+03  0.50400001928E-02 0. -1.
    10030    2    1    2    0    0  0.00000000000E+00  0.00000000000E+00  0.52165375545E+03  0.13012135727E+04  0.11920713574E+04 0.  0.
        4    1    3    3  502    0  0.35753065353E+03 -0.33211362922E+03 -0.11274921928E+03  0.50084092313E+03  0.12699999809E+01 0. -1.
       -4    1    3    3    0  502 -0.35753065353E+03  0.33211362922E+03  0.63440297474E+03  0.80037264957E+03  0.12699999809E+01 0.  1.
</event>
<event>
 5   0  0.1647550E-03  0.1131616E+04  0.7818609E-02  0.9174913E-01
       -2   -1    0    0    0  501  0.00000000000E+00  0.00000000000E+00  0.13599132848E+04  0.13599132848E+04  0.25500000920E-02 0. -1.
        2   -1    0    0  501    0  0.00000000000E+00  0.00000000000E+00 -0.23541123952E+03  0.23541123953E+03  0.25500000920E-02 0.  1.
    10030    2    1    2    0    0  0.00000000000E+00  0.00000000000E+00  0.11245020453E+04  0.15953245243E+04  0.11316163166E+04 0.  0.
        3    1    3    3  502    0 -0.45171656786E+03  0.71451510002E+02  0.92591290879E+02  0.46661154434E+03  0.10100000352E+00 0. -1.
       -3    1    3    3    0  502  0.45171656786E+03 -0.71451510002E+02  0.10319107544E+04  0.11287129800E+04  0.10100000352E+00 0.  1.
</event>
<event>
 5   0  0.9208078E-04  0.1209472E+04  0.7818609E-02  0.9104606E-01
       -1   -1    0    0    0  501  0.00000000000E+00  0.00000000000E+00  0.33578879514E+03  0.33578879518E+03  0.50400001928E-02 0.  1.
        1   -1    0    0  501    0  0.00000000000E+00  0.00000000000E+00 -0.10890948951E+04  0.10890948951E+04  0.50400001928E-02 0. -1.
    10030    2    1    2    0    0  0.00000000000E+00  0.00000000000E+00 -0.75330609997E+03  0.14248836903E+04  0.12094723852E+04 0.  0.
        3    1    3    3  502    0 -0.50776389695E+03  0.30321665465E+03 -0.22790686352E+03  0.63380285843E+03  0.10100000352E+00 0.  1.
       -3    1    3    3    0  502  0.50776389695E+03 -0.30321665465E+03 -0.52539923645E+03  0.79108083188E+03  0.10100000352E+00 0. -1.
</event>
<event>
 5   0  0.9169078E-04  0.1195304E+04  0.7818609E-02  0.9116977E-01
       -1   -1    0    0    0  501  0.00000000000E+00  0.00000000000E+00  0.60301522296E+03  0.60301522298E+03  0.50400001928E-02 0.  1.
        1   -1    0    0  501    0  0.00000000000E+00  0.00000000000E+00 -0.59233633431E+03  0.59233633433E+03  0.50400001928E-02 0. -1.
    10030    2    1    2    0    0  0.00000000000E+00  0.00000000000E+00  0.10678888656E+02  0.11953515573E+04  0.11953038555E+04 0.  0.
        1    1    3    3  502    0  0.25716990000E+03 -0.37715885208E+03  0.39110432935E+03  0.60112207881E+03  0.50400001928E-02 0.  1.
       -1    1    3    3    0  502 -0.25716990000E+03  0.37715885208E+03 -0.38042544070E+03  0.59422947850E+03  0.50400001928E-02 0. -1.
</event>
<event>
 5   0  0.8908478E-04  0.1196848E+04  0.7818609E-02  0.9115620E-01
       -1   -1    0    0    0  501  0.00000000000E+00  0.00000000000E+00  0.41904088290E+03  0.41904088293E+03  0.50400001928E-02 0.  1.
        1   -1    0    0  501    0  0.00000000000E+00  0.00000000000E+00 -0.85459735928E+03  0.85459735929E+03  0.50400001928E-02 0. -1.
    10030    2    1    2    0    0  0.00000000000E+00  0.00000000000E+00 -0.43555647637E+03  0.12736382422E+04  0.11968479135E+04 0.  0.
        4    1    3    3  502    0 -0.16248742844E+03  0.11874171636E+03  0.38194757798E+03  0.43172598350E+03  0.12699999809E+01 0.  1.
       -4    1    3    3    0  502  0.16248742844E+03 -0.11874171636E+03 -0.81750405435E+03  0.84191225872E+03  0.12699999809E+01 0. -1.
</event>
<event>
 5   0  0.1537557E-03  0.1200893E+04  0.7818609E-02  0.9112075E-01
       -2   -1    0    0    0  501  0.00000000000E+00  0.00000000000E+00  0.46751085147E+03  0.46751085147E+03  0.25500000920E-02 0. -1.
        2   -1    0    0  501    0  0.00000000000E+00  0.00000000000E+00 -0.77118221662E+03  0.77118221662E+03  0.25500000920E-02 0.  1.
    10030    2    1    2    0    0  0.00000000000E+00  0.00000000000E+00 -0.30367136515E+03  0.12386930681E+04  0.12008930922E+04 0.  0.
        2    1    3    3  502    0 -0.10313522853E+03 -0.32881277296E+01 -0.76196811709E+03  0.76892333728E+03  0.25500000920E-02 0.  1.
       -2    1    3    3    0  502  0.10313522853E+03  0.32881277296E+01  0.45829675194E+03  0.46976973081E+03  0.25500000920E-02 0. -1.
</event>
<event>
 5   0  0.1537557E-03  0.1121734E+04  0.7818609E-02  0.9184263E-01
       -2   -1    0    0    0  501  0.00000000000E+00  0.00000000000E+00  0.39254610858E+03  0.39254610859E+03  0.25500000920E-02 0.  1.
        2   -1    0    0  501    0  0.00000000000E+00  0.00000000000E+00 -0.80136295927E+03  0.80136295928E+03  0.25500000920E-02 0. -1.
    10030    2    1    2    0    0  0.00000000000E+00  0.00000000000E+00 -0.40881685069E+03  0.11939090679E+04  0.11217342131E+04 0.  0.
        2    1    3    3  502    0  0.27158786163E+03 -0.41346415406E+03 -0.48572383184E+03  0.69328220379E+03  0.25500000920E-02 0. -1.
       -2    1    3    3    0  502 -0.27158786163E+03  0.41346415406E+03  0.76906981144E+02  0.50062686407E+03  0.25500000920E-02 0.  1.
</event>
<event>
 5   0  0.1537557E-03  0.1193902E+04  0.7818609E-02  0.9118211E-01
        2   -1    0    0  501    0  0.00000000000E+00  0.00000000000E+00  0.12885355020E+04  0.12885355020E+04  0.25500000920E-02 0.  1.
       -2   -1    0    0    0  501  0.00000000000E+00  0.00000000000E+00 -0.27655468389E+03  0.27655468391E+03  0.25500000920E-02 0. -1.
    10030    2    1    2    0    0  0.00000000000E+00  0.00000000000E+00  0.10119808181E+04  0.15650901859E+04  0.11939020537E+04 0.  0.
        2    1    3    3  502    0 -0.53459070840E+03  0.89725007788E+02  0.17823121169E+03  0.57061735634E+03  0.25500000920E-02 0. -1.
       -2    1    3    3    0  502  0.53459070840E+03 -0.89725007788E+02  0.83374960642E+03  0.99447282957E+03  0.25500000920E-02 0.  1.
</event>
<event>
 5   0  0.6137750E-04  0.1179566E+04  0.7818609E-02  0.9130932E-01
       -4   -1    0    0    0  501  0.00000000000E+00  0.00000000000E+00  0.22870824887E+03  0.22871177495E+03  0.12699999809E+01 0.  1.
        4   -1    0    0  501    0  0.00000000000E+00  0.00000000000E+00 -0.15208927900E+04  0.15208933202E+04  0.12699999809E+01 0. -1.
    10030    2    1    2    0    0  0.00000000000E+00  0.00000000000E+00 -0.12921845411E+04  0.17496050952E+04  0.11795664885E+04 0.  0.
        5    1    3    3  502    0 -0.16684152155E+03  0.31770974444E+03  0.48109756366E+02  0.36209420553E+03  0.46999998093E+01 0.  1.
       -5    1    3    3    0  502  0.16684152155E+03 -0.31770974444E+03 -0.13402942975E+04  0.13875108897E+04  0.46999998093E+01 0. -1.
</event>
<event>
 5   0  0.8908478E-04  0.1197351E+04  0.7818609E-02  0.9115179E-01
       -1   -1    0    0    0  501  0.00000000000E+00  0.00000000000E+00  0.44923837136E+03  0.44923837139E+03  0.50400001928E-02 0.  1.
        1   -1    0    0  501    0  0.00000000000E+00  0.00000000000E+00 -0.79782196789E+03  0.79782196791E+03  0.50400001928E-02 0. -1.
    10030    2    1    2    0    0  0.00000000000E+00  0.00000000000E+00 -0.34858359653E+03  0.12470603393E+04  0.11973508116E+04 0.  0.
        4    1    3    3  502    0 -0.32627237857E+03 -0.43204956114E+03 -0.44041936031E+03  0.69791927480E+03  0.12699999809E+01 0. -1.
       -4    1    3    3    0  502  0.32627237857E+03  0.43204956114E+03  0.91835763785E+02  0.54914106449E+03  0.12699999809E+01 0.  1.
</event>
<event>
 5   0  0.9208078E-04  0.1223178E+04  0.7818609E-02  0.9092808E-01
       -1   -1    0    0    0  501  0.00000000000E+00  0.00000000000E+00  0.25130609422E+03  0.25130609428E+03  0.50400001928E-02 0. -1.
        1   -1    0    0  501    0  0.00000000000E+00  0.00000000000E+00 -0.14883877275E+04  0.14883877275E+04  0.50400001928E-02 0.  1.
    10030    2    1    2    0    0  0.00000000000E+00  0.00000000000E+00 -0.12370816333E+04  0.17396938218E+04  0.12231776756E+04 0.  0.
        3    1    3    3  502    0  0.14077713124E+03 -0.58356028725E+03 -0.78489269222E+03  0.98813832940E+03  0.10100000352E+00 0.  1.
       -3    1    3    3    0  502 -0.14077713124E+03  0.58356028725E+03 -0.45218894109E+03  0.75155549241E+03  0.10100000352E+00 0. -1.
</event>
<event>
 5   0  0.1567019E-03  0.1209398E+04  0.7818609E-02  0.9104670E-01
       -2   -1    0    0    0  501  0.00000000000E+00  0.00000000000E+00  0.80299501055E+03  0.80299501055E+03  0.25500000920E-02 0. -1.
        2   -1    0    0  501    0  0.00000000000E+00  0.00000000000E+00 -0.45537137359E+03  0.45537137360E+03  0.25500000920E-02 0.  1.
    10030    2    1    2    0    0  0.00000000000E+00  0.00000000000E+00  0.34762363695E+03  0.12583663842E+04  0.12093980998E+04 0.  0.
        5    1    3    3  502    0  0.31658126664E+03 -0.42259809458E+03  0.48040516839E+03  0.71387958631E+03  0.46999998093E+01 0. -1.
       -5    1    3    3    0  502 -0.31658126664E+03  0.42259809458E+03 -0.13278153144E+03  0.54448679784E+03  0.46999998093E+01 0.  1.
</event>
<event>
 5   0  0.8908478E-04  0.1204254E+04  0.7818609E-02  0.9109141E-01
       -1   -1    0    0    0  501  0.00000000000E+00  0.00000000000E+00  0.10111518390E+04  0.10111518390E+04  0.50400001928E-02 0. -1.
        1   -1    0    0  501    0  0.00000000000E+00  0.00000000000E+00 -0.35855816989E+03  0.35855816993E+03  0.50400001928E-02 0.  1.
    10030    2    1    2    0    0  0.00000000000E+00  0.00000000000E+00  0.65259366907E+03  0.13697100089E+04  0.12042537156E+04 0.  0.
        4    1    3    3  502    0  0.35197400081E+03 -0.33128103270E+03 -0.82092781235E+02  0.49027916283E+03  0.12699999809E+01 0.  1.
       -4    1    3    3    0  502 -0.35197400081E+03  0.33128103270E+03  0.73468645031E+03  0.87943084608E+03  0.12699999809E+01 0. -1.
</event>
<event>
 5   0  0.1567019E-03  0.1165092E+04  0.7818609E-02  0.9143972E-01
        2   -1    0    0  501    0  0.00000000000E+00  0.00000000000E+00  0.72474270674E+03  0.72474270675E+03  0.25500000920E-02 0. -1.
       -2   -1    0    0    0  501  0.00000000000E+00  0.00000000000E+00 -0.46824870336E+03  0.46824870337E+03  0.25500000920E-02 0.  1.
    10030    2    1    2    0    0  0.00000000000E+00  0.00000000000E+00  0.25649400338E+03  0.11929914101E+04  0.11650919839E+04 0.  0.
        5    1    3    3  502    0  0.11680871487E+03  0.11402000248E+03 -0.44433292241E+03  0.47339061332E+03  0.46999998093E+01 0.  1.
       -5    1    3    3    0  502 -0.11680871487E+03 -0.11402000248E+03  0.70082692580E+03  0.71960079680E+03  0.46999998093E+01 0. -1.
</event>
<event>
 5   0  0.8908478E-04  0.1174611E+04  0.7818609E-02  0.9135374E-01
       -1   -1    0    0    0  501  0.00000000000E+00  0.00000000000E+00  0.46817498090E+03  0.46817498093E+03  0.50400001928E-02 0.  1.
        1   -1    0    0  501    0  0.00000000000E+00  0.00000000000E+00 -0.73675026479E+03  0.73675026481E+03  0.50400001928E-02 0. -1.
    10030    2    1    2    0    0  0.00000000000E+00  0.00000000000E+00 -0.26857528389E+03  0.12049252457E+04  0.11746114952E+04 0.  0.
        4    1    3    3  502    0 -0.14400717951E+03 -0.23145755905E+03  0.39934501433E+03  0.48351703462E+03  0.12699999809E+01 0.  1.
       -4    1    3    3    0  502  0.14400717951E+03  0.23145755905E+03 -0.66792029822E+03  0.72140821112E+03  0.12699999809E+01 0. -1.
</event>
<event>
 5   0  0.9170776E-04  0.1237369E+04  0.7818609E-02  0.9080762E-01
       -1   -1    0    0    0  501  0.00000000000E+00  0.00000000000E+00  0.35633185727E+03  0.35633185731E+03  0.50400001928E-02 0. -1.
        1   -1    0    0  501    0  0.00000000000E+00  0.00000000000E+00 -0.10741966179E+04  0.10741966180E+04  0.50400001928E-02 0.  1.
    10030    2    1    2    0    0  0.00000000000E+00  0.00000000000E+00 -0.71786476068E+03  0.14305284753E+04  0.12373689441E+04 0.  0.
        5    1    3    3  502    0 -0.36391474730E+03  0.48225553300E+03 -0.51293339877E+03  0.79254470157E+03  0.46999998093E+01 0.  1.
       -5    1    3    3    0  502  0.36391474730E+03 -0.48225553300E+03 -0.20493136191E+03  0.63798377370E+03  0.46999998093E+01 0. -1.
</event>
<event>
 5   0  0.9208078E-04  0.1205222E+04  0.7818609E-02  0.9108298E-01
       -1   -1    0    0    0  501  0.00000000000E+00  0.00000000000E+00  0.29246512234E+03  0.29246512238E+03  0.50400001928E-02 0. -1.
        1   -1    0    0  501    0  0.00000000000E+00  0.00000000000E+00 -0.12416521403E+04  0.12416521403E+04  0.50400001928E-02 0.  1.
    10030    2    1    2    0    0  0.00000000000E+00  0.00000000000E+00 -0.94918701794E+03  0.15341172627E+04  0.12052218802E+04 0.  0.
        3    1    3    3  502    0  0.55797143722E+03  0.21145260234E+03 -0.58181610819E+03  0.83339925711E+03  0.10100000352E+00 0.  1.
       -3    1    3    3    0  502 -0.55797143722E+03 -0.21145260234E+03 -0.36737090975E+03  0.70071800556E+03  0.10100000352E+00 0. -1.
</event>
<event>
 5   0  0.9169078E-04  0.1093426E+04  0.7818609E-02  0.9211623E-01
       -1   -1    0    0    0  501  0.00000000000E+00  0.00000000000E+00  0.42437751135E+03  0.42437751138E+03  0.50400001928E-02 0.  1.
        1   -1    0    0  501    0  0.00000000000E+00  0.00000000000E+00 -0.70431394519E+03  0.70431394521E+03  0.50400001928E-02 0. -1.
    10030    2    1    2    0    0  0.00000000000E+00  0.00000000000E+00 -0.27993643384E+03  0.11286914566E+04  0.10934258078E+04 0.  0.
        1    1    3    3  502    0  0.34259810853E+03  0.35285218647E+03  0.10651514169E+03  0.50321327974E+03  0.50400001928E-02 0.  1.
       -1    1    3    3    0  502 -0.34259810853E+03 -0.35285218647E+03 -0.38645157553E+03  0.62547817686E+03  0.50400001928E-02 0. -1.
</event>
<event>
 5   0  0.1551501E-03  0.1208703E+04  0.7818609E-02  0.9105273E-01
        2   -1    0    0  501    0  0.00000000000E+00  0.00000000000E+00  0.10020198818E+04  0.10020198818E+04  0.25500000920E-02 0. -1.
       -2   -1    0    0    0  501  0.00000000000E+00  0.00000000000E+00 -0.36450449206E+03  0.36450449207E+03  0.25500000920E-02 0.  1.
    10030    2    1    2    0    0  0.00000000000E+00  0.00000000000E+00  0.63751538977E+03  0.13665243739E+04  0.12087030207E+04 0.  0.
        4    1    3    3  502    0  0.30326548435E+03 -0.36701149035E+03  0.73961524349E+03  0.87960201759E+03  0.12699999809E+01 0. -1.
       -4    1    3    3    0  502 -0.30326548435E+03  0.36701149035E+03 -0.10209985372E+03  0.48692235631E+03  0.12699999809E+01 0.  1.
</event>
<event>
 5   0  0.1537557E-03  0.1202870E+04  0.7818609E-02  0.9110348E-01
        2   -1    0    0  501    0  0.00000000000E+00  0.00000000000E+00  0.63738948796E+03  0.63738948797E+03  0.25500000920E-02 0. -1.
       -2   -1    0    0    0  501  0.00000000000E+00  0.00000000000E+00 -0.56750839177E+03  0.56750839178E+03  0.25500000920E-02 0.  1.
    10030    2    1    2    0    0  0.00000000000E+00  0.00000000000E+00  0.69881096189E+02  0.12048978797E+04  0.12028697074E+04 0.  0.
        2    1    3    3  502    0 -0.12198486435E+03 -0.58810836685E+03  0.66172037747E+02  0.60426028901E+03  0.25500000920E-02 0. -1.
       -2    1    3    3    0  502  0.12198486435E+03  0.58810836685E+03  0.37090584423E+01  0.60063759074E+03  0.25500000920E-02 0.  1.
</event>
<event>
 5   0  0.9208078E-04  0.1202350E+04  0.7818609E-02  0.9110802E-01
       -1   -1    0    0    0  501  0.00000000000E+00  0.00000000000E+00  0.35469238063E+03  0.35469238067E+03  0.50400001928E-02 0.  1.
        1   -1    0    0  501    0  0.00000000000E+00  0.00000000000E+00 -0.10189424030E+04  0.10189424030E+04  0.50400001928E-02 0. -1.
    10030    2    1    2    0    0  0.00000000000E+00  0.00000000000E+00 -0.66425002236E+03  0.13736347837E+04  0.12023495443E+04 0.  0.
        3    1    3    3  502    0 -0.47248997645E+03  0.11094213022E+03 -0.73742610802E+03  0.88280927107E+03  0.10100000352E+00 0. -1.
       -3    1    3    3    0  502  0.47248997645E+03 -0.11094213022E+03  0.73176085660E+02  0.49082551260E+03  0.10100000352E+00 0.  1.
</event>
<event>
 5   0  0.1647550E-03  0.1205838E+04  0.7818609E-02  0.9107762E-01
       -2   -1    0    0    0  501  0.00000000000E+00  0.00000000000E+00  0.50201988297E+03  0.50201988298E+03  0.25500000920E-02 0.  1.
        2   -1    0    0  501    0  0.00000000000E+00  0.00000000000E+00 -0.72409741955E+03  0.72409741955E+03  0.25500000920E-02 0. -1.
    10030    2    1    2    0    0  0.00000000000E+00  0.00000000000E+00 -0.22207753658E+03  0.12261173025E+04  0.12058379689E+04 0.  0.
        3    1    3    3  502    0 -0.48948388107E+03  0.34865254973E+03 -0.61660557315E+02  0.60411514200E+03  0.10100000352E+00 0.  1.
       -3    1    3    3    0  502  0.48948388107E+03 -0.34865254973E+03 -0.16041697926E+03  0.62200216053E+03  0.10100000352E+00 0. -1.
</event>
<event>
 5   0  0.9169078E-04  0.1204862E+04  0.7818609E-02  0.9108611E-01
       -1   -1    0    0    0  501  0.00000000000E+00  0.00000000000E+00  0.50137883264E+03  0.50137883267E+03  0.50400001928E-02 0.  1.
        1   -1    0    0  501    0  0.00000000000E+00  0.00000000000E+00 -0.72385014999E+03  0.72385015001E+03  0.50400001928E-02 0. -1.
    10030    2    1    2    0    0  0.00000000000E+00  0.00000000000E+00 -0.22247131735E+03  0.12252289827E+04  0.12048620556E+04 0.  0.
        1    1    3    3  502    0  0.98995583418E+02 -0.58611320158E+03 -0.21084207588E+03  0.63070055620E+03  0.50400001928E-02 0.  1.
       -1    1    3    3    0  502 -0.98995583418E+02  0.58611320158E+03 -0.11629241471E+02  0.59452842648E+03  0.50400001928E-02 0. -1.
</event>
<event>
 5   0  0.8908478E-04  0.1189299E+04  0.7818609E-02  0.9122275E-01
        1   -1    0    0  501    0  0.00000000000E+00  0.00000000000E+00  0.21981789752E+04  0.21981789752E+04  0.50400001928E-02 0. -1.
       -1   -1    0    0    0  501  0.00000000000E+00  0.00000000000E+00 -0.16086408314E+03  0.16086408322E+03  0.50400001928E-02 0.  1.
    10030    2    1    2    0    0  0.00000000000E+00  0.00000000000E+00  0.20373148921E+04  0.23590430584E+04  0.11892990297E+04 0.  0.
        4    1    3    3  502    0 -0.36753289247E+02  0.11514552404E+03 -0.13623839747E+03  0.18213129831E+03  0.12699999809E+01 0.  1.
       -4    1    3    3    0  502  0.36753289247E+02 -0.11514552404E+03  0.21735532896E+04  0.21769117601E+04  0.12699999809E+01 0. -1.
</event>
<event>
 5   0  0.9170776E-04  0.1195191E+04  0.7818609E-02  0.9117076E-01
       -1   -1    0    0    0  501  0.00000000000E+00  0.00000000000E+00  0.71858497634E+03  0.71858497636E+03  0.50400001928E-02 0.  1.
        1   -1    0    0  501    0  0.00000000000E+00  0.00000000000E+00 -0.49697749581E+03  0.49697749583E+03  0.50400001928E-02 0. -1.
    10030    2    1    2    0    0  0.00000000000E+00  0.00000000000E+00  0.22160748053E+03  0.12155624722E+04  0.11951913020E+04 0.  0.
        5    1    3    3  502    0  0.24053493877E+01  0.45545271511E+03 -0.28264324004E+03  0.53605247182E+03  0.46999998093E+01 0.  1.
       -5    1    3    3    0  502 -0.24053493877E+01 -0.45545271511E+03  0.50425072057E+03  0.67951000037E+03  0.46999998093E+01 0. -1.
</event>
<event>
 5   0  0.1647550E-03  0.1188928E+04  0.7818609E-02  0.9122604E-01
       -2   -1    0    0    0  501  0.00000000000E+00  0.00000000000E+00  0.42270749283E+03  0.42270749284E+03  0.25500000920E-02 0.  1.
        2   -1    0    0  501    0  0.00000000000E+00  0.00000000000E+00 -0.83600882530E+03  0.83600882531E+03  0.25500000920E-02 0. -1.
    10030    2    1    2    0    0  0.00000000000E+00  0.00000000000E+00 -0.41330133248E+03  0.12587163181E+04  0.11889275748E+04 0.  0.
        3    1    3    3  502    0 -0.50915814607E+03  0.27286330600E+02  0.11690376251E+03  0.52311859214E+03  0.10100000352E+00 0. -1.
       -3    1    3    3    0  502  0.50915814607E+03 -0.27286330600E+02 -0.53020509499E+03  0.73559772600E+03  0.10100000352E+00 0.  1.
</event>
<event>
 5   0  0.9169078E-04  0.1185630E+04  0.7818609E-02  0.9125528E-01
        1   -1    0    0  501    0  0.00000000000E+00  0.00000000000E+00  0.49235090088E+03  0.49235090090E+03  0.50400001928E-02 0. -1.
       -1   -1    0    0    0  501  0.00000000000E+00  0.00000000000E+00 -0.71377935092E+03  0.71377935094E+03  0.50400001928E-02 0.  1.
    10030    2    1    2    0    0  0.00000000000E+00  0.00000000000E+00 -0.22142845004E+03  0.12061302518E+04  0.11856304761E+04 0.  0.
        1    1    3    3  502    0  0.25608872168E+03 -0.33081292918E+02  0.43213578498E+03  0.50340554426E+03  0.50400001928E-02 0. -1.
       -1    1    3    3    0  502 -0.25608872168E+03  0.33081292918E+02 -0.65356423502E+03  0.70272470757E+03  0.50400001928E-02 0.  1.
</event>
<event>
 5   0  0.1597352E-03  0.1204800E+04  0.7818609E-02  0.9108666E-01
        2   -1    0    0  501    0  0.00000000000E+00  0.00000000000E+00  0.10916473884E+04  0.10916473884E+04  0.25500000920E-02 0.  1.
       -2   -1    0    0    0  501  0.00000000000E+00  0.00000000000E+00 -0.33242020982E+03  0.33242020983E+03  0.25500000920E-02 0. -1.
    10030    2    1    2    0    0  0.00000000000E+00  0.00000000000E+00  0.75922717855E+03  0.14240675982E+04  0.12047998239E+04 0.  0.
        1    1    3    3  502    0  0.16988535492E+02 -0.26533064499E+03 -0.25931652424E+03  0.37139469743E+03  0.50400001928E-02 0. -1.
       -1    1    3    3    0  502 -0.16988535492E+02  0.26533064499E+03  0.10185437028E+04  0.10526729008E+04  0.50400001928E-02 0.  1.
</event>
<event>
 5   0  0.8908478E-04  0.1204931E+04  0.7818609E-02  0.9108551E-01
       -1   -1    0    0    0  501  0.00000000000E+00  0.00000000000E+00  0.25670326630E+03  0.25670326635E+03  0.50400001928E-02 0.  1.
        1   -1    0    0  501    0  0.00000000000E+00  0.00000000000E+00 -0.14139468323E+04  0.14139468323E+04  0.50400001928E-02 0. -1.
    10030    2    1    2    0    0  0.00000000000E+00  0.00000000000E+00 -0.11572435660E+04  0.16706500987E+04  0.12049311520E+04 0.  0.
        4    1    3    3  502    0  0.70066868360E+02 -0.46030118487E+03 -0.11087271629E+04  0.12025240461E+04  0.12699999809E+01 0. -1.
       -4    1    3    3    0  502 -0.70066868360E+02  0.46030118487E+03 -0.48516403153E+02  0.46812605259E+03  0.12699999809E+01 0.  1.
</event>
<event>
 5   0  0.9170776E-04  0.1187955E+04  0.7818609E-02  0.9123465E-01
        1   -1    0    0  501    0  0.00000000000E+00  0.00000000000E+00  0.67972460377E+03  0.67972460378E+03  0.50400001928E-02 0.  1.
       -1   -1    0    0    0  501  0.00000000000E+00  0.00000000000E+00 -0.51904772798E+03  0.51904772800E+03  0.50400001928E-02 0. -1.
    10030    2    1    2    0    0  0.00000000000E+00  0.00000000000E+00  0.16067687579E+03  0.11987723318E+04  0.11879554053E+04 0.  0.
        5    1    3    3  502    0 -0.59243480252E+03 -0.34080478777E+02  0.54671685443E+02  0.59594593501E+03  0.46999998093E+01 0. -1.
       -5    1    3    3    0  502  0.59243480252E+03  0.34080478777E+02  0.10600519034E+03  0.60282639677E+03  0.46999998093E+01 0.  1.
</event>
<event>
 5   0  0.9358428E-04  0.1200935E+04  0.7818609E-02  0.9112038E-01
        1   -1    0    0  501    0  0.00000000000E+00  0.00000000000E+00  0.14357059244E+04  0.14357059244E+04  0.50400001928E-02 0. -1.
       -1   -1    0    0    0  501  0.00000000000E+00  0.00000000000E+00 -0.25113873243E+03  0.25113873248E+03  0.50400001928E-02 0.  1.
    10030    2    1    2    0    0  0.00000000000E+00  0.00000000000E+00  0.11845671919E+04  0.16868446568E+04  0.12009352456E+04 0.  0.
        2    1    3    3  502    0  0.44943714459E+03  0.37528380758E+03  0.40525587465E+03  0.71208426967E+03  0.25500000920E-02 0.  1.
       -2    1    3    3    0  502 -0.44943714459E+03 -0.37528380758E+03  0.77931131727E+03  0.97476038717E+03  0.25500000920E-02 0. -1.
</event>
<event>
 5   0  0.9358428E-04  0.1218041E+04  0.7818609E-02  0.9097210E-01
        1   -1    0    0  501    0  0.00000000000E+00  0.00000000000E+00  0.14081783789E+04  0.14081783789E+04  0.50400001928E-02 0. -1.
       -1   -1    0    0    0  501  0.00000000000E+00  0.00000000000E+00 -0.26339423585E+03  0.26339423590E+03  0.50400001928E-02 0.  1.
    10030    2    1    2    0    0  0.00000000000E+00  0.00000000000E+00  0.11447841431E+04  0.16715726148E+04  0.12180411620E+04 0.  0.
        2    1    3    3  502    0  0.47162657898E+03 -0.22098006064E+03  0.10055886796E+04  0.11324629838E+04  0.25500000920E-02 0. -1.
       -2    1    3    3    0  502 -0.47162657898E+03  0.22098006064E+03  0.13919546351E+03  0.53910963103E+03  0.25500000920E-02 0.  1.
</event>
<event>
 5   0  0.9170776E-04  0.1197688E+04  0.7818609E-02  0.9114883E-01
        1   -1    0    0  501    0  0.00000000000E+00  0.00000000000E+00  0.67386947275E+03  0.67386947277E+03  0.50400001928E-02 0.  1.
       -1   -1    0    0    0  501  0.00000000000E+00  0.00000000000E+00 -0.53217123150E+03  0.53217123152E+03  0.50400001928E-02 0. -1.
    10030    2    1    2    0    0  0.00000000000E+00  0.00000000000E+00  0.14169824125E+03  0.12060407043E+04  0.11976876842E+04 0.  0.
        5    1    3    3  502    0  0.13424471672E+03 -0.53459392126E+03 -0.16483353460E+03  0.57532989558E+03  0.46999998093E+01 0. -1.
       -5    1    3    3    0  502 -0.13424471672E+03  0.53459392126E+03  0.30653177585E+03  0.63071080871E+03  0.46999998093E+01 0.  1.
</event>
<event>
 5   0  0.1537557E-03  0.1194871E+04  0.7818609E-02  0.9117358E-01
       -2   -1    0    0    0  501  0.00000000000E+00  0.00000000000E+00  0.60581218565E+03  0.60581218565E+03  0.25500000920E-02 0.  1.
        2   -1    0    0  501    0  0.00000000000E+00  0.00000000000E+00 -0.58917481619E+03  0.58917481619E+03  0.25500000920E-02 0. -1.
    10030    2    1    2    0    0  0.00000000000E+00  0.00000000000E+00  0.16637369458E+02  0.11949870018E+04  0.11948711782E+04 0.  0.
        2    1    3    3  502    0  0.55032194109E+03  0.33348042390E+02  0.23847780503E+03  0.60069792265E+03  0.25500000920E-02 0. -1.
       -2    1    3    3    0  502 -0.55032194109E+03 -0.33348042390E+02 -0.22184043557E+03  0.59428907919E+03  0.25500000920E-02 0.  1.
</event>
<event>
 5   0  0.8908478E-04  0.1207567E+04  0.7818609E-02  0.9106258E-01
       -1   -1    0    0    0  501  0.00000000000E+00  0.00000000000E+00  0.39296369388E+03  0.39296369391E+03  0.50400001928E-02 0. -1.
        1   -1    0    0  501    0  0.00000000000E+00  0.00000000000E+00 -0.92770599287E+03  0.92770599288E+03  0.50400001928E-02 0.  1.
    10030    2    1    2    0    0  0.00000000000E+00  0.00000000000E+00 -0.53474229899E+03  0.13206696868E+04  0.12075674289E+04 0.  0.
        4    1    3    3  502    0  0.56494414492E+01  0.30652065587E+03  0.30150758088E+03  0.42999449170E+03  0.12699999809E+01 0. -1.
       -4    1    3    3    0  502 -0.56494414492E+01 -0.30652065587E+03 -0.83624987987E+03  0.89067519509E+03  0.12699999809E+01 0.  1.
</event>
<event>
 5   0  0.9169078E-04  0.1054655E+04  0.7818609E-02  0.9250552E-01
       -1   -1    0    0    0  501  0.00000000000E+00  0.00000000000E+00  0.11770586375E+03  0.11770586386E+03  0.50400001928E-02 0.  1.
        1   -1    0    0  501    0  0.00000000000E+00  0.00000000000E+00 -0.23624489011E+04  0.23624489011E+04  0.50400001928E-02 0. -1.
    10030    2    1    2    0    0  0.00000000000E+00  0.00000000000E+00 -0.22447430373E+04  0.24801547649E+04  0.10546546138E+04 0.  0.
        1    1    3    3  502    0 -0.29936557964E+03  0.42679910910E+03 -0.13089796235E+04  0.14089729893E+04  0.50400001928E-02 0.  1.
       -1    1    3    3    0  502  0.29936557964E+03 -0.42679910910E+03 -0.93576341386E+03  0.10711817757E+04  0.50400001928E-02 0. -1.
</event>
<event>
 5   0  0.9169078E-04  0.1195287E+04  0.7818609E-02  0.9116992E-01
        1   -1    0    0  501    0  0.00000000000E+00  0.00000000000E+00  0.18329095112E+04  0.18329095112E+04  0.50400001928E-02 0.  1.
       -1   -1    0    0    0  501  0.00000000000E+00  0.00000000000E+00 -0.19486914129E+03  0.19486914136E+03  0.50400001928E-02 0. -1.
    10030    2    1    2    0    0  0.00000000000E+00  0.00000000000E+00  0.16380403699E+04  0.20277786526E+04  0.11952865808E+04 0.  0.
        1    1    3    3  502    0  0.53738490252E+03  0.88813646276E+02  0.40171700775E+03  0.67679166038E+03  0.50400001928E-02 0.  1.
       -1    1    3    3    0  502 -0.53738490252E+03 -0.88813646276E+02  0.12363233621E+04  0.13509869922E+04  0.50400001928E-02 0. -1.
</event>
<event>
 5   0  0.6137750E-04  0.1200082E+04  0.7818609E-02  0.9112784E-01
        3   -1    0    0  501    0  0.00000000000E+00  0.00000000000E+00  0.34184525073E+03  0.34184526565E+03  0.10100000352E+00 0. -1.
       -3   -1    0    0    0  501  0.00000000000E+00  0.00000000000E+00 -0.10532526849E+04  0.10532526897E+04  0.10100000352E+00 0.  1.
    10030    2    1    2    0    0  0.00000000000E+00  0.00000000000E+00 -0.71140743413E+03  0.13950979553E+04  0.12000824004E+04 0.  0.
        3    1    3    3  502    0  0.32985059435E+03  0.14329223286E+03  0.20267889178E+03  0.41281087917E+03  0.10100000352E+00 0. -1.
       -3    1    3    3    0  502 -0.32985059435E+03 -0.14329223286E+03 -0.91408632592E+03  0.98228707617E+03  0.10100000352E+00 0.  1.
</event>
<event>
 5   0  0.1551501E-03  0.1200468E+04  0.7818609E-02  0.9112447E-01
        2   -1    0    0  501    0  0.00000000000E+00  0.00000000000E+00  0.14451240280E+04  0.14451240280E+04  0.25500000920E-02 0. -1.
       -2   -1    0    0    0  501  0.00000000000E+00  0.00000000000E+00 -0.24930782846E+03  0.24930782848E+03  0.25500000920E-02 0.  1.
    10030    2    1    2    0    0  0.00000000000E+00  0.00000000000E+00  0.11958161996E+04  0.16944318565E+04  0.12004677977E+04 0.  0.
        4    1    3    3  502    0  0.28344480192E+03  0.11117630240E+03  0.13280357411E+04  0.13624909792E+04  0.12699999809E+01 0. -1.
       -4    1    3    3    0  502 -0.28344480192E+03 -0.11117630240E+03 -0.13221954153E+03  0.33194087729E+03  0.12699999809E+01 0.  1.
</event>
<event>
 5   0  0.9169078E-04  0.1196277E+04  0.7818609E-02  0.9116121E-01
        1   -1    0    0  501    0  0.00000000000E+00  0.00000000000E+00  0.52761355824E+03  0.52761355826E+03  0.50400001928E-02 0. -1.
       -1   -1    0    0    0  501  0.00000000000E+00  0.00000000000E+00 -0.67809066079E+03  0.67809066081E+03  0.50400001928E-02 0.  1.
    10030    2    1    2    0    0  0.00000000000E+00  0.00000000000E+00 -0.15047710255E+03  0.12057042191E+04  0.11962772695E+04 0.  0.
        1    1    3    3  502    0  0.46635057290E+03  0.28444716454E+03  0.17035516525E+03  0.57220095125E+03  0.50400001928E-02 0. -1.
       -1    1    3    3    0  502 -0.46635057290E+03 -0.28444716454E+03 -0.32083226779E+03  0.63350326782E+03  0.50400001928E-02 0.  1.
</event>
<event>
 5   0  0.1551501E-03  0.1207028E+04  0.7818609E-02  0.9106727E-01
        2   -1    0    0  501    0  0.00000000000E+00  0.00000000000E+00  0.11084647343E+04  0.11084647343E+04  0.25500000920E-02 0. -1.
       -2   -1    0    0    0  501  0.00000000000E+00  0.00000000000E+00 -0.32858906880E+03  0.32858906881E+03  0.25500000920E-02 0.  1.
    10030    2    1    2    0    0  0.00000000000E+00  0.00000000000E+00  0.77987566548E+03  0.14370538031E+04  0.12070284087E+04 0.  0.
        4    1    3    3  502    0 -0.35571573267E+03  0.17029375618E+03  0.93382731406E+03  0.10136906388E+04  0.12699999809E+01 0. -1.
       -4    1    3    3    0  502  0.35571573267E+03 -0.17029375618E+03 -0.15395164857E+03  0.42336316427E+03  0.12699999809E+01 0.  1.
</event>
<event>
 5   0  0.1647550E-03  0.1198412E+04  0.7818609E-02  0.9114248E-01
       -2   -1    0    0    0  501  0.00000000000E+00  0.00000000000E+00  0.13277691418E+04  0.13277691418E+04  0.25500000920E-02 0. -1.
        2   -1    0    0  501    0  0.00000000000E+00  0.00000000000E+00 -0.27041413229E+03  0.27041413230E+03  0.25500000920E-02 0.  1.
    10030    2    1    2    0    0  0.00000000000E+00  0.00000000000E+00  0.10573550095E+04  0.15981832741E+04  0.11984115159E+04 0.  0.
        3    1    3    3  502    0 -0.46017194002E+03 -0.28666703737E+03  0.18838774851E+03  0.57395658258E+03  0.10100000352E+00 0.  1.
       -3    1    3    3    0  502  0.46017194002E+03  0.28666703737E+03  0.86896726096E+03  0.10242266915E+04  0.10100000352E+00 0. -1.
</event>
<event>
 5   0  0.1597352E-03  0.1197770E+04  0.7818609E-02  0.9114811E-01
       -2   -1    0    0    0  501  0.00000000000E+00  0.00000000000E+00  0.13108732137E+04  0.13108732137E+04  0.25500000920E-02 0.  1.
        2   -1    0    0  501    0  0.00000000000E+00  0.00000000000E+00 -0.27360644480E+03  0.27360644481E+03  0.25500000920E-02 0. -1.
    10030    2    1    2    0    0  0.00000000000E+00  0.00000000000E+00  0.10372667690E+04  0.15844796586E+04  0.11977701943E+04 0.  0.
        1    1    3    3  502    0  0.15543096789E+03  0.30672824473E+03  0.11672687025E+04  0.12168636841E+04  0.50400001928E-02 0.  1.
       -1    1    3    3    0  502 -0.15543096789E+03 -0.30672824473E+03 -0.13000193355E+03  0.36761597442E+03  0.50400001928E-02 0. -1.
</event>
<event>
 5   0  0.1551501E-03  0.1200602E+04  0.7818609E-02  0.9112329E-01
       -2   -1    0    0    0  501  0.00000000000E+00  0.00000000000E+00  0.19654819551E+03  0.19654819552E+03  0.25500000920E-02 0.  1.
        2   -1    0    0  501    0  0.00000000000E+00  0.00000000000E+00 -0.18334511276E+04  0.18334511276E+04  0.25500000920E-02 0. -1.
    10030    2    1    2    0    0  0.00000000000E+00  0.00000000000E+00 -0.16369029321E+04  0.20299993231E+04  0.12006023666E+04 0.  0.
        4    1    3    3  502    0 -0.18197328096E+02 -0.22134472320E+03 -0.17614293701E+04  0.17753759230E+04  0.12699999809E+01 0. -1.
       -4    1    3    3    0  502  0.18197328096E+02  0.22134472320E+03  0.12452643799E+03  0.25462340014E+03  0.12699999809E+01 0.  1.
</event>
<event>
 5   0  0.9169078E-04  0.1198677E+04  0.7818609E-02  0.9114015E-01
       -1   -1    0    0    0  501  0.00000000000E+00  0.00000000000E+00  0.43701447953E+03  0.43701447955E+03  0.50400001928E-02 0.  1.
        1   -1    0    0  501    0  0.00000000000E+00  0.00000000000E+00 -0.82195618629E+03  0.82195618631E+03  0.50400001928E-02 0. -1.
    10030    2    1    2    0    0  0.00000000000E+00  0.00000000000E+00 -0.38494170677E+03  0.12589706659E+04  0.11986771959E+04 0.  0.
        1    1    3    3  502    0  0.46818504026E+03 -0.94121401877E+02 -0.57283419056E+03  0.74578487523E+03  0.50400001928E-02 0. -1.
       -1    1    3    3    0  502 -0.46818504026E+03  0.94121401877E+02  0.18789248379E+03  0.51318579063E+03  0.50400001928E-02 0.  1.
</event>
<event>
 5   0  0.1647550E-03  0.1212452E+04  0.7818609E-02  0.9102026E-01
        2   -1    0    0  501    0  0.00000000000E+00  0.00000000000E+00  0.86597209917E+03  0.86597209918E+03  0.25500000920E-02 0.  1.
       -2   -1    0    0    0  501  0.00000000000E+00  0.00000000000E+00 -0.42439028457E+03  0.42439028458E+03  0.25500000920E-02 0. -1.
    10030    2    1    2    0    0  0.00000000000E+00  0.00000000000E+00  0.44158181460E+03  0.12903623838E+04  0.12124523011E+04 0.  0.
        3    1    3    3  502    0  0.41753622491E+03 -0.15027383178E+03  0.66035844668E+03  0.79560795115E+03  0.10100000352E+00 0.  1.
       -3    1    3    3    0  502 -0.41753622491E+03  0.15027383178E+03 -0.21877663208E+03  0.49475443260E+03  0.10100000352E+00 0. -1.
</event>
<event>
 5   0  0.9169078E-04  0.1197445E+04  0.7818609E-02  0.9115096E-01
       -1   -1    0    0    0  501  0.00000000000E+00  0.00000000000E+00  0.83568128434E+03  0.83568128435E+03  0.50400001928E-02 0. -1.
        1   -1    0    0  501    0  0.00000000000E+00  0.00000000000E+00 -0.42895375152E+03  0.42895375155E+03  0.50400001928E-02 0.  1.
    10030    2    1    2    0    0  0.00000000000E+00  0.00000000000E+00  0.40672753281E+03  0.12646350359E+04  0.11974449833E+04 0.  0.
        1    1    3    3  502    0 -0.50033629311E+03  0.26165265058E+03 -0.69856553123E+01  0.56466566671E+03  0.50400001928E-02 0.  1.
       -1    1    3    3    0  502  0.50033629311E+03 -0.26165265058E+03  0.41371318813E+03  0.69996936919E+03  0.50400001928E-02 0. -1.
</event>
<event>
 5   0  0.1551501E-03  0.1208762E+04  0.7818609E-02  0.9105221E-01
       -2   -1    0    0    0  501  0.00000000000E+00  0.00000000000E+00  0.38966048222E+03  0.38966048223E+03  0.25500000920E-02 0.  1.
        2   -1    0    0  501    0  0.00000000000E+00  0.00000000000E+00 -0.93742256736E+03  0.93742256736E+03  0.25500000920E-02 0. -1.
    10030    2    1    2    0    0  0.00000000000E+00  0.00000000000E+00 -0.54776208514E+03  0.13270830496E+04  0.12087622258E+04 0.  0.
        4    1    3    3  502    0 -0.27300501670E+03  0.47656754059E+03  0.30530561603E+01  0.54923519000E+03  0.12699999809E+01 0.  1.
       -4    1    3    3    0  502  0.27300501670E+03 -0.47656754059E+03 -0.55081514130E+03  0.77784785959E+03  0.12699999809E+01 0. -1.
</event>
<event>
 5   0  0.1537557E-03  0.1197209E+04  0.7818609E-02  0.9115303E-01
       -2   -1    0    0    0  501  0.00000000000E+00  0.00000000000E+00  0.29325524742E+03  0.29325524743E+03  0.25500000920E-02 0. -1.
        2   -1    0    0  501    0  0.00000000000E+00  0.00000000000E+00 -0.12218955110E+04  0.12218955110E+04  0.25500000920E-02 0.  1.
    10030    2    1    2    0    0  0.00000000000E+00  0.00000000000E+00 -0.92864026354E+03  0.15151507584E+04  0.11972088713E+04 0.  0.
        2    1    3    3  502    0  0.42536261552E+03 -0.12988177720E+03 -0.97137712067E+03  0.10683520680E+04  0.25500000920E-02 0.  1.
       -2    1    3    3    0  502 -0.42536261552E+03  0.12988177720E+03  0.42736857129E+02  0.44679869035E+03  0.25500000920E-02 0. -1.
</event>
<event>
 5   0  0.1597352E-03  0.1202558E+04  0.7818609E-02  0.9110620E-01
       -2   -1    0    0    0  501  0.00000000000E+00  0.00000000000E+00  0.33866846391E+03  0.33866846392E+03  0.25500000920E-02 0.  1.
        2   -1    0    0  501    0  0.00000000000E+00  0.00000000000E+00 -0.10675240279E+04  0.10675240279E+04  0.25500000920E-02 0. -1.
    10030    2    1    2    0    0  0.00000000000E+00  0.00000000000E+00 -0.72885556403E+03  0.14061924919E+04  0.12025584772E+04 0.  0.
        1    1    3    3  502    0 -0.29670987713E+03  0.46532742713E+03 -0.85325722336E+02  0.55843248880E+03  0.50400001928E-02 0.  1.
       -1    1    3    3    0  502  0.29670987713E+03 -0.46532742713E+03 -0.64352984170E+03  0.84776000307E+03  0.50400001928E-02 0. -1.
</event>
<event>
 5   0  0.1597352E-03  0.1202717E+04  0.7818609E-02  0.9110481E-01
        2   -1    0    0  501    0  0.00000000000E+00  0.00000000000E+00  0.68891573689E+03  0.68891573690E+03  0.25500000920E-02 0.  1.
       -2   -1    0    0    0  501  0.00000000000E+00  0.00000000000E+00 -0.52492964066E+03  0.52492964067E+03  0.25500000920E-02 0. -1.
    10030    2    1    2    0    0  0.00000000000E+00  0.00000000000E+00  0.16398609623E+03  0.12138453776E+04  0.12027174069E+04 0.  0.
        1    1    3    3  502    0  0.34532135752E+03  0.48781271958E+03  0.14912313200E+03  0.61599171899E+03  0.50400001928E-02 0.  1.
       -1    1    3    3    0  502 -0.34532135752E+03 -0.48781271958E+03  0.14862964223E+02  0.59785365857E+03  0.50400001928E-02 0. -1.
</event>
<event>
 5   0  0.6137750E-04  0.1187616E+04  0.7818609E-02  0.9123765E-01
       -3   -1    0    0    0  501  0.00000000000E+00  0.00000000000E+00  0.16059050043E+03  0.16059053219E+03  0.10100000352E+00 0.  1.
        3   -1    0    0  501    0  0.00000000000E+00  0.00000000000E+00 -0.21956974336E+04  0.21956974359E+04  0.10100000352E+00 0. -1.
    10030    2    1    2    0    0  0.00000000000E+00  0.00000000000E+00 -0.20351069332E+04  0.23562879681E+04  0.11876164192E+04 0.  0.
        3    1    3    3  502    0 -0.51336600062E+03 -0.22331536239E+03 -0.62476318296E+03  0.83889418085E+03  0.10100000352E+00 0. -1.
       -3    1    3    3    0  502  0.51336600062E+03  0.22331536239E+03 -0.14103437502E+04  0.15173937873E+04  0.10100000352E+00 0.  1.
</event>
<event>
 5   0  0.1537557E-03  0.1199459E+04  0.7818609E-02  0.9113330E-01
       -2   -1    0    0    0  501  0.00000000000E+00  0.00000000000E+00  0.16226187050E+03  0.16226187052E+03  0.25500000920E-02 0.  1.
        2   -1    0    0  501    0  0.00000000000E+00  0.00000000000E+00 -0.22166352831E+04  0.22166352831E+04  0.25500000920E-02 0. -1.
    10030    2    1    2    0    0  0.00000000000E+00  0.00000000000E+00 -0.20543734126E+04  0.23788971536E+04  0.11994588568E+04 0.  0.
        2    1    3    3  502    0  0.27855005821E+03  0.52924055132E+03 -0.93871932994E+03  0.11130497188E+04  0.25500000920E-02 0.  1.
       -2    1    3    3    0  502 -0.27855005821E+03 -0.52924055132E+03 -0.11156540827E+04  0.12658474348E+04  0.25500000920E-02 0. -1.
</event>
<event>
 5   0  0.9358428E-04  0.1196396E+04  0.7818609E-02  0.9116017E-01
       -1   -1    0    0    0  501  0.00000000000E+00  0.00000000000E+00  0.68333569928E+03  0.68333569929E+03  0.50400001928E-02 0.  1.
        1   -1    0    0  501    0  0.00000000000E+00  0.00000000000E+00 -0.52366755435E+03  0.52366755437E+03  0.50400001928E-02 0. -1.
    10030    2    1    2    0    0  0.00000000000E+00  0.00000000000E+00  0.15966814493E+03  0.12070032537E+04  0.11963958115E+04 0.  0.
        2    1    3    3  502    0  0.83929134291E+02 -0.49990244874E+02  0.67523403671E+03  0.68226397274E+03  0.25500000920E-02 0.  1.
       -2    1    3    3    0  502 -0.83929134291E+02  0.49990244874E+02 -0.51556589179E+03  0.52473928092E+03  0.25500000920E-02 0. -1.
</event>
<event>
 5   0  0.9358428E-04  0.1181733E+04  0.7818609E-02  0.9128998E-01
       -1   -1    0    0    0  501  0.00000000000E+00  0.00000000000E+00  0.41238387678E+03  0.41238387681E+03  0.50400001928E-02 0. -1.
        1   -1    0    0  501    0  0.00000000000E+00  0.00000000000E+00 -0.84659719293E+03  0.84659719295E+03  0.50400001928E-02 0.  1.
    10030    2    1    2    0    0  0.00000000000E+00  0.00000000000E+00 -0.43421331615E+03  0.12589810698E+04  0.11817326813E+04 0.  0.
        2    1    3    3  502    0 -0.41693429091E+03 -0.24861478654E+03 -0.57599445708E+03  0.75326829856E+03  0.25500000920E-02 0. -1.
       -2    1    3    3    0  502  0.41693429091E+03  0.24861478654E+03  0.14178114093E+03  0.50571277120E+03  0.25500000920E-02 0.  1.
</event>
<event>
 5   0  0.8908478E-04  0.1199213E+04  0.7818609E-02  0.9113546E-01
        1   -1    0    0  501    0  0.00000000000E+00  0.00000000000E+00  0.13245568643E+04  0.13245568643E+04  0.50400001928E-02 0.  1.
       -1   -1    0    0    0  501  0.00000000000E+00  0.00000000000E+00 -0.27143241083E+03  0.27143241088E+03  0.50400001928E-02 0. -1.
    10030    2    1    2    0    0  0.00000000000E+00  0.00000000000E+00  0.10531244535E+04  0.15959892752E+04  0.11992125133E+04 0.  0.
        4    1    3    3  502    0  0.40643264089E+03  0.37917645886E+03  0.82582558654E+03  0.99546561509E+03  0.12699999809E+01 0.  1.
       -4    1    3    3    0  502 -0.40643264089E+03 -0.37917645886E+03  0.22729886694E+03  0.60052366011E+03  0.12699999809E+01 0. -1.
</event>
<event>
 5   0  0.9170776E-04  0.1254422E+04  0.7818609E-02  0.9066511E-01
        1   -1    0    0  501    0  0.00000000000E+00  0.00000000000E+00  0.97362039587E+03  0.97362039588E+03  0.50400001928E-02 0. -1.
       -1   -1    0    0    0  501  0.00000000000E+00  0.00000000000E+00 -0.40405215485E+03  0.40405215488E+03  0.50400001928E-02 0.  1.
    10030    2    1    2    0    0  0.00000000000E+00  0.00000000000E+00  0.56956824102E+03  0.13776725508E+04  0.12544216500E+04 0.  0.
        5    1    3    3  502    0  0.42056818374E+02  0.28154031331E+03 -0.32899852182E+03  0.43508141922E+03  0.46999998093E+01 0.  1.
       -5    1    3    3    0  502 -0.42056818374E+02 -0.28154031331E+03  0.89856676284E+03  0.94259113154E+03  0.46999998093E+01 0. -1.
</event>
<event>
 5   0  0.9170776E-04  0.1208855E+04  0.7818609E-02  0.9105141E-01
        1   -1    0    0  501    0  0.00000000000E+00  0.00000000000E+00  0.85654244685E+03  0.85654244686E+03  0.50400001928E-02 0.  1.
       -1   -1    0    0    0  501  0.00000000000E+00  0.00000000000E+00 -0.42652002851E+03  0.42652002854E+03  0.50400001928E-02 0. -1.
    10030    2    1    2    0    0  0.00000000000E+00  0.00000000000E+00  0.43002241833E+03  0.12830624754E+04  0.12088548447E+04 0.  0.
        5    1    3    3  502    0 -0.99989022446E+02 -0.55501225430E+03 -0.15761728347E+02  0.56418696291E+03  0.46999998093E+01 0. -1.
       -5    1    3    3    0  502  0.99989022446E+02  0.55501225430E+03  0.44578414668E+03  0.71887551250E+03  0.46999998093E+01 0.  1.
</event>
<event>
 5   0  0.1647550E-03  0.1199393E+04  0.7818609E-02  0.9113388E-01
        2   -1    0    0  501    0  0.00000000000E+00  0.00000000000E+00  0.35472731511E+03  0.35472731512E+03  0.25500000920E-02 0.  1.
       -2   -1    0    0    0  501  0.00000000000E+00  0.00000000000E+00 -0.10138373839E+04  0.10138373839E+04  0.25500000920E-02 0. -1.
    10030    2    1    2    0    0  0.00000000000E+00  0.00000000000E+00 -0.65911006883E+03  0.13685646991E+04  0.11993928684E+04 0.  0.
        3    1    3    3  502    0  0.27917861184E+02 -0.58594021708E+03 -0.18735621094E+03  0.61579842883E+03  0.10100000352E+00 0. -1.
       -3    1    3    3    0  502 -0.27917861184E+02  0.58594021708E+03 -0.47175385790E+03  0.75276627024E+03  0.10100000352E+00 0.  1.
</event>
<event>
 5   0  0.1647550E-03  0.1199221E+04  0.7818609E-02  0.9113538E-01
        2   -1    0    0  501    0  0.00000000000E+00  0.00000000000E+00  0.34419864489E+03  0.34419864490E+03  0.25500000920E-02 0.  1.
       -2   -1    0    0    0  501  0.00000000000E+00  0.00000000000E+00 -0.10445509786E+04  0.10445509786E+04  0.25500000920E-02 0. -1.
    10030    2    1    2    0    0  0.00000000000E+00  0.00000000000E+00 -0.70035233368E+03  0.13887496235E+04  0.11992214664E+04 0.  0.
        3    1    3    3  502    0 -0.66971745349E+02  0.28842704584E+03  0.25362692993E+03  0.38987434544E+03  0.10100000352E+00 0.  1.
       -3    1    3    3    0  502  0.66971745349E+02 -0.28842704584E+03 -0.95397926361E+03  0.99887527802E+03  0.10100000352E+00 0. -1.
</event>
<event>
 5   0  0.9170776E-04  0.1201955E+04  0.7818609E-02  0.9111147E-01
       -1   -1    0    0    0  501  0.00000000000E+00  0.00000000000E+00  0.30884881164E+03  0.30884881168E+03  0.50400001928E-02 0.  1.
        1   -1    0    0  501    0  0.00000000000E+00  0.00000000000E+00 -0.11694200413E+04  0.11694200414E+04  0.50400001928E-02 0. -1.
    10030    2    1    2    0    0  0.00000000000E+00  0.00000000000E+00 -0.86057122970E+03  0.14782688530E+04  0.12019550576E+04 0.  0.
        5    1    3    3  502    0  0.28125190505E+03 -0.15517443122E+03  0.19438335826E+03  0.37548464438E+03  0.46999998093E+01 0.  1.
       -5    1    3    3    0  502 -0.28125190505E+03  0.15517443122E+03 -0.10549545880E+04  0.11027842087E+04  0.46999998093E+01 0. -1.
</event>
<event>
 5   0  0.1597352E-03  0.1195709E+04  0.7818609E-02  0.9116621E-01
       -2   -1    0    0    0  501  0.00000000000E+00  0.00000000000E+00  0.17427486193E+03  0.17427486195E+03  0.25500000920E-02 0. -1.
        2   -1    0    0  501    0  0.00000000000E+00  0.00000000000E+00 -0.20509552892E+04  0.20509552892E+04  0.25500000920E-02 0.  1.
    10030    2    1    2    0    0  0.00000000000E+00  0.00000000000E+00 -0.18766804273E+04  0.22252301512E+04  0.11957089109E+04 0.  0.
        1    1    3    3  502    0 -0.53038803097E+02  0.19951314985E+03 -0.19825184880E+04  0.19932381110E+04  0.50400001928E-02 0.  1.
       -1    1    3    3    0  502  0.53038803097E+02 -0.19951314985E+03  0.10583806074E+03  0.23199204022E+03  0.50400001928E-02 0. -1.
</event>
<event>
 5   0  0.9358428E-04  0.1206266E+04  0.7818609E-02  0.9107389E-01
       -1   -1    0    0    0  501  0.00000000000E+00  0.00000000000E+00  0.24775076172E+03  0.24775076177E+03  0.50400001928E-02 0.  1.
        1   -1    0    0  501    0  0.00000000000E+00  0.00000000000E+00 -0.14682889092E+04  0.14682889093E+04  0.50400001928E-02 0. -1.
    10030    2    1    2    0    0  0.00000000000E+00  0.00000000000E+00 -0.12205381475E+04  0.17160396710E+04  0.12062664643E+04 0.  0.
        2    1    3    3  502    0 -0.18541913754E+03 -0.54667618987E+03 -0.85885701825E+03  0.10348287254E+04  0.25500000920E-02 0. -1.
       -2    1    3    3    0  502  0.18541913754E+03  0.54667618987E+03 -0.36168112928E+03  0.68121094561E+03  0.25500000920E-02 0.  1.
</event>
<event>
 5   0  0.1647550E-03  0.1203286E+04  0.7818609E-02  0.9109985E-01
        2   -1    0    0  501    0  0.00000000000E+00  0.00000000000E+00  0.29078772593E+03  0.29078772594E+03  0.25500000920E-02 0.  1.
       -2   -1    0    0    0  501  0.00000000000E+00  0.00000000000E+00 -0.12448061560E+04  0.12448061560E+04  0.25500000920E-02 0. -1.
    10030    2    1    2    0    0  0.00000000000E+00  0.00000000000E+00 -0.95401843009E+03  0.15355938820E+04  0.12032860863E+04 0.  0.
        3    1    3    3  502    0  0.52815325772E+03  0.83951263993E+02 -0.82877939181E+03  0.98634120306E+03  0.10100000352E+00 0. -1.
       -3    1    3    3    0  502 -0.52815325772E+03 -0.83951263993E+02 -0.12523903828E+03  0.54925267890E+03  0.10100000352E+00 0.  1.
</event>
<event>
 5   0  0.1551501E-03  0.1191223E+04  0.7818609E-02  0.9120574E-01
        2   -1    0    0  501    0  0.00000000000E+00  0.00000000000E+00  0.63454796748E+03  0.63454796749E+03  0.25500000920E-02 0.  1.
       -2   -1    0    0    0  501  0.00000000000E+00  0.00000000000E+00 -0.55906427079E+03  0.55906427079E+03  0.25500000920E-02 0. -1.
    10030    2    1    2    0    0  0.00000000000E+00  0.00000000000E+00  0.75483696697E+02  0.11936122383E+04  0.11912230635E+04 0.  0.
        4    1    3    3  502    0 -0.32594394517E+03  0.10672866853E+03  0.52566923686E+03  0.62766250769E+03  0.12699999809E+01 0.  1.
       -4    1    3    3    0  502  0.32594394517E+03 -0.10672866853E+03 -0.45018554016E+03  0.56594973059E+03  0.12699999809E+01 0. -1.
</event>
<event>
 5   0  0.1567019E-03  0.1184026E+04  0.7818609E-02  0.9126955E-01
       -2   -1    0    0    0  501  0.00000000000E+00  0.00000000000E+00  0.18832542662E+03  0.18832542663E+03  0.25500000920E-02 0.  1.
        2   -1    0    0  501    0  0.00000000000E+00  0.00000000000E+00 -0.18610291900E+04  0.18610291900E+04  0.25500000920E-02 0. -1.
    10030    2    1    2    0    0  0.00000000000E+00  0.00000000000E+00 -0.16727037634E+04  0.20493546167E+04  0.11840255338E+04 0.  0.
        5    1    3    3  502    0  0.12789343578E+03  0.21076393018E+03  0.95215875004E+02  0.26432237520E+03  0.46999998093E+01 0.  1.
       -5    1    3    3    0  502 -0.12789343578E+03 -0.21076393018E+03 -0.17679196384E+04  0.17850322415E+04  0.46999998093E+01 0. -1.
</event>
<event>
 5   0  0.9169078E-04  0.1200551E+04  0.7818609E-02  0.9112374E-01
        1   -1    0    0  501    0  0.00000000000E+00  0.00000000000E+00  0.10286690039E+04  0.10286690039E+04  0.50400001928E-02 0.  1.
       -1   -1    0    0    0  501  0.00000000000E+00  0.00000000000E+00 -0.35028825203E+03  0.35028825207E+03  0.50400001928E-02 0. -1.
    10030    2    1    2    0    0  0.00000000000E+00  0.00000000000E+00  0.67838075188E+03  0.13789572560E+04  0.12005509857E+04 0.  0.
        1    1    3    3  502    0 -0.44250514205E+03  0.33790800158E+03  0.81488022044E+02  0.56270144485E+03  0.50400001928E-02 0. -1.
       -1    1    3    3    0  502  0.44250514205E+03 -0.33790800158E+03  0.59689272984E+03  0.81625581115E+03  0.50400001928E-02 0.  1.
</event>
<event>
 5   0  0.9208078E-04  0.1078320E+04  0.7818609E-02  0.9226584E-01
       -1   -1    0    0    0  501  0.00000000000E+00  0.00000000000E+00  0.28216428403E+03  0.28216428407E+03  0.50400001928E-02 0.  1.
        1   -1    0    0  501    0  0.00000000000E+00  0.00000000000E+00 -0.10302273113E+04  0.10302273114E+04  0.50400001928E-02 0. -1.
    10030    2    1    2    0    0  0.00000000000E+00  0.00000000000E+00 -0.74806302732E+03  0.13123915954E+04  0.10783197146E+04 0.  0.
        3    1    3    3  502    0 -0.42975548511E+03  0.26428128687E+03 -0.14259925370E+03  0.52427944164E+03  0.10100000352E+00 0. -1.
       -3    1    3    3    0  502  0.42975548511E+03 -0.26428128687E+03 -0.60546377363E+03  0.78811215379E+03  0.10100000352E+00 0.  1.
</event>
<event>
 5   0  0.8908478E-04  0.1197877E+04  0.7818609E-02  0.9114717E-01
        1   -1    0    0  501    0  0.00000000000E+00  0.00000000000E+00  0.16516850732E+04  0.16516850732E+04  0.50400001928E-02 0. -1.
       -1   -1    0    0    0  501  0.00000000000E+00  0.00000000000E+00 -0.21718870637E+03  0.21718870643E+03  0.50400001928E-02 0.  1.
    10030    2    1    2    0    0  0.00000000000E+00  0.00000000000E+00  0.14344963668E+04  0.18688737796E+04  0.11978770295E+04 0.  0.
        4    1    3    3  502    0  0.22678951428E+03 -0.26341612599E+03 -0.43723999465E+02  0.35033546815E+03  0.12699999809E+01 0.  1.
       -4    1    3    3    0  502 -0.22678951428E+03  0.26341612599E+03  0.14782203663E+04  0.15185383114E+04  0.12699999809E+01 0. -1.
</event>
<event>
 5   0  0.9170776E-04  0.1201381E+04  0.7818609E-02  0.9111649E-01
       -1   -1    0    0    0  501  0.00000000000E+00  0.00000000000E+00  0.70493133528E+03  0.70493133529E+03  0.50400001928E-02 0. -1.
        1   -1    0    0  501    0  0.00000000000E+00  0.00000000000E+00 -0.51186401805E+03  0.51186401808E+03  0.50400001928E-02 0.  1.
    10030    2    1    2    0    0  0.00000000000E+00  0.00000000000E+00  0.19306731722E+03  0.12167953534E+04  0.12013808484E+04 0.  0.
        5    1    3    3  502    0  0.41025946707E+02 -0.70676781845E+02  0.69925603452E+03  0.70403084279E+03  0.46999998093E+01 0. -1.
       -5    1    3    3    0  502 -0.41025946707E+02  0.70676781845E+02 -0.50618871729E+03  0.51276451058E+03  0.46999998093E+01 0.  1.
</event>
<event>
 5   0  0.1647550E-03  0.1206523E+04  0.7818609E-02  0.9107166E-01
       -2   -1    0    0    0  501  0.00000000000E+00  0.00000000000E+00  0.26596605731E+03  0.26596605732E+03  0.25500000920E-02 0. -1.
        2   -1    0    0  501    0  0.00000000000E+00  0.00000000000E+00 -0.13683118674E+04  0.13683118674E+04  0.25500000920E-02 0.  1.
    10030    2    1    2    0    0  0.00000000000E+00  0.00000000000E+00 -0.11023458101E+04  0.16342779247E+04  0.12065231246E+04 0.  0.
        3    1    3    3  502    0  0.54001635644E+03 -0.21810554219E+03 -0.33813243710E+03  0.67343986218E+03  0.10100000352E+00 0. -1.
       -3    1    3    3    0  502 -0.54001635644E+03  0.21810554219E+03 -0.76421337299E+03  0.96083806253E+03  0.10100000352E+00 0.  1.
</event>
<event>
 5   0  0.9358428E-04  0.1197058E+04  0.7818609E-02  0.9115435E-01
       -1   -1    0    0    0  501  0.00000000000E+00  0.00000000000E+00  0.27750506843E+03  0.27750506847E+03  0.50400001928E-02 0. -1.
        1   -1    0    0  501    0  0.00000000000E+00  0.00000000000E+00 -0.12909207100E+04  0.12909207100E+04  0.50400001928E-02 0.  1.
    10030    2    1    2    0    0  0.00000000000E+00  0.00000000000E+00 -0.10134156416E+04  0.15684257785E+04  0.11970581273E+04 0.  0.
        2    1    3    3  502    0  0.29568187841E+03  0.16600181443E+03  0.13950792377E+03  0.36666992843E+03  0.25500000920E-02 0. -1.
       -2    1    3    3    0  502 -0.29568187841E+03 -0.16600181443E+03 -0.11529235654E+04  0.12017558501E+04  0.25500000920E-02 0.  1.
</event>
<event>
 5   0  0.8908478E-04  0.1202177E+04  0.7818609E-02  0.9110953E-01
       -1   -1    0    0    0  501  0.00000000000E+00  0.00000000000E+00  0.19466387694E+03  0.19466387700E+03  0.50400001928E-02 0. -1.
        1   -1    0    0  501    0  0.00000000000E+00  0.00000000000E+00 -0.18560591431E+04  0.18560591431E+04  0.50400001928E-02 0.  1.
    10030    2    1    2    0    0  0.00000000000E+00  0.00000000000E+00 -0.16613952662E+04  0.20507230201E+04  0.12021774723E+04 0.  0.
        4    1    3    3  502    0 -0.37399719624E+03  0.27525119259E+03 -0.17963631640E+03  0.49790354577E+03  0.12699999809E+01 0. -1.
       -4    1    3    3    0  502  0.37399719624E+03 -0.27525119259E+03 -0.14817589498E+04  0.15528194744E+04  0.12699999809E+01 0.  1.
</event>
<event>
 5   0  0.9208078E-04  0.1203777E+04  0.7818609E-02  0.9109557E-01
       -1   -1    0    0    0  501  0.00000000000E+00  0.00000000000E+00  0.42572994164E+03  0.42572994167E+03  0.50400001928E-02 0. -1.
        1   -1    0    0  501    0  0.00000000000E+00  0.00000000000E+00 -0.85093776662E+03  0.85093776664E+03  0.50400001928E-02 0.  1.
    10030    2    1    2    0    0  0.00000000000E+00  0.00000000000E+00 -0.42520782498E+03  0.12766677083E+04  0.12037768660E+04 0.  0.
        3    1    3    3  502    0 -0.50338931321E+02 -0.42110178252E+01 -0.84868564960E+03  0.85018767499E+03  0.10100000352E+00 0.  1.
       -3    1    3    3    0  502  0.50338931321E+02  0.42110178252E+01  0.42347782461E+03  0.42648003332E+03  0.10100000352E+00 0. -1.
</event>
<event>
 5   0  0.8908478E-04  0.1199069E+04  0.7818609E-02  0.9113672E-01
       -1   -1    0    0    0  501  0.00000000000E+00  0.00000000000E+00  0.29842958840E+03  0.29842958844E+03  0.50400001928E-02 0.  1.
        1   -1    0    0  501    0  0.00000000000E+00  0.00000000000E+00 -0.12044433936E+04  0.12044433937E+04  0.50400001928E-02 0. -1.
    10030    2    1    2    0    0  0.00000000000E+00  0.00000000000E+00 -0.90601380525E+03  0.15028729821E+04  0.11990688825E+04 0.  0.
        4    1    3    3  502    0 -0.59229141843E+03  0.76329277912E+00 -0.56944342846E+03  0.82163077965E+03  0.12699999809E+01 0.  1.
       -4    1    3    3    0  502  0.59229141843E+03 -0.76329277912E+00 -0.33657037679E+03  0.68124220244E+03  0.12699999809E+01 0. -1.
</event>
<event>
 5   0  0.1537557E-03  0.1193309E+04  0.7818609E-02  0.9118733E-01
        2   -1    0    0  501    0  0.00000000000E+00  0.00000000000E+00  0.10502567374E+04  0.10502567374E+04  0.25500000920E-02 0.  1.
       -2   -1    0    0    0  501  0.00000000000E+00  0.00000000000E+00 -0.33896152450E+03  0.33896152451E+03  0.25500000920E-02 0. -1.
    10030    2    1    2    0    0  0.00000000000E+00  0.00000000000E+00  0.71129521293E+03  0.13892182619E+04  0.11933090544E+04 0.  0.
        2    1    3    3  502    0  0.44382031767E+03 -0.18340594548E+02  0.81939748287E+03  0.93205422950E+03  0.25500000920E-02 0.  1.
       -2    1    3    3    0  502 -0.44382031767E+03  0.18340594548E+02 -0.10810226994E+03  0.45716403244E+03  0.25500000920E-02 0. -1.
</event>
<event>
 5   0  0.1567019E-03  0.1187490E+04  0.7818609E-02  0.9123877E-01
        2   -1    0    0  501    0  0.00000000000E+00  0.00000000000E+00  0.11169458666E+04  0.11169458666E+04  0.25500000920E-02 0. -1.
       -2   -1    0    0    0  501  0.00000000000E+00  0.00000000000E+00 -0.31562262602E+03  0.31562262603E+03  0.25500000920E-02 0.  1.
    10030    2    1    2    0    0  0.00000000000E+00  0.00000000000E+00  0.80132324055E+03  0.14325684926E+04  0.11874904421E+04 0.  0.
        5    1    3    3  502    0  0.43848453635E+03 -0.38741687405E+03  0.52220599537E+03  0.78427145461E+03  0.46999998093E+01 0. -1.
       -5    1    3    3    0  502 -0.43848453635E+03  0.38741687405E+03  0.27911724518E+03  0.64829703800E+03  0.46999998093E+01 0.  1.
</event>
<event>
 5   0  0.1647550E-03  0.1196990E+04  0.7818609E-02  0.9115495E-01
        2   -1    0    0  501    0  0.00000000000E+00  0.00000000000E+00  0.94487397062E+03  0.94487397062E+03  0.25500000920E-02 0. -1.
       -2   -1    0    0    0  501  0.00000000000E+00  0.00000000000E+00 -0.37909421728E+03  0.37909421729E+03  0.25500000920E-02 0.  1.
    10030    2    1    2    0    0  0.00000000000E+00  0.00000000000E+00  0.56577975334E+03  0.13239681879E+04  0.11969899888E+04 0.  0.
        3    1    3    3  502    0  0.35447656880E+03 -0.17119878395E+03 -0.21574743535E+03  0.44889823738E+03  0.10100000352E+00 0.  1.
       -3    1    3    3    0  502 -0.35447656880E+03  0.17119878395E+03  0.78152718869E+03  0.87506995053E+03  0.10100000352E+00 0. -1.
</event>
<event>
 5   0  0.1567019E-03  0.1194125E+04  0.7818609E-02  0.9118014E-01
        2   -1    0    0  501    0  0.00000000000E+00  0.00000000000E+00  0.63949028550E+03  0.63949028550E+03  0.25500000920E-02 0.  1.
       -2   -1    0    0    0  501  0.00000000000E+00  0.00000000000E+00 -0.55744984440E+03  0.55744984441E+03  0.25500000920E-02 0. -1.
    10030    2    1    2    0    0  0.00000000000E+00  0.00000000000E+00  0.82040441095E+02  0.11969401299E+04  0.11941252198E+04 0.  0.
        5    1    3    3  502    0 -0.16378644051E+03  0.29554486292E+03 -0.45236861920E+03  0.56465230162E+03  0.46999998093E+01 0. -1.
       -5    1    3    3    0  502  0.16378644051E+03 -0.29554486292E+03  0.53440906029E+03  0.63228782830E+03  0.46999998093E+01 0.  1.
</event>
<event>
 5   0  0.8908478E-04  0.1195326E+04  0.7818609E-02  0.9116958E-01
        1   -1    0    0  501    0  0.00000000000E+00  0.00000000000E+00  0.53367369896E+03  0.53367369898E+03  0.50400001928E-02 0. -1.
       -1   -1    0    0    0  501  0.00000000000E+00  0.00000000000E+00 -0.66932465431E+03  0.66932465433E+03  0.50400001928E-02 0.  1.
    10030    2    1    2    0    0  0.00000000000E+00  0.00000000000E+00 -0.13565095535E+03  0.12029983533E+04  0.11953258369E+04 0.  0.
        4    1    3    3  502    0  0.31963146527E+03  0.13051420397E+03  0.42315952491E+03  0.54613535634E+03  0.12699999809E+01 0. -1.
       -4    1    3    3    0  502 -0.31963146527E+03 -0.13051420397E+03 -0.55881048026E+03  0.65686299696E+03  0.12699999809E+01 0.  1.
</event>
<event>
 5   0  0.9208078E-04  0.1197887E+04  0.7818609E-02  0.9114708E-01
       -1   -1    0    0    0  501  0.00000000000E+00  0.00000000000E+00  0.25413918403E+03  0.25413918408E+03  0.50400001928E-02 0. -1.
        1   -1    0    0  501    0  0.00000000000E+00  0.00000000000E+00 -0.14115634213E+04  0.14115634213E+04  0.50400001928E-02 0.  1.
    10030    2    1    2    0    0  0.00000000000E+00  0.00000000000E+00 -0.11574242372E+04  0.16657026054E+04  0.11978874340E+04 0.  0.
        3    1    3    3  502    0  0.24273113641E+03 -0.20574843242E+03 -0.12843071602E+04  0.13231385845E+04  0.10100000352E+00 0.  1.
       -3    1    3    3    0  502 -0.24273113641E+03  0.20574843242E+03  0.12688292293E+03  0.34256402082E+03  0.10100000352E+00 0. -1.
</event>
<event>
 5   0  0.9208078E-04  0.1201672E+04  0.7818609E-02  0.9111394E-01
       -1   -1    0    0    0  501  0.00000000000E+00  0.00000000000E+00  0.62418466315E+03  0.62418466317E+03  0.50400001928E-02 0. -1.
        1   -1    0    0  501    0  0.00000000000E+00  0.00000000000E+00 -0.57836115332E+03  0.57836115334E+03  0.50400001928E-02 0.  1.
    10030    2    1    2    0    0  0.00000000000E+00  0.00000000000E+00  0.45823509829E+02  0.12025458165E+04  0.12016724374E+04 0.  0.
        3    1    3    3  502    0 -0.19265922332E+03  0.28490811711E+03 -0.47010637722E+03  0.58248624673E+03  0.10100000352E+00 0.  1.
       -3    1    3    3    0  502  0.19265922332E+03 -0.28490811711E+03  0.51592988705E+03  0.62005956978E+03  0.10100000352E+00 0. -1.
</event>
<event>
 5   0  0.9170776E-04  0.1203166E+04  0.7818609E-02  0.9110090E-01
        1   -1    0    0  501    0  0.00000000000E+00  0.00000000000E+00  0.31174713204E+03  0.31174713208E+03  0.50400001928E-02 0.  1.
       -1   -1    0    0    0  501  0.00000000000E+00  0.00000000000E+00 -0.11608838519E+04  0.11608838519E+04  0.50400001928E-02 0. -1.
    10030    2    1    2    0    0  0.00000000000E+00  0.00000000000E+00 -0.84913671986E+03  0.14726309840E+04  0.12031661755E+04 0.  0.
        5    1    3    3  502    0  0.21310282797E+03  0.55323833714E+03 -0.29978024502E+03  0.66436116553E+03  0.46999998093E+01 0. -1.
       -5    1    3    3    0  502 -0.21310282797E+03 -0.55323833714E+03 -0.54935647484E+03  0.80826981845E+03  0.46999998093E+01 0.  1.
</event>
<event>
 5   0  0.1537557E-03  0.1203989E+04  0.7818609E-02  0.9109372E-01
       -2   -1    0    0    0  501  0.00000000000E+00  0.00000000000E+00  0.34212447995E+03  0.34212447996E+03  0.25500000920E-02 0.  1.
        2   -1    0    0  501    0  0.00000000000E+00  0.00000000000E+00 -0.10592558142E+04  0.10592558142E+04  0.25500000920E-02 0. -1.
    10030    2    1    2    0    0  0.00000000000E+00  0.00000000000E+00 -0.71713133428E+03  0.14013802942E+04  0.12039889444E+04 0.  0.
        2    1    3    3  502    0  0.38603278287E+03  0.45807607804E+03 -0.42784101940E+03  0.73614057122E+03  0.25500000920E-02 0. -1.
       -2    1    3    3    0  502 -0.38603278287E+03 -0.45807607804E+03 -0.28929031488E+03  0.66523972296E+03  0.25500000920E-02 0.  1.
</event>
<event>
 5   0  0.1647550E-03  0.1240750E+04  0.7818609E-02  0.9077917E-01
        2   -1    0    0  501    0  0.00000000000E+00  0.00000000000E+00  0.22644621589E+03  0.22644621590E+03  0.25500000920E-02 0. -1.
       -2   -1    0    0    0  501  0.00000000000E+00  0.00000000000E+00 -0.16995887060E+04  0.16995887060E+04  0.25500000920E-02 0.  1.
    10030    2    1    2    0    0  0.00000000000E+00  0.00000000000E+00 -0.14731424901E+04  0.19260349219E+04  0.12407504682E+04 0.  0.
        3    1    3    3  502    0 -0.18045738059E+03  0.29171574711E+03 -0.15389879288E+04  0.15767519775E+04  0.10100000352E+00 0.  1.
       -3    1    3    3    0  502  0.18045738059E+03 -0.29171574711E+03  0.65845438621E+02  0.34928294448E+03  0.10100000352E+00 0. -1.
</event>
<event>
 5   0  0.1647550E-03  0.1203407E+04  0.7818609E-02  0.9109879E-01
       -2   -1    0    0    0  501  0.00000000000E+00  0.00000000000E+00  0.51568562809E+03  0.51568562809E+03  0.25500000920E-02 0.  1.
        2   -1    0    0  501    0  0.00000000000E+00  0.00000000000E+00 -0.70206971378E+03  0.70206971379E+03  0.25500000920E-02 0. -1.
    10030    2    1    2    0    0  0.00000000000E+00  0.00000000000E+00 -0.18638408569E+03  0.12177553419E+04  0.12034072649E+04 0.  0.
        3    1    3    3  502    0  0.50178864626E+03  0.71646137286E+02  0.23489925433E+03  0.55866151147E+03  0.10100000352E+00 0.  1.
       -3    1    3    3    0  502 -0.50178864626E+03 -0.71646137286E+02 -0.42128334003E+03  0.65909383042E+03  0.10100000352E+00 0. -1.
</event>
<event>
 5   0  0.9358428E-04  0.1202773E+04  0.7818609E-02  0.9110433E-01
       -1   -1    0    0    0  501  0.00000000000E+00  0.00000000000E+00  0.10156533590E+04  0.10156533590E+04  0.50400001928E-02 0.  1.
        1   -1    0    0  501    0  0.00000000000E+00  0.00000000000E+00 -0.35609172720E+03  0.35609172724E+03  0.50400001928E-02 0. -1.
    10030    2    1    2    0    0  0.00000000000E+00  0.00000000000E+00  0.65956163180E+03  0.13717450863E+04  0.12027730607E+04 0.  0.
        2    1    3    3  502    0 -0.44175102780E+02  0.58704293466E+03  0.46990239216E+03  0.75324571356E+03  0.25500000920E-02 0. -1.
       -2    1    3    3    0  502  0.44175102780E+02 -0.58704293466E+03  0.18965923965E+03  0.61849937270E+03  0.25500000920E-02 0.  1.
</event>
<event>
 5   0  0.1551501E-03  0.1197104E+04  0.7818609E-02  0.9115395E-01
        2   -1    0    0  501    0  0.00000000000E+00  0.00000000000E+00  0.83259484010E+03  0.83259484010E+03  0.25500000920E-02 0.  1.
       -2   -1    0    0    0  501  0.00000000000E+00  0.00000000000E+00 -0.43029888800E+03  0.43029888801E+03  0.25500000920E-02 0. -1.
    10030    2    1    2    0    0  0.00000000000E+00  0.00000000000E+00  0.40229595210E+03  0.12628937281E+04  0.11971042291E+04 0.  0.
        4    1    3    3  502    0  0.23460518378E+03  0.15965190492E+03 -0.35482017252E+03  0.45434270186E+03  0.12699999809E+01 0. -1.
       -4    1    3    3    0  502 -0.23460518378E+03 -0.15965190492E+03  0.75711612462E+03  0.80855102626E+03  0.12699999809E+01 0.  1.
</event>
<event>
 5   0  0.1597352E-03  0.1163764E+04  0.7818609E-02  0.9145179E-01
       -2   -1    0    0    0  501  0.00000000000E+00  0.00000000000E+00  0.35928873006E+03  0.35928873007E+03  0.25500000920E-02 0. -1.
        2   -1    0    0  501    0  0.00000000000E+00  0.00000000000E+00 -0.94238016125E+03  0.94238016125E+03  0.25500000920E-02 0.  1.
    10030    2    1    2    0    0  0.00000000000E+00  0.00000000000E+00 -0.58309143119E+03  0.13016688913E+04  0.11637638444E+04 0.  0.
        1    1    3    3  502    0 -0.75131512360E+02 -0.28021320156E+03 -0.85572005400E+03  0.90356017693E+03  0.50400001928E-02 0.  1.
       -1    1    3    3    0  502  0.75131512360E+02  0.28021320156E+03  0.27262862281E+03  0.39810871440E+03  0.50400001928E-02 0. -1.
</event>
<event>
 5   0  0.1647550E-03  0.1181082E+04  0.7818609E-02  0.9129578E-01
       -2   -1    0    0    0  501  0.00000000000E+00  0.00000000000E+00  0.49532972021E+03  0.49532972022E+03  0.25500000920E-02 0. -1.
        2   -1    0    0  501    0  0.00000000000E+00  0.00000000000E+00 -0.70405392014E+03  0.70405392015E+03  0.25500000920E-02 0.  1.
    10030    2    1    2    0    0  0.00000000000E+00  0.00000000000E+00 -0.20872419993E+03  0.11993836404E+04  0.11810822686E+04 0.  0.
        3    1    3    3  502    0 -0.32135200300E+02  0.10640409680E+03  0.48461151812E+03  0.49719496840E+03  0.10100000352E+00 0. -1.
       -3    1    3    3    0  502  0.32135200300E+02 -0.10640409680E+03 -0.69333571805E+03  0.70218867197E+03  0.10100000352E+00 0.  1.
</event>
<event>
 5   0  0.6137750E-04  0.1184407E+04  0.7818609E-02  0.9126616E-01
        3   -1    0    0  501    0  0.00000000000E+00  0.00000000000E+00  0.14246410326E+04  0.14246410362E+04  0.10100000352E+00 0. -1.
       -3   -1    0    0    0  501  0.00000000000E+00  0.00000000000E+00 -0.24617079091E+03  0.24617081163E+03  0.10100000352E+00 0.  1.
    10030    2    1    2    0    0  0.00000000000E+00  0.00000000000E+00  0.11784702417E+04  0.16708118478E+04  0.11844070754E+04 0.  0.
        5    1    3    3  502    0 -0.26588282350E+03 -0.26789929378E+03 -0.54470014554E+02  0.38138272106E+03  0.46999998093E+01 0.  1.
       -5    1    3    3    0  502  0.26588282350E+03  0.26789929378E+03  0.12329402563E+04  0.12894291268E+04  0.46999998093E+01 0. -1.
</event>
<event>
 5   0  0.1647550E-03  0.1174266E+04  0.7818609E-02  0.9135684E-01
       -2   -1    0    0    0  501  0.00000000000E+00  0.00000000000E+00  0.52004291582E+03  0.52004291582E+03  0.25500000920E-02 0.  1.
        2   -1    0    0  501    0  0.00000000000E+00  0.00000000000E+00 -0.66287842904E+03  0.66287842904E+03  0.25500000920E-02 0. -1.
    10030    2    1    2    0    0  0.00000000000E+00  0.00000000000E+00 -0.14283551322E+03  0.11829213449E+04  0.11742661216E+04 0.  0.
        3    1    3    3  502    0  0.23448585450E+03 -0.25173990256E+02 -0.61306844306E+03  0.65686396752E+03  0.10100000352E+00 0. -1.
       -3    1    3    3    0  502 -0.23448585450E+03  0.25173990256E+02  0.47023292984E+03  0.52605737734E+03  0.10100000352E+00 0.  1.
</event>
<event>
 5   0  0.1567019E-03  0.1198131E+04  0.7818609E-02  0.9114494E-01
        2   -1    0    0  501    0  0.00000000000E+00  0.00000000000E+00  0.17918459604E+04  0.17918459604E+04  0.25500000920E-02 0. -1.
       -2   -1    0    0    0  501  0.00000000000E+00  0.00000000000E+00 -0.20028490616E+03  0.20028490618E+03  0.25500000920E-02 0.  1.
    10030    2    1    2    0    0  0.00000000000E+00  0.00000000000E+00  0.15915610543E+04  0.19921308666E+04  0.11981313785E+04 0.  0.
        5    1    3    3  502    0 -0.43624583636E+03  0.78311137367E+02  0.14658593360E+04  0.15314074398E+04  0.46999998093E+01 0. -1.
       -5    1    3    3    0  502  0.43624583636E+03 -0.78311137367E+02  0.12570171829E+03  0.46072342675E+03  0.46999998093E+01 0.  1.
</event>
<event>
 5   0  0.9208078E-04  0.1200166E+04  0.7818609E-02  0.9112711E-01
       -1   -1    0    0    0  501  0.00000000000E+00  0.00000000000E+00  0.53449243331E+03  0.53449243333E+03  0.50400001928E-02 0.  1.
        1   -1    0    0  501    0  0.00000000000E+00  0.00000000000E+00 -0.67372245758E+03  0.67372245760E+03  0.50400001928E-02 0. -1.
    10030    2    1    2    0    0  0.00000000000E+00  0.00000000000E+00 -0.13923002427E+03  0.12082148909E+04  0.12001659148E+04 0.  0.
        3    1    3    3  502    0 -0.12820690773E+03  0.40130926868E+03  0.36058381597E+03  0.55453299168E+03  0.10100000352E+00 0. -1.
       -3    1    3    3    0  502  0.12820690773E+03 -0.40130926868E+03 -0.49981384025E+03  0.65368189926E+03  0.10100000352E+00 0.  1.
</event>
<event>
 5   0  0.6137750E-04  0.1202423E+04  0.7818609E-02  0.9110738E-01
       -3   -1    0    0    0  501  0.00000000000E+00  0.00000000000E+00  0.10109412473E+04  0.10109412524E+04  0.10100000352E+00 0.  1.
        3   -1    0    0  501    0  0.00000000000E+00  0.00000000000E+00 -0.35754338222E+03  0.35754339649E+03  0.10100000352E+00 0. -1.
    10030    2    1    2    0    0  0.00000000000E+00  0.00000000000E+00  0.65339786510E+03  0.13684846488E+04  0.12024231635E+04 0.  0.
        3    1    3    3  502    0 -0.45925108848E+03  0.16445580628E+03  0.72665537920E+03  0.87520587567E+03  0.10100000352E+00 0.  1.
       -3    1    3    3    0  502  0.45925108848E+03 -0.16445580628E+03 -0.73257514104E+02  0.49327877317E+03  0.10100000352E+00 0. -1.
</event>
<event>
 5   0  0.9358428E-04  0.1207009E+04  0.7818609E-02  0.9106743E-01
        1   -1    0    0  501    0  0.00000000000E+00  0.00000000000E+00  0.27133352980E+03  0.27133352985E+03  0.50400001928E-02 0. -1.
       -1   -1    0    0    0  501  0.00000000000E+00  0.00000000000E+00 -0.13423252552E+04  0.13423252552E+04  0.50400001928E-02 0.  1.
    10030    2    1    2    0    0  0.00000000000E+00  0.00000000000E+00 -0.10709917254E+04  0.16136587850E+04  0.12070092786E+04 0.  0.
        2    1    3    3  502    0  0.23474387003E+03 -0.14048979518E+03  0.18367517537E+03  0.32951272679E+03  0.25500000920E-02 0. -1.
       -2    1    3    3    0  502 -0.23474387003E+03  0.14048979518E+03 -0.12546669007E+04  0.12841460582E+04  0.25500000920E-02 0.  1.
</event>
<event>
 5   0  0.8908478E-04  0.1054542E+04  0.7818609E-02  0.9250667E-01
        1   -1    0    0  501    0  0.00000000000E+00  0.00000000000E+00  0.13630366019E+04  0.13630366019E+04  0.50400001928E-02 0. -1.
       -1   -1    0    0    0  501  0.00000000000E+00  0.00000000000E+00 -0.20396712060E+03  0.20396712066E+03  0.50400001928E-02 0.  1.
    10030    2    1    2    0    0  0.00000000000E+00  0.00000000000E+00  0.11590694813E+04  0.15670037225E+04  0.10545418930E+04 0.  0.
        4    1    3    3  502    0  0.95618333725E+02  0.33061313388E+03  0.11731091697E+04  0.12225525130E+04  0.12699999809E+01 0. -1.
       -4    1    3    3    0  502 -0.95618333725E+02 -0.33061313388E+03 -0.14039688406E+02  0.34445120959E+03  0.12699999809E+01 0.  1.
</event>
<event>
 5   0  0.1647550E-03  0.1188359E+04  0.7818609E-02  0.9123107E-01
       -2   -1    0    0    0  501  0.00000000000E+00  0.00000000000E+00  0.25773856038E+03  0.25773856040E+03  0.25500000920E-02 0.  1.
        2   -1    0    0  501    0  0.00000000000E+00  0.00000000000E+00 -0.13697963155E+04  0.13697963155E+04  0.25500000920E-02 0. -1.
    10030    2    1    2    0    0  0.00000000000E+00  0.00000000000E+00 -0.11120577551E+04  0.16275348759E+04  0.11883590878E+04 0.  0.
        3    1    3    3  502    0  0.23015511636E+03  0.46084245700E+03 -0.15043836501E+03  0.53663661786E+03  0.10100000352E+00 0.  1.
       -3    1    3    3    0  502 -0.23015511636E+03 -0.46084245700E+03 -0.96161939012E+03  0.10908982580E+04  0.10100000352E+00 0. -1.
</event>
<event>
 5   0  0.1647550E-03  0.1200177E+04  0.7818609E-02  0.9112702E-01
        2   -1    0    0  501    0  0.00000000000E+00  0.00000000000E+00  0.46157220806E+03  0.46157220807E+03  0.25500000920E-02 0.  1.
       -2   -1    0    0    0  501  0.00000000000E+00  0.00000000000E+00 -0.78017311658E+03  0.78017311659E+03  0.25500000920E-02 0. -1.
    10030    2    1    2    0    0  0.00000000000E+00  0.00000000000E+00 -0.31860090852E+03  0.12417453247E+04  0.12001770338E+04 0.  0.
        3    1    3    3  502    0 -0.32675840682E+03 -0.34190424703E+03  0.22286615665E+03  0.52281823279E+03  0.10100000352E+00 0.  1.
       -3    1    3    3    0  502  0.32675840682E+03  0.34190424703E+03 -0.54146706516E+03  0.71892709187E+03  0.10100000352E+00 0. -1.
</event>
<event>
 5   0  0.1597352E-03  0.1191351E+04  0.7818609E-02  0.9120461E-01
        2   -1    0    0  501    0  0.00000000000E+00  0.00000000000E+00  0.91156061699E+03  0.91156061699E+03  0.25500000920E-02 0. -1.
       -2   -1    0    0    0  501  0.00000000000E+00  0.00000000000E+00 -0.38925485811E+03  0.38925485812E+03  0.25500000920E-02 0.  1.
    10030    2    1    2    0    0  0.00000000000E+00  0.00000000000E+00  0.52230575887E+03  0.13008154751E+04  0.11913511634E+04 0.  0.
        1    1    3    3  502    0 -0.32657716293E+03  0.36345362222E+03 -0.11085425678E+03  0.50103876609E+03  0.50400001928E-02 0.  1.
       -1    1    3    3    0  502  0.32657716293E+03 -0.36345362222E+03  0.63316001565E+03  0.79977670903E+03  0.50400001928E-02 0. -1.
</event>
<event>
 5   0  0.9169078E-04  0.1188372E+04  0.7818609E-02  0.9123095E-01
        1   -1    0    0  501    0  0.00000000000E+00  0.00000000000E+00  0.20984153798E+03  0.20984153804E+03  0.50400001928E-02 0. -1.
       -1   -1    0    0    0  501  0.00000000000E+00  0.00000000000E+00 -0.16824946252E+04  0.16824946252E+04  0.50400001928E-02 0.  1.
    10030    2    1    2    0    0  0.00000000000E+00  0.00000000000E+00 -0.14726530872E+04  0.18923361632E+04  0.11883724329E+04 0.  0.
        1    1    3    3  502    0 -0.27516501219E+03 -0.49027318334E+03 -0.43013579219E+03  0.70788443830E+03  0.50400001928E-02 0.  1.
       -1    1    3    3    0  502  0.27516501219E+03  0.49027318334E+03 -0.10425172950E+04  0.11844517249E+04  0.50400001928E-02 0. -1.
</event>
<event>
 5   0  0.1537557E-03  0.1202937E+04  0.7818609E-02  0.9110289E-01
        2   -1    0    0  501    0  0.00000000000E+00  0.00000000000E+00  0.16491883868E+04  0.16491883868E+04  0.25500000920E-02 0.  1.
       -2   -1    0    0    0  501  0.00000000000E+00  0.00000000000E+00 -0.21935910155E+03  0.21935910156E+03  0.25500000920E-02 0. -1.
    10030    2    1    2    0    0  0.00000000000E+00  0.00000000000E+00  0.14298292853E+04  0.18685474884E+04  0.12029372100E+04 0.  0.
        2    1    3    3  502    0 -0.78148643622E+02  0.35563632202E+03  0.14585321618E+04  0.15032965347E+04  0.25500000920E-02 0.  1.
       -2    1    3    3    0  502  0.78148643622E+02 -0.35563632202E+03 -0.28702876580E+02  0.36525095369E+03  0.25500000920E-02 0. -1.
</event>
<event>
 5   0  0.1647550E-03  0.1205189E+04  0.7818609E-02  0.9108327E-01
       -2   -1    0    0    0  501  0.00000000000E+00  0.00000000000E+00  0.57342838050E+03  0.57342838051E+03  0.25500000920E-02 0. -1.
        2   -1    0    0  501    0  0.00000000000E+00  0.00000000000E+00 -0.63324390578E+03  0.63324390579E+03  0.25500000920E-02 0.  1.
    10030    2    1    2    0    0  0.00000000000E+00  0.00000000000E+00 -0.59815525280E+02  0.12066722863E+04  0.12051888273E+04 0.  0.
        3    1    3    3  502    0 -0.50200377784E+03  0.32645267418E+03 -0.97376727787E+02  0.60668062336E+03  0.10100000352E+00 0.  1.
       -3    1    3    3    0  502  0.50200377784E+03 -0.32645267418E+03  0.37561202507E+02  0.59999166293E+03  0.10100000352E+00 0. -1.
</event>
<event>
 5   0  0.9169078E-04  0.1196798E+04  0.7818609E-02  0.9115664E-01
        1   -1    0    0  501    0  0.00000000000E+00  0.00000000000E+00  0.11954171480E+04  0.11954171480E+04  0.50400001928E-02 0. -1.
       -1   -1    0    0    0  501  0.00000000000E+00  0.00000000000E+00 -0.29954498413E+03  0.29954498417E+03  0.50400001928E-02 0.  1.
    10030    2    1    2    0    0  0.00000000000E+00  0.00000000000E+00  0.89587216386E+03  0.14949621322E+04  0.11967977451E+04 0.  0.
        1    1    3    3  502    0  0.27314070678E+03 -0.33222598444E+03  0.96764425240E+03  0.10589217864E+04  0.50400001928E-02 0. -1.
       -1    1    3    3    0  502 -0.27314070678E+03  0.33222598444E+03 -0.71772088541E+02  0.43604034579E+03  0.50400001928E-02 0.  1.
</event>
<event>
 5   0  0.1551501E-03  0.1210032E+04  0.7818609E-02  0.9104120E-01
        2   -1    0    0  501    0  0.00000000000E+00  0.00000000000E+00  0.10600620426E+04  0.10600620426E+04  0.25500000920E-02 0. -1.
       -2   -1    0    0    0  501  0.00000000000E+00  0.00000000000E+00 -0.34530480436E+03  0.34530480437E+03  0.25500000920E-02 0.  1.
    10030    2    1    2    0    0  0.00000000000E+00  0.00000000000E+00  0.71475723824E+03  0.14053668470E+04  0.12100322578E+04 0.  0.
        4    1    3    3  502    0 -0.12445168065E+03 -0.43572498249E+03 -0.10820593313E+03  0.46589120838E+03  0.12699999809E+01 0.  1.
       -4    1    3    3    0  502  0.12445168065E+03  0.43572498249E+03  0.82296317137E+03  0.93947563859E+03  0.12699999809E+01 0. -1.
</event>
<event>
 5   0  0.9170776E-04  0.1204915E+04  0.7818609E-02  0.9108565E-01
       -1   -1    0    0    0  501  0.00000000000E+00  0.00000000000E+00  0.52861474468E+03  0.52861474470E+03  0.50400001928E-02 0. -1.
        1   -1    0    0  501    0  0.00000000000E+00  0.00000000000E+00 -0.68661593566E+03  0.68661593568E+03  0.50400001928E-02 0.  1.
    10030    2    1    2    0    0  0.00000000000E+00  0.00000000000E+00 -0.15800119099E+03  0.12152306804E+04  0.12049154452E+04 0.  0.
        5    1    3    3  502    0  0.90124677220E+02 -0.59455562273E+03 -0.11556522987E+03  0.61236938062E+03  0.46999998093E+01 0.  1.
       -5    1    3    3    0  502 -0.90124677220E+02  0.59455562273E+03 -0.42435961116E+02  0.60286129977E+03  0.46999998093E+01 0. -1.
</event>
<event>
 5   0  0.1567019E-03  0.1216418E+04  0.7818609E-02  0.9098606E-01
       -2   -1    0    0    0  501  0.00000000000E+00  0.00000000000E+00  0.29261834819E+03  0.29261834820E+03  0.25500000920E-02 0.  1.
        2   -1    0    0  501    0  0.00000000000E+00  0.00000000000E+00 -0.12641659467E+04  0.12641659467E+04  0.25500000920E-02 0. -1.
    10030    2    1    2    0    0  0.00000000000E+00  0.00000000000E+00 -0.97154759850E+03  0.15567842949E+04  0.12164179400E+04 0.  0.
        5    1    3    3  502    0 -0.27272108263E+03 -0.37302046155E+03 -0.99186559490E+03  0.10942305525E+04  0.46999998093E+01 0. -1.
       -5    1    3    3    0  502  0.27272108263E+03  0.37302046155E+03  0.20317996398E+02  0.46255374241E+03  0.46999998093E+01 0.  1.
</event>
<event>
 5   0  0.1551501E-03  0.1199854E+04  0.7818609E-02  0.9112985E-01
       -2   -1    0    0    0  501  0.00000000000E+00  0.00000000000E+00  0.30485583217E+03  0.30485583218E+03  0.25500000920E-02 0. -1.
        2   -1    0    0  501    0  0.00000000000E+00  0.00000000000E+00 -0.11805979915E+04  0.11805979915E+04  0.25500000920E-02 0.  1.
    10030    2    1    2    0    0  0.00000000000E+00  0.00000000000E+00 -0.87574215932E+03  0.14854538237E+04  0.11998536297E+04 0.  0.
        4    1    3    3  502    0 -0.35721624425E+03  0.19503337252E+03 -0.98354445017E+03  0.10644260237E+04  0.12699999809E+01 0. -1.
       -4    1    3    3    0  502  0.35721624425E+03 -0.19503337252E+03  0.10780229086E+03  0.42102779999E+03  0.12699999809E+01 0.  1.
</event>
<event>
 5   0  0.1647550E-03  0.1209104E+04  0.7818609E-02  0.9104925E-01
       -2   -1    0    0    0  501  0.00000000000E+00  0.00000000000E+00  0.36497862933E+03  0.36497862934E+03  0.25500000920E-02 0.  1.
        2   -1    0    0  501    0  0.00000000000E+00  0.00000000000E+00 -0.10013824988E+04  0.10013824988E+04  0.25500000920E-02 0. -1.
    10030    2    1    2    0    0  0.00000000000E+00  0.00000000000E+00 -0.63640386942E+03  0.13663611281E+04  0.12091041507E+04 0.  0.
        3    1    3    3  502    0  0.11094888526E+03 -0.54425503074E+03 -0.58790557416E+03  0.80879921362E+03  0.10100000352E+00 0. -1.
       -3    1    3    3    0  502 -0.11094888526E+03  0.54425503074E+03 -0.48498295267E+02  0.55756191447E+03  0.10100000352E+00 0.  1.
</event>
<event>
 5   0  0.1647550E-03  0.1200633E+04  0.7818609E-02  0.9112302E-01
        2   -1    0    0  501    0  0.00000000000E+00  0.00000000000E+00  0.11569946948E+04  0.11569946948E+04  0.25500000920E-02 0. -1.
       -2   -1    0    0    0  501  0.00000000000E+00  0.00000000000E+00 -0.31147940867E+03  0.31147940868E+03  0.25500000920E-02 0.  1.
    10030    2    1    2    0    0  0.00000000000E+00  0.00000000000E+00  0.84551528616E+03  0.14684741035E+04  0.12006332053E+04 0.  0.
        3    1    3    3  502    0 -0.33814506021E+03 -0.34051394762E+03  0.86389604510E+03  0.98823489981E+03  0.10100000352E+00 0.  1.
       -3    1    3    3    0  502  0.33814506021E+03  0.34051394762E+03 -0.18380758937E+02  0.48023920370E+03  0.10100000352E+00 0. -1.
</event>
<event>
 5   0  0.1537557E-03  0.1193235E+04  0.7818609E-02  0.9118799E-01
        2   -1    0    0  501    0  0.00000000000E+00  0.00000000000E+00  0.12943361803E+04  0.12943361803E+04  0.25500000920E-02 0.  1.
       -2   -1    0    0    0  501  0.00000000000E+00  0.00000000000E+00 -0.27500760064E+03  0.27500760065E+03  0.25500000920E-02 0. -1.
    10030    2    1    2    0    0  0.00000000000E+00  0.00000000000E+00  0.10193285796E+04  0.15693437809E+04  0.11932347420E+04 0.  0.
        2    1    3    3  502    0 -0.34989812996E+03 -0.38952824369E+03  0.88580110681E+03  0.10289822908E+04  0.25500000920E-02 0.  1.
       -2    1    3    3    0  502  0.34989812996E+03  0.38952824369E+03  0.13352747281E+03  0.54036149010E+03  0.25500000920E-02 0. -1.
</event>
<event>
 5   0  0.1647550E-03  0.1204201E+04  0.7818609E-02  0.9109187E-01
        2   -1    0    0  501    0  0.00000000000E+00  0.00000000000E+00  0.55742697869E+03  0.55742697869E+03  0.25500000920E-02 0. -1.
       -2   -1    0    0    0  501  0.00000000000E+00  0.00000000000E+00 -0.65035441383E+03  0.65035441384E+03  0.25500000920E-02 0.  1.
    10030    2    1    2    0    0  0.00000000000E+00  0.00000000000E+00 -0.92927435143E+02  0.12077813925E+04  0.12042011393E+04 0.  0.
        3    1    3    3  502    0 -0.99327453189E+02 -0.59371047658E+03 -0.33501950392E+02  0.60289341001E+03  0.10100000352E+00 0. -1.
       -3    1    3    3    0  502  0.99327453189E+02  0.59371047658E+03 -0.59425484751E+02  0.60488798252E+03  0.10100000352E+00 0.  1.
</event>
<event>
 5   0  0.6137750E-04  0.1201387E+04  0.7818609E-02  0.9111644E-01
       -3   -1    0    0    0  501  0.00000000000E+00  0.00000000000E+00  0.49503558152E+03  0.49503559182E+03  0.10100000352E+00 0.  1.
        3   -1    0    0  501    0  0.00000000000E+00  0.00000000000E+00 -0.72890193110E+03  0.72890193810E+03  0.10100000352E+00 0. -1.
    10030    2    1    2    0    0  0.00000000000E+00  0.00000000000E+00 -0.23386634958E+03  0.12239375299E+04  0.12013865355E+04 0.  0.
        3    1    3    3  502    0 -0.38362542663E+02  0.21940817871E+03 -0.68527650769E+03  0.72056612171E+03  0.10100000352E+00 0. -1.
       -3    1    3    3    0  502  0.38362542663E+02 -0.21940817871E+03  0.45141015810E+03  0.50337140821E+03  0.10100000352E+00 0.  1.
</event>
<event>
 5   0  0.9170776E-04  0.1200520E+04  0.7818609E-02  0.9112402E-01
       -1   -1    0    0    0  501  0.00000000000E+00  0.00000000000E+00  0.95764168246E+03  0.95764168248E+03  0.50400001928E-02 0.  1.
        1   -1    0    0  501    0  0.00000000000E+00  0.00000000000E+00 -0.37624913433E+03  0.37624913437E+03  0.50400001928E-02 0. -1.
    10030    2    1    2    0    0  0.00000000000E+00  0.00000000000E+00  0.58139254813E+03  0.13338908168E+04  0.12005196443E+04 0.  0.
        5    1    3    3  502    0 -0.10485995248E+03  0.38187668455E+02 -0.36460073578E+03  0.38132623065E+03  0.46999998093E+01 0. -1.
       -5    1    3    3    0  502  0.10485995248E+03 -0.38187668455E+02  0.94599328391E+03  0.95256458619E+03  0.46999998093E+01 0.  1.
</event>
<event>
 5   0  0.1597352E-03  0.1197101E+04  0.7818609E-02  0.9115398E-01
        2   -1    0    0  501    0  0.00000000000E+00  0.00000000000E+00  0.10445735622E+04  0.10445735622E+04  0.25500000920E-02 0.  1.
       -2   -1    0    0    0  501  0.00000000000E+00  0.00000000000E+00 -0.34297514456E+03  0.34297514457E+03  0.25500000920E-02 0. -1.
    10030    2    1    2    0    0  0.00000000000E+00  0.00000000000E+00  0.70159841766E+03  0.13875487068E+04  0.11971011127E+04 0.  0.
        1    1    3    3  502    0  0.42028133871E+03 -0.39946656383E+03  0.17867198690E+03  0.60674015708E+03  0.50400001928E-02 0. -1.
       -1    1    3    3    0  502 -0.42028133871E+03  0.39946656383E+03  0.52292643076E+03  0.78080854971E+03  0.50400001928E-02 0.  1.
</event>
<event>
 5   0  0.9169078E-04  0.1212965E+04  0.7818609E-02  0.9101584E-01
        1   -1    0    0  501    0  0.00000000000E+00  0.00000000000E+00  0.56380797971E+03  0.56380797973E+03  0.50400001928E-02 0.  1.
       -1   -1    0    0    0  501  0.00000000000E+00  0.00000000000E+00 -0.65238656424E+03  0.65238656426E+03  0.50400001928E-02 0. -1.
    10030    2    1    2    0    0  0.00000000000E+00  0.00000000000E+00 -0.88578584528E+02  0.12161945440E+04  0.12129645515E+04 0.  0.
        1    1    3    3  502    0  0.14610415078E+02  0.60531004995E+03 -0.94544402642E+01  0.60556015990E+03  0.50400001928E-02 0.  1.
       -1    1    3    3    0  502 -0.14610415078E+02 -0.60531004995E+03 -0.79124144264E+02  0.61063438409E+03  0.50400001928E-02 0. -1.
</event>
<event>
 5   0  0.1551501E-03  0.1211692E+04  0.7818609E-02  0.9102683E-01
       -2   -1    0    0    0  501  0.00000000000E+00  0.00000000000E+00  0.28003692082E+03  0.28003692083E+03  0.25500000920E-02 0. -1.
        2   -1    0    0  501    0  0.00000000000E+00  0.00000000000E+00 -0.13107187856E+04  0.13107187856E+04  0.25500000920E-02 0.  1.
    10030    2    1    2    0    0  0.00000000000E+00  0.00000000000E+00 -0.10306818648E+04  0.15907557064E+04  0.12116924573E+04 0.  0.
        4    1    3    3  502    0  0.72965638492E+02 -0.41115593088E+03 -0.10916077420E+04  0.11687524371E+04  0.12699999809E+01 0.  1.
       -4    1    3    3    0  502 -0.72965638492E+02  0.41115593088E+03  0.60925877246E+02  0.42200326932E+03  0.12699999809E+01 0. -1.
</event>
<event>
 5   0  0.1551501E-03  0.1161872E+04  0.7818609E-02  0.9146900E-01
        2   -1    0    0  501    0  0.00000000000E+00  0.00000000000E+00  0.16915344258E+04  0.16915344258E+04  0.25500000920E-02 0. -1.
       -2   -1    0    0    0  501  0.00000000000E+00  0.00000000000E+00 -0.19951523903E+03  0.19951523905E+03  0.25500000920E-02 0.  1.
    10030    2    1    2    0    0  0.00000000000E+00  0.00000000000E+00  0.14920191867E+04  0.18910496648E+04  0.11618724462E+04 0.  0.
        4    1    3    3  502    0 -0.21430370937E+03 -0.38820507230E+03  0.13568562422E+04  0.14274767013E+04  0.12699999809E+01 0. -1.
       -4    1    3    3    0  502  0.21430370937E+03  0.38820507230E+03  0.13516294457E+03  0.46357296351E+03  0.12699999809E+01 0.  1.
</event>
<event>
 5   0  0.6137750E-04  0.1219268E+04  0.7818609E-02  0.9096157E-01
        3   -1    0    0  501    0  0.00000000000E+00  0.00000000000E+00  0.66843090246E+03  0.66843091009E+03  0.10100000352E+00 0. -1.
       -3   -1    0    0    0  501  0.00000000000E+00  0.00000000000E+00 -0.55600887275E+03  0.55600888193E+03  0.10100000352E+00 0.  1.
    10030    2    1    2    0    0  0.00000000000E+00  0.00000000000E+00  0.11242202970E+03  0.12244397920E+04  0.12192678506E+04 0.  0.
        2    1    3    3  502    0  0.11388152822E+03  0.59875928742E+03  0.43046782193E+02  0.61101122102E+03  0.25500000920E-02 0. -1.
       -2    1    3    3    0  502 -0.11388152822E+03 -0.59875928742E+03  0.69375247511E+02  0.61342857100E+03  0.25500000920E-02 0.  1.
</event>
<event>
 5   0  0.1551501E-03  0.1196325E+04  0.7818609E-02  0.9116079E-01
        2   -1    0    0  501    0  0.00000000000E+00  0.00000000000E+00  0.79735255797E+03  0.79735255798E+03  0.25500000920E-02 0. -1.
       -2   -1    0    0    0  501  0.00000000000E+00  0.00000000000E+00 -0.44873304058E+03  0.44873304059E+03  0.25500000920E-02 0.  1.
    10030    2    1    2    0    0  0.00000000000E+00  0.00000000000E+00  0.34861951739E+03  0.12460855986E+04  0.11963251026E+04 0.  0.
        4    1    3    3  502    0  0.42770540938E+03  0.40882024101E+03  0.82726899095E+02  0.59742050467E+03  0.12699999809E+01 0. -1.
       -4    1    3    3    0  502 -0.42770540938E+03 -0.40882024101E+03  0.26589261830E+03  0.64866509389E+03  0.12699999809E+01 0.  1.
</event>
<event>
 5   0  0.1597352E-03  0.1204854E+04  0.7818609E-02  0.9108619E-01
       -2   -1    0    0    0  501  0.00000000000E+00  0.00000000000E+00  0.17232642178E+03  0.17232642179E+03  0.25500000920E-02 0. -1.
        2   -1    0    0  501    0  0.00000000000E+00  0.00000000000E+00 -0.21059916803E+04  0.21059916803E+04  0.25500000920E-02 0.  1.
    10030    2    1    2    0    0  0.00000000000E+00  0.00000000000E+00 -0.19336652586E+04  0.22783181021E+04  0.12048535356E+04 0.  0.
        1    1    3    3  502    0  0.30680238102E+03  0.35355330384E+02 -0.19449133929E+04  0.19692805301E+04  0.50400001928E-02 0.  1.
       -1    1    3    3    0  502 -0.30680238102E+03 -0.35355330384E+02  0.11248134306E+02  0.30903757205E+03  0.50400001928E-02 0. -1.
</event>
<event>
 5   0  0.8908478E-04  0.1205689E+04  0.7818609E-02  0.9107892E-01
        1   -1    0    0  501    0  0.00000000000E+00  0.00000000000E+00  0.14273908258E+04  0.14273908258E+04  0.50400001928E-02 0. -1.
       -1   -1    0    0    0  501  0.00000000000E+00  0.00000000000E+00 -0.25460527589E+03  0.25460527594E+03  0.50400001928E-02 0.  1.
    10030    2    1    2    0    0  0.00000000000E+00  0.00000000000E+00  0.11727855499E+04  0.16819961017E+04  0.12056885751E+04 0.  0.
        4    1    3    3  502    0  0.23934936917E+03  0.33147604621E+03  0.12044096743E+04  0.12719153927E+04  0.12699999809E+01 0. -1.
       -4    1    3    3    0  502 -0.23934936917E+03 -0.33147604621E+03 -0.31624124450E+02  0.41008070898E+03  0.12699999809E+01 0.  1.
</event>
<event>
 5   0  0.6137750E-04  0.1205044E+04  0.7818609E-02  0.9108453E-01
        3   -1    0    0  501    0  0.00000000000E+00  0.00000000000E+00  0.68097735935E+03  0.68097736684E+03  0.10100000352E+00 0. -1.
       -3   -1    0    0    0  501  0.00000000000E+00  0.00000000000E+00 -0.53310504256E+03  0.53310505213E+03  0.10100000352E+00 0.  1.
    10030    2    1    2    0    0  0.00000000000E+00  0.00000000000E+00  0.14787231679E+03  0.12140824190E+04  0.12050435254E+04 0.  0.
        4    1    3    3  502    0  0.14948954787E+03  0.65719649390E+02  0.65825598099E+03  0.67820995764E+03  0.12699999809E+01 0. -1.
       -4    1    3    3    0  502 -0.14948954787E+03 -0.65719649390E+02 -0.51038366420E+03  0.53587246134E+03  0.12699999809E+01 0.  1.
</event>
<event>
 5   0  0.9208078E-04  0.1231941E+04  0.7818609E-02  0.9085349E-01
       -1   -1    0    0    0  501  0.00000000000E+00  0.00000000000E+00  0.40984557868E+03  0.40984557871E+03  0.50400001928E-02 0. -1.
        1   -1    0    0  501    0  0.00000000000E+00  0.00000000000E+00 -0.92576272546E+03  0.92576272548E+03  0.50400001928E-02 0.  1.
    10030    2    1    2    0    0  0.00000000000E+00  0.00000000000E+00 -0.51591714678E+03  0.13356083042E+04  0.12319411674E+04 0.  0.
        3    1    3    3  502    0  0.43189157235E+03  0.14322920062E+03  0.19215908382E+03  0.49393325245E+03  0.10100000352E+00 0. -1.
       -3    1    3    3    0  502 -0.43189157235E+03 -0.14322920062E+03 -0.70807623060E+03  0.84167505174E+03  0.10100000352E+00 0.  1.
</event>
<event>
 5   0  0.1551501E-03  0.1174516E+04  0.7818609E-02  0.9135459E-01
       -2   -1    0    0    0  501  0.00000000000E+00  0.00000000000E+00  0.28778907336E+03  0.28778907337E+03  0.25500000920E-02 0. -1.
        2   -1    0    0  501    0  0.00000000000E+00  0.00000000000E+00 -0.11983505361E+04  0.11983505361E+04  0.25500000920E-02 0.  1.
    10030    2    1    2    0    0  0.00000000000E+00  0.00000000000E+00 -0.91056146274E+03  0.14861396095E+04  0.11745163947E+04 0.  0.
        4    1    3    3  502    0 -0.25911317453E+03  0.13611539546E+03  0.18891966809E+03  0.34836660573E+03  0.12699999809E+01 0. -1.
       -4    1    3    3    0  502  0.25911317453E+03 -0.13611539546E+03 -0.10994811308E+04  0.11377730037E+04  0.12699999809E+01 0.  1.
</event>
<event>
 5   0  0.1597352E-03  0.1200417E+04  0.7818609E-02  0.9112491E-01
        2   -1    0    0  501    0  0.00000000000E+00  0.00000000000E+00  0.68537751918E+03  0.68537751918E+03  0.25500000920E-02 0.  1.
       -2   -1    0    0    0  501  0.00000000000E+00  0.00000000000E+00 -0.52562325776E+03  0.52562325777E+03  0.25500000920E-02 0. -1.
    10030    2    1    2    0    0  0.00000000000E+00  0.00000000000E+00  0.15975426141E+03  0.12110007770E+04  0.12004172015E+04 0.  0.
        1    1    3    3  502    0  0.68609603029E+02 -0.56617036091E+03  0.26859381766E+03  0.63039574405E+03  0.50400001928E-02 0.  1.
       -1    1    3    3    0  502 -0.68609603029E+02  0.56617036091E+03 -0.10883955625E+03  0.58060503290E+03  0.50400001928E-02 0. -1.
</event>
<event>
 5   0  0.1537557E-03  0.1216967E+04  0.7818609E-02  0.9098134E-01
       -2   -1    0    0    0  501  0.00000000000E+00  0.00000000000E+00  0.22607445896E+03  0.22607445897E+03  0.25500000920E-02 0.  1.
        2   -1    0    0  501    0  0.00000000000E+00  0.00000000000E+00 -0.16377432914E+04  0.16377432914E+04  0.25500000920E-02 0. -1.
    10030    2    1    2    0    0  0.00000000000E+00  0.00000000000E+00 -0.14116688325E+04  0.18638177504E+04  0.12169666036E+04 0.  0.
        2    1    3    3  502    0  0.37023734344E+02 -0.22192634668E+02  0.22372661449E+03  0.22785273309E+03  0.25500000920E-02 0.  1.
       -2    1    3    3    0  502 -0.37023734344E+02  0.22192634668E+02 -0.16353954470E+04  0.16359650173E+04  0.25500000920E-02 0. -1.
</event>
<event>
 5   0  0.1567019E-03  0.1205621E+04  0.7818609E-02  0.9107951E-01
        2   -1    0    0  501    0  0.00000000000E+00  0.00000000000E+00  0.11302208910E+04  0.11302208910E+04  0.25500000920E-02 0.  1.
       -2   -1    0    0    0  501  0.00000000000E+00  0.00000000000E+00 -0.32151279030E+03  0.32151279031E+03  0.25500000920E-02 0. -1.
    10030    2    1    2    0    0  0.00000000000E+00  0.00000000000E+00  0.80870810073E+03  0.14517336813E+04  0.12056209559E+04 0.  0.
        5    1    3    3  502    0 -0.45989255033E+03 -0.38127403721E+03  0.50134009801E+03  0.77989424486E+03  0.46999998093E+01 0. -1.
       -5    1    3    3    0  502  0.45989255033E+03  0.38127403721E+03  0.30736800272E+03  0.67183943647E+03  0.46999998093E+01 0.  1.
</event>
<event>
 5   0  0.1537557E-03  0.1187037E+04  0.7818609E-02  0.9124279E-01
        2   -1    0    0  501    0  0.00000000000E+00  0.00000000000E+00  0.65465972427E+03  0.65465972427E+03  0.25500000920E-02 0.  1.
       -2   -1    0    0    0  501  0.00000000000E+00  0.00000000000E+00 -0.53808739670E+03  0.53808739671E+03  0.25500000920E-02 0. -1.
    10030    2    1    2    0    0  0.00000000000E+00  0.00000000000E+00  0.11657232756E+03  0.11927471210E+04  0.11870368937E+04 0.  0.
        2    1    3    3  502    0 -0.12765935130E+03  0.10090197287E+03  0.63180856740E+03  0.65242638202E+03  0.25500000920E-02 0.  1.
       -2    1    3    3    0  502  0.12765935130E+03 -0.10090197287E+03 -0.51523623984E+03  0.54032073896E+03  0.25500000920E-02 0. -1.
</event>
<event>
 5   0  0.9208078E-04  0.1197367E+04  0.7818609E-02  0.9115164E-01
       -1   -1    0    0    0  501  0.00000000000E+00  0.00000000000E+00  0.34546111723E+03  0.34546111727E+03  0.50400001928E-02 0. -1.
        1   -1    0    0  501    0  0.00000000000E+00  0.00000000000E+00 -0.10375181423E+04  0.10375181423E+04  0.50400001928E-02 0.  1.
    10030    2    1    2    0    0  0.00000000000E+00  0.00000000000E+00 -0.69205702503E+03  0.13829792595E+04  0.11973674066E+04 0.  0.
        3    1    3    3  502    0  0.38762471096E+02  0.96591663456E+02  0.33493160468E+03  0.35073019349E+03  0.10100000352E+00 0. -1.
       -3    1    3    3    0  502 -0.38762471096E+02 -0.96591663456E+02 -0.10269886297E+04  0.10322490661E+04  0.10100000352E+00 0.  1.
</event>
<event>
 5   0  0.1597352E-03  0.1203983E+04  0.7818609E-02  0.9109377E-01
       -2   -1    0    0    0  501  0.00000000000E+00  0.00000000000E+00  0.23648342108E+03  0.23648342110E+03  0.25500000920E-02 0.  1.
        2   -1    0    0  501    0  0.00000000000E+00  0.00000000000E+00 -0.15324278961E+04  0.15324278961E+04  0.25500000920E-02 0. -1.
    10030    2    1    2    0    0  0.00000000000E+00  0.00000000000E+00 -0.12959444750E+04  0.17689113172E+04  0.12039830422E+04 0.  0.
        1    1    3    3  502    0  0.50100134767E+03  0.22915098927E+03 -0.29146015176E+03  0.62326683397E+03  0.50400001928E-02 0.  1.
       -1    1    3    3    0  502 -0.50100134767E+03 -0.22915098927E+03 -0.10044843233E+04  0.11456444832E+04  0.50400001928E-02 0. -1.
</event>
<event>
 5   0  0.9358428E-04  0.1193080E+04  0.7818609E-02  0.9118935E-01
       -1   -1    0    0    0  501  0.00000000000E+00  0.00000000000E+00  0.67649626420E+03  0.67649626422E+03  0.50400001928E-02 0.  1.
        1   -1    0    0  501    0  0.00000000000E+00  0.00000000000E+00 -0.52603425271E+03  0.52603425274E+03  0.50400001928E-02 0. -1.
    10030    2    1    2    0    0  0.00000000000E+00  0.00000000000E+00  0.15046201149E+03  0.12025305170E+04  0.11930803943E+04 0.  0.
        2    1    3    3  502    0  0.51981952183E+03 -0.27867746552E+03 -0.14845435239E+02  0.58999478982E+03  0.25500000920E-02 0.  1.
       -2    1    3    3    0  502 -0.51981952183E+03  0.27867746552E+03  0.16530744673E+03  0.61253572714E+03  0.25500000920E-02 0. -1.
</event>
<event>
 5   0  0.8908478E-04  0.1193522E+04  0.7818609E-02  0.9118546E-01
        1   -1    0    0  501    0  0.00000000000E+00  0.00000000000E+00  0.11928464117E+04  0.11928464117E+04  0.50400001928E-02 0.  1.
       -1   -1    0    0    0  501  0.00000000000E+00  0.00000000000E+00 -0.29854957428E+03  0.29854957432E+03  0.50400001928E-02 0. -1.
    10030    2    1    2    0    0  0.00000000000E+00  0.00000000000E+00  0.89429683745E+03  0.14913959861E+04  0.11935221631E+04 0.  0.
        4    1    3    3  502    0  0.50004865304E+02 -0.45433812724E+03 -0.32269492484E+02  0.45822107488E+03  0.12699999809E+01 0. -1.
       -4    1    3    3    0  502 -0.50004865304E+02  0.45433812724E+03  0.92656632993E+03  0.10331749112E+04  0.12699999809E+01 0.  1.
</event>
<event>
 5   0  0.1647550E-03  0.1176293E+04  0.7818609E-02  0.9133864E-01
       -2   -1    0    0    0  501  0.00000000000E+00  0.00000000000E+00  0.20749486029E+03  0.20749486030E+03  0.25500000920E-02 0. -1.
        2   -1    0    0  501    0  0.00000000000E+00  0.00000000000E+00 -0.16671081842E+04  0.16671081842E+04  0.25500000920E-02 0.  1.
    10030    2    1    2    0    0  0.00000000000E+00  0.00000000000E+00 -0.14596133239E+04  0.18746030445E+04  0.11762931264E+04 0.  0.
        3    1    3    3  502    0  0.99448808186E+02  0.25326883578E+03  0.10115951817E+03  0.29029024603E+03  0.10100000352E+00 0. -1.
       -3    1    3    3    0  502 -0.99448808186E+02 -0.25326883578E+03 -0.15607728421E+04  0.15843127985E+04  0.10100000352E+00 0.  1.
</event>
<event>
 5   0  0.1567019E-03  0.1196350E+04  0.7818609E-02  0.9116058E-01
        2   -1    0    0  501    0  0.00000000000E+00  0.00000000000E+00  0.46765907293E+03  0.46765907294E+03  0.25500000920E-02 0.  1.
       -2   -1    0    0    0  501  0.00000000000E+00  0.00000000000E+00 -0.76511546621E+03  0.76511546621E+03  0.25500000920E-02 0. -1.
    10030    2    1    2    0    0  0.00000000000E+00  0.00000000000E+00 -0.29745639328E+03  0.12327745391E+04  0.11963497643E+04 0.  0.
        5    1    3    3  502    0  0.11197082648E+03 -0.55198558390E+03 -0.35626932127E+03  0.66646490537E+03  0.46999998093E+01 0. -1.
       -5    1    3    3    0  502 -0.11197082648E+03  0.55198558390E+03  0.58812927992E+02  0.56630963378E+03  0.46999998093E+01 0.  1.
</event>
<event>
 5   0  0.6137750E-04  0.1195790E+04  0.7818609E-02  0.9116550E-01
        3   -1    0    0  501    0  0.00000000000E+00  0.00000000000E+00  0.47227357241E+03  0.47227358321E+03  0.10100000352E+00 0. -1.
       -3   -1    0    0    0  501  0.00000000000E+00  0.00000000000E+00 -0.75693030303E+03  0.75693030977E+03  0.10100000352E+00 0.  1.
    10030    2    1    2    0    0  0.00000000000E+00  0.00000000000E+00 -0.28465673062E+03  0.12292038930E+04  0.11957895953E+04 0.  0.
        5    1    3    3  502    0 -0.97286285213E+02  0.61515562261E+02  0.46075757448E+03  0.47494043640E+03  0.46999998093E+01 0. -1.
       -5    1    3    3    0  502  0.97286285213E+02 -0.61515562261E+02 -0.74541430510E+03  0.75426345658E+03  0.46999998093E+01 0.  1.
</event>
<event>
 5   0  0.6137750E-04  0.1214244E+04  0.7818609E-02  0.9100480E-01
       -3   -1    0    0    0  501  0.00000000000E+00  0.00000000000E+00  0.14539770339E+04  0.14539770374E+04  0.10100000352E+00 0.  1.
        3   -1    0    0  501    0  0.00000000000E+00  0.00000000000E+00 -0.25350941222E+03  0.25350943234E+03  0.10100000352E+00 0. -1.
    10030    2    1    2    0    0  0.00000000000E+00  0.00000000000E+00  0.12004676217E+04  0.17074864698E+04  0.12142436056E+04 0.  0.
        4    1    3    3  502    0  0.22641393163E+03  0.29432572956E+03 -0.75194645077E+02  0.37887564063E+03  0.12699999809E+01 0. -1.
       -4    1    3    3    0  502 -0.22641393163E+03 -0.29432572956E+03  0.12756622668E+04  0.13286108292E+04  0.12699999809E+01 0.  1.
</event>
<event>
 5   0  0.1567019E-03  0.1211378E+04  0.7818609E-02  0.9102955E-01
        2   -1    0    0  501    0  0.00000000000E+00  0.00000000000E+00  0.90359076761E+03  0.90359076762E+03  0.25500000920E-02 0. -1.
       -2   -1    0    0    0  501  0.00000000000E+00  0.00000000000E+00 -0.40600137490E+03  0.40600137491E+03  0.25500000920E-02 0.  1.
    10030    2    1    2    0    0  0.00000000000E+00  0.00000000000E+00  0.49758939271E+03  0.13095921425E+04  0.12113778833E+04 0.  0.
        5    1    3    3  502    0 -0.30718382166E+03  0.73783117857E+02  0.80744158937E+03  0.86705816356E+03  0.46999998093E+01 0. -1.
       -5    1    3    3    0  502  0.30718382166E+03 -0.73783117857E+02 -0.30985219665E+03  0.44253397896E+03  0.46999998093E+01 0.  1.
</event>
<event>
 5   0  0.1597352E-03  0.1201795E+04  0.7818609E-02  0.9111287E-01
        2   -1    0    0  501    0  0.00000000000E+00  0.00000000000E+00  0.17400212816E+04  0.17400212816E+04  0.25500000920E-02 0.  1.
       -2   -1    0    0    0  501  0.00000000000E+00  0.00000000000E+00 -0.20751355383E+03  0.20751355385E+03  0.25500000920E-02 0. -1.
    10030    2    1    2    0    0  0.00000000000E+00  0.00000000000E+00  0.15325077277E+04  0.19475348354E+04  0.12017953235E+04 0.  0.
        1    1    3    3  502    0  0.59275019034E+03  0.89670072991E+02  0.69974356341E+03  0.92143071617E+03  0.50400001928E-02 0. -1.
       -1    1    3    3    0  502 -0.59275019034E+03 -0.89670072991E+02  0.83276416432E+03  0.10261041192E+04  0.50400001928E-02 0.  1.
</event>
<event>
 5   0  0.8908478E-04  0.1192433E+04  0.7818609E-02  0.9119505E-01
       -1   -1    0    0    0  501  0.00000000000E+00  0.00000000000E+00  0.35119230813E+03  0.35119230817E+03  0.50400001928E-02 0. -1.
        1   -1    0    0  501    0  0.00000000000E+00  0.00000000000E+00 -0.10121930292E+04  0.10121930292E+04  0.50400001928E-02 0.  1.
    10030    2    1    2    0    0  0.00000000000E+00  0.00000000000E+00 -0.66100072103E+03  0.13633853373E+04  0.11924334887E+04 0.  0.
        4    1    3    3  502    0  0.94811947375E+02 -0.24484657396E+03 -0.94252973330E+03  0.97841865333E+03  0.12699999809E+01 0.  1.
       -4    1    3    3    0  502 -0.94811947375E+02  0.24484657396E+03  0.28152901227E+03  0.38496668400E+03  0.12699999809E+01 0. -1.
</event>
<event>
 5   0  0.9170776E-04  0.1197574E+04  0.7818609E-02  0.9114983E-01
       -1   -1    0    0    0  501  0.00000000000E+00  0.00000000000E+00  0.73502651434E+03  0.73502651435E+03  0.50400001928E-02 0.  1.
        1   -1    0    0  501    0  0.00000000000E+00  0.00000000000E+00 -0.48779961075E+03  0.48779961078E+03  0.50400001928E-02 0. -1.
    10030    2    1    2    0    0  0.00000000000E+00  0.00000000000E+00  0.24722690359E+03  0.12228261251E+04  0.11975736263E+04 0.  0.
        5    1    3    3  502    0  0.10306006820E+03  0.12143941817E+03 -0.46575301704E+03  0.49225691749E+03  0.46999998093E+01 0. -1.
       -5    1    3    3    0  502 -0.10306006820E+03 -0.12143941817E+03  0.71297992062E+03  0.73056920764E+03  0.46999998093E+01 0.  1.
</event>
<event>
 5   0  0.1567019E-03  0.1196152E+04  0.7818609E-02  0.9116231E-01
        2   -1    0    0  501    0  0.00000000000E+00  0.00000000000E+00  0.52855013747E+03  0.52855013748E+03  0.25500000920E-02 0. -1.
       -2   -1    0    0    0  501  0.00000000000E+00  0.00000000000E+00 -0.67674727642E+03  0.67674727643E+03  0.25500000920E-02 0.  1.
    10030    2    1    2    0    0  0.00000000000E+00  0.00000000000E+00 -0.14819713895E+03  0.12052974139E+04  0.11961519402E+04 0.  0.
        5    1    3    3  502    0  0.20559400981E+03  0.32849559728E+02 -0.63903188857E+03  0.67210998731E+03  0.46999998093E+01 0.  1.
       -5    1    3    3    0  502 -0.20559400981E+03 -0.32849559728E+02  0.49083474962E+03  0.53318742659E+03  0.46999998093E+01 0. -1.
</event>
<event>
 5   0  0.1537557E-03  0.1204100E+04  0.7818609E-02  0.9109275E-01
        2   -1    0    0  501    0  0.00000000000E+00  0.00000000000E+00  0.24477953013E+04  0.24477953013E+04  0.25500000920E-02 0. -1.
       -2   -1    0    0    0  501  0.00000000000E+00  0.00000000000E+00 -0.14807784355E+03  0.14807784357E+03  0.25500000920E-02 0.  1.
    10030    2    1    2    0    0  0.00000000000E+00  0.00000000000E+00  0.22997174577E+04  0.25958731448E+04  0.12041000784E+04 0.  0.
        2    1    3    3  502    0  0.79537488404E+02 -0.55380027588E+03  0.16292328341E+04  0.17226202673E+04  0.25500000920E-02 0.  1.
       -2    1    3    3    0  502 -0.79537488404E+02  0.55380027588E+03  0.67048462363E+03  0.87325287755E+03  0.25500000920E-02 0. -1.
</event>
<event>
 5   0  0.1647550E-03  0.1197775E+04  0.7818609E-02  0.9114806E-01
        2   -1    0    0  501    0  0.00000000000E+00  0.00000000000E+00  0.12706947121E+04  0.12706947121E+04  0.25500000920E-02 0.  1.
       -2   -1    0    0    0  501  0.00000000000E+00  0.00000000000E+00 -0.28226001980E+03  0.28226001981E+03  0.25500000920E-02 0. -1.
    10030    2    1    2    0    0  0.00000000000E+00  0.00000000000E+00  0.98843469228E+03  0.15529547319E+04  0.11977751285E+04 0.  0.
        3    1    3    3  502    0  0.13001261714E+03  0.17618134251E+03  0.12169377516E+04  0.12364791335E+04  0.10100000352E+00 0.  1.
       -3    1    3    3    0  502 -0.13001261714E+03 -0.17618134251E+03 -0.22850305933E+03  0.31647559841E+03  0.10100000352E+00 0. -1.
</event>
<event>
 5   0  0.9169078E-04  0.1163025E+04  0.7818609E-02  0.9145850E-01
        1   -1    0    0  501    0  0.00000000000E+00  0.00000000000E+00  0.49546948727E+03  0.49546948729E+03  0.50400001928E-02 0. -1.
       -1   -1    0    0    0  501  0.00000000000E+00  0.00000000000E+00 -0.68249812899E+03  0.68249812900E+03  0.50400001928E-02 0.  1.
    10030    2    1    2    0    0  0.00000000000E+00  0.00000000000E+00 -0.18702864172E+03  0.11779676163E+04  0.11630253618E+04 0.  0.
        1    1    3    3  502    0  0.32620814834E+03 -0.40208574766E+03 -0.36162698754E+03  0.63155267607E+03  0.50400001928E-02 0.  1.
       -1    1    3    3    0  502 -0.32620814834E+03  0.40208574766E+03  0.17459834582E+03  0.54641494022E+03  0.50400001928E-02 0. -1.
</event>
<event>
 5   0  0.1647550E-03  0.1290848E+04  0.7818609E-02  0.9036854E-01
        2   -1    0    0  501    0  0.00000000000E+00  0.00000000000E+00  0.44034987935E+03  0.44034987936E+03  0.25500000920E-02 0.  1.
       -2   -1    0    0    0  501  0.00000000000E+00  0.00000000000E+00 -0.94600303799E+03  0.94600303799E+03  0.25500000920E-02 0. -1.
    10030    2    1    2    0    0  0.00000000000E+00  0.00000000000E+00 -0.50565315864E+03  0.13863529173E+04  0.12908482849E+04 0.  0.
        3    1    3    3  502    0 -0.78984538192E+01  0.64352228217E+03 -0.20033293860E+03  0.67403012522E+03  0.10100000352E+00 0.  1.
       -3    1    3    3    0  502  0.78984538192E+01 -0.64352228217E+03 -0.30532022004E+03  0.71232279213E+03  0.10100000352E+00 0. -1.
</event>
<event>
 5   0  0.1567019E-03  0.1195596E+04  0.7818609E-02  0.9116720E-01
        2   -1    0    0  501    0  0.00000000000E+00  0.00000000000E+00  0.13304696130E+04  0.13304696130E+04  0.25500000920E-02 0.  1.
       -2   -1    0    0    0  501  0.00000000000E+00  0.00000000000E+00 -0.26859883712E+03  0.26859883714E+03  0.25500000920E-02 0. -1.
    10030    2    1    2    0    0  0.00000000000E+00  0.00000000000E+00  0.10618707758E+04  0.15990684501E+04  0.11955962377E+04 0.  0.
        5    1    3    3  502    0  0.46213736804E+03 -0.22715670020E+03  0.12488879975E+03  0.52989660849E+03  0.46999998093E+01 0. -1.
       -5    1    3    3    0  502 -0.46213736804E+03  0.22715670020E+03  0.93698197610E+03  0.10691718416E+04  0.46999998093E+01 0.  1.
</event>
<event>
 5   0  0.9169078E-04  0.1203078E+04  0.7818609E-02  0.9110166E-01
       -1   -1    0    0    0  501  0.00000000000E+00  0.00000000000E+00  0.45833525420E+03  0.45833525422E+03  0.50400001928E-02 0. -1.
        1   -1    0    0  501    0  0.00000000000E+00  0.00000000000E+00 -0.78948642303E+03  0.78948642305E+03  0.50400001928E-02 0.  1.
    10030    2    1    2    0    0  0.00000000000E+00  0.00000000000E+00 -0.33115116884E+03  0.12478216773E+04  0.12030784852E+04 0.  0.
        1    1    3    3  502    0  0.59680359240E+03 -0.74504186455E+02 -0.17712798249E+03  0.62697665340E+03  0.50400001928E-02 0. -1.
       -1    1    3    3    0  502 -0.59680359240E+03  0.74504186455E+02 -0.15402318634E+03  0.62084502387E+03  0.50400001928E-02 0.  1.
</event>
<event>
 5   0  0.9358428E-04  0.1195469E+04  0.7818609E-02  0.9116832E-01
        1   -1    0    0  501    0  0.00000000000E+00  0.00000000000E+00  0.79382374756E+03  0.79382374758E+03  0.50400001928E-02 0.  1.
       -1   -1    0    0    0  501  0.00000000000E+00  0.00000000000E+00 -0.45008310733E+03  0.45008310735E+03  0.50400001928E-02 0. -1.
    10030    2    1    2    0    0  0.00000000000E+00  0.00000000000E+00  0.34374064023E+03  0.12439068549E+04  0.11954692116E+04 0.  0.
        2    1    3    3  502    0 -0.25413795065E+03  0.25897388148E+03 -0.32238444006E+03  0.48537129752E+03  0.25500000920E-02 0. -1.
       -2    1    3    3    0  502  0.25413795065E+03 -0.25897388148E+03  0.66612508030E+03  0.75853555741E+03  0.25500000920E-02 0.  1.
</event>
<event>
 5   0  0.1551501E-03  0.1212453E+04  0.7818609E-02  0.9102026E-01
        2   -1    0    0  501    0  0.00000000000E+00  0.00000000000E+00  0.33107766116E+03  0.33107766117E+03  0.25500000920E-02 0.  1.
       -2   -1    0    0    0  501  0.00000000000E+00  0.00000000000E+00 -0.11100430122E+04  0.11100430122E+04  0.25500000920E-02 0. -1.
    10030    2    1    2    0    0  0.00000000000E+00  0.00000000000E+00 -0.77896535108E+03  0.14411206734E+04  0.12124527938E+04 0.  0.
        4    1    3    3  502    0  0.42739214430E+03  0.37570450659E+03 -0.63792813008E+03  0.85485193649E+03  0.12699999809E+01 0. -1.
       -4    1    3    3    0  502 -0.42739214430E+03 -0.37570450659E+03 -0.14103722101E+03  0.58626873692E+03  0.12699999809E+01 0.  1.
</event>
<event>
 5   0  0.1551501E-03  0.1198292E+04  0.7818609E-02  0.9114353E-01
       -2   -1    0    0    0  501  0.00000000000E+00  0.00000000000E+00  0.41240622148E+03  0.41240622149E+03  0.25500000920E-02 0.  1.
        2   -1    0    0  501    0  0.00000000000E+00  0.00000000000E+00 -0.87044232703E+03  0.87044232703E+03  0.25500000920E-02 0. -1.
    10030    2    1    2    0    0  0.00000000000E+00  0.00000000000E+00 -0.45803610554E+03  0.12828485485E+04  0.11982918361E+04 0.  0.
        4    1    3    3  502    0 -0.52314811817E+03  0.11567380761E+03  0.58064587979E+02  0.53892252930E+03  0.12699999809E+01 0.  1.
       -4    1    3    3    0  502  0.52314811817E+03 -0.11567380761E+03 -0.51610069352E+03  0.74392601922E+03  0.12699999809E+01 0. -1.
</event>
<event>
 5   0  0.1537557E-03  0.1202566E+04  0.7818609E-02  0.9110614E-01
       -2   -1    0    0    0  501  0.00000000000E+00  0.00000000000E+00  0.36717229298E+03  0.36717229299E+03  0.25500000920E-02 0.  1.
        2   -1    0    0  501    0  0.00000000000E+00  0.00000000000E+00 -0.98466321351E+03  0.98466321351E+03  0.25500000920E-02 0. -1.
    10030    2    1    2    0    0  0.00000000000E+00  0.00000000000E+00 -0.61749092052E+03  0.13518355065E+04  0.12025656738E+04 0.  0.
        2    1    3    3  502    0 -0.24337752928E+02 -0.13235963261E+02 -0.98394537808E+03  0.98433532091E+03  0.25500000920E-02 0. -1.
       -2    1    3    3    0  502  0.24337752928E+02  0.13235963261E+02  0.36645445756E+03  0.36750018559E+03  0.25500000920E-02 0.  1.
</event>
<event>
 5   0  0.1597352E-03  0.1173499E+04  0.7818609E-02  0.9136374E-01
        2   -1    0    0  501    0  0.00000000000E+00  0.00000000000E+00  0.12193461632E+04  0.12193461632E+04  0.25500000920E-02 0. -1.
       -2   -1    0    0    0  501  0.00000000000E+00  0.00000000000E+00 -0.28234386144E+03  0.28234386145E+03  0.25500000920E-02 0.  1.
    10030    2    1    2    0    0  0.00000000000E+00  0.00000000000E+00  0.93700230174E+03  0.15016900246E+04  0.11734988780E+04 0.  0.
        1    1    3    3  502    0  0.24091222042E+03 -0.37072676187E+03  0.96212482534E+03  0.10588490022E+04  0.50400001928E-02 0. -1.
       -1    1    3    3    0  502 -0.24091222042E+03  0.37072676187E+03 -0.25122523598E+02  0.44284102242E+03  0.50400001928E-02 0.  1.
</event>
<event>
 5   0  0.1551501E-03  0.1202660E+04  0.7818609E-02  0.9110532E-01
        2   -1    0    0  501    0  0.00000000000E+00  0.00000000000E+00  0.99227777088E+03  0.99227777088E+03  0.25500000920E-02 0. -1.
       -2   -1    0    0    0  501  0.00000000000E+00  0.00000000000E+00 -0.36441154785E+03  0.36441154785E+03  0.25500000920E-02 0.  1.
    10030    2    1    2    0    0  0.00000000000E+00  0.00000000000E+00  0.62786622303E+03  0.13566893187E+04  0.12026595169E+04 0.  0.
        4    1    3    3  502    0 -0.26672828306E+03  0.39436585439E+03  0.72830271348E+03  0.87011198099E+03  0.12699999809E+01 0. -1.
       -4    1    3    3    0  502  0.26672828306E+03 -0.39436585439E+03 -0.10043649045E+03  0.48657733775E+03  0.12699999809E+01 0.  1.
</event>
<event>
 5   0  0.1647550E-03  0.1201853E+04  0.7818609E-02  0.9111236E-01
        2   -1    0    0  501    0  0.00000000000E+00  0.00000000000E+00  0.18278489292E+04  0.18278489292E+04  0.25500000920E-02 0. -1.
       -2   -1    0    0    0  501  0.00000000000E+00  0.00000000000E+00 -0.19756158626E+03  0.19756158627E+03  0.25500000920E-02 0.  1.
    10030    2    1    2    0    0  0.00000000000E+00  0.00000000000E+00  0.16302873429E+04  0.20254105155E+04  0.12018531256E+04 0.  0.
        3    1    3    3  502    0  0.50135610478E+03 -0.27482973028E+03  0.50338163109E+03  0.76176269347E+03  0.10100000352E+00 0.  1.
       -3    1    3    3    0  502 -0.50135610478E+03  0.27482973028E+03  0.11269057118E+04  0.12636478220E+04  0.10100000352E+00 0. -1.
</event>
<event>
 5   0  0.9169078E-04  0.1196550E+04  0.7818609E-02  0.9115882E-01
       -1   -1    0    0    0  501  0.00000000000E+00  0.00000000000E+00  0.35171003569E+03  0.35171003572E+03  0.50400001928E-02 0. -1.
        1   -1    0    0  501    0  0.00000000000E+00  0.00000000000E+00 -0.10176926843E+04  0.10176926844E+04  0.50400001928E-02 0.  1.
    10030    2    1    2    0    0  0.00000000000E+00  0.00000000000E+00 -0.66598264866E+03  0.13694027201E+04  0.11965495901E+04 0.  0.
        1    1    3    3  502    0 -0.57950616494E+03 -0.21291203251E+02 -0.50139427302E+03  0.76660089198E+03  0.50400001928E-02 0.  1.
       -1    1    3    3    0  502  0.57950616494E+03  0.21291203251E+02 -0.16458837564E+03  0.60280182810E+03  0.50400001928E-02 0. -1.
</event>
<event>
 5   0  0.9169078E-04  0.1204692E+04  0.7818609E-02  0.9108760E-01
        1   -1    0    0  501    0  0.00000000000E+00  0.00000000000E+00  0.10612300270E+04  0.10612300271E+04  0.50400001928E-02 0.  1.
       -1   -1    0    0    0  501  0.00000000000E+00  0.00000000000E+00 -0.34188674588E+03  0.34188674592E+03  0.50400001928E-02 0. -1.
    10030    2    1    2    0    0  0.00000000000E+00  0.00000000000E+00  0.71934328117E+03  0.14031167730E+04  0.12046916296E+04 0.  0.
        1    1    3    3  502    0  0.41815290824E+03  0.38745612742E+03  0.58625607343E+03  0.81772262351E+03  0.50400001928E-02 0. -1.
       -1    1    3    3    0  502 -0.41815290824E+03 -0.38745612742E+03  0.13308720773E+03  0.58539414947E+03  0.50400001928E-02 0.  1.
</event>
<event>
 5   0  0.8908478E-04  0.1199738E+04  0.7818609E-02  0.9113086E-01
       -1   -1    0    0    0  501  0.00000000000E+00  0.00000000000E+00  0.29210620071E+03  0.29210620076E+03  0.50400001928E-02 0.  1.
        1   -1    0    0  501    0  0.00000000000E+00  0.00000000000E+00 -0.12318901285E+04  0.12318901285E+04  0.50400001928E-02 0. -1.
    10030    2    1    2    0    0  0.00000000000E+00  0.00000000000E+00 -0.93978392782E+03  0.15239963293E+04  0.11997378800E+04 0.  0.
        4    1    3    3  502    0 -0.37120093278E+03 -0.22114411976E+03 -0.99846393512E+03  0.10879460910E+04  0.12699999809E+01 0. -1.
       -4    1    3    3    0  502  0.37120093278E+03  0.22114411976E+03  0.58680007299E+02  0.43605023834E+03  0.12699999809E+01 0.  1.
</event>
<event>
 5   0  0.9169078E-04  0.1195564E+04  0.7818609E-02  0.9116749E-01
       -1   -1    0    0    0  501  0.00000000000E+00  0.00000000000E+00  0.21743975113E+03  0.21743975119E+03  0.50400001928E-02 0. -1.
        1   -1    0    0  501    0  0.00000000000E+00  0.00000000000E+00 -0.16434118627E+04  0.16434118627E+04  0.50400001928E-02 0.  1.
    10030    2    1    2    0    0  0.00000000000E+00  0.00000000000E+00 -0.14259721116E+04  0.18608516139E+04  0.11955635767E+04 0.  0.
        1    1    3    3  502    0  0.46937494552E+03 -0.23832966374E+03 -0.11538507233E+04  0.12682607617E+04  0.50400001928E-02 0.  1.
       -1    1    3    3    0  502 -0.46937494552E+03  0.23832966374E+03 -0.27212138831E+03  0.59259085219E+03  0.50400001928E-02 0. -1.
</event>
<event>
 5   0  0.1597352E-03  0.1195905E+04  0.7818609E-02  0.9116449E-01
        2   -1    0    0  501    0  0.00000000000E+00  0.00000000000E+00  0.24596069275E+04  0.24596069275E+04  0.25500000920E-02 0. -1.
       -2   -1    0    0    0  501  0.00000000000E+00  0.00000000000E+00 -0.14536758430E+03  0.14536758432E+03  0.25500000920E-02 0.  1.
    10030    2    1    2    0    0  0.00000000000E+00  0.00000000000E+00  0.23142393432E+04  0.26049745118E+04  0.11959048748E+04 0.  0.
        1    1    3    3  502    0  0.34794413192E+03 -0.46449596282E+03  0.84353174058E+03  0.10238981472E+04  0.50400001928E-02 0.  1.
       -1    1    3    3    0  502 -0.34794413192E+03  0.46449596282E+03  0.14707076026E+04  0.15810763646E+04  0.50400001928E-02 0. -1.
</event>
<event>
 5   0  0.1551501E-03  0.1205522E+04  0.7818609E-02  0.9108037E-01
       -2   -1    0    0    0  501  0.00000000000E+00  0.00000000000E+00  0.16367916756E+03  0.16367916758E+03  0.25500000920E-02 0. -1.
        2   -1    0    0  501    0  0.00000000000E+00  0.00000000000E+00 -0.22197141489E+04  0.22197141489E+04  0.25500000920E-02 0.  1.
    10030    2    1    2    0    0  0.00000000000E+00  0.00000000000E+00 -0.20560349813E+04  0.23833933165E+04  0.12055222340E+04 0.  0.
        4    1    3    3  502    0  0.42804435757E+03 -0.25314772167E+02 -0.19048793977E+03  0.46920153222E+03  0.12699999809E+01 0. -1.
       -4    1    3    3    0  502 -0.42804435757E+03  0.25314772167E+02 -0.18655470416E+04  0.19141917843E+04  0.12699999809E+01 0.  1.
</event>
<event>
 5   0  0.1537557E-03  0.1195990E+04  0.7818609E-02  0.9116374E-01
       -2   -1    0    0    0  501  0.00000000000E+00  0.00000000000E+00  0.31067988520E+03  0.31067988521E+03  0.25500000920E-02 0.  1.
        2   -1    0    0  501    0  0.00000000000E+00  0.00000000000E+00 -0.11510175530E+04  0.11510175530E+04  0.25500000920E-02 0. -1.
    10030    2    1    2    0    0  0.00000000000E+00  0.00000000000E+00 -0.84033766781E+03  0.14616974382E+04  0.11959899686E+04 0.  0.
        2    1    3    3  502    0 -0.51903347111E+03  0.20639873457E+03 -0.68115713138E+03  0.88089228592E+03  0.25500000920E-02 0.  1.
       -2    1    3    3    0  502  0.51903347111E+03 -0.20639873457E+03 -0.15918053643E+03  0.58080515231E+03  0.25500000920E-02 0. -1.
</event>
<event>
 5   0  0.9170776E-04  0.1202234E+04  0.7818609E-02  0.9110903E-01
        1   -1    0    0  501    0  0.00000000000E+00  0.00000000000E+00  0.53527219553E+03  0.53527219556E+03  0.50400001928E-02 0.  1.
       -1   -1    0    0    0  501  0.00000000000E+00  0.00000000000E+00 -0.67506148359E+03  0.67506148361E+03  0.50400001928E-02 0. -1.
    10030    2    1    2    0    0  0.00000000000E+00  0.00000000000E+00 -0.13978928805E+03  0.12103336792E+04  0.12022339913E+04 0.  0.
        5    1    3    3  502    0 -0.19590650218E+03 -0.20109654213E+03 -0.60498315999E+03  0.66696768342E+03  0.46999998093E+01 0. -1.
       -5    1    3    3    0  502  0.19590650218E+03  0.20109654213E+03  0.46519387193E+03  0.54336599575E+03  0.46999998093E+01 0.  1.
</event>
<event>
 5   0  0.9208078E-04  0.1196533E+04  0.7818609E-02  0.9115897E-01
        1   -1    0    0  501    0  0.00000000000E+00  0.00000000000E+00  0.12330017726E+04  0.12330017726E+04  0.50400001928E-02 0.  1.
       -1   -1    0    0    0  501  0.00000000000E+00  0.00000000000E+00 -0.29028562353E+03  0.29028562357E+03  0.50400001928E-02 0. -1.
    10030    2    1    2    0    0  0.00000000000E+00  0.00000000000E+00  0.94271614905E+03  0.15232873962E+04  0.11965328051E+04 0.  0.
        3    1    3    3  502    0 -0.36847180770E+03  0.34572983474E+03  0.63529492970E+02  0.50925101706E+03  0.10100000352E+00 0. -1.
       -3    1    3    3    0  502  0.36847180770E+03 -0.34572983474E+03  0.87918665608E+03  0.10140363791E+04  0.10100000352E+00 0.  1.
</event>
<event>
 5   0  0.1597352E-03  0.1205409E+04  0.7818609E-02  0.9108135E-01
        2   -1    0    0  501    0  0.00000000000E+00  0.00000000000E+00  0.15907847515E+04  0.15907847515E+04  0.25500000920E-02 0.  1.
       -2   -1    0    0    0  501  0.00000000000E+00  0.00000000000E+00 -0.22834823936E+03  0.22834823938E+03  0.25500000920E-02 0. -1.
    10030    2    1    2    0    0  0.00000000000E+00  0.00000000000E+00  0.13624365121E+04  0.18191329909E+04  0.12054093035E+04 0.  0.
        1    1    3    3  502    0 -0.46385269378E+03 -0.98397462940E+02  0.12426746372E+04  0.13300682825E+04  0.50400001928E-02 0.  1.
       -1    1    3    3    0  502  0.46385269378E+03  0.98397462940E+02  0.11976187494E+03  0.48906470835E+03  0.50400001928E-02 0. -1.
</event>
<event>
 5   0  0.8908478E-04  0.1176858E+04  0.7818609E-02  0.9133357E-01
        1   -1    0    0  501    0  0.00000000000E+00  0.00000000000E+00  0.34926741532E+03  0.34926741536E+03  0.50400001928E-02 0. -1.
       -1   -1    0    0    0  501  0.00000000000E+00  0.00000000000E+00 -0.99135670864E+03  0.99135670866E+03  0.50400001928E-02 0.  1.
    10030    2    1    2    0    0  0.00000000000E+00  0.00000000000E+00 -0.64208929332E+03  0.13406241240E+04  0.11768578424E+04 0.  0.
        4    1    3    3  502    0  0.84963946245E+02  0.52673091932E+03 -0.38353500228E+02  0.53491769218E+03  0.12699999809E+01 0. -1.
       -4    1    3    3    0  502 -0.84963946245E+02 -0.52673091932E+03 -0.60373579310E+03  0.80570643183E+03  0.12699999809E+01 0.  1.
</event>
<event>
 5   0  0.9208078E-04  0.1223363E+04  0.7818609E-02  0.9092649E-01
        1   -1    0    0  501    0  0.00000000000E+00  0.00000000000E+00  0.18022603947E+04  0.18022603947E+04  0.50400001928E-02 0. -1.
       -1   -1    0    0    0  501  0.00000000000E+00  0.00000000000E+00 -0.20760292369E+03  0.20760292375E+03  0.50400001928E-02 0.  1.
    10030    2    1    2    0    0  0.00000000000E+00  0.00000000000E+00  0.15946574710E+04  0.20098633184E+04  0.12233634411E+04 0.  0.
        3    1    3    3  502    0  0.10622047776E+03 -0.12309902209E+03 -0.17145053218E+03  0.23628680522E+03  0.10100000352E+00 0.  1.
       -3    1    3    3    0  502 -0.10622047776E+03  0.12309902209E+03  0.17661080032E+04  0.17735765132E+04  0.10100000352E+00 0. -1.
</event>
<event>
 5   0  0.9169078E-04  0.1195670E+04  0.7818609E-02  0.9116655E-01
        1   -1    0    0  501    0  0.00000000000E+00  0.00000000000E+00  0.17402296678E+04  0.17402296678E+04  0.50400001928E-02 0. -1.
       -1   -1    0    0    0  501  0.00000000000E+00  0.00000000000E+00 -0.20537909501E+03  0.20537909507E+03  0.50400001928E-02 0.  1.
    10030    2    1    2    0    0  0.00000000000E+00  0.00000000000E+00  0.15348505728E+04  0.19456087629E+04  0.11956701792E+04 0.  0.
        1    1    3    3  502    0  0.62173973778E+02 -0.44574836285E+03  0.12710222490E+03  0.46766674203E+03  0.50400001928E-02 0.  1.
       -1    1    3    3    0  502 -0.62173973778E+02  0.44574836285E+03  0.14077483479E+04  0.14779420209E+04  0.50400001928E-02 0. -1.
</event>
<event>
 5   0  0.6137750E-04  0.1194650E+04  0.7818609E-02  0.9117552E-01
       -3   -1    0    0    0  501  0.00000000000E+00  0.00000000000E+00  0.16029195942E+04  0.16029195974E+04  0.10100000352E+00 0. -1.
        3   -1    0    0  501    0  0.00000000000E+00  0.00000000000E+00 -0.22259206874E+03  0.22259209166E+03  0.10100000352E+00 0.  1.
    10030    2    1    2    0    0  0.00000000000E+00  0.00000000000E+00  0.13803275255E+04  0.18255116891E+04  0.11946500949E+04 0.  0.
        3    1    3    3  502    0 -0.15348004355E+03  0.61352491310E+02 -0.18695098818E+03  0.24954144774E+03  0.10100000352E+00 0.  1.
       -3    1    3    3    0  502  0.15348004355E+03 -0.61352491310E+02  0.15672785137E+04  0.15759702413E+04  0.10100000352E+00 0. -1.
</event>
<event>
 5   0  0.9170776E-04  0.1199691E+04  0.7818609E-02  0.9113127E-01
        1   -1    0    0  501    0  0.00000000000E+00  0.00000000000E+00  0.32002597619E+03  0.32002597623E+03  0.50400001928E-02 0.  1.
       -1   -1    0    0    0  501  0.00000000000E+00  0.00000000000E+00 -0.11243295194E+04  0.11243295194E+04  0.50400001928E-02 0. -1.
    10030    2    1    2    0    0  0.00000000000E+00  0.00000000000E+00 -0.80430354319E+03  0.14443554956E+04  0.11996910470E+04 0.  0.
        5    1    3    3  502    0  0.10826690713E+03  0.46885190138E+03  0.29001040254E+02  0.48208607006E+03  0.46999998093E+01 0. -1.
       -5    1    3    3    0  502 -0.10826690713E+03 -0.46885190138E+03 -0.83330458344E+03  0.96226942557E+03  0.46999998093E+01 0.  1.
</event>
<event>
 5   0  0.9208078E-04  0.1193892E+04  0.7818609E-02  0.9118219E-01
       -1   -1    0    0    0  501  0.00000000000E+00  0.00000000000E+00  0.23078288375E+04  0.23078288375E+04  0.50400001928E-02 0. -1.
        1   -1    0    0  501    0  0.00000000000E+00  0.00000000000E+00 -0.15440693853E+03  0.15440693861E+03  0.50400001928E-02 0.  1.
    10030    2    1    2    0    0  0.00000000000E+00  0.00000000000E+00  0.21534218990E+04  0.24622357761E+04  0.11938924333E+04 0.  0.
        3    1    3    3  502    0  0.29473144589E+03  0.51766329018E+03  0.11566621298E+04  0.13010415827E+04  0.10100000352E+00 0. -1.
       -3    1    3    3    0  502 -0.29473144589E+03 -0.51766329018E+03  0.99675976922E+03  0.11611941935E+04  0.10100000352E+00 0.  1.
</event>
<event>
 5   0  0.1551501E-03  0.1199557E+04  0.7818609E-02  0.9113244E-01
       -2   -1    0    0    0  501  0.00000000000E+00  0.00000000000E+00  0.63569077752E+03  0.63569077752E+03  0.25500000920E-02 0. -1.
        2   -1    0    0  501    0  0.00000000000E+00  0.00000000000E+00 -0.56589540565E+03  0.56589540565E+03  0.25500000920E-02 0.  1.
    10030    2    1    2    0    0  0.00000000000E+00  0.00000000000E+00  0.69795371873E+02  0.12015861832E+04  0.11995574024E+04 0.  0.
        4    1    3    3  502    0  0.11854308830E+03  0.35724324909E+03 -0.43285854244E+03  0.57362298897E+03  0.12699999809E+01 0.  1.
       -4    1    3    3    0  502 -0.11854308830E+03 -0.35724324909E+03  0.50265391432E+03  0.62796319421E+03  0.12699999809E+01 0. -1.
</event>
<event>
 5   0  0.1597352E-03  0.1201049E+04  0.7818609E-02  0.9111939E-01
        2   -1    0    0  501    0  0.00000000000E+00  0.00000000000E+00  0.12208664968E+04  0.12208664968E+04  0.25500000920E-02 0. -1.
       -2   -1    0    0    0  501  0.00000000000E+00  0.00000000000E+00 -0.29538830579E+03  0.29538830581E+03  0.25500000920E-02 0.  1.
    10030    2    1    2    0    0  0.00000000000E+00  0.00000000000E+00  0.92547819099E+03  0.15162548026E+04  0.12010490183E+04 0.  0.
        1    1    3    3  502    0 -0.10978307559E+03 -0.55779095834E+03  0.21844233619E+03  0.60901570682E+03  0.50400001928E-02 0.  1.
       -1    1    3    3    0  502  0.10978307559E+03  0.55779095834E+03  0.70703585480E+03  0.90723909577E+03  0.50400001928E-02 0. -1.
</event>
<event>
 5   0  0.8908478E-04  0.1199062E+04  0.7818609E-02  0.9113678E-01
       -1   -1    0    0    0  501  0.00000000000E+00  0.00000000000E+00  0.31933039265E+03  0.31933039269E+03  0.50400001928E-02 0.  1.
        1   -1    0    0  501    0  0.00000000000E+00  0.00000000000E+00 -0.11255970921E+04  0.11255970921E+04  0.50400001928E-02 0. -1.
    10030    2    1    2    0    0  0.00000000000E+00  0.00000000000E+00 -0.80626669940E+03  0.14449274848E+04  0.11990619023E+04 0.  0.
        4    1    3    3  502    0 -0.18348149581E+03 -0.38493746592E+03  0.10469612421E+03  0.43909589305E+03  0.12699999809E+01 0.  1.
       -4    1    3    3    0  502  0.18348149581E+03  0.38493746592E+03 -0.91096282361E+03  0.10058315917E+04  0.12699999809E+01 0. -1.
</event>
<event>
 5   0  0.1567019E-03  0.1201463E+04  0.7818609E-02  0.9111577E-01
       -2   -1    0    0    0  501  0.00000000000E+00  0.00000000000E+00  0.35920411997E+03  0.35920411998E+03  0.25500000920E-02 0.  1.
        2   -1    0    0  501    0  0.00000000000E+00  0.00000000000E+00 -0.10046615159E+04  0.10046615159E+04  0.25500000920E-02 0. -1.
    10030    2    1    2    0    0  0.00000000000E+00  0.00000000000E+00 -0.64545739596E+03  0.13638656359E+04  0.12014633672E+04 0.  0.
        5    1    3    3  502    0  0.23553610956E+03  0.30277770010E+02  0.30363695045E+03  0.38550160823E+03  0.46999998093E+01 0.  1.
       -5    1    3    3    0  502 -0.23553610956E+03 -0.30277770010E+02 -0.94909434642E+03  0.97836402768E+03  0.46999998093E+01 0. -1.
</event>
<event>
 5   0  0.8908478E-04  0.1117927E+04  0.7818609E-02  0.9187893E-01
        1   -1    0    0  501    0  0.00000000000E+00  0.00000000000E+00  0.74848634588E+03  0.74848634590E+03  0.50400001928E-02 0. -1.
       -1   -1    0    0    0  501  0.00000000000E+00  0.00000000000E+00 -0.41742973505E+03  0.41742973508E+03  0.50400001928E-02 0.  1.
    10030    2    1    2    0    0  0.00000000000E+00  0.00000000000E+00  0.33105661083E+03  0.11659160810E+04  0.11179274701E+04 0.  0.
        4    1    3    3  502    0  0.53228057294E+03 -0.15159617452E+03  0.83840894165E+02  0.55976326862E+03  0.12699999809E+01 0.  1.
       -4    1    3    3    0  502 -0.53228057294E+03  0.15159617452E+03  0.24721571666E+03  0.60615281236E+03  0.12699999809E+01 0. -1.
</event>
<event>
 5   0  0.9169078E-04  0.1202443E+04  0.7818609E-02  0.9110721E-01
       -1   -1    0    0    0  501  0.00000000000E+00  0.00000000000E+00  0.38949339891E+03  0.38949339895E+03  0.50400001928E-02 0.  1.
        1   -1    0    0  501    0  0.00000000000E+00  0.00000000000E+00 -0.92804430640E+03  0.92804430641E+03  0.50400001928E-02 0. -1.
    10030    2    1    2    0    0  0.00000000000E+00  0.00000000000E+00 -0.53855090748E+03  0.13175377054E+04  0.12024427326E+04 0.  0.
        1    1    3    3  502    0 -0.15939894569E+00  0.16762877548E+03 -0.90192093426E+03  0.91736623191E+03  0.50400001928E-02 0. -1.
       -1    1    3    3    0  502  0.15939894569E+00 -0.16762877548E+03  0.36337002677E+03  0.40017147344E+03  0.50400001928E-02 0.  1.
</event>
<event>
 5   0  0.9169078E-04  0.1199717E+04  0.7818609E-02  0.9113104E-01
        1   -1    0    0  501    0  0.00000000000E+00  0.00000000000E+00  0.37396351195E+03  0.37396351198E+03  0.50400001928E-02 0.  1.
       -1   -1    0    0    0  501  0.00000000000E+00  0.00000000000E+00 -0.96220666826E+03  0.96220666828E+03  0.50400001928E-02 0. -1.
    10030    2    1    2    0    0  0.00000000000E+00  0.00000000000E+00 -0.58824315631E+03  0.13361701803E+04  0.11997169415E+04 0.  0.
        1    1    3    3  502    0  0.59270630542E+03 -0.31835094821E+02 -0.39067659464E+03  0.71059301951E+03  0.50400001928E-02 0.  1.
       -1    1    3    3    0  502 -0.59270630542E+03  0.31835094821E+02 -0.19756656167E+03  0.62557716076E+03  0.50400001928E-02 0. -1.
</event>
<event>
 5   0  0.9208078E-04  0.1087893E+04  0.7818609E-02  0.9217073E-01
        1   -1    0    0  501    0  0.00000000000E+00  0.00000000000E+00  0.73401269430E+03  0.73401269432E+03  0.50400001928E-02 0.  1.
       -1   -1    0    0    0  501  0.00000000000E+00  0.00000000000E+00 -0.40309630282E+03  0.40309630285E+03  0.50400001928E-02 0. -1.
    10030    2    1    2    0    0  0.00000000000E+00  0.00000000000E+00  0.33091639148E+03  0.11371089972E+04  0.10878930155E+04 0.  0.
        3    1    3    3  502    0 -0.43263503247E+02 -0.48639128149E+03  0.41594435942E+03  0.64144986535E+03  0.10100000352E+00 0. -1.
       -3    1    3    3    0  502  0.43263503247E+02  0.48639128149E+03 -0.85027967936E+02  0.49565913182E+03  0.10100000352E+00 0.  1.
</event>
<event>
 5   0  0.1567019E-03  0.1195066E+04  0.7818609E-02  0.9117186E-01
        2   -1    0    0  501    0  0.00000000000E+00  0.00000000000E+00  0.19136673775E+04  0.19136673775E+04  0.25500000920E-02 0.  1.
       -2   -1    0    0    0  501  0.00000000000E+00  0.00000000000E+00 -0.18657679609E+03  0.18657679611E+03  0.25500000920E-02 0. -1.
    10030    2    1    2    0    0  0.00000000000E+00  0.00000000000E+00  0.17270905814E+04  0.21002441736E+04  0.11950664050E+04 0.  0.
        5    1    3    3  502    0  0.40209276807E+03  0.32950399118E+03  0.13812337276E+04  0.14758320279E+04  0.46999998093E+01 0.  1.
       -5    1    3    3    0  502 -0.40209276807E+03 -0.32950399118E+03  0.34585685376E+03  0.62441214565E+03  0.46999998093E+01 0. -1.
</event>
<event>
 5   0  0.1597352E-03  0.1200391E+04  0.7818609E-02  0.9112514E-01
       -2   -1    0    0    0  501  0.00000000000E+00  0.00000000000E+00  0.28067790060E+03  0.28067790061E+03  0.25500000920E-02 0.  1.
        2   -1    0    0  501    0  0.00000000000E+00  0.00000000000E+00 -0.12834450313E+04  0.12834450313E+04  0.25500000920E-02 0. -1.
    10030    2    1    2    0    0  0.00000000000E+00  0.00000000000E+00 -0.10027671307E+04  0.15641229319E+04  0.12003910311E+04 0.  0.
        1    1    3    3  502    0  0.16230866847E+03  0.41338666396E+03 -0.10274548945E+04  0.11193284585E+04  0.50400001928E-02 0. -1.
       -1    1    3    3    0  502 -0.16230866847E+03 -0.41338666396E+03  0.24687763847E+02  0.44479447334E+03  0.50400001928E-02 0.  1.
</event>
<event>
 5   0  0.8908478E-04  0.1193305E+04  0.7818609E-02  0.9118737E-01
        1   -1    0    0  501    0  0.00000000000E+00  0.00000000000E+00  0.38266924063E+03  0.38266924066E+03  0.50400001928E-02 0.  1.
       -1   -1    0    0    0  501  0.00000000000E+00  0.00000000000E+00 -0.93029143239E+03  0.93029143240E+03  0.50400001928E-02 0. -1.
    10030    2    1    2    0    0  0.00000000000E+00  0.00000000000E+00 -0.54762219176E+03  0.13129606731E+04  0.11933045144E+04 0.  0.
        4    1    3    3  502    0  0.23496631087E+03 -0.54484438238E+03 -0.20485518236E+03  0.62771954478E+03  0.12699999809E+01 0. -1.
       -4    1    3    3    0  502 -0.23496631087E+03  0.54484438238E+03 -0.34276700940E+03  0.68524112828E+03  0.12699999809E+01 0.  1.
</event>
<event>
 5   0  0.9208078E-04  0.1202763E+04  0.7818609E-02  0.9110442E-01
        1   -1    0    0  501    0  0.00000000000E+00  0.00000000000E+00  0.16890015561E+04  0.16890015561E+04  0.50400001928E-02 0.  1.
       -1   -1    0    0    0  501  0.00000000000E+00  0.00000000000E+00 -0.21412626045E+03  0.21412626051E+03  0.50400001928E-02 0. -1.
    10030    2    1    2    0    0  0.00000000000E+00  0.00000000000E+00  0.14748752956E+04  0.19031278166E+04  0.12027627982E+04 0.  0.
        3    1    3    3  502    0  0.12053198036E+03  0.47593786157E+03  0.18791168244E+03  0.52569536517E+03  0.10100000352E+00 0. -1.
       -3    1    3    3    0  502 -0.12053198036E+03 -0.47593786157E+03  0.12869636132E+04  0.13774324514E+04  0.10100000352E+00 0.  1.
</event>
<event>
 5   0  0.1567019E-03  0.1197074E+04  0.7818609E-02  0.9115422E-01
        2   -1    0    0  501    0  0.00000000000E+00  0.00000000000E+00  0.11682553109E+04  0.11682553109E+04  0.25500000920E-02 0. -1.
       -2   -1    0    0    0  501  0.00000000000E+00  0.00000000000E+00 -0.30665082990E+03  0.30665082991E+03  0.25500000920E-02 0.  1.
    10030    2    1    2    0    0  0.00000000000E+00  0.00000000000E+00  0.86160448099E+03  0.14749061408E+04  0.11970738668E+04 0.  0.
        5    1    3    3  502    0 -0.52281147650E+03  0.29124992105E+03  0.42079159680E+03  0.73160509458E+03  0.46999998093E+01 0.  1.
       -5    1    3    3    0  502  0.52281147650E+03 -0.29124992105E+03  0.44081288419E+03  0.74330104624E+03  0.46999998093E+01 0. -1.
</event>
<event>
 5   0  0.9208078E-04  0.1191359E+04  0.7818609E-02  0.9120453E-01
       -1   -1    0    0    0  501  0.00000000000E+00  0.00000000000E+00  0.30580953120E+03  0.30580953124E+03  0.50400001928E-02 0.  1.
        1   -1    0    0  501    0  0.00000000000E+00  0.00000000000E+00 -0.11603113505E+04  0.11603113505E+04  0.50400001928E-02 0. -1.
    10030    2    1    2    0    0  0.00000000000E+00  0.00000000000E+00 -0.85450181931E+03  0.14661208818E+04  0.11913593416E+04 0.  0.
        3    1    3    3  502    0  0.41712900596E+03  0.33894512847E+03 -0.11120724544E+03  0.54886015466E+03  0.10100000352E+00 0.  1.
       -3    1    3    3    0  502 -0.41712900596E+03 -0.33894512847E+03 -0.74329457388E+03  0.91726072710E+03  0.10100000352E+00 0. -1.
</event>
<event>
 5   0  0.9169078E-04  0.1188299E+04  0.7818609E-02  0.9123160E-01
        1   -1    0    0  501    0  0.00000000000E+00  0.00000000000E+00  0.11481987800E+04  0.11481987800E+04  0.50400001928E-02 0.  1.
       -1   -1    0    0    0  501  0.00000000000E+00  0.00000000000E+00 -0.30745014177E+03  0.30745014181E+03  0.50400001928E-02 0. -1.
    10030    2    1    2    0    0  0.00000000000E+00  0.00000000000E+00  0.84074863818E+03  0.14556489218E+04  0.11882994197E+04 0.  0.
        1    1    3    3  502    0 -0.51357834207E+03  0.24092289605E+03  0.20397344438E+03  0.60283639681E+03  0.50400001928E-02 0. -1.
       -1    1    3    3    0  502  0.51357834207E+03 -0.24092289605E+03  0.63677519380E+03  0.85281252497E+03  0.50400001928E-02 0.  1.
</event>
<event>
 5   0  0.1551501E-03  0.1206819E+04  0.7818609E-02  0.9106909E-01
        2   -1    0    0  501    0  0.00000000000E+00  0.00000000000E+00  0.19500579632E+04  0.19500579632E+04  0.25500000920E-02 0.  1.
       -2   -1    0    0    0  501  0.00000000000E+00  0.00000000000E+00 -0.18671400598E+03  0.18671400600E+03  0.25500000920E-02 0. -1.
    10030    2    1    2    0    0  0.00000000000E+00  0.00000000000E+00  0.17633439572E+04  0.21367719691E+04  0.12068191815E+04 0.  0.
        4    1    3    3  502    0  0.18693971325E+03  0.57005061185E+03  0.99638278528E+03  0.11630496224E+04  0.12699999809E+01 0.  1.
       -4    1    3    3    0  502 -0.18693971325E+03 -0.57005061185E+03  0.76696117189E+03  0.97372234675E+03  0.12699999809E+01 0. -1.
</event>
<event>
 5   0  0.1537557E-03  0.1197544E+04  0.7818609E-02  0.9115009E-01
        2   -1    0    0  501    0  0.00000000000E+00  0.00000000000E+00  0.97523111867E+03  0.97523111867E+03  0.25500000920E-02 0. -1.
       -2   -1    0    0    0  501  0.00000000000E+00  0.00000000000E+00 -0.36763358801E+03  0.36763358802E+03  0.25500000920E-02 0.  1.
    10030    2    1    2    0    0  0.00000000000E+00  0.00000000000E+00  0.60759753065E+03  0.13428647067E+04  0.11975436782E+04 0.  0.
        2    1    3    3  502    0 -0.56806930361E+02 -0.55886303446E+03  0.71344399859E+02  0.56625519161E+03  0.25500000920E-02 0.  1.
       -2    1    3    3    0  502  0.56806930361E+02  0.55886303446E+03  0.53625313079E+03  0.77660951508E+03  0.25500000920E-02 0. -1.
</event>
<event>
 5   0  0.9358428E-04  0.1175873E+04  0.7818609E-02  0.9134241E-01
        1   -1    0    0  501    0  0.00000000000E+00  0.00000000000E+00  0.35670989381E+03  0.35670989384E+03  0.50400001928E-02 0. -1.
       -1   -1    0    0    0  501  0.00000000000E+00  0.00000000000E+00 -0.96904837644E+03  0.96904837646E+03  0.50400001928E-02 0.  1.
    10030    2    1    2    0    0  0.00000000000E+00  0.00000000000E+00 -0.61233848264E+03  0.13257582703E+04  0.11758726861E+04 0.  0.
        2    1    3    3  502    0  0.34258286588E+03  0.30457885525E+03 -0.72125165147E+03  0.85459653861E+03  0.25500000920E-02 0.  1.
       -2    1    3    3    0  502 -0.34258286588E+03 -0.30457885525E+03  0.10891316883E+03  0.47116173169E+03  0.25500000920E-02 0. -1.
</event>
<event>
 5   0  0.1537557E-03  0.1199897E+04  0.7818609E-02  0.9112946E-01
        2   -1    0    0  501    0  0.00000000000E+00  0.00000000000E+00  0.10743438809E+04  0.10743438809E+04  0.25500000920E-02 0.  1.
       -2   -1    0    0    0  501  0.00000000000E+00  0.00000000000E+00 -0.33503088719E+03  0.33503088720E+03  0.25500000920E-02 0. -1.
    10030    2    1    2    0    0  0.00000000000E+00  0.00000000000E+00  0.73931299374E+03  0.14093747681E+04  0.11998973016E+04 0.  0.
        2    1    3    3  502    0  0.14246149886E+03 -0.54290089146E+03  0.61855021634E+03  0.83524908066E+03  0.25500000920E-02 0. -1.
       -2    1    3    3    0  502 -0.14246149886E+03  0.54290089146E+03  0.12076277740E+03  0.57412568747E+03  0.25500000920E-02 0.  1.
</event>
<event>
 5   0  0.9358428E-04  0.1202161E+04  0.7818609E-02  0.9110967E-01
       -1   -1    0    0    0  501  0.00000000000E+00  0.00000000000E+00  0.24379531954E+03  0.24379531959E+03  0.50400001928E-02 0. -1.
        1   -1    0    0  501    0  0.00000000000E+00  0.00000000000E+00 -0.14819719944E+04  0.14819719944E+04  0.50400001928E-02 0.  1.
    10030    2    1    2    0    0  0.00000000000E+00  0.00000000000E+00 -0.12381766749E+04  0.17257673140E+04  0.12021611140E+04 0.  0.
        2    1    3    3  502    0  0.53984357302E+03  0.55685393187E+02 -0.24815413189E+03  0.59675155595E+03  0.25500000920E-02 0.  1.
       -2    1    3    3    0  502 -0.53984357302E+03 -0.55685393187E+02 -0.99002254296E+03  0.11290157580E+04  0.25500000920E-02 0. -1.
</event>
<event>
 5   0  0.6137750E-04  0.1207899E+04  0.7818609E-02  0.9105970E-01
       -3   -1    0    0    0  501  0.00000000000E+00  0.00000000000E+00  0.38940086277E+03  0.38940087586E+03  0.10100000352E+00 0.  1.
        3   -1    0    0  501    0  0.00000000000E+00  0.00000000000E+00 -0.93670857410E+03  0.93670857955E+03  0.10100000352E+00 0. -1.
    10030    2    1    2    0    0  0.00000000000E+00  0.00000000000E+00 -0.54730771133E+03  0.13261094554E+04  0.12078992329E+04 0.  0.
        2    1    3    3  502    0  0.44556926181E+02  0.26439093124E+03  0.32047969077E+03  0.41784580456E+03  0.25500000920E-02 0.  1.
       -2    1    3    3    0  502 -0.44556926181E+02 -0.26439093124E+03 -0.86778740210E+03  0.90826365085E+03  0.25500000920E-02 0. -1.
</event>
<event>
 5   0  0.9169078E-04  0.1206405E+04  0.7818609E-02  0.9107269E-01
        1   -1    0    0  501    0  0.00000000000E+00  0.00000000000E+00  0.13276102481E+04  0.13276102481E+04  0.50400001928E-02 0. -1.
       -1   -1    0    0    0  501  0.00000000000E+00  0.00000000000E+00 -0.27406612588E+03  0.27406612593E+03  0.50400001928E-02 0.  1.
    10030    2    1    2    0    0  0.00000000000E+00  0.00000000000E+00  0.10535441222E+04  0.16016763740E+04  0.12064045713E+04 0.  0.
        1    1    3    3  502    0 -0.44043261166E+03  0.14921827414E+03  0.10368468146E+04  0.11363530683E+04  0.50400001928E-02 0. -1.
       -1    1    3    3    0  502  0.44043261166E+03 -0.14921827414E+03  0.16697307563E+02  0.46532330573E+03  0.50400001928E-02 0.  1.
</event>
<event>
 5   0  0.1537557E-03  0.1203431E+04  0.7818609E-02  0.9109858E-01
        2   -1    0    0  501    0  0.00000000000E+00  0.00000000000E+00  0.12352975951E+04  0.12352975951E+04  0.25500000920E-02 0.  1.
       -2   -1    0    0    0  501  0.00000000000E+00  0.00000000000E+00 -0.29309677545E+03  0.29309677546E+03  0.25500000920E-02 0. -1.
    10030    2    1    2    0    0  0.00000000000E+00  0.00000000000E+00  0.94220081963E+03  0.15283943705E+04  0.12034313306E+04 0.  0.
        2    1    3    3  502    0 -0.77894981177E+01 -0.28328276471E+03 -0.20303567375E+03  0.34861624443E+03  0.25500000920E-02 0. -1.
       -2    1    3    3    0  502  0.77894981177E+01  0.28328276471E+03  0.11452364934E+04  0.11797781261E+04  0.25500000920E-02 0.  1.
</event>
<event>
 5   0  0.1551501E-03  0.1190921E+04  0.7818609E-02  0.9120841E-01
        2   -1    0    0  501    0  0.00000000000E+00  0.00000000000E+00  0.12191517294E+04  0.12191517294E+04  0.25500000920E-02 0. -1.
       -2   -1    0    0    0  501  0.00000000000E+00  0.00000000000E+00 -0.29083603116E+03  0.29083603117E+03  0.25500000920E-02 0.  1.
    10030    2    1    2    0    0  0.00000000000E+00  0.00000000000E+00  0.92831569828E+03  0.15099877606E+04  0.11909210728E+04 0.  0.
        4    1    3    3  502    0  0.51385180672E+03 -0.27474581728E+03  0.30864966179E+03  0.65938999841E+03  0.12699999809E+01 0. -1.
       -4    1    3    3    0  502 -0.51385180672E+03  0.27474581728E+03  0.61966603649E+03  0.85059776220E+03  0.12699999809E+01 0.  1.
</event>
<event>
 5   0  0.1597352E-03  0.1151379E+04  0.7818609E-02  0.9156513E-01
        2   -1    0    0  501    0  0.00000000000E+00  0.00000000000E+00  0.65729248567E+03  0.65729248567E+03  0.25500000920E-02 0. -1.
       -2   -1    0    0    0  501  0.00000000000E+00  0.00000000000E+00 -0.50421729969E+03  0.50421729969E+03  0.25500000920E-02 0.  1.
    10030    2    1    2    0    0  0.00000000000E+00  0.00000000000E+00  0.15307518598E+03  0.11615097854E+04  0.11513787252E+04 0.  0.
        1    1    3    3  502    0 -0.12141110896E+01 -0.56616031086E+03 -0.28683924517E+02  0.56688776598E+03  0.50400001928E-02 0.  1.
       -1    1    3    3    0  502  0.12141110896E+01  0.56616031086E+03  0.18175911050E+03  0.59462201939E+03  0.50400001928E-02 0. -1.
</event>
<event>
 5   0  0.1597352E-03  0.1212498E+04  0.7818609E-02  0.9101987E-01
        2   -1    0    0  501    0  0.00000000000E+00  0.00000000000E+00  0.11868282470E+04  0.11868282470E+04  0.25500000920E-02 0. -1.
       -2   -1    0    0    0  501  0.00000000000E+00  0.00000000000E+00 -0.30968051580E+03  0.30968051581E+03  0.25500000920E-02 0.  1.
    10030    2    1    2    0    0  0.00000000000E+00  0.00000000000E+00  0.87714773121E+03  0.14965087628E+04  0.12124975608E+04 0.  0.
        1    1    3    3  502    0 -0.38243088204E+03 -0.44890738015E+03  0.61209877693E+03  0.84996242754E+03  0.50400001928E-02 0. -1.
       -1    1    3    3    0  502  0.38243088204E+03  0.44890738015E+03  0.26504895428E+03  0.64654633529E+03  0.50400001928E-02 0.  1.
</event>
<event>
 5   0  0.9358428E-04  0.1198125E+04  0.7818609E-02  0.9114499E-01
       -1   -1    0    0    0  501  0.00000000000E+00  0.00000000000E+00  0.50571971827E+03  0.50571971830E+03  0.50400001928E-02 0. -1.
        1   -1    0    0  501    0  0.00000000000E+00  0.00000000000E+00 -0.70963412532E+03  0.70963412534E+03  0.50400001928E-02 0.  1.
    10030    2    1    2    0    0  0.00000000000E+00  0.00000000000E+00 -0.20391440705E+03  0.12153538436E+04  0.11981251520E+04 0.  0.
        2    1    3    3  502    0 -0.16653209418E+03  0.35030529357E+03 -0.56506262853E+03  0.68537764136E+03  0.25500000920E-02 0.  1.
       -2    1    3    3    0  502  0.16653209418E+03 -0.35030529357E+03  0.36114822148E+03  0.52997620228E+03  0.25500000920E-02 0. -1.
</event>
<event>
 5   0  0.6137750E-04  0.1205030E+04  0.7818609E-02  0.9108466E-01
       -4   -1    0    0    0  501  0.00000000000E+00  0.00000000000E+00  0.68142294005E+03  0.68142412353E+03  0.12699999809E+01 0.  1.
        4   -1    0    0  501    0  0.00000000000E+00  0.00000000000E+00 -0.53274171130E+03  0.53274322507E+03  0.12699999809E+01 0. -1.
    10030    2    1    2    0    0  0.00000000000E+00  0.00000000000E+00  0.14868122875E+03  0.12141673486E+04  0.12050295609E+04 0.  0.
        2    1    3    3  502    0  0.12300565172E+03  0.45422243221E+03 -0.30477802282E+03  0.56065858727E+03  0.25500000920E-02 0. -1.
       -2    1    3    3    0  502 -0.12300565172E+03 -0.45422243221E+03  0.45345925157E+03  0.65350876132E+03  0.25500000920E-02 0.  1.
</event>
<event>
 5   0  0.1597352E-03  0.1198513E+04  0.7818609E-02  0.9114159E-01
        2   -1    0    0  501    0  0.00000000000E+00  0.00000000000E+00  0.77492572635E+03  0.77492572635E+03  0.25500000920E-02 0. -1.
       -2   -1    0    0    0  501  0.00000000000E+00  0.00000000000E+00 -0.46341029755E+03  0.46341029756E+03  0.25500000920E-02 0.  1.
    10030    2    1    2    0    0  0.00000000000E+00  0.00000000000E+00  0.31151542880E+03  0.12383360239E+04  0.11985133482E+04 0.  0.
        1    1    3    3  502    0  0.27344313217E+03 -0.39938284174E+03 -0.20929572124E+03  0.52733528212E+03  0.50400001928E-02 0.  1.
       -1    1    3    3    0  502 -0.27344313217E+03  0.39938284174E+03  0.52081115004E+03  0.71100074180E+03  0.50400001928E-02 0. -1.
</event>
<event>
 5   0  0.1567019E-03  0.1199301E+04  0.7818609E-02  0.9113469E-01
        2   -1    0    0  501    0  0.00000000000E+00  0.00000000000E+00  0.14508254734E+04  0.14508254734E+04  0.25500000920E-02 0. -1.
       -2   -1    0    0    0  501  0.00000000000E+00  0.00000000000E+00 -0.24784551269E+03  0.24784551271E+03  0.25500000920E-02 0.  1.
    10030    2    1    2    0    0  0.00000000000E+00  0.00000000000E+00  0.12029799607E+04  0.16986709861E+04  0.11993007684E+04 0.  0.
        5    1    3    3  502    0  0.58678188578E+03 -0.10059577719E+03  0.70289758366E+03  0.92115123350E+03  0.46999998093E+01 0.  1.
       -5    1    3    3    0  502 -0.58678188578E+03  0.10059577719E+03  0.50008237707E+03  0.77751975262E+03  0.46999998093E+01 0. -1.
</event>
<event>
 5   0  0.1551501E-03  0.1211198E+04  0.7818609E-02  0.9103111E-01
        2   -1    0    0  501    0  0.00000000000E+00  0.00000000000E+00  0.16927274875E+04  0.16927274875E+04  0.25500000920E-02 0. -1.
       -2   -1    0    0    0  501  0.00000000000E+00  0.00000000000E+00 -0.21666237300E+03  0.21666237301E+03  0.25500000920E-02 0.  1.
    10030    2    1    2    0    0  0.00000000000E+00  0.00000000000E+00  0.14760651145E+04  0.19093898605E+04  0.12111983393E+04 0.  0.
        4    1    3    3  502    0  0.59800224473E+03 -0.32364800167E+02  0.59619984481E+03  0.84505031379E+03  0.12699999809E+01 0.  1.
       -4    1    3    3    0  502 -0.59800224473E+03  0.32364800167E+02  0.87986526965E+03  0.10643395467E+04  0.12699999809E+01 0. -1.
</event>
<event>
 5   0  0.9169078E-04  0.1206353E+04  0.7818609E-02  0.9107314E-01
        1   -1    0    0  501    0  0.00000000000E+00  0.00000000000E+00  0.63278114793E+03  0.63278114795E+03  0.50400001928E-02 0.  1.
       -1   -1    0    0    0  501  0.00000000000E+00  0.00000000000E+00 -0.57495670077E+03  0.57495670079E+03  0.50400001928E-02 0. -1.
    10030    2    1    2    0    0  0.00000000000E+00  0.00000000000E+00  0.57824447162E+02  0.12077378487E+04  0.12063527861E+04 0.  0.
        1    1    3    3  502    0  0.16145742827E+03 -0.45748154614E+03  0.38774234145E+03  0.62104910400E+03  0.50400001928E-02 0.  1.
       -1    1    3    3    0  502 -0.16145742827E+03  0.45748154614E+03 -0.32991789429E+03  0.58668874474E+03  0.50400001928E-02 0. -1.
</event>
<event>
 5   0  0.1647550E-03  0.1200698E+04  0.7818609E-02  0.9112246E-01
        2   -1    0    0  501    0  0.00000000000E+00  0.00000000000E+00  0.13869684894E+04  0.13869684894E+04  0.25500000920E-02 0. -1.
       -2   -1    0    0    0  501  0.00000000000E+00  0.00000000000E+00 -0.25986080734E+03  0.25986080736E+03  0.25500000920E-02 0.  1.
    10030    2    1    2    0    0  0.00000000000E+00  0.00000000000E+00  0.11271076821E+04  0.16468292968E+04  0.12006977162E+04 0.  0.
        3    1    3    3  502    0 -0.15993070061E+03 -0.27023264487E+01  0.13572045750E+04  0.13665977463E+04  0.10100000352E+00 0. -1.
       -3    1    3    3    0  502  0.15993070061E+03  0.27023264487E+01 -0.23009689291E+03  0.28023155050E+03  0.10100000352E+00 0.  1.
</event>
<event>
 5   0  0.1597352E-03  0.1197959E+04  0.7818609E-02  0.9114645E-01
       -2   -1    0    0    0  501  0.00000000000E+00  0.00000000000E+00  0.25911747305E+03  0.25911747307E+03  0.25500000920E-02 0.  1.
        2   -1    0    0  501    0  0.00000000000E+00  0.00000000000E+00 -0.13846088498E+04  0.13846088498E+04  0.25500000920E-02 0. -1.
    10030    2    1    2    0    0  0.00000000000E+00  0.00000000000E+00 -0.11254913767E+04  0.16437263229E+04  0.11979588413E+04 0.  0.
        1    1    3    3  502    0  0.44055459182E+03 -0.33099798274E+03 -0.88490823123E+03  0.10424541192E+04  0.50400001928E-02 0. -1.
       -1    1    3    3    0  502 -0.44055459182E+03  0.33099798274E+03 -0.24058314552E+03  0.60127220365E+03  0.50400001928E-02 0.  1.
</event>
<event>
 5   0  0.8908478E-04  0.1204343E+04  0.7818609E-02  0.9109063E-01
        1   -1    0    0  501    0  0.00000000000E+00  0.00000000000E+00  0.13064563850E+04  0.13064563850E+04  0.50400001928E-02 0.  1.
       -1   -1    0    0    0  501  0.00000000000E+00  0.00000000000E+00 -0.27755283449E+03  0.27755283454E+03  0.50400001928E-02 0. -1.
    10030    2    1    2    0    0  0.00000000000E+00  0.00000000000E+00  0.10289035505E+04  0.15840092195E+04  0.12043432614E+04 0.  0.
        4    1    3    3  502    0 -0.45988192163E+03  0.20110990120E+03  0.95200133399E+03  0.10762177879E+04  0.12699999809E+01 0.  1.
       -4    1    3    3    0  502  0.45988192163E+03 -0.20110990120E+03  0.76902216467E+02  0.50779143159E+03  0.12699999809E+01 0. -1.
</event>
<event>
 5   0  0.1647550E-03  0.1201429E+04  0.7818609E-02  0.9111607E-01
       -2   -1    0    0    0  501  0.00000000000E+00  0.00000000000E+00  0.25266896588E+03  0.25266896589E+03  0.25500000920E-02 0.  1.
        2   -1    0    0  501    0  0.00000000000E+00  0.00000000000E+00 -0.14281843139E+04  0.14281843139E+04  0.25500000920E-02 0. -1.
    10030    2    1    2    0    0  0.00000000000E+00  0.00000000000E+00 -0.11755153481E+04  0.16808532798E+04  0.12014289054E+04 0.  0.
        3    1    3    3  502    0 -0.32419138736E+03 -0.27123845611E+03  0.94027298192E+01  0.42279874318E+03  0.10100000352E+00 0.  1.
       -3    1    3    3    0  502  0.32419138736E+03  0.27123845611E+03 -0.11849180779E+04  0.12580545367E+04  0.10100000352E+00 0. -1.
</event>
<event>
 5   0  0.1597352E-03  0.1206371E+04  0.7818609E-02  0.9107299E-01
        2   -1    0    0  501    0  0.00000000000E+00  0.00000000000E+00  0.13018692956E+04  0.13018692956E+04  0.25500000920E-02 0. -1.
       -2   -1    0    0    0  501  0.00000000000E+00  0.00000000000E+00 -0.27946930507E+03  0.27946930508E+03  0.25500000920E-02 0.  1.
    10030    2    1    2    0    0  0.00000000000E+00  0.00000000000E+00  0.10223999905E+04  0.15813386007E+04  0.12063706020E+04 0.  0.
        1    1    3    3  502    0  0.50152048411E+03  0.15141510190E+03  0.90309707154E+03  0.10440467661E+04  0.50400001928E-02 0. -1.
       -1    1    3    3    0  502 -0.50152048411E+03 -0.15141510190E+03  0.11930291901E+03  0.53729183465E+03  0.50400001928E-02 0.  1.
</event>
<event>
 5   0  0.9358428E-04  0.1195156E+04  0.7818609E-02  0.9117107E-01
        1   -1    0    0  501    0  0.00000000000E+00  0.00000000000E+00  0.43921897076E+03  0.43921897079E+03  0.50400001928E-02 0.  1.
       -1   -1    0    0    0  501  0.00000000000E+00  0.00000000000E+00 -0.81303233161E+03  0.81303233163E+03  0.50400001928E-02 0. -1.
    10030    2    1    2    0    0  0.00000000000E+00  0.00000000000E+00 -0.37381336085E+03  0.12522513024E+04  0.11951555948E+04 0.  0.
        2    1    3    3  502    0  0.30196316383E+01 -0.36649042131E+02  0.43803233377E+03  0.43957319743E+03  0.25500000920E-02 0.  1.
       -2    1    3    3    0  502 -0.30196316383E+01  0.36649042131E+02 -0.81184569461E+03  0.81267810499E+03  0.25500000920E-02 0. -1.
</event>
<event>
 5   0  0.1567019E-03  0.1198886E+04  0.7818609E-02  0.9113832E-01
        2   -1    0    0  501    0  0.00000000000E+00  0.00000000000E+00  0.27576383789E+03  0.27576383790E+03  0.25500000920E-02 0.  1.
       -2   -1    0    0    0  501  0.00000000000E+00  0.00000000000E+00 -0.13030421308E+04  0.13030421308E+04  0.25500000920E-02 0. -1.
    10030    2    1    2    0    0  0.00000000000E+00  0.00000000000E+00 -0.10272782929E+04  0.15788059687E+04  0.11988859811E+04 0.  0.
        5    1    3    3  502    0 -0.12361942524E+02 -0.83323268613E+02  0.26790645495E+03  0.28087638441E+03  0.46999998093E+01 0.  1.
       -5    1    3    3    0  502  0.12361942524E+02  0.83323268613E+02 -0.12951847479E+04  0.12979295843E+04  0.46999998093E+01 0. -1.
</event>
<event>
 5   0  0.9169078E-04  0.1195446E+04  0.7818609E-02  0.9116852E-01
        1   -1    0    0  501    0  0.00000000000E+00  0.00000000000E+00  0.45223650158E+03  0.45223650161E+03  0.50400001928E-02 0. -1.
       -1   -1    0    0    0  501  0.00000000000E+00  0.00000000000E+00 -0.79001372076E+03  0.79001372077E+03  0.50400001928E-02 0.  1.
    10030    2    1    2    0    0  0.00000000000E+00  0.00000000000E+00 -0.33777721918E+03  0.12422502224E+04  0.11954464292E+04 0.  0.
        1    1    3    3  502    0  0.53198167601E+03 -0.24730877548E+03 -0.49920906474E+02  0.58877689405E+03  0.50400001928E-02 0. -1.
       -1    1    3    3    0  502 -0.53198167601E+03  0.24730877548E+03 -0.28785631271E+03  0.65347332833E+03  0.50400001928E-02 0.  1.
</event>
<event>
 5   0  0.1597352E-03  0.1180096E+04  0.7818609E-02  0.9130459E-01
       -2   -1    0    0    0  501  0.00000000000E+00  0.00000000000E+00  0.16366770293E+03  0.16366770295E+03  0.25500000920E-02 0.  1.
        2   -1    0    0  501    0  0.00000000000E+00  0.00000000000E+00 -0.21272167655E+04  0.21272167655E+04  0.25500000920E-02 0. -1.
    10030    2    1    2    0    0  0.00000000000E+00  0.00000000000E+00 -0.19635490626E+04  0.22908844685E+04  0.11800960667E+04 0.  0.
        1    1    3    3  502    0  0.99482300289E+02 -0.52521561630E+03 -0.14667365556E+04  0.15611099562E+04  0.50400001928E-02 0. -1.
       -1    1    3    3    0  502 -0.99482300289E+02  0.52521561630E+03 -0.49681250698E+03  0.72977451229E+03  0.50400001928E-02 0.  1.
</event>
<event>
 5   0  0.1537557E-03  0.1207247E+04  0.7818609E-02  0.9106537E-01
       -2   -1    0    0    0  501  0.00000000000E+00  0.00000000000E+00  0.23812151950E+03  0.23812151951E+03  0.25500000920E-02 0.  1.
        2   -1    0    0  501    0  0.00000000000E+00  0.00000000000E+00 -0.15301480535E+04  0.15301480535E+04  0.25500000920E-02 0. -1.
    10030    2    1    2    0    0  0.00000000000E+00  0.00000000000E+00 -0.12920265340E+04  0.17682695731E+04  0.12072467512E+04 0.  0.
        2    1    3    3  502    0  0.55097616710E+03  0.18377430768E+03 -0.88675003675E+03  0.10600346035E+04  0.25500000920E-02 0. -1.
       -2    1    3    3    0  502 -0.55097616710E+03 -0.18377430768E+03 -0.40527649730E+03  0.70823496959E+03  0.25500000920E-02 0.  1.
</event>
<event>
 5   0  0.9170776E-04  0.1195694E+04  0.7818609E-02  0.9116634E-01
        1   -1    0    0  501    0  0.00000000000E+00  0.00000000000E+00  0.50474207641E+03  0.50474207644E+03  0.50400001928E-02 0. -1.
       -1   -1    0    0    0  501  0.00000000000E+00  0.00000000000E+00 -0.70812557544E+03  0.70812557546E+03  0.50400001928E-02 0.  1.
    10030    2    1    2    0    0  0.00000000000E+00  0.00000000000E+00 -0.20338349903E+03  0.12128676519E+04  0.11956935616E+04 0.  0.
        5    1    3    3  502    0 -0.48067016897E+03  0.35545990157E+03 -0.99897049426E+02  0.60613287606E+03  0.46999998093E+01 0.  1.
       -5    1    3    3    0  502  0.48067016897E+03 -0.35545990157E+03 -0.10348644961E+03  0.60673477584E+03  0.46999998093E+01 0. -1.
</event>
<event>
 5   0  0.9208078E-04  0.1200800E+04  0.7818609E-02  0.9112157E-01
       -1   -1    0    0    0  501  0.00000000000E+00  0.00000000000E+00  0.60339071061E+03  0.60339071063E+03  0.50400001928E-02 0.  1.
        1   -1    0    0  501    0  0.00000000000E+00  0.00000000000E+00 -0.59742390563E+03  0.59742390566E+03  0.50400001928E-02 0. -1.
    10030    2    1    2    0    0  0.00000000000E+00  0.00000000000E+00  0.59668049763E+01  0.12008146163E+04  0.12007997918E+04 0.  0.
        3    1    3    3  502    0 -0.52454518525E+02  0.56763482944E+03  0.19145123976E+03  0.60134379810E+03  0.10100000352E+00 0.  1.
       -3    1    3    3    0  502  0.52454518525E+02 -0.56763482944E+03 -0.18548443478E+03  0.59947081819E+03  0.10100000352E+00 0. -1.
</event>
<event>
 5   0  0.1597352E-03  0.1203183E+04  0.7818609E-02  0.9110075E-01
        2   -1    0    0  501    0  0.00000000000E+00  0.00000000000E+00  0.17983107371E+04  0.17983107371E+04  0.25500000920E-02 0.  1.
       -2   -1    0    0    0  501  0.00000000000E+00  0.00000000000E+00 -0.20125127259E+03  0.20125127260E+03  0.25500000920E-02 0. -1.
    10030    2    1    2    0    0  0.00000000000E+00  0.00000000000E+00  0.15970594645E+04  0.19995620097E+04  0.12031829859E+04 0.  0.
        1    1    3    3  502    0 -0.65681983018E+02 -0.17187923881E+03 -0.15333888371E+03  0.23951912014E+03  0.50400001928E-02 0. -1.
       -1    1    3    3    0  502  0.65681983018E+02  0.17187923881E+03  0.17503983483E+04  0.17600428896E+04  0.50400001928E-02 0.  1.
</event>
<event>
 5   0  0.1567019E-03  0.1213847E+04  0.7818609E-02  0.9100822E-01
       -2   -1    0    0    0  501  0.00000000000E+00  0.00000000000E+00  0.66048288520E+03  0.66048288521E+03  0.25500000920E-02 0. -1.
        2   -1    0    0  501    0  0.00000000000E+00  0.00000000000E+00 -0.55770726008E+03  0.55770726008E+03  0.25500000920E-02 0.  1.
    10030    2    1    2    0    0  0.00000000000E+00  0.00000000000E+00  0.10277562513E+03  0.12181901453E+04  0.12138469430E+04 0.  0.
        5    1    3    3  502    0  0.25547883932E+03  0.22239844616E+03  0.55678029538E+03  0.65173375968E+03  0.46999998093E+01 0. -1.
       -5    1    3    3    0  502 -0.25547883932E+03 -0.22239844616E+03 -0.45400467025E+03  0.56645638561E+03  0.46999998093E+01 0.  1.
</event>
<event>
 5   0  0.9170776E-04  0.1203533E+04  0.7818609E-02  0.9109770E-01
        1   -1    0    0  501    0  0.00000000000E+00  0.00000000000E+00  0.93629992100E+03  0.93629992101E+03  0.50400001928E-02 0. -1.
       -1   -1    0    0    0  501  0.00000000000E+00  0.00000000000E+00 -0.38675965541E+03  0.38675965544E+03  0.50400001928E-02 0.  1.
    10030    2    1    2    0    0  0.00000000000E+00  0.00000000000E+00  0.54954026559E+03  0.13230595765E+04  0.12035331900E+04 0.  0.
        5    1    3    3  502    0  0.53227397634E+03  0.13882233204E+03  0.65879788623E+01  0.55013881633E+03  0.46999998093E+01 0.  1.
       -5    1    3    3    0  502 -0.53227397634E+03 -0.13882233204E+03  0.54295228673E+03  0.77292076013E+03  0.46999998093E+01 0. -1.
</event>
<event>
 5   0  0.1597352E-03  0.1198330E+04  0.7818609E-02  0.9114319E-01
       -2   -1    0    0    0  501  0.00000000000E+00  0.00000000000E+00  0.48646898904E+03  0.48646898904E+03  0.25500000920E-02 0.  1.
        2   -1    0    0  501    0  0.00000000000E+00  0.00000000000E+00 -0.73796836240E+03  0.73796836240E+03  0.25500000920E-02 0. -1.
    10030    2    1    2    0    0  0.00000000000E+00  0.00000000000E+00 -0.25149937336E+03  0.12244373514E+04  0.11983300434E+04 0.  0.
        1    1    3    3  502    0 -0.34174157960E+03 -0.46014278709E+03  0.52639213082E+02  0.57557760425E+03  0.50400001928E-02 0.  1.
       -1    1    3    3    0  502  0.34174157960E+03  0.46014278709E+03 -0.30413858644E+03  0.64885974719E+03  0.50400001928E-02 0. -1.
</event>
<event>
 5   0  0.8908478E-04  0.1194332E+04  0.7818609E-02  0.9117832E-01
        1   -1    0    0  501    0  0.00000000000E+00  0.00000000000E+00  0.95090992698E+03  0.95090992700E+03  0.50400001928E-02 0. -1.
       -1   -1    0    0    0  501  0.00000000000E+00  0.00000000000E+00 -0.37501702714E+03  0.37501702718E+03  0.50400001928E-02 0.  1.
    10030    2    1    2    0    0  0.00000000000E+00  0.00000000000E+00  0.57589289984E+03  0.13259269542E+04  0.11943323054E+04 0.  0.
        4    1    3    3  502    0 -0.42293652575E+03 -0.19525065100E+03  0.70275631267E+03  0.84312879765E+03  0.12699999809E+01 0. -1.
       -4    1    3    3    0  502  0.42293652575E+03  0.19525065100E+03 -0.12686341283E+03  0.48279815652E+03  0.12699999809E+01 0.  1.
</event>
<event>
 5   0  0.1647550E-03  0.1174214E+04  0.7818609E-02  0.9135732E-01
       -2   -1    0    0    0  501  0.00000000000E+00  0.00000000000E+00  0.60647676278E+03  0.60647676279E+03  0.25500000920E-02 0.  1.
        2   -1    0    0  501    0  0.00000000000E+00  0.00000000000E+00 -0.56835556508E+03  0.56835556509E+03  0.25500000920E-02 0. -1.
    10030    2    1    2    0    0  0.00000000000E+00  0.00000000000E+00  0.38121197696E+02  0.11748323279E+04  0.11742136828E+04 0.  0.
        3    1    3    3  502    0  0.50947518487E+03 -0.13342251176E+03 -0.24055231628E+03  0.57899219140E+03  0.10100000352E+00 0. -1.
       -3    1    3    3    0  502 -0.50947518487E+03  0.13342251176E+03  0.27867351397E+03  0.59584013647E+03  0.10100000352E+00 0.  1.
</event>
<event>
 5   0  0.1551501E-03  0.1203735E+04  0.7818609E-02  0.9109593E-01
        2   -1    0    0  501    0  0.00000000000E+00  0.00000000000E+00  0.89707481537E+03  0.89707481537E+03  0.25500000920E-02 0.  1.
       -2   -1    0    0    0  501  0.00000000000E+00  0.00000000000E+00 -0.40380663861E+03  0.40380663862E+03  0.25500000920E-02 0. -1.
    10030    2    1    2    0    0  0.00000000000E+00  0.00000000000E+00  0.49326817675E+03  0.13008814540E+04  0.12037354623E+04 0.  0.
        4    1    3    3  502    0  0.44755903822E+02  0.54185415432E+03 -0.32334340879E+02  0.54466148935E+03  0.12699999809E+01 0. -1.
       -4    1    3    3    0  502 -0.44755903822E+02 -0.54185415432E+03  0.52560251763E+03  0.75621996464E+03  0.12699999809E+01 0.  1.
</event>
<event>
 5   0  0.1537557E-03  0.1164409E+04  0.7818609E-02  0.9144592E-01
        2   -1    0    0  501    0  0.00000000000E+00  0.00000000000E+00  0.44537426728E+03  0.44537426729E+03  0.25500000920E-02 0. -1.
       -2   -1    0    0    0  501  0.00000000000E+00  0.00000000000E+00 -0.76107306027E+03  0.76107306027E+03  0.25500000920E-02 0.  1.
    10030    2    1    2    0    0  0.00000000000E+00  0.00000000000E+00 -0.31569879299E+03  0.12064473276E+04  0.11644094753E+04 0.  0.
        2    1    3    3  502    0  0.48028026185E+03  0.31850538489E+03 -0.24358676065E+03  0.62565910854E+03  0.25500000920E-02 0.  1.
       -2    1    3    3    0  502 -0.48028026185E+03 -0.31850538489E+03 -0.72112032332E+02  0.58078821901E+03  0.25500000920E-02 0. -1.
</event>
<event>
 5   0  0.1537557E-03  0.1196225E+04  0.7818609E-02  0.9116167E-01
        2   -1    0    0  501    0  0.00000000000E+00  0.00000000000E+00  0.10628232114E+04  0.10628232114E+04  0.25500000920E-02 0. -1.
       -2   -1    0    0    0  501  0.00000000000E+00  0.00000000000E+00 -0.33659253963E+03  0.33659253964E+03  0.25500000920E-02 0.  1.
    10030    2    1    2    0    0  0.00000000000E+00  0.00000000000E+00  0.72623067180E+03  0.13994157511E+04  0.11962246677E+04 0.  0.
        2    1    3    3  502    0  0.28656534597E+03  0.52498599406E+03  0.36650034756E+03  0.70146453669E+03  0.25500000920E-02 0. -1.
       -2    1    3    3    0  502 -0.28656534597E+03 -0.52498599406E+03  0.35973032423E+03  0.69795121438E+03  0.25500000920E-02 0.  1.
</event>
<event>
 5   0  0.1597352E-03  0.1270548E+04  0.7818609E-02  0.9053252E-01
        2   -1    0    0  501    0  0.00000000000E+00  0.00000000000E+00  0.17799801744E+04  0.17799801744E+04  0.25500000920E-02 0.  1.
       -2   -1    0    0    0  501  0.00000000000E+00  0.00000000000E+00 -0.22672898829E+03  0.22672898830E+03  0.25500000920E-02 0. -1.
    10030    2    1    2    0    0  0.00000000000E+00  0.00000000000E+00  0.15532511861E+04  0.20067091627E+04  0.12705480772E+04 0.  0.
        1    1    3    3  502    0  0.27552014094E+03 -0.76708623846E+02  0.16725496455E+04  0.16968258242E+04  0.50400001928E-02 0.  1.
       -1    1    3    3    0  502 -0.27552014094E+03  0.76708623846E+02 -0.11929845939E+03  0.30988333849E+03  0.50400001928E-02 0. -1.
</event>
<event>
 5   0  0.9170776E-04  0.1199880E+04  0.7818609E-02  0.9112961E-01
       -1   -1    0    0    0  501  0.00000000000E+00  0.00000000000E+00  0.18974820425E+03  0.18974820432E+03  0.50400001928E-02 0. -1.
        1   -1    0    0  501    0  0.00000000000E+00  0.00000000000E+00 -0.18968723331E+04  0.18968723331E+04  0.50400001928E-02 0.  1.
    10030    2    1    2    0    0  0.00000000000E+00  0.00000000000E+00 -0.17071241288E+04  0.20866205374E+04  0.11998801923E+04 0.  0.
        5    1    3    3  502    0 -0.26475660104E+03 -0.28620595244E+03 -0.16464810008E+04  0.16920200002E+04  0.46999998093E+01 0.  1.
       -5    1    3    3    0  502  0.26475660104E+03  0.28620595244E+03 -0.60643128024E+02  0.39460053723E+03  0.46999998093E+01 0. -1.
</event>
<event>
 5   0  0.9169078E-04  0.1188161E+04  0.7818609E-02  0.9123283E-01
        1   -1    0    0  501    0  0.00000000000E+00  0.00000000000E+00  0.46225362445E+03  0.46225362448E+03  0.50400001928E-02 0. -1.
       -1   -1    0    0    0  501  0.00000000000E+00  0.00000000000E+00 -0.76350227712E+03  0.76350227714E+03  0.50400001928E-02 0.  1.
    10030    2    1    2    0    0  0.00000000000E+00  0.00000000000E+00 -0.30124865267E+03  0.12257559016E+04  0.11881610916E+04 0.  0.
        1    1    3    3  502    0 -0.28517789719E+03  0.38721576354E+03  0.20922361140E+03  0.52443970118E+03  0.50400001928E-02 0. -1.
       -1    1    3    3    0  502  0.28517789719E+03 -0.38721576354E+03 -0.51047226407E+03  0.70131620044E+03  0.50400001928E-02 0.  1.
</event>
<event>
 5   0  0.1597352E-03  0.1203567E+04  0.7818609E-02  0.9109740E-01
        2   -1    0    0  501    0  0.00000000000E+00  0.00000000000E+00  0.15817689464E+04  0.15817689464E+04  0.25500000920E-02 0. -1.
       -2   -1    0    0    0  501  0.00000000000E+00  0.00000000000E+00 -0.22894847228E+03  0.22894847230E+03  0.25500000920E-02 0.  1.
    10030    2    1    2    0    0  0.00000000000E+00  0.00000000000E+00  0.13528204742E+04  0.18107174187E+04  0.12035673372E+04 0.  0.
        1    1    3    3  502    0 -0.20956076459E+03 -0.33775066995E+03 -0.33527018792E+01  0.39749524493E+03  0.50400001928E-02 0.  1.
       -1    1    3    3    0  502  0.20956076459E+03  0.33775066995E+03  0.13561731760E+04  0.14132221738E+04  0.50400001928E-02 0. -1.
</event>
<event>
 5   0  0.9358428E-04  0.1179444E+04  0.7818609E-02  0.9131042E-01
        1   -1    0    0  501    0  0.00000000000E+00  0.00000000000E+00  0.81471479580E+03  0.81471479582E+03  0.50400001928E-02 0. -1.
       -1   -1    0    0    0  501  0.00000000000E+00  0.00000000000E+00 -0.42686360886E+03  0.42686360889E+03  0.50400001928E-02 0.  1.
    10030    2    1    2    0    0  0.00000000000E+00  0.00000000000E+00  0.38785118694E+03  0.12415784047E+04  0.11794441029E+04 0.  0.
        2    1    3    3  502    0  0.23472196414E+02  0.57293225847E+03  0.48938966264E+02  0.57549747109E+03  0.25500000920E-02 0. -1.
       -2    1    3    3    0  502 -0.23472196414E+02 -0.57293225847E+03  0.33891222068E+03  0.66608093362E+03  0.25500000920E-02 0.  1.
</event>
<event>
 5   0  0.9208078E-04  0.1201430E+04  0.7818609E-02  0.9111606E-01
       -1   -1    0    0    0  501  0.00000000000E+00  0.00000000000E+00  0.32845182997E+03  0.32845183000E+03  0.50400001928E-02 0. -1.
        1   -1    0    0  501    0  0.00000000000E+00  0.00000000000E+00 -0.10986651627E+04  0.10986651627E+04  0.50400001928E-02 0.  1.
    10030    2    1    2    0    0  0.00000000000E+00  0.00000000000E+00 -0.77021333275E+03  0.14271169927E+04  0.12014301199E+04 0.  0.
        3    1    3    3  502    0 -0.70724574246E+02  0.38873152960E+03 -0.92259257623E+03  0.10036389986E+04  0.10100000352E+00 0.  1.
       -3    1    3    3    0  502  0.70724574246E+02 -0.38873152960E+03  0.15237924348E+03  0.42347799418E+03  0.10100000352E+00 0. -1.
</event>
<event>
 5   0  0.8908478E-04  0.1196267E+04  0.7818609E-02  0.9116130E-01
        1   -1    0    0  501    0  0.00000000000E+00  0.00000000000E+00  0.16153081814E+04  0.16153081814E+04  0.50400001928E-02 0.  1.
       -1   -1    0    0    0  501  0.00000000000E+00  0.00000000000E+00 -0.22148317639E+03  0.22148317645E+03  0.50400001928E-02 0. -1.
    10030    2    1    2    0    0  0.00000000000E+00  0.00000000000E+00  0.13938250050E+04  0.18367913579E+04  0.11962668380E+04 0.  0.
        4    1    3    3  502    0 -0.33056326281E+03  0.11927942517E+02  0.14620892630E+04  0.14990400169E+04  0.12699999809E+01 0.  1.
       -4    1    3    3    0  502  0.33056326281E+03 -0.11927942517E+02 -0.68264257914E+02  0.33775134099E+03  0.12699999809E+01 0. -1.
</event>
<event>
 5   0  0.1597352E-03  0.1166063E+04  0.7818609E-02  0.9143092E-01
        2   -1    0    0  501    0  0.00000000000E+00  0.00000000000E+00  0.18686644090E+04  0.18686644090E+04  0.25500000920E-02 0.  1.
       -2   -1    0    0    0  501  0.00000000000E+00  0.00000000000E+00 -0.18190823506E+03  0.18190823508E+03  0.25500000920E-02 0. -1.
    10030    2    1    2    0    0  0.00000000000E+00  0.00000000000E+00  0.16867561740E+04  0.20505726441E+04  0.11660625105E+04 0.  0.
        1    1    3    3  502    0  0.16793878230E+03 -0.53573455575E+03  0.11198137404E+04  0.12526762399E+04  0.50400001928E-02 0. -1.
       -1    1    3    3    0  502 -0.16793878230E+03  0.53573455575E+03  0.56694243357E+03  0.79789640420E+03  0.50400001928E-02 0.  1.
</event>
<event>
 5   0  0.9358428E-04  0.1209140E+04  0.7818609E-02  0.9104894E-01
       -1   -1    0    0    0  501  0.00000000000E+00  0.00000000000E+00  0.45059858090E+03  0.45059858093E+03  0.50400001928E-02 0. -1.
        1   -1    0    0  501    0  0.00000000000E+00  0.00000000000E+00 -0.81115395518E+03  0.81115395520E+03  0.50400001928E-02 0.  1.
    10030    2    1    2    0    0  0.00000000000E+00  0.00000000000E+00 -0.36055537428E+03  0.12617525361E+04  0.12091398945E+04 0.  0.
        2    1    3    3  502    0  0.13464893807E+03 -0.57553285530E+03 -0.31283423667E+03  0.66875530929E+03  0.25500000920E-02 0.  1.
       -2    1    3    3    0  502 -0.13464893807E+03  0.57553285530E+03 -0.47721137614E+02  0.59299722684E+03  0.25500000920E-02 0. -1.
</event>
<event>
 5   0  0.9208078E-04  0.1201789E+04  0.7818609E-02  0.9111292E-01
        1   -1    0    0  501    0  0.00000000000E+00  0.00000000000E+00  0.10231580389E+04  0.10231580389E+04  0.50400001928E-02 0. -1.
       -1   -1    0    0    0  501  0.00000000000E+00  0.00000000000E+00 -0.35290148103E+03  0.35290148107E+03  0.50400001928E-02 0.  1.
    10030    2    1    2    0    0  0.00000000000E+00  0.00000000000E+00  0.67025655790E+03  0.13760595200E+04  0.12017886458E+04 0.  0.
        3    1    3    3  502    0 -0.23113049781E+03  0.14331270152E+03  0.94865914028E+03  0.98687081834E+03  0.10100000352E+00 0. -1.
       -3    1    3    3    0  502  0.23113049781E+03 -0.14331270152E+03 -0.27840258238E+03  0.38918870168E+03  0.10100000352E+00 0.  1.
</event>
<event>
 5   0  0.9170776E-04  0.1210242E+04  0.7818609E-02  0.9103939E-01
       -1   -1    0    0    0  501  0.00000000000E+00  0.00000000000E+00  0.51058592885E+03  0.51058592887E+03  0.50400001928E-02 0.  1.
        1   -1    0    0  501    0  0.00000000000E+00  0.00000000000E+00 -0.71715930554E+03  0.71715930555E+03  0.50400001928E-02 0. -1.
    10030    2    1    2    0    0  0.00000000000E+00  0.00000000000E+00 -0.20657337669E+03  0.12277452344E+04  0.12102420422E+04 0.  0.
        5    1    3    3  502    0 -0.22960551907E+03 -0.99362499098E+02  0.45564237247E+03  0.51983041677E+03  0.46999998093E+01 0.  1.
       -5    1    3    3    0  502  0.22960551907E+03  0.99362499098E+02 -0.66221574916E+03  0.70791481765E+03  0.46999998093E+01 0. -1.
</event>
<event>
 5   0  0.1597352E-03  0.1198084E+04  0.7818609E-02  0.9114536E-01
        2   -1    0    0  501    0  0.00000000000E+00  0.00000000000E+00  0.11233916155E+04  0.11233916155E+04  0.25500000920E-02 0.  1.
       -2   -1    0    0    0  501  0.00000000000E+00  0.00000000000E+00 -0.31943546291E+03  0.31943546292E+03  0.25500000920E-02 0. -1.
    10030    2    1    2    0    0  0.00000000000E+00  0.00000000000E+00  0.80395615261E+03  0.14428270784E+04  0.11980836711E+04 0.  0.
        1    1    3    3  502    0  0.15118028110E+03  0.41686421598E+03 -0.83063713882E+02  0.45114391557E+03  0.50400001928E-02 0. -1.
       -1    1    3    3    0  502 -0.15118028110E+03 -0.41686421598E+03  0.88701986649E+03  0.99168316288E+03  0.50400001928E-02 0.  1.
</event>
<event>
 5   0  0.6137750E-04  0.1203043E+04  0.7818609E-02  0.9110197E-01
        3   -1    0    0  501    0  0.00000000000E+00  0.00000000000E+00  0.27636629420E+03  0.27636631265E+03  0.10100000352E+00 0. -1.
       -3   -1    0    0    0  501  0.00000000000E+00  0.00000000000E+00 -0.13092345917E+04  0.13092345956E+04  0.10100000352E+00 0.  1.
    10030    2    1    2    0    0  0.00000000000E+00  0.00000000000E+00 -0.10328682975E+04  0.15856009082E+04  0.12030433576E+04 0.  0.
        1    1    3    3  502    0 -0.56126224179E+03  0.20306163067E+03 -0.61487849789E+03  0.85692759152E+03  0.50400001928E-02 0.  1.
       -1    1    3    3    0  502  0.56126224179E+03 -0.20306163067E+03 -0.41798979961E+03  0.72867331673E+03  0.50400001928E-02 0. -1.
</event>
<event>
 5   0  0.9170776E-04  0.1206301E+04  0.7818609E-02  0.9107359E-01
        1   -1    0    0  501    0  0.00000000000E+00  0.00000000000E+00  0.13611348070E+04  0.13611348070E+04  0.50400001928E-02 0. -1.
       -1   -1    0    0    0  501  0.00000000000E+00  0.00000000000E+00 -0.26727013555E+03  0.26727013560E+03  0.50400001928E-02 0.  1.
    10030    2    1    2    0    0  0.00000000000E+00  0.00000000000E+00  0.10938646714E+04  0.16284049426E+04  0.12063012632E+04 0.  0.
        5    1    3    3  502    0 -0.20682553396E+03 -0.39030984804E+03 -0.74377941696E+01  0.44180990228E+03  0.46999998093E+01 0.  1.
       -5    1    3    3    0  502  0.20682553396E+03  0.39030984804E+03  0.11013024656E+04  0.11865950403E+04  0.46999998093E+01 0. -1.
</event>
<event>
 5   0  0.1537557E-03  0.1197342E+04  0.7818609E-02  0.9115186E-01
       -2   -1    0    0    0  501  0.00000000000E+00  0.00000000000E+00  0.16806904113E+03  0.16806904115E+03  0.25500000920E-02 0. -1.
        2   -1    0    0  501    0  0.00000000000E+00  0.00000000000E+00 -0.21324995089E+04  0.21324995089E+04  0.25500000920E-02 0.  1.
    10030    2    1    2    0    0  0.00000000000E+00  0.00000000000E+00 -0.19644304678E+04  0.23005685500E+04  0.11973423031E+04 0.  0.
        2    1    3    3  502    0  0.78939822362E+02  0.52885494155E+03 -0.46490601404E+03  0.70855955759E+03  0.25500000920E-02 0. -1.
       -2    1    3    3    0  502 -0.78939822362E+02 -0.52885494155E+03 -0.14995244537E+04  0.15920089925E+04  0.25500000920E-02 0.  1.
</event>
<event>
 5   0  0.9358428E-04  0.1200432E+04  0.7818609E-02  0.9112478E-01
       -1   -1    0    0    0  501  0.00000000000E+00  0.00000000000E+00  0.82509136478E+03  0.82509136479E+03  0.50400001928E-02 0. -1.
        1   -1    0    0  501    0  0.00000000000E+00  0.00000000000E+00 -0.43662987673E+03  0.43662987676E+03  0.50400001928E-02 0.  1.
    10030    2    1    2    0    0  0.00000000000E+00  0.00000000000E+00  0.38846148805E+03  0.12617212415E+04  0.12004324903E+04 0.  0.
        2    1    3    3  502    0  0.19971719569E+03 -0.45712414998E+03 -0.15659216385E+03  0.52284849864E+03  0.25500000920E-02 0.  1.
       -2    1    3    3    0  502 -0.19971719569E+03  0.45712414998E+03  0.54505365190E+03  0.73887274291E+03  0.25500000920E-02 0. -1.
</event>
<event>
 5   0  0.1567019E-03  0.1204877E+04  0.7818609E-02  0.9108598E-01
       -2   -1    0    0    0  501  0.00000000000E+00  0.00000000000E+00  0.17946521673E+03  0.17946521675E+03  0.25500000920E-02 0. -1.
        2   -1    0    0  501    0  0.00000000000E+00  0.00000000000E+00 -0.20222991928E+04  0.20222991928E+04  0.25500000920E-02 0.  1.
    10030    2    1    2    0    0  0.00000000000E+00  0.00000000000E+00 -0.18428339761E+04  0.22017644096E+04  0.12048773597E+04 0.  0.
        5    1    3    3  502    0  0.21784744157E+03  0.50887815891E+03 -0.13557631872E+04  0.14644215234E+04  0.46999998093E+01 0.  1.
       -5    1    3    3    0  502 -0.21784744157E+03 -0.50887815891E+03 -0.48707078892E+03  0.73734288620E+03  0.46999998093E+01 0. -1.
</event>
<event>
 5   0  0.1551501E-03  0.1195239E+04  0.7818609E-02  0.9117034E-01
       -2   -1    0    0    0  501  0.00000000000E+00  0.00000000000E+00  0.17822946045E+03  0.17822946047E+03  0.25500000920E-02 0.  1.
        2   -1    0    0  501    0  0.00000000000E+00  0.00000000000E+00 -0.20038724681E+04  0.20038724681E+04  0.25500000920E-02 0. -1.
    10030    2    1    2    0    0  0.00000000000E+00  0.00000000000E+00 -0.18256430077E+04  0.21821019286E+04  0.11952390703E+04 0.  0.
        4    1    3    3  502    0  0.90176044035E+02  0.56617713771E+03 -0.60483492447E+03  0.83337576695E+03  0.12699999809E+01 0.  1.
       -4    1    3    3    0  502 -0.90176044035E+02 -0.56617713771E+03 -0.12208080832E+04  0.13487261617E+04  0.12699999809E+01 0. -1.
</event>
<event>
 5   0  0.1551501E-03  0.1183132E+04  0.7818609E-02  0.9127750E-01
       -2   -1    0    0    0  501  0.00000000000E+00  0.00000000000E+00  0.18745016727E+03  0.18745016729E+03  0.25500000920E-02 0. -1.
        2   -1    0    0  501    0  0.00000000000E+00  0.00000000000E+00 -0.18668991959E+04  0.18668991959E+04  0.25500000920E-02 0.  1.
    10030    2    1    2    0    0  0.00000000000E+00  0.00000000000E+00 -0.16794490287E+04  0.20543493632E+04  0.11831323959E+04 0.  0.
        4    1    3    3  502    0 -0.31866248994E+02  0.54005470385E+03 -0.12552725923E+04  0.13668889622E+04  0.12699999809E+01 0.  1.
       -4    1    3    3    0  502  0.31866248994E+02 -0.54005470385E+03 -0.42417643634E+03  0.68746040106E+03  0.12699999809E+01 0. -1.
</event>
<event>
 5   0  0.9170776E-04  0.1192223E+04  0.7818609E-02  0.9119691E-01
       -1   -1    0    0    0  501  0.00000000000E+00  0.00000000000E+00  0.89011027992E+03  0.89011027994E+03  0.50400001928E-02 0. -1.
        1   -1    0    0  501    0  0.00000000000E+00  0.00000000000E+00 -0.39921874364E+03  0.39921874367E+03  0.50400001928E-02 0.  1.
    10030    2    1    2    0    0  0.00000000000E+00  0.00000000000E+00  0.49089153629E+03  0.12893290236E+04  0.11922226431E+04 0.  0.
        5    1    3    3  502    0  0.48814411384E+03 -0.33302270108E+03  0.33017115314E+03  0.67692235572E+03  0.46999998093E+01 0. -1.
       -5    1    3    3    0  502 -0.48814411384E+03  0.33302270108E+03  0.16072038315E+03  0.61240666788E+03  0.46999998093E+01 0.  1.
</event>
<event>
 5   0  0.9170776E-04  0.1188716E+04  0.7818609E-02  0.9122791E-01
        1   -1    0    0  501    0  0.00000000000E+00  0.00000000000E+00  0.83735788194E+03  0.83735788196E+03  0.50400001928E-02 0. -1.
       -1   -1    0    0    0  501  0.00000000000E+00  0.00000000000E+00 -0.42187599144E+03  0.42187599147E+03  0.50400001928E-02 0.  1.
    10030    2    1    2    0    0  0.00000000000E+00  0.00000000000E+00  0.41548189050E+03  0.12592338734E+04  0.11887155870E+04 0.  0.
        5    1    3    3  502    0  0.11239091122E+02  0.43151754091E+03  0.64051739816E+03  0.77241072794E+03  0.46999998093E+01 0. -1.
       -5    1    3    3    0  502 -0.11239091122E+02 -0.43151754091E+03 -0.22503550766E+03  0.48682314550E+03  0.46999998093E+01 0.  1.
</event>
<event>
 5   0  0.9170776E-04  0.1215049E+04  0.7818609E-02  0.9099785E-01
        1   -1    0    0  501    0  0.00000000000E+00  0.00000000000E+00  0.69126989319E+03  0.69126989321E+03  0.50400001928E-02 0.  1.
       -1   -1    0    0    0  501  0.00000000000E+00  0.00000000000E+00 -0.53392467475E+03  0.53392467478E+03  0.50400001928E-02 0. -1.
    10030    2    1    2    0    0  0.00000000000E+00  0.00000000000E+00  0.15734521844E+03  0.12251945680E+04  0.12150490573E+04 0.  0.
        5    1    3    3  502    0 -0.80986090156E+02 -0.16604115847E+03 -0.50489593280E+03  0.53765268163E+03  0.46999998093E+01 0. -1.
       -5    1    3    3    0  502  0.80986090156E+02  0.16604115847E+03  0.66224115124E+03  0.68754188636E+03  0.46999998093E+01 0.  1.
</event>
<event>
 5   0  0.1551501E-03  0.1198205E+04  0.7818609E-02  0.9114429E-01
       -2   -1    0    0    0  501  0.00000000000E+00  0.00000000000E+00  0.42778265456E+03  0.42778265456E+03  0.25500000920E-02 0.  1.
        2   -1    0    0  501    0  0.00000000000E+00  0.00000000000E+00 -0.83903306835E+03  0.83903306836E+03  0.25500000920E-02 0. -1.
    10030    2    1    2    0    0  0.00000000000E+00  0.00000000000E+00 -0.41125041380E+03  0.12668157229E+04  0.11982049795E+04 0.  0.
        4    1    3    3  502    0  0.29829489816E+03 -0.49814138952E+03 -0.49531437001E+02  0.58273464491E+03  0.12699999809E+01 0.  1.
       -4    1    3    3    0  502 -0.29829489816E+03  0.49814138952E+03 -0.36171897679E+03  0.68408107801E+03  0.12699999809E+01 0. -1.
</event>
<event>
 5   0  0.1567019E-03  0.1197314E+04  0.7818609E-02  0.9115211E-01
        2   -1    0    0  501    0  0.00000000000E+00  0.00000000000E+00  0.11562457030E+04  0.11562457030E+04  0.25500000920E-02 0. -1.
       -2   -1    0    0    0  501  0.00000000000E+00  0.00000000000E+00 -0.30996039944E+03  0.30996039945E+03  0.25500000920E-02 0.  1.
    10030    2    1    2    0    0  0.00000000000E+00  0.00000000000E+00  0.84628530358E+03  0.14662061025E+04  0.11973142945E+04 0.  0.
        5    1    3    3  502    0  0.51545465540E+03 -0.18268670895E+03  0.12493725401E+03  0.56098069738E+03  0.46999998093E+01 0.  1.
       -5    1    3    3    0  502 -0.51545465540E+03  0.18268670895E+03  0.72134804957E+03  0.90522540508E+03  0.46999998093E+01 0. -1.
</event>
<event>
 5   0  0.9208078E-04  0.1198773E+04  0.7818609E-02  0.9113931E-01
       -1   -1    0    0    0  501  0.00000000000E+00  0.00000000000E+00  0.66664403014E+03  0.66664403016E+03  0.50400001928E-02 0.  1.
        1   -1    0    0  501    0  0.00000000000E+00  0.00000000000E+00 -0.53891486134E+03  0.53891486136E+03  0.50400001928E-02 0. -1.
    10030    2    1    2    0    0  0.00000000000E+00  0.00000000000E+00  0.12772916880E+03  0.12055588915E+04  0.11987733315E+04 0.  0.
        3    1    3    3  502    0  0.46319732790E+03  0.35902294751E+03  0.19033462300E+03  0.61617896778E+03  0.10100000352E+00 0.  1.
       -3    1    3    3    0  502 -0.46319732790E+03 -0.35902294751E+03 -0.62605454199E+02  0.58937992375E+03  0.10100000352E+00 0. -1.
</event>
<event>
 5   0  0.1551501E-03  0.1188848E+04  0.7818609E-02  0.9122674E-01
        2   -1    0    0  501    0  0.00000000000E+00  0.00000000000E+00  0.16488700226E+04  0.16488700226E+04  0.25500000920E-02 0.  1.
       -2   -1    0    0    0  501  0.00000000000E+00  0.00000000000E+00 -0.21429215348E+03  0.21429215349E+03  0.25500000920E-02 0. -1.
    10030    2    1    2    0    0  0.00000000000E+00  0.00000000000E+00  0.14345778691E+04  0.18631621761E+04  0.11888480272E+04 0.  0.
        4    1    3    3  502    0 -0.46166243709E+03 -0.78091277233E+02  0.12912089937E+04  0.13734819736E+04  0.12699999809E+01 0.  1.
       -4    1    3    3    0  502  0.46166243709E+03  0.78091277233E+02  0.14336887540E+03  0.48968020251E+03  0.12699999809E+01 0. -1.
</event>
<event>
 5   0  0.1597352E-03  0.1189958E+04  0.7818609E-02  0.9121692E-01
       -2   -1    0    0    0  501  0.00000000000E+00  0.00000000000E+00  0.39390740083E+03  0.39390740084E+03  0.25500000920E-02 0.  1.
        2   -1    0    0  501    0  0.00000000000E+00  0.00000000000E+00 -0.89868893587E+03  0.89868893587E+03  0.25500000920E-02 0. -1.
    10030    2    1    2    0    0  0.00000000000E+00  0.00000000000E+00 -0.50478153503E+03  0.12925963367E+04  0.11899583571E+04 0.  0.
        1    1    3    3  502    0 -0.34728304087E+03  0.45392054452E+03 -0.43203636741E+03  0.71645292518E+03  0.50400001928E-02 0. -1.
       -1    1    3    3    0  502  0.34728304087E+03 -0.45392054452E+03 -0.72745167626E+02  0.57614341153E+03  0.50400001928E-02 0.  1.
</event>
<event>
 5   0  0.9169078E-04  0.1202836E+04  0.7818609E-02  0.9110378E-01
       -1   -1    0    0    0  501  0.00000000000E+00  0.00000000000E+00  0.20521301591E+03  0.20521301597E+03  0.50400001928E-02 0.  1.
        1   -1    0    0  501    0  0.00000000000E+00  0.00000000000E+00 -0.17625766655E+04  0.17625766655E+04  0.50400001928E-02 0. -1.
    10030    2    1    2    0    0  0.00000000000E+00  0.00000000000E+00 -0.15573636496E+04  0.19677896815E+04  0.12028361042E+04 0.  0.
        1    1    3    3  502    0  0.43342031378E+02  0.40507398826E+03 -0.54892382722E+02  0.41106768464E+03  0.50400001928E-02 0.  1.
       -1    1    3    3    0  502 -0.43342031378E+02 -0.40507398826E+03 -0.15024712669E+04  0.15567219968E+04  0.50400001928E-02 0. -1.
</event>
<event>
 5   0  0.1647550E-03  0.1197682E+04  0.7818609E-02  0.9114888E-01
        2   -1    0    0  501    0  0.00000000000E+00  0.00000000000E+00  0.86179159332E+03  0.86179159333E+03  0.25500000920E-02 0.  1.
       -2   -1    0    0    0  501  0.00000000000E+00  0.00000000000E+00 -0.41612237144E+03  0.41612237145E+03  0.25500000920E-02 0. -1.
    10030    2    1    2    0    0  0.00000000000E+00  0.00000000000E+00  0.44566922189E+03  0.12779139648E+04  0.11976823644E+04 0.  0.
        3    1    3    3  502    0 -0.46922500005E+03  0.10209656039E+03 -0.15892527734E+03  0.50581919921E+03  0.10100000352E+00 0. -1.
       -3    1    3    3    0  502  0.46922500005E+03 -0.10209656039E+03  0.60459449923E+03  0.77209476556E+03  0.10100000352E+00 0.  1.
</event>
<event>
 5   0  0.9208078E-04  0.1203464E+04  0.7818609E-02  0.9109830E-01
       -1   -1    0    0    0  501  0.00000000000E+00  0.00000000000E+00  0.41907146927E+03  0.41907146930E+03  0.50400001928E-02 0.  1.
        1   -1    0    0  501    0  0.00000000000E+00  0.00000000000E+00 -0.86400927132E+03  0.86400927133E+03  0.50400001928E-02 0. -1.
    10030    2    1    2    0    0  0.00000000000E+00  0.00000000000E+00 -0.44493780205E+03  0.12830807406E+04  0.12034643905E+04 0.  0.
        3    1    3    3  502    0 -0.54184998530E+03  0.14657717814E+03  0.86567677533E+01  0.56139222078E+03  0.10100000352E+00 0. -1.
       -3    1    3    3    0  502  0.54184998530E+03 -0.14657717814E+03 -0.45359456980E+03  0.72168851985E+03  0.10100000352E+00 0.  1.
</event>
<event>
 5   0  0.9170776E-04  0.1203352E+04  0.7818609E-02  0.9109928E-01
        1   -1    0    0  501    0  0.00000000000E+00  0.00000000000E+00  0.21024912755E+04  0.21024912755E+04  0.50400001928E-02 0.  1.
       -1   -1    0    0    0  501  0.00000000000E+00  0.00000000000E+00 -0.17218336061E+03  0.17218336068E+03  0.50400001928E-02 0. -1.
    10030    2    1    2    0    0  0.00000000000E+00  0.00000000000E+00  0.19303079149E+04  0.22746746362E+04  0.12033520076E+04 0.  0.
        5    1    3    3  502    0 -0.24870978910E+03  0.53315852573E+03  0.12033396214E+04  0.13394636640E+04  0.46999998093E+01 0.  1.
       -5    1    3    3    0  502  0.24870978910E+03 -0.53315852573E+03  0.72696829351E+03  0.93521097220E+03  0.46999998093E+01 0. -1.
</event>
<event>
 5   0  0.9169078E-04  0.1186893E+04  0.7818609E-02  0.9124407E-01
        1   -1    0    0  501    0  0.00000000000E+00  0.00000000000E+00  0.21052586464E+04  0.21052586464E+04  0.50400001928E-02 0. -1.
       -1   -1    0    0    0  501  0.00000000000E+00  0.00000000000E+00 -0.16728519180E+03  0.16728519188E+03  0.50400001928E-02 0.  1.
    10030    2    1    2    0    0  0.00000000000E+00  0.00000000000E+00  0.19379734546E+04  0.22725438382E+04  0.11868927442E+04 0.  0.
        1    1    3    3  502    0 -0.25401615136E+03 -0.49303431208E+03  0.56475564470E+03  0.79155288913E+03  0.50400001928E-02 0.  1.
       -1    1    3    3    0  502  0.25401615136E+03  0.49303431208E+03  0.13732178099E+04  0.14809909491E+04  0.50400001928E-02 0. -1.
</event>
<event>
 5   0  0.9169078E-04  0.1200353E+04  0.7818609E-02  0.9112548E-01
       -1   -1    0    0    0  501  0.00000000000E+00  0.00000000000E+00  0.42144326415E+03  0.42144326418E+03  0.50400001928E-02 0. -1.
        1   -1    0    0  501    0  0.00000000000E+00  0.00000000000E+00 -0.85470945151E+03  0.85470945153E+03  0.50400001928E-02 0.  1.
    10030    2    1    2    0    0  0.00000000000E+00  0.00000000000E+00 -0.43326618737E+03  0.12761527157E+04  0.12003525168E+04 0.  0.
        1    1    3    3  502    0 -0.72782962844E+02  0.49350611184E+03 -0.57142193761E+03  0.75853060117E+03  0.50400001928E-02 0. -1.
       -1    1    3    3    0  502  0.72782962844E+02 -0.49350611184E+03  0.13815575024E+03  0.51762211453E+03  0.50400001928E-02 0.  1.
</event>
<event>
 5   0  0.1647550E-03  0.1201894E+04  0.7818609E-02  0.9111200E-01
       -2   -1    0    0    0  501  0.00000000000E+00  0.00000000000E+00  0.38080849229E+03  0.38080849230E+03  0.25500000920E-02 0. -1.
        2   -1    0    0  501    0  0.00000000000E+00  0.00000000000E+00 -0.94834335197E+03  0.94834335197E+03  0.25500000920E-02 0.  1.
    10030    2    1    2    0    0  0.00000000000E+00  0.00000000000E+00 -0.56753485967E+03  0.13291518443E+04  0.12018938423E+04 0.  0.
        3    1    3    3  502    0 -0.46430136709E+03 -0.35092520204E+02  0.13636549231E+03  0.48518326656E+03  0.10100000352E+00 0. -1.
       -3    1    3    3    0  502  0.46430136709E+03  0.35092520204E+02 -0.70390035198E+03  0.84396857771E+03  0.10100000352E+00 0.  1.
</event>
<event>
 5   0  0.9169078E-04  0.1199270E+04  0.7818609E-02  0.9113496E-01
        1   -1    0    0  501    0  0.00000000000E+00  0.00000000000E+00  0.12453852431E+04  0.12453852431E+04  0.50400001928E-02 0.  1.
       -1   -1    0    0    0  501  0.00000000000E+00  0.00000000000E+00 -0.28871549257E+03  0.28871549261E+03  0.50400001928E-02 0. -1.
    10030    2    1    2    0    0  0.00000000000E+00  0.00000000000E+00  0.95666975048E+03  0.15341007357E+04  0.11992698011E+04 0.  0.
        1    1    3    3  502    0 -0.33782766205E+03 -0.38844059218E+03  0.84998553964E+02  0.52176467598E+03  0.50400001928E-02 0. -1.
       -1    1    3    3    0  502  0.33782766205E+03  0.38844059218E+03  0.87167119652E+03  0.10123360597E+04  0.50400001928E-02 0.  1.
</event>
<event>
 5   0  0.9358428E-04  0.1199093E+04  0.7818609E-02  0.9113651E-01
        1   -1    0    0  501    0  0.00000000000E+00  0.00000000000E+00  0.71322724664E+03  0.71322724666E+03  0.50400001928E-02 0.  1.
       -1   -1    0    0    0  501  0.00000000000E+00  0.00000000000E+00 -0.50398537938E+03  0.50398537940E+03  0.50400001928E-02 0. -1.
    10030    2    1    2    0    0  0.00000000000E+00  0.00000000000E+00  0.20924186727E+03  0.12172126261E+04  0.11990931649E+04 0.  0.
        2    1    3    3  502    0 -0.13063818622E+03  0.56494698524E+03  0.25932022422E+03  0.63519950450E+03  0.25500000920E-02 0.  1.
       -2    1    3    3    0  502  0.13063818622E+03 -0.56494698524E+03 -0.50078356951E+02  0.58201312156E+03  0.25500000920E-02 0. -1.
</event>
<event>
 5   0  0.9170776E-04  0.1188943E+04  0.7818609E-02  0.9122591E-01
        1   -1    0    0  501    0  0.00000000000E+00  0.00000000000E+00  0.19801970412E+04  0.19801970412E+04  0.50400001928E-02 0.  1.
       -1   -1    0    0    0  501  0.00000000000E+00  0.00000000000E+00 -0.17846510967E+03  0.17846510974E+03  0.50400001928E-02 0. -1.
    10030    2    1    2    0    0  0.00000000000E+00  0.00000000000E+00  0.18017319315E+04  0.21586621509E+04  0.11889425255E+04 0.  0.
        5    1    3    3  502    0 -0.57272019753E+03  0.10809410744E+03  0.11132326624E+04  0.12565833881E+04  0.46999998093E+01 0.  1.
       -5    1    3    3    0  502  0.57272019753E+03 -0.10809410744E+03  0.68849926913E+03  0.90207876281E+03  0.46999998093E+01 0. -1.
</event>
<event>
 5   0  0.1551501E-03  0.1210885E+04  0.7818609E-02  0.9103382E-01
        2   -1    0    0  501    0  0.00000000000E+00  0.00000000000E+00  0.21759738134E+04  0.21759738134E+04  0.25500000920E-02 0. -1.
       -2   -1    0    0    0  501  0.00000000000E+00  0.00000000000E+00 -0.16845812833E+03  0.16845812835E+03  0.25500000920E-02 0.  1.
    10030    2    1    2    0    0  0.00000000000E+00  0.00000000000E+00  0.20075156851E+04  0.23444319418E+04  0.12108847607E+04 0.  0.
        4    1    3    3  502    0  0.24102850469E+03 -0.47622901352E+03  0.45045076424E+03  0.69842416718E+03  0.12699999809E+01 0. -1.
       -4    1    3    3    0  502 -0.24102850469E+03  0.47622901352E+03  0.15570649209E+04  0.16460077746E+04  0.12699999809E+01 0.  1.
</event>
<event>
 5   0  0.1647550E-03  0.1200960E+04  0.7818609E-02  0.9112016E-01
        2   -1    0    0  501    0  0.00000000000E+00  0.00000000000E+00  0.92603689255E+03  0.92603689255E+03  0.25500000920E-02 0.  1.
       -2   -1    0    0    0  501  0.00000000000E+00  0.00000000000E+00 -0.38937596946E+03  0.38937596947E+03  0.25500000920E-02 0. -1.
    10030    2    1    2    0    0  0.00000000000E+00  0.00000000000E+00  0.53666092309E+03  0.13154128620E+04  0.12009604703E+04 0.  0.
        3    1    3    3  502    0  0.54142933975E+02  0.40908643924E+03 -0.20946844868E+03  0.46277447344E+03  0.10100000352E+00 0. -1.
       -3    1    3    3    0  502 -0.54142933975E+02 -0.40908643924E+03  0.74612937177E+03  0.85263838859E+03  0.10100000352E+00 0.  1.
</event>
<event>
 5   0  0.8908478E-04  0.1205642E+04  0.7818609E-02  0.9107932E-01
       -1   -1    0    0    0  501  0.00000000000E+00  0.00000000000E+00  0.37181163134E+03  0.37181163137E+03  0.50400001928E-02 0.  1.
        1   -1    0    0  501    0  0.00000000000E+00  0.00000000000E+00 -0.97735843245E+03  0.97735843247E+03  0.50400001928E-02 0. -1.
    10030    2    1    2    0    0  0.00000000000E+00  0.00000000000E+00 -0.60554680112E+03  0.13491700638E+04  0.12056421247E+04 0.  0.
        4    1    3    3  502    0 -0.31214078733E+03  0.23434996938E+03  0.21130636261E+03  0.44385106854E+03  0.12699999809E+01 0.  1.
       -4    1    3    3    0  502  0.31214078733E+03 -0.23434996938E+03 -0.81685316372E+03  0.90531899530E+03  0.12699999809E+01 0. -1.
</event>
<event>
 5   0  0.9358428E-04  0.1202500E+04  0.7818609E-02  0.9110671E-01
        1   -1    0    0  501    0  0.00000000000E+00  0.00000000000E+00  0.10070254252E+04  0.10070254252E+04  0.50400001928E-02 0. -1.
       -1   -1    0    0    0  501  0.00000000000E+00  0.00000000000E+00 -0.35897966299E+03  0.35897966303E+03  0.50400001928E-02 0.  1.
    10030    2    1    2    0    0  0.00000000000E+00  0.00000000000E+00  0.64804576225E+03  0.13660050883E+04  0.12025001419E+04 0.  0.
        2    1    3    3  502    0  0.22201848981E+03 -0.29182852328E+03 -0.21725923572E+03  0.42621317709E+03  0.25500000920E-02 0.  1.
       -2    1    3    3    0  502 -0.22201848981E+03  0.29182852328E+03  0.86530499796E+03  0.93979191118E+03  0.25500000920E-02 0. -1.
</event>
<event>
 5   0  0.8908478E-04  0.1203473E+04  0.7818609E-02  0.9109822E-01
       -1   -1    0    0    0  501  0.00000000000E+00  0.00000000000E+00  0.11117384438E+04  0.11117384438E+04  0.50400001928E-02 0. -1.
        1   -1    0    0  501    0  0.00000000000E+00  0.00000000000E+00 -0.32569417177E+03  0.32569417181E+03  0.50400001928E-02 0.  1.
    10030    2    1    2    0    0  0.00000000000E+00  0.00000000000E+00  0.78604427199E+03  0.14374326156E+04  0.12034728609E+04 0.  0.
        4    1    3    3  502    0 -0.50954492125E+03 -0.19053230123E+03  0.85833786285E+02  0.55073372545E+03  0.12699999809E+01 0.  1.
       -4    1    3    3    0  502  0.50954492125E+03  0.19053230123E+03  0.70021048571E+03  0.88669889014E+03  0.12699999809E+01 0. -1.
</event>
<event>
 5   0  0.9169078E-04  0.1203622E+04  0.7818609E-02  0.9109692E-01
       -1   -1    0    0    0  501  0.00000000000E+00  0.00000000000E+00  0.23491934492E+03  0.23491934497E+03  0.50400001928E-02 0. -1.
        1   -1    0    0  501    0  0.00000000000E+00  0.00000000000E+00 -0.15417055587E+04  0.15417055587E+04  0.50400001928E-02 0.  1.
    10030    2    1    2    0    0  0.00000000000E+00  0.00000000000E+00 -0.13067862138E+04  0.17766249037E+04  0.12036219672E+04 0.  0.
        1    1    3    3  502    0 -0.15583115151E+02  0.59751427989E+03 -0.54995985600E+03  0.81223271997E+03  0.50400001928E-02 0. -1.
       -1    1    3    3    0  502  0.15583115151E+02 -0.59751427989E+03 -0.75682635779E+03  0.96439218372E+03  0.50400001928E-02 0.  1.
</event>
<event>
 5   0  0.6137750E-04  0.1306972E+04  0.7818609E-02  0.9024055E-01
       -3   -1    0    0    0  501  0.00000000000E+00  0.00000000000E+00  0.36132632914E+03  0.36132634325E+03  0.10100000352E+00 0. -1.
        3   -1    0    0  501    0  0.00000000000E+00  0.00000000000E+00 -0.11818784448E+04  0.11818784491E+04  0.10100000352E+00 0.  1.
    10030    2    1    2    0    0  0.00000000000E+00  0.00000000000E+00 -0.82055211567E+03  0.15432047924E+04  0.13069717888E+04 0.  0.
        2    1    3    3  502    0 -0.17705890729E+03 -0.39067308618E+03  0.17185622996E+03  0.46207129396E+03  0.25500000920E-02 0. -1.
       -2    1    3    3    0  502  0.17705890729E+03  0.39067308618E+03 -0.99240834563E+03  0.10811334984E+04  0.25500000920E-02 0.  1.
</event>
<event>
 5   0  0.8908478E-04  0.1189170E+04  0.7818609E-02  0.9122389E-01
        1   -1    0    0  501    0  0.00000000000E+00  0.00000000000E+00  0.81738418533E+03  0.81738418534E+03  0.50400001928E-02 0. -1.
       -1   -1    0    0    0  501  0.00000000000E+00  0.00000000000E+00 -0.43251547180E+03  0.43251547183E+03  0.50400001928E-02 0.  1.
    10030    2    1    2    0    0  0.00000000000E+00  0.00000000000E+00  0.38486871352E+03  0.12498996572E+04  0.11891699737E+04 0.  0.
        4    1    3    3  502    0 -0.22550800599E+03  0.37123428084E+03 -0.23433192805E+03  0.49354008696E+03  0.12699999809E+01 0.  1.
       -4    1    3    3    0  502  0.22550800599E+03 -0.37123428084E+03  0.61920064157E+03  0.75635957022E+03  0.12699999809E+01 0. -1.
</event>
<event>
 5   0  0.1551501E-03  0.1198344E+04  0.7818609E-02  0.9114307E-01
        2   -1    0    0  501    0  0.00000000000E+00  0.00000000000E+00  0.11969249273E+04  0.11969249273E+04  0.25500000920E-02 0.  1.
       -2   -1    0    0    0  501  0.00000000000E+00  0.00000000000E+00 -0.29994143507E+03  0.29994143508E+03  0.25500000920E-02 0. -1.
    10030    2    1    2    0    0  0.00000000000E+00  0.00000000000E+00  0.89698349223E+03  0.14968663624E+04  0.11983444920E+04 0.  0.
        4    1    3    3  502    0 -0.55231635392E+03  0.59510435779E+02  0.16803644095E+03  0.58037290182E+03  0.12699999809E+01 0. -1.
       -4    1    3    3    0  502  0.55231635392E+03 -0.59510435779E+02  0.72894705127E+03  0.91649346055E+03  0.12699999809E+01 0.  1.
</event>
<event>
 5   0  0.6137750E-04  0.1204821E+04  0.7818609E-02  0.9108648E-01
        3   -1    0    0  501    0  0.00000000000E+00  0.00000000000E+00  0.25269899485E+03  0.25269901503E+03  0.10100000352E+00 0.  1.
       -3   -1    0    0    0  501  0.00000000000E+00  0.00000000000E+00 -0.14360885191E+04  0.14360885226E+04  0.10100000352E+00 0. -1.
    10030    2    1    2    0    0  0.00000000000E+00  0.00000000000E+00 -0.11833895242E+04  0.16887875376E+04  0.12048205598E+04 0.  0.
        3    1    3    3  502    0  0.36529941087E+03  0.47845391332E+03 -0.55923330356E+03  0.82164694654E+03  0.10100000352E+00 0.  1.
       -3    1    3    3    0  502 -0.36529941087E+03 -0.47845391332E+03 -0.62415622065E+03  0.86714059110E+03  0.10100000352E+00 0. -1.
</event>
<event>
 5   0  0.1551501E-03  0.1249776E+04  0.7818609E-02  0.9070370E-01
       -2   -1    0    0    0  501  0.00000000000E+00  0.00000000000E+00  0.49229188558E+03  0.49229188559E+03  0.25500000920E-02 0. -1.
        2   -1    0    0  501    0  0.00000000000E+00  0.00000000000E+00 -0.79319821391E+03  0.79319821391E+03  0.25500000920E-02 0.  1.
    10030    2    1    2    0    0  0.00000000000E+00  0.00000000000E+00 -0.30090632833E+03  0.12854900995E+04  0.12497760509E+04 0.  0.
        4    1    3    3  502    0 -0.76413237842E+02 -0.19772219078E+03 -0.75508669489E+03  0.78427710494E+03  0.12699999809E+01 0.  1.
       -4    1    3    3    0  502  0.76413237842E+02  0.19772219078E+03  0.45418036656E+03  0.50121299456E+03  0.12699999809E+01 0. -1.
</event>
<event>
 5   0  0.9169078E-04  0.1210455E+04  0.7818609E-02  0.9103754E-01
       -1   -1    0    0    0  501  0.00000000000E+00  0.00000000000E+00  0.27493289905E+03  0.27493289910E+03  0.50400001928E-02 0.  1.
        1   -1    0    0  501    0  0.00000000000E+00  0.00000000000E+00 -0.13323268892E+04  0.13323268892E+04  0.50400001928E-02 0. -1.
    10030    2    1    2    0    0  0.00000000000E+00  0.00000000000E+00 -0.10573939902E+04  0.16072597883E+04  0.12104552766E+04 0.  0.
        1    1    3    3  502    0 -0.29770470853E+02 -0.17578640283E+03 -0.12966666521E+04  0.13088665124E+04  0.50400001928E-02 0. -1.
       -1    1    3    3    0  502  0.29770470853E+02  0.17578640283E+03  0.23927266197E+03  0.29839327598E+03  0.50400001928E-02 0.  1.
</event>
<event>
 5   0  0.8908478E-04  0.1195851E+04  0.7818609E-02  0.9116496E-01
       -1   -1    0    0    0  501  0.00000000000E+00  0.00000000000E+00  0.40991766115E+03  0.40991766118E+03  0.50400001928E-02 0.  1.
        1   -1    0    0  501    0  0.00000000000E+00  0.00000000000E+00 -0.87216319832E+03  0.87216319833E+03  0.50400001928E-02 0. -1.
    10030    2    1    2    0    0  0.00000000000E+00  0.00000000000E+00 -0.46224553716E+03  0.12820808595E+04  0.11958513259E+04 0.  0.
        4    1    3    3  502    0  0.31083002831E+02 -0.33995014115E+03  0.29517295253E+03  0.45128808574E+03  0.12699999809E+01 0.  1.
       -4    1    3    3    0  502 -0.31083002831E+02  0.33995014115E+03 -0.75741848969E+03  0.83079277377E+03  0.12699999809E+01 0. -1.
</event>
<event>
 5   0  0.1551501E-03  0.1197826E+04  0.7818609E-02  0.9114761E-01
       -2   -1    0    0    0  501  0.00000000000E+00  0.00000000000E+00  0.38119021586E+03  0.38119021587E+03  0.25500000920E-02 0. -1.
        2   -1    0    0  501    0  0.00000000000E+00  0.00000000000E+00 -0.94099168284E+03  0.94099168284E+03  0.25500000920E-02 0.  1.
    10030    2    1    2    0    0  0.00000000000E+00  0.00000000000E+00 -0.55980146698E+03  0.13221818987E+04  0.11978260687E+04 0.  0.
        4    1    3    3  502    0 -0.30060115733E+03 -0.35330232761E+03 -0.69805928149E+03  0.83813600559E+03  0.12699999809E+01 0.  1.
       -4    1    3    3    0  502  0.30060115733E+03  0.35330232761E+03  0.13825781451E+03  0.48404589313E+03  0.12699999809E+01 0. -1.
</event>
<event>
 5   0  0.1551501E-03  0.1200419E+04  0.7818609E-02  0.9112490E-01
        2   -1    0    0  501    0  0.00000000000E+00  0.00000000000E+00  0.40036051170E+03  0.40036051171E+03  0.25500000920E-02 0. -1.
       -2   -1    0    0    0  501  0.00000000000E+00  0.00000000000E+00 -0.89981799828E+03  0.89981799828E+03  0.25500000920E-02 0.  1.
    10030    2    1    2    0    0  0.00000000000E+00  0.00000000000E+00 -0.49945748658E+03  0.13001785100E+04  0.12004192505E+04 0.  0.
        4    1    3    3  502    0 -0.16621746231E+03  0.12692727771E+03 -0.85907560013E+03  0.88416699681E+03  0.12699999809E+01 0.  1.
       -4    1    3    3    0  502  0.16621746231E+03 -0.12692727771E+03  0.35961811355E+03  0.41601151318E+03  0.12699999809E+01 0. -1.
</event>
<event>
 5   0  0.1567019E-03  0.1214982E+04  0.7818609E-02  0.9099843E-01
       -2   -1    0    0    0  501  0.00000000000E+00  0.00000000000E+00  0.50777793408E+03  0.50777793408E+03  0.25500000920E-02 0. -1.
        2   -1    0    0  501    0  0.00000000000E+00  0.00000000000E+00 -0.72678473036E+03  0.72678473037E+03  0.25500000920E-02 0.  1.
    10030    2    1    2    0    0  0.00000000000E+00  0.00000000000E+00 -0.21900679628E+03  0.12345626644E+04  0.12149818911E+04 0.  0.
        5    1    3    3  502    0  0.58014788639E+03 -0.17991688002E+03 -0.10032988349E+03  0.61565398506E+03  0.46999998093E+01 0.  1.
       -5    1    3    3    0  502 -0.58014788639E+03  0.17991688002E+03 -0.11867691279E+03  0.61890867939E+03  0.46999998093E+01 0. -1.
</event>
<event>
 5   0  0.1597352E-03  0.1202686E+04  0.7818609E-02  0.9110509E-01
        2   -1    0    0  501    0  0.00000000000E+00  0.00000000000E+00  0.54379180575E+03  0.54379180576E+03  0.25500000920E-02 0. -1.
       -2   -1    0    0    0  501  0.00000000000E+00  0.00000000000E+00 -0.66498456094E+03  0.66498456095E+03  0.25500000920E-02 0.  1.
    10030    2    1    2    0    0  0.00000000000E+00  0.00000000000E+00 -0.12119275519E+03  0.12087763667E+04  0.12026855868E+04 0.  0.
        1    1    3    3  502    0  0.43179237810E+03  0.13925773254E+03  0.33608683620E+03  0.56461644977E+03  0.50400001928E-02 0. -1.
       -1    1    3    3    0  502 -0.43179237810E+03 -0.13925773254E+03 -0.45727959139E+03  0.64415991693E+03  0.50400001928E-02 0.  1.
</event>
<event>
 5   0  0.9170776E-04  0.1194310E+04  0.7818609E-02  0.9117852E-01
        1   -1    0    0  501    0  0.00000000000E+00  0.00000000000E+00  0.75018779491E+03  0.75018779493E+03  0.50400001928E-02 0. -1.
       -1   -1    0    0    0  501  0.00000000000E+00  0.00000000000E+00 -0.47533942690E+03  0.47533942693E+03  0.50400001928E-02 0.  1.
    10030    2    1    2    0    0  0.00000000000E+00  0.00000000000E+00  0.27484836801E+03  0.12255272219E+04  0.11943095688E+04 0.  0.
        5    1    3    3  502    0 -0.56103252898E+02  0.12458913813E+02 -0.47247602536E+03  0.47598160054E+03  0.46999998093E+01 0.  1.
       -5    1    3    3    0  502  0.56103252898E+02 -0.12458913813E+02  0.74732439337E+03  0.74954562132E+03  0.46999998093E+01 0. -1.
</event>
<event>
 5   0  0.1567019E-03  0.1196952E+04  0.7818609E-02  0.9115528E-01
       -2   -1    0    0    0  501  0.00000000000E+00  0.00000000000E+00  0.27977570539E+03  0.27977570540E+03  0.25500000920E-02 0. -1.
        2   -1    0    0  501    0  0.00000000000E+00  0.00000000000E+00 -0.12802172849E+04  0.12802172849E+04  0.25500000920E-02 0.  1.
    10030    2    1    2    0    0  0.00000000000E+00  0.00000000000E+00 -0.10004415795E+04  0.15599929903E+04  0.11969522864E+04 0.  0.
        5    1    3    3  502    0 -0.16751697888E+03 -0.12677840902E+03 -0.12305561358E+04  0.12483690146E+04  0.46999998093E+01 0.  1.
       -5    1    3    3    0  502  0.16751697888E+03  0.12677840902E+03  0.23011455632E+03  0.31162397570E+03  0.46999998093E+01 0. -1.
</event>
<event>
 5   0  0.6137750E-04  0.1202120E+04  0.7818609E-02  0.9111003E-01
       -4   -1    0    0    0  501  0.00000000000E+00  0.00000000000E+00  0.32919966021E+03  0.32920210993E+03  0.12699999809E+01 0.  1.
        4   -1    0    0  501    0  0.00000000000E+00  0.00000000000E+00 -0.10974222190E+04  0.10974229539E+04  0.12699999809E+01 0. -1.
    10030    2    1    2    0    0  0.00000000000E+00  0.00000000000E+00 -0.76822255881E+03  0.14266250638E+04  0.12021202822E+04 0.  0.
        3    1    3    3  502    0 -0.12148744410E+03  0.44619868734E+03  0.71549165105E+02  0.46794418565E+03  0.10100000352E+00 0.  1.
       -3    1    3    3    0  502  0.12148744410E+03 -0.44619868734E+03 -0.83977172391E+03  0.95868087815E+03  0.10100000352E+00 0. -1.
</event>
<event>
 5   0  0.1567019E-03  0.1194383E+04  0.7818609E-02  0.9117788E-01
       -2   -1    0    0    0  501  0.00000000000E+00  0.00000000000E+00  0.21224863414E+03  0.21224863415E+03  0.25500000920E-02 0. -1.
        2   -1    0    0  501    0  0.00000000000E+00  0.00000000000E+00 -0.16802812665E+04  0.16802812665E+04  0.25500000920E-02 0.  1.
    10030    2    1    2    0    0  0.00000000000E+00  0.00000000000E+00 -0.14680326323E+04  0.18925299006E+04  0.11943825246E+04 0.  0.
        5    1    3    3  502    0 -0.94410834557E+02 -0.56079828378E+03 -0.10227619278E+04  0.11702444923E+04  0.46999998093E+01 0.  1.
       -5    1    3    3    0  502  0.94410834557E+02  0.56079828378E+03 -0.44527070450E+03  0.72228540831E+03  0.46999998093E+01 0. -1.
</event>
<event>
 5   0  0.9208078E-04  0.1200026E+04  0.7818609E-02  0.9112834E-01
        1   -1    0    0  501    0  0.00000000000E+00  0.00000000000E+00  0.87719832326E+03  0.87719832328E+03  0.50400001928E-02 0. -1.
       -1   -1    0    0    0  501  0.00000000000E+00  0.00000000000E+00 -0.41041548150E+03  0.41041548154E+03  0.50400001928E-02 0.  1.
    10030    2    1    2    0    0  0.00000000000E+00  0.00000000000E+00  0.46678284176E+03  0.12876138048E+04  0.12000262868E+04 0.  0.
        3    1    3    3  502    0  0.22334838435E+03  0.34090473566E+03 -0.23910749476E+03  0.47251766510E+03  0.10100000352E+00 0. -1.
       -3    1    3    3    0  502 -0.22334838435E+03 -0.34090473566E+03  0.70589033652E+03  0.81509613971E+03  0.10100000352E+00 0.  1.
</event>
<event>
 5   0  0.8908478E-04  0.1197074E+04  0.7818609E-02  0.9115422E-01
        1   -1    0    0  501    0  0.00000000000E+00  0.00000000000E+00  0.12876681310E+04  0.12876681310E+04  0.50400001928E-02 0. -1.
       -1   -1    0    0    0  501  0.00000000000E+00  0.00000000000E+00 -0.27821329745E+03  0.27821329749E+03  0.50400001928E-02 0.  1.
    10030    2    1    2    0    0  0.00000000000E+00  0.00000000000E+00  0.10094548335E+04  0.15658814285E+04  0.11970737601E+04 0.  0.
        4    1    3    3  502    0  0.41888082851E+02  0.34744068896E+03 -0.13043818162E+03  0.37347741024E+03  0.12699999809E+01 0.  1.
       -4    1    3    3    0  502 -0.41888082851E+02 -0.34744068896E+03  0.11398930152E+04  0.11924040183E+04  0.12699999809E+01 0. -1.
</event>
<event>
 5   0  0.9208078E-04  0.1192911E+04  0.7818609E-02  0.9119084E-01
        1   -1    0    0  501    0  0.00000000000E+00  0.00000000000E+00  0.13919430681E+04  0.13919430682E+04  0.50400001928E-02 0.  1.
       -1   -1    0    0    0  501  0.00000000000E+00  0.00000000000E+00 -0.25558467280E+03  0.25558467285E+03  0.50400001928E-02 0. -1.
    10030    2    1    2    0    0  0.00000000000E+00  0.00000000000E+00  0.11363583953E+04  0.16475277410E+04  0.11929112518E+04 0.  0.
        3    1    3    3  502    0 -0.47583844056E+03 -0.35963036453E+03  0.56575424871E+03  0.82209129708E+03  0.10100000352E+00 0.  1.
       -3    1    3    3    0  502  0.47583844056E+03  0.35963036453E+03  0.57060414663E+03  0.82543644393E+03  0.10100000352E+00 0. -1.
</event>
<event>
 5   0  0.9208078E-04  0.1194684E+04  0.7818609E-02  0.9117523E-01
       -1   -1    0    0    0  501  0.00000000000E+00  0.00000000000E+00  0.31195520048E+03  0.31195520052E+03  0.50400001928E-02 0.  1.
        1   -1    0    0  501    0  0.00000000000E+00  0.00000000000E+00 -0.11438091530E+04  0.11438091530E+04  0.50400001928E-02 0. -1.
    10030    2    1    2    0    0  0.00000000000E+00  0.00000000000E+00 -0.83185395250E+03  0.14557643535E+04  0.11946835793E+04 0.  0.
        3    1    3    3  502    0  0.48434888269E+02  0.51987523845E+03 -0.76951440421E+03  0.92992936852E+03  0.10100000352E+00 0. -1.
       -3    1    3    3    0  502 -0.48434888269E+02 -0.51987523845E+03 -0.62339548291E+02  0.52583498499E+03  0.10100000352E+00 0.  1.
</event>
<event>
 5   0  0.1537557E-03  0.1194733E+04  0.7818609E-02  0.9117479E-01
       -2   -1    0    0    0  501  0.00000000000E+00  0.00000000000E+00  0.64618327211E+03  0.64618327211E+03  0.25500000920E-02 0.  1.
        2   -1    0    0  501    0  0.00000000000E+00  0.00000000000E+00 -0.55223775376E+03  0.55223775376E+03  0.25500000920E-02 0. -1.
    10030    2    1    2    0    0  0.00000000000E+00  0.00000000000E+00  0.93945518351E+02  0.11984210259E+04  0.11947331061E+04 0.  0.
        2    1    3    3  502    0  0.21231185611E+03 -0.39988660306E+03  0.43786937057E+03  0.62985332042E+03  0.25500000920E-02 0.  1.
       -2    1    3    3    0  502 -0.21231185611E+03  0.39988660306E+03 -0.34392385222E+03  0.56856770546E+03  0.25500000920E-02 0. -1.
</event>
<event>
 5   0  0.9170776E-04  0.1197905E+04  0.7818609E-02  0.9114692E-01
        1   -1    0    0  501    0  0.00000000000E+00  0.00000000000E+00  0.18370818140E+04  0.18370818140E+04  0.50400001928E-02 0.  1.
       -1   -1    0    0    0  501  0.00000000000E+00  0.00000000000E+00 -0.19527927622E+03  0.19527927628E+03  0.50400001928E-02 0. -1.
    10030    2    1    2    0    0  0.00000000000E+00  0.00000000000E+00  0.16418025378E+04  0.20323610903E+04  0.11979048494E+04 0.  0.
        5    1    3    3  502    0 -0.16379980498E+03  0.47942369847E+03  0.13628687899E+04  0.14539982419E+04  0.46999998093E+01 0.  1.
       -5    1    3    3    0  502  0.16379980498E+03 -0.47942369847E+03  0.27893374789E+03  0.57836284846E+03  0.46999998093E+01 0. -1.
</event>
<event>
 5   0  0.9358428E-04  0.1229302E+04  0.7818609E-02  0.9087588E-01
        1   -1    0    0  501    0  0.00000000000E+00  0.00000000000E+00  0.71873469513E+03  0.71873469515E+03  0.50400001928E-02 0. -1.
       -1   -1    0    0    0  501  0.00000000000E+00  0.00000000000E+00 -0.52564040043E+03  0.52564040045E+03  0.50400001928E-02 0.  1.
    10030    2    1    2    0    0  0.00000000000E+00  0.00000000000E+00  0.19309429470E+03  0.12443750956E+04  0.12293022297E+04 0.  0.
        2    1    3    3  502    0 -0.26618802856E+03 -0.37275912035E+03 -0.31834487700E+03  0.55780721497E+03  0.25500000920E-02 0.  1.
       -2    1    3    3    0  502  0.26618802856E+03  0.37275912035E+03  0.51143917170E+03  0.68656788063E+03  0.25500000920E-02 0. -1.
</event>
<event>
 5   0  0.9208078E-04  0.1227819E+04  0.7818609E-02  0.9088849E-01
        1   -1    0    0  501    0  0.00000000000E+00  0.00000000000E+00  0.26857048853E+04  0.26857048853E+04  0.50400001928E-02 0. -1.
       -1   -1    0    0    0  501  0.00000000000E+00  0.00000000000E+00 -0.14032999619E+03  0.14032999628E+03  0.50400001928E-02 0.  1.
    10030    2    1    2    0    0  0.00000000000E+00  0.00000000000E+00  0.25453748891E+04  0.28260348816E+04  0.12278191340E+04 0.  0.
        3    1    3    3  502    0  0.37924821578E+03  0.13058830031E+02  0.16194320500E+03  0.41258375400E+03  0.10100000352E+00 0.  1.
       -3    1    3    3    0  502 -0.37924821578E+03 -0.13058830031E+02  0.23834316841E+04  0.24134511276E+04  0.10100000352E+00 0. -1.
</event>
<event>
 5   0  0.1597352E-03  0.1197440E+04  0.7818609E-02  0.9115100E-01
        2   -1    0    0  501    0  0.00000000000E+00  0.00000000000E+00  0.19886578044E+04  0.19886578044E+04  0.25500000920E-02 0. -1.
       -2   -1    0    0    0  501  0.00000000000E+00  0.00000000000E+00 -0.18025508065E+03  0.18025508067E+03  0.25500000920E-02 0.  1.
    10030    2    1    2    0    0  0.00000000000E+00  0.00000000000E+00  0.18084027238E+04  0.21689128851E+04  0.11974400577E+04 0.  0.
        1    1    3    3  502    0  0.11580049403E+03 -0.18774741844E+03  0.19123714713E+04  0.19250515556E+04  0.50400001928E-02 0. -1.
       -1    1    3    3    0  502 -0.11580049403E+03  0.18774741844E+03 -0.10396874749E+03  0.24386132950E+03  0.50400001928E-02 0.  1.
</event>
<event>
 5   0  0.1537557E-03  0.1087590E+04  0.7818609E-02  0.9217373E-01
       -2   -1    0    0    0  501  0.00000000000E+00  0.00000000000E+00  0.30749433162E+03  0.30749433163E+03  0.25500000920E-02 0.  1.
        2   -1    0    0  501    0  0.00000000000E+00  0.00000000000E+00 -0.96168558247E+03  0.96168558247E+03  0.25500000920E-02 0. -1.
    10030    2    1    2    0    0  0.00000000000E+00  0.00000000000E+00 -0.65419125085E+03  0.12691799141E+04  0.10875897488E+04 0.  0.
        2    1    3    3  502    0  0.99359354343E+02  0.10667031030E+03 -0.93845872157E+03  0.94971343493E+03  0.25500000920E-02 0. -1.
       -2    1    3    3    0  502 -0.99359354343E+02 -0.10667031030E+03  0.28426747072E+03  0.31946647917E+03  0.25500000920E-02 0.  1.
</event>
<event>
 5   0  0.9208078E-04  0.1199469E+04  0.7818609E-02  0.9113322E-01
       -1   -1    0    0    0  501  0.00000000000E+00  0.00000000000E+00  0.36455835630E+03  0.36455835633E+03  0.50400001928E-02 0.  1.
        1   -1    0    0  501    0  0.00000000000E+00  0.00000000000E+00 -0.98662233856E+03  0.98662233857E+03  0.50400001928E-02 0. -1.
    10030    2    1    2    0    0  0.00000000000E+00  0.00000000000E+00 -0.62206398226E+03  0.13511806949E+04  0.11994689126E+04 0.  0.
        3    1    3    3  502    0 -0.19274669127E+03 -0.54181124157E+03 -0.11929587551E+03  0.58731782248E+03  0.10100000352E+00 0.  1.
       -3    1    3    3    0  502  0.19274669127E+03  0.54181124157E+03 -0.50276810676E+03  0.76386287242E+03  0.10100000352E+00 0. -1.
</event>
<event>
 5   0  0.1597352E-03  0.1199788E+04  0.7818609E-02  0.9113042E-01
       -2   -1    0    0    0  501  0.00000000000E+00  0.00000000000E+00  0.33734107800E+03  0.33734107801E+03  0.25500000920E-02 0. -1.
        2   -1    0    0  501    0  0.00000000000E+00  0.00000000000E+00 -0.10667917155E+04  0.10667917155E+04  0.25500000920E-02 0.  1.
    10030    2    1    2    0    0  0.00000000000E+00  0.00000000000E+00 -0.72945063751E+03  0.14041327935E+04  0.11997877601E+04 0.  0.
        1    1    3    3  502    0  0.12480890297E+02 -0.43133768298E+02 -0.10648221841E+04  0.10657685388E+04  0.50400001928E-02 0.  1.
       -1    1    3    3    0  502 -0.12480890297E+02  0.43133768298E+02  0.33537154657E+03  0.33836425471E+03  0.50400001928E-02 0. -1.
</event>
<event>
 5   0  0.9169078E-04  0.1199018E+04  0.7818609E-02  0.9113716E-01
       -1   -1    0    0    0  501  0.00000000000E+00  0.00000000000E+00  0.41352570021E+03  0.41352570024E+03  0.50400001928E-02 0.  1.
        1   -1    0    0  501    0  0.00000000000E+00  0.00000000000E+00 -0.86913904997E+03  0.86913904998E+03  0.50400001928E-02 0. -1.
    10030    2    1    2    0    0  0.00000000000E+00  0.00000000000E+00 -0.45561334976E+03  0.12826647502E+04  0.11990184890E+04 0.  0.
        1    1    3    3  502    0 -0.22356650996E+03 -0.93062699039E+00  0.36726245939E+03  0.42995879401E+03  0.50400001928E-02 0.  1.
       -1    1    3    3    0  502  0.22356650996E+03  0.93062699039E+00 -0.82287580915E+03  0.85270595621E+03  0.50400001928E-02 0. -1.
</event>
<event>
 5   0  0.9208078E-04  0.1209047E+04  0.7818609E-02  0.9104975E-01
       -1   -1    0    0    0  501  0.00000000000E+00  0.00000000000E+00  0.17194490864E+03  0.17194490871E+03  0.50400001928E-02 0.  1.
        1   -1    0    0  501    0  0.00000000000E+00  0.00000000000E+00 -0.21253817167E+04  0.21253817167E+04  0.50400001928E-02 0. -1.
    10030    2    1    2    0    0  0.00000000000E+00  0.00000000000E+00 -0.19534368080E+04  0.22973266254E+04  0.12090468398E+04 0.  0.
        3    1    3    3  502    0 -0.22814438526E+03  0.87235677598E+01  0.86874610577E+02  0.24428092296E+03  0.10100000352E+00 0.  1.
       -3    1    3    3    0  502  0.22814438526E+03 -0.87235677598E+01 -0.20403114186E+04  0.20530457024E+04  0.10100000352E+00 0. -1.
</event>
<event>
 5   0  0.1551501E-03  0.1199070E+04  0.7818609E-02  0.9113671E-01
       -2   -1    0    0    0  501  0.00000000000E+00  0.00000000000E+00  0.33035787609E+03  0.33035787610E+03  0.25500000920E-02 0.  1.
        2   -1    0    0  501    0  0.00000000000E+00  0.00000000000E+00 -0.10880394598E+04  0.10880394598E+04  0.25500000920E-02 0. -1.
    10030    2    1    2    0    0  0.00000000000E+00  0.00000000000E+00 -0.75768158371E+03  0.14183973359E+04  0.11990703149E+04 0.  0.
        4    1    3    3  502    0 -0.39951778783E+03  0.35052038701E+03 -0.70700471039E+03  0.88449775461E+03  0.12699999809E+01 0.  1.
       -4    1    3    3    0  502  0.39951778783E+03 -0.35052038701E+03 -0.50676873315E+02  0.53389958128E+03  0.12699999809E+01 0. -1.
</event>
<event>
 5   0  0.1567019E-03  0.1198942E+04  0.7818609E-02  0.9113783E-01
        2   -1    0    0  501    0  0.00000000000E+00  0.00000000000E+00  0.67289648199E+03  0.67289648199E+03  0.25500000920E-02 0. -1.
       -2   -1    0    0    0  501  0.00000000000E+00  0.00000000000E+00 -0.53405756108E+03  0.53405756109E+03  0.25500000920E-02 0.  1.
    10030    2    1    2    0    0  0.00000000000E+00  0.00000000000E+00  0.13883892091E+03  0.12069540431E+04  0.11989419570E+04 0.  0.
        5    1    3    3  502    0  0.27301276535E+03 -0.51598459420E+03  0.20659190093E+03  0.61925630802E+03  0.46999998093E+01 0.  1.
       -5    1    3    3    0  502 -0.27301276535E+03  0.51598459420E+03 -0.67752980017E+02  0.58769773506E+03  0.46999998093E+01 0. -1.
</event>
<event>
 5   0  0.6137750E-04  0.1205213E+04  0.7818609E-02  0.9108306E-01
        3   -1    0    0  501    0  0.00000000000E+00  0.00000000000E+00  0.39309641826E+03  0.39309643124E+03  0.10100000352E+00 0. -1.
       -3   -1    0    0    0  501  0.00000000000E+00  0.00000000000E+00 -0.92378040624E+03  0.92378041176E+03  0.10100000352E+00 0.  1.
    10030    2    1    2    0    0  0.00000000000E+00  0.00000000000E+00 -0.53068398797E+03  0.13168768430E+04  0.12052133108E+04 0.  0.
        4    1    3    3  502    0  0.49537000550E+03  0.20736714534E+03 -0.56405869932E+03  0.77881731137E+03  0.12699999809E+01 0.  1.
       -4    1    3    3    0  502 -0.49537000550E+03 -0.20736714534E+03  0.33374711343E+02  0.53805953162E+03  0.12699999809E+01 0. -1.
</event>
<event>
 5   0  0.1597352E-03  0.1197219E+04  0.7818609E-02  0.9115294E-01
        2   -1    0    0  501    0  0.00000000000E+00  0.00000000000E+00  0.12239680707E+04  0.12239680707E+04  0.25500000920E-02 0. -1.
       -2   -1    0    0    0  501  0.00000000000E+00  0.00000000000E+00 -0.29276366262E+03  0.29276366263E+03  0.25500000920E-02 0.  1.
    10030    2    1    2    0    0  0.00000000000E+00  0.00000000000E+00  0.93120440809E+03  0.15167317333E+04  0.11972190699E+04 0.  0.
        1    1    3    3  502    0  0.29474373683E+03  0.49511276998E+03  0.67114468817E+03  0.88455961805E+03  0.50400001928E-02 0.  1.
       -1    1    3    3    0  502 -0.29474373683E+03 -0.49511276998E+03  0.26005971992E+03  0.63217211529E+03  0.50400001928E-02 0. -1.
</event>
<event>
 5   0  0.1567019E-03  0.1204888E+04  0.7818609E-02  0.9108589E-01
        2   -1    0    0  501    0  0.00000000000E+00  0.00000000000E+00  0.16823468155E+04  0.16823468155E+04  0.25500000920E-02 0.  1.
       -2   -1    0    0    0  501  0.00000000000E+00  0.00000000000E+00 -0.21573345000E+03  0.21573345002E+03  0.25500000920E-02 0. -1.
    10030    2    1    2    0    0  0.00000000000E+00  0.00000000000E+00  0.14666133655E+04  0.18980802655E+04  0.12048875178E+04 0.  0.
        5    1    3    3  502    0 -0.52981774886E+03  0.28565365731E+03  0.69435033285E+03  0.91893924374E+03  0.46999998093E+01 0.  1.
       -5    1    3    3    0  502  0.52981774886E+03 -0.28565365731E+03  0.77226303264E+03  0.97914102177E+03  0.46999998093E+01 0. -1.
</event>
<event>
 5   0  0.1551501E-03  0.1201080E+04  0.7818609E-02  0.9111912E-01
       -2   -1    0    0    0  501  0.00000000000E+00  0.00000000000E+00  0.34681891324E+03  0.34681891325E+03  0.25500000920E-02 0. -1.
        2   -1    0    0  501    0  0.00000000000E+00  0.00000000000E+00 -0.10398745146E+04  0.10398745146E+04  0.25500000920E-02 0.  1.
    10030    2    1    2    0    0  0.00000000000E+00  0.00000000000E+00 -0.69305560140E+03  0.13866934279E+04  0.12010797627E+04 0.  0.
        4    1    3    3  502    0  0.41947975461E+02  0.34314026428E+03 -0.91347776620E+03  0.97670267525E+03  0.12699999809E+01 0.  1.
       -4    1    3    3    0  502 -0.41947975461E+02 -0.34314026428E+03  0.22042216479E+03  0.40999075264E+03  0.12699999809E+01 0. -1.
</event>
<event>
 5   0  0.9208078E-04  0.1189196E+04  0.7818609E-02  0.9122366E-01
       -1   -1    0    0    0  501  0.00000000000E+00  0.00000000000E+00  0.26216612399E+03  0.26216612404E+03  0.50400001928E-02 0. -1.
        1   -1    0    0  501    0  0.00000000000E+00  0.00000000000E+00 -0.13485606451E+04  0.13485606451E+04  0.50400001928E-02 0.  1.
    10030    2    1    2    0    0  0.00000000000E+00  0.00000000000E+00 -0.10863945211E+04  0.16107267692E+04  0.11891962283E+04 0.  0.
        3    1    3    3  502    0 -0.11573258513E+01 -0.28757245269E+03  0.16170822616E+03  0.32992243870E+03  0.10100000352E+00 0. -1.
       -3    1    3    3    0  502  0.11573258513E+01  0.28757245269E+03 -0.12481027473E+04  0.12808043305E+04  0.10100000352E+00 0.  1.
</event>
<event>
 5   0  0.9208078E-04  0.1203566E+04  0.7818609E-02  0.9109741E-01
        1   -1    0    0  501    0  0.00000000000E+00  0.00000000000E+00  0.56485966083E+03  0.56485966085E+03  0.50400001928E-02 0. -1.
       -1   -1    0    0    0  501  0.00000000000E+00  0.00000000000E+00 -0.64112042544E+03  0.64112042546E+03  0.50400001928E-02 0.  1.
    10030    2    1    2    0    0  0.00000000000E+00  0.00000000000E+00 -0.76260764608E+02  0.12059800863E+04  0.12035664769E+04 0.  0.
        3    1    3    3  502    0  0.11074437965E+03 -0.12744188076E+03 -0.61690217402E+03  0.63958897200E+03  0.10100000352E+00 0.  1.
       -3    1    3    3    0  502 -0.11074437965E+03  0.12744188076E+03  0.54064140941E+03  0.56639111431E+03  0.10100000352E+00 0. -1.
</event>
<event>
 5   0  0.1647550E-03  0.1200456E+04  0.7818609E-02  0.9112457E-01
       -2   -1    0    0    0  501  0.00000000000E+00  0.00000000000E+00  0.25035034857E+03  0.25035034858E+03  0.25500000920E-02 0.  1.
        2   -1    0    0  501    0  0.00000000000E+00  0.00000000000E+00 -0.14390787523E+04  0.14390787523E+04  0.25500000920E-02 0. -1.
    10030    2    1    2    0    0  0.00000000000E+00  0.00000000000E+00 -0.11887284037E+04  0.16894291009E+04  0.12004563587E+04 0.  0.
        3    1    3    3  502    0  0.55449567156E+03 -0.22936269039E+03 -0.57440384790E+03  0.83066990087E+03  0.10100000352E+00 0. -1.
       -3    1    3    3    0  502 -0.55449567156E+03  0.22936269039E+03 -0.61432455585E+03  0.85875920003E+03  0.10100000352E+00 0.  1.
</event>
<event>
 5   0  0.1551501E-03  0.1196781E+04  0.7818609E-02  0.9115678E-01
       -2   -1    0    0    0  501  0.00000000000E+00  0.00000000000E+00  0.21869241336E+03  0.21869241338E+03  0.25500000920E-02 0. -1.
        2   -1    0    0  501    0  0.00000000000E+00  0.00000000000E+00 -0.16373288405E+04  0.16373288405E+04  0.25500000920E-02 0.  1.
    10030    2    1    2    0    0  0.00000000000E+00  0.00000000000E+00 -0.14186364271E+04  0.18560212539E+04  0.11967813428E+04 0.  0.
        4    1    3    3  502    0  0.43546210145E+03  0.18448699402E+03 -0.14075438858E+03  0.49343297779E+03  0.12699999809E+01 0. -1.
       -4    1    3    3    0  502 -0.43546210145E+03 -0.18448699402E+03 -0.12778820385E+04  0.13625882761E+04  0.12699999809E+01 0.  1.
</event>
<event>
 5   0  0.9358428E-04  0.1192560E+04  0.7818609E-02  0.9119393E-01
       -1   -1    0    0    0  501  0.00000000000E+00  0.00000000000E+00  0.34399845018E+03  0.34399845022E+03  0.50400001928E-02 0. -1.
        1   -1    0    0  501    0  0.00000000000E+00  0.00000000000E+00 -0.10335805584E+04  0.10335805584E+04  0.50400001928E-02 0.  1.
    10030    2    1    2    0    0  0.00000000000E+00  0.00000000000E+00 -0.68958210821E+03  0.13775790086E+04  0.11925604559E+04 0.  0.
        2    1    3    3  502    0  0.18786574837E+03 -0.19343987589E+03  0.26954311640E+03  0.38126895573E+03  0.25500000920E-02 0. -1.
       -2    1    3    3    0  502 -0.18786574837E+03  0.19343987589E+03 -0.95912522461E+03  0.99631005289E+03  0.25500000920E-02 0.  1.
</event>
<event>
 5   0  0.9169078E-04  0.1196443E+04  0.7818609E-02  0.9115976E-01
       -1   -1    0    0    0  501  0.00000000000E+00  0.00000000000E+00  0.67272098004E+03  0.67272098006E+03  0.50400001928E-02 0.  1.
        1   -1    0    0  501    0  0.00000000000E+00  0.00000000000E+00 -0.53197209788E+03  0.53197209790E+03  0.50400001928E-02 0. -1.
    10030    2    1    2    0    0  0.00000000000E+00  0.00000000000E+00  0.14074888217E+03  0.12046930780E+04  0.11964427125E+04 0.  0.
        1    1    3    3  502    0  0.51700981048E+03 -0.30092349648E+03  0.66514446310E+02  0.60189556108E+03  0.50400001928E-02 0.  1.
       -1    1    3    3    0  502 -0.51700981048E+03  0.30092349648E+03  0.74234435858E+02  0.60279751688E+03  0.50400001928E-02 0. -1.
</event>
<event>
 5   0  0.9358428E-04  0.1194295E+04  0.7818609E-02  0.9117865E-01
       -1   -1    0    0    0  501  0.00000000000E+00  0.00000000000E+00  0.41141954622E+03  0.41141954625E+03  0.50400001928E-02 0.  1.
        1   -1    0    0  501    0  0.00000000000E+00  0.00000000000E+00 -0.86671892478E+03  0.86671892480E+03  0.50400001928E-02 0. -1.
    10030    2    1    2    0    0  0.00000000000E+00  0.00000000000E+00 -0.45529937856E+03  0.12781384710E+04  0.11942949498E+04 0.  0.
        2    1    3    3  502    0  0.26385265246E+03 -0.40967184880E+03  0.14174237808E+03  0.50748413538E+03  0.25500000920E-02 0.  1.
       -2    1    3    3    0  502 -0.26385265246E+03  0.40967184880E+03 -0.59704175664E+03  0.77065433567E+03  0.25500000920E-02 0. -1.
</event>
<event>
 5   0  0.6137750E-04  0.1202095E+04  0.7818609E-02  0.9111025E-01
        3   -1    0    0  501    0  0.00000000000E+00  0.00000000000E+00  0.14973517681E+04  0.14973517715E+04  0.10100000352E+00 0. -1.
       -3   -1    0    0    0  501  0.00000000000E+00  0.00000000000E+00 -0.24126448503E+03  0.24126450617E+03  0.10100000352E+00 0.  1.
    10030    2    1    2    0    0  0.00000000000E+00  0.00000000000E+00  0.12560872831E+04  0.17386162777E+04  0.12020945464E+04 0.  0.
        3    1    3    3  502    0 -0.54739543805E+03 -0.11661156254E+03  0.94497572729E+03  0.10982800906E+04  0.10100000352E+00 0.  1.
       -3    1    3    3    0  502  0.54739543805E+03  0.11661156254E+03  0.31111155581E+03  0.64033618707E+03  0.10100000352E+00 0. -1.
</event>
<event>
 5   0  0.1551501E-03  0.1205240E+04  0.7818609E-02  0.9108283E-01
       -2   -1    0    0    0  501  0.00000000000E+00  0.00000000000E+00  0.61703850324E+03  0.61703850324E+03  0.25500000920E-02 0.  1.
        2   -1    0    0  501    0  0.00000000000E+00  0.00000000000E+00 -0.58853805000E+03  0.58853805000E+03  0.25500000920E-02 0. -1.
    10030    2    1    2    0    0  0.00000000000E+00  0.00000000000E+00  0.28500453241E+02  0.12055765532E+04  0.12052396234E+04 0.  0.
        4    1    3    3  502    0  0.47784597261E+02 -0.50915499660E+02  0.61297688406E+03  0.61694248447E+03  0.12699999809E+01 0.  1.
       -4    1    3    3    0  502 -0.47784597261E+02  0.50915499660E+02 -0.58447643082E+03  0.58863406878E+03  0.12699999809E+01 0. -1.
</event>
<event>
 5   0  0.1551501E-03  0.1201798E+04  0.7818609E-02  0.9111285E-01
       -2   -1    0    0    0  501  0.00000000000E+00  0.00000000000E+00  0.24153906045E+03  0.24153906046E+03  0.25500000920E-02 0.  1.
        2   -1    0    0  501    0  0.00000000000E+00  0.00000000000E+00 -0.14949107383E+04  0.14949107383E+04  0.25500000920E-02 0. -1.
    10030    2    1    2    0    0  0.00000000000E+00  0.00000000000E+00 -0.12533716779E+04  0.17364497988E+04  0.12017975457E+04 0.  0.
        4    1    3    3  502    0 -0.30474676898E+03  0.29190687091E+03 -0.12447783863E+04  0.13143648879E+04  0.12699999809E+01 0. -1.
       -4    1    3    3    0  502  0.30474676898E+03 -0.29190687091E+03 -0.85932915662E+01  0.42208491094E+03  0.12699999809E+01 0.  1.
</event>
<event>
 5   0  0.1567019E-03  0.1194350E+04  0.7818609E-02  0.9117816E-01
        2   -1    0    0  501    0  0.00000000000E+00  0.00000000000E+00  0.14695152371E+04  0.14695152371E+04  0.25500000920E-02 0.  1.
       -2   -1    0    0    0  501  0.00000000000E+00  0.00000000000E+00 -0.24267724781E+03  0.24267724783E+03  0.25500000920E-02 0. -1.
    10030    2    1    2    0    0  0.00000000000E+00  0.00000000000E+00  0.12268379893E+04  0.17121924849E+04  0.11943498874E+04 0.  0.
        5    1    3    3  502    0  0.52155505485E+03  0.27783753585E+03  0.49024434836E+03  0.76783786222E+03  0.46999998093E+01 0.  1.
       -5    1    3    3    0  502 -0.52155505485E+03 -0.27783753585E+03  0.73659364092E+03  0.94435462270E+03  0.46999998093E+01 0. -1.
</event>
<event>
 5   0  0.9208078E-04  0.1209023E+04  0.7818609E-02  0.9104995E-01
       -1   -1    0    0    0  501  0.00000000000E+00  0.00000000000E+00  0.42106038154E+03  0.42106038157E+03  0.50400001928E-02 0. -1.
        1   -1    0    0  501    0  0.00000000000E+00  0.00000000000E+00 -0.86789046743E+03  0.86789046745E+03  0.50400001928E-02 0.  1.
    10030    2    1    2    0    0  0.00000000000E+00  0.00000000000E+00 -0.44683008589E+03  0.12889508490E+04  0.12090232279E+04 0.  0.
        3    1    3    3  502    0 -0.25121739785E+03  0.49541300241E+03 -0.47769954835E+03  0.73262616158E+03  0.10100000352E+00 0.  1.
       -3    1    3    3    0  502  0.25121739785E+03 -0.49541300241E+03  0.30869462460E+02  0.55632468744E+03  0.10100000352E+00 0. -1.
</event>
<event>
 5   0  0.9358428E-04  0.1197934E+04  0.7818609E-02  0.9114667E-01
       -1   -1    0    0    0  501  0.00000000000E+00  0.00000000000E+00  0.48900040620E+03  0.48900040623E+03  0.50400001928E-02 0.  1.
        1   -1    0    0  501    0  0.00000000000E+00  0.00000000000E+00 -0.73366245226E+03  0.73366245228E+03  0.50400001928E-02 0. -1.
    10030    2    1    2    0    0  0.00000000000E+00  0.00000000000E+00 -0.24466204606E+03  0.12226628585E+04  0.11979336162E+04 0.  0.
        2    1    3    3  502    0 -0.14052761149E+03  0.57675981008E+02  0.46901412868E+03  0.49299977818E+03  0.25500000920E-02 0.  1.
       -2    1    3    3    0  502  0.14052761149E+03 -0.57675981008E+02 -0.71367617475E+03  0.72966308032E+03  0.25500000920E-02 0. -1.
</event>
<event>
 5   0  0.1597352E-03  0.1215573E+04  0.7818609E-02  0.9099334E-01
       -2   -1    0    0    0  501  0.00000000000E+00  0.00000000000E+00  0.60904195417E+03  0.60904195418E+03  0.25500000920E-02 0. -1.
        2   -1    0    0  501    0  0.00000000000E+00  0.00000000000E+00 -0.60653383779E+03  0.60653383779E+03  0.25500000920E-02 0.  1.
    10030    2    1    2    0    0  0.00000000000E+00  0.00000000000E+00  0.25081163835E+01  0.12155757920E+04  0.12155732045E+04 0.  0.
        1    1    3    3  502    0  0.17501172428E+03 -0.56723398089E+03 -0.12921100829E+03  0.60751870539E+03  0.50400001928E-02 0. -1.
       -1    1    3    3    0  502 -0.17501172428E+03  0.56723398089E+03  0.13171912467E+03  0.60805708658E+03  0.50400001928E-02 0.  1.
</event>
<event>
 5   0  0.8908478E-04  0.1225919E+04  0.7818609E-02  0.9090468E-01
        1   -1    0    0  501    0  0.00000000000E+00  0.00000000000E+00  0.59247205023E+03  0.59247205025E+03  0.50400001928E-02 0.  1.
       -1   -1    0    0    0  501  0.00000000000E+00  0.00000000000E+00 -0.63415523232E+03  0.63415523234E+03  0.50400001928E-02 0. -1.
    10030    2    1    2    0    0  0.00000000000E+00  0.00000000000E+00 -0.41683182094E+02  0.12266272826E+04  0.12259188402E+04 0.  0.
        4    1    3    3  502    0  0.33171650709E+03 -0.45001131488E+03 -0.27232647403E+03  0.62185958701E+03  0.12699999809E+01 0.  1.
       -4    1    3    3    0  502 -0.33171650709E+03  0.45001131488E+03  0.23064329193E+03  0.60476769558E+03  0.12699999809E+01 0. -1.
</event>
<event>
 5   0  0.1551501E-03  0.1169940E+04  0.7818609E-02  0.9139582E-01
        2   -1    0    0  501    0  0.00000000000E+00  0.00000000000E+00  0.22971330589E+04  0.22971330589E+04  0.25500000920E-02 0. -1.
       -2   -1    0    0    0  501  0.00000000000E+00  0.00000000000E+00 -0.14896394311E+03  0.14896394314E+03  0.25500000920E-02 0.  1.
    10030    2    1    2    0    0  0.00000000000E+00  0.00000000000E+00  0.21481691158E+04  0.24460970020E+04  0.11699401666E+04 0.  0.
        4    1    3    3  502    0  0.90426722645E+02  0.31188841356E+03  0.20913706419E+04  0.21164319383E+04  0.12699999809E+01 0. -1.
       -4    1    3    3    0  502 -0.90426722645E+02 -0.31188841356E+03  0.56798473807E+02  0.32966506368E+03  0.12699999809E+01 0.  1.
</event>
<event>
 5   0  0.6137750E-04  0.1213092E+04  0.7818609E-02  0.9101474E-01
       -3   -1    0    0    0  501  0.00000000000E+00  0.00000000000E+00  0.67917603579E+03  0.67917604330E+03  0.10100000352E+00 0. -1.
        3   -1    0    0  501    0  0.00000000000E+00  0.00000000000E+00 -0.54168298134E+03  0.54168299076E+03  0.10100000352E+00 0.  1.
    10030    2    1    2    0    0  0.00000000000E+00  0.00000000000E+00  0.13749305445E+03  0.12208590341E+04  0.12130920991E+04 0.  0.
        4    1    3    3  502    0 -0.27344907664E+02 -0.29054420698E+03  0.60387721553E+03  0.67069589571E+03  0.12699999809E+01 0. -1.
       -4    1    3    3    0  502  0.27344907664E+02  0.29054420698E+03 -0.46638416109E+03  0.55016313834E+03  0.12699999809E+01 0.  1.
</event>
<event>
 5   0  0.1537557E-03  0.1199104E+04  0.7818609E-02  0.9113641E-01
       -2   -1    0    0    0  501  0.00000000000E+00  0.00000000000E+00  0.39486144099E+03  0.39486144100E+03  0.25500000920E-02 0.  1.
        2   -1    0    0  501    0  0.00000000000E+00  0.00000000000E+00 -0.91035167275E+03  0.91035167275E+03  0.25500000920E-02 0. -1.
    10030    2    1    2    0    0  0.00000000000E+00  0.00000000000E+00 -0.51549023176E+03  0.13052131137E+04  0.11991042879E+04 0.  0.
        2    1    3    3  502    0  0.36706647759E+03  0.24977049507E+03 -0.69631298179E+03  0.82581769646E+03  0.25500000920E-02 0. -1.
       -2    1    3    3    0  502 -0.36706647759E+03 -0.24977049507E+03  0.18082275003E+03  0.47939541729E+03  0.25500000920E-02 0.  1.
</event>
<event>
 5   0  0.8908478E-04  0.1202305E+04  0.7818609E-02  0.9110841E-01
       -1   -1    0    0    0  501  0.00000000000E+00  0.00000000000E+00  0.47060155624E+03  0.47060155627E+03  0.50400001928E-02 0. -1.
        1   -1    0    0  501    0  0.00000000000E+00  0.00000000000E+00 -0.76792038888E+03  0.76792038889E+03  0.50400001928E-02 0.  1.
    10030    2    1    2    0    0  0.00000000000E+00  0.00000000000E+00 -0.29731883263E+03  0.12385219452E+04  0.12023053358E+04 0.  0.
        4    1    3    3  502    0 -0.24386885100E+03 -0.19974494868E+03 -0.67595026296E+03  0.74584209583E+03  0.12699999809E+01 0.  1.
       -4    1    3    3    0  502  0.24386885100E+03  0.19974494868E+03  0.37863143033E+03  0.49267984934E+03  0.12699999809E+01 0. -1.
</event>
<event>
 5   0  0.1551501E-03  0.1207172E+04  0.7818609E-02  0.9106602E-01
       -2   -1    0    0    0  501  0.00000000000E+00  0.00000000000E+00  0.22462068561E+03  0.22462068563E+03  0.25500000920E-02 0.  1.
        2   -1    0    0  501    0  0.00000000000E+00  0.00000000000E+00 -0.16219158819E+04  0.16219158819E+04  0.25500000920E-02 0. -1.
    10030    2    1    2    0    0  0.00000000000E+00  0.00000000000E+00 -0.13972951963E+04  0.18465365676E+04  0.12071716654E+04 0.  0.
        4    1    3    3  502    0  0.33840301433E+03  0.45967463243E+03 -0.99877222118E+03  0.11503759953E+04  0.12699999809E+01 0. -1.
       -4    1    3    3    0  502 -0.33840301433E+03 -0.45967463243E+03 -0.39852297515E+03  0.69616057230E+03  0.12699999809E+01 0.  1.
</event>
<event>
 5   0  0.9208078E-04  0.1197490E+04  0.7818609E-02  0.9115057E-01
        1   -1    0    0  501    0  0.00000000000E+00  0.00000000000E+00  0.11360284903E+04  0.11360284904E+04  0.50400001928E-02 0.  1.
       -1   -1    0    0    0  501  0.00000000000E+00  0.00000000000E+00 -0.31556900056E+03  0.31556900060E+03  0.50400001928E-02 0. -1.
    10030    2    1    2    0    0  0.00000000000E+00  0.00000000000E+00  0.82045948979E+03  0.14515974910E+04  0.11974896665E+04 0.  0.
        3    1    3    3  502    0  0.39305145730E+03  0.28874433626E+03 -0.10794227148E+02  0.48783118530E+03  0.10100000352E+00 0. -1.
       -3    1    3    3    0  502 -0.39305145730E+03 -0.28874433626E+03  0.83125371693E+03  0.96376630566E+03  0.10100000352E+00 0.  1.
</event>
<event>
 5   0  0.1567019E-03  0.1199535E+04  0.7818609E-02  0.9113264E-01
       -2   -1    0    0    0  501  0.00000000000E+00  0.00000000000E+00  0.32718030049E+03  0.32718030050E+03  0.25500000920E-02 0.  1.
        2   -1    0    0  501    0  0.00000000000E+00  0.00000000000E+00 -0.10994584519E+04  0.10994584519E+04  0.25500000920E-02 0. -1.
    10030    2    1    2    0    0  0.00000000000E+00  0.00000000000E+00 -0.77227815143E+03  0.14266387524E+04  0.11995351544E+04 0.  0.
        5    1    3    3  502    0 -0.16989616315E+03 -0.11311552260E+03  0.28458111869E+03  0.35024039004E+03  0.46999998093E+01 0.  1.
       -5    1    3    3    0  502  0.16989616315E+03  0.11311552260E+03 -0.10568592701E+04  0.10763983624E+04  0.46999998093E+01 0. -1.
</event>
<event>
 5   0  0.1567019E-03  0.1206453E+04  0.7818609E-02  0.9107227E-01
       -2   -1    0    0    0  501  0.00000000000E+00  0.00000000000E+00  0.26437508990E+03  0.26437508992E+03  0.25500000920E-02 0. -1.
        2   -1    0    0  501    0  0.00000000000E+00  0.00000000000E+00 -0.13763863129E+04  0.13763863129E+04  0.25500000920E-02 0.  1.
    10030    2    1    2    0    0  0.00000000000E+00  0.00000000000E+00 -0.11120112230E+04  0.16407614028E+04  0.12064530745E+04 0.  0.
        5    1    3    3  502    0 -0.31771623529E+03  0.39966244312E+03 -0.99286977231E+03  0.11164614411E+04  0.46999998093E+01 0.  1.
       -5    1    3    3    0  502  0.31771623529E+03 -0.39966244312E+03 -0.11914145066E+03  0.52429996173E+03  0.46999998093E+01 0. -1.
</event>
<event>
 5   0  0.1597352E-03  0.1190225E+04  0.7818609E-02  0.9121456E-01
       -2   -1    0    0    0  501  0.00000000000E+00  0.00000000000E+00  0.10646143061E+04  0.10646143061E+04  0.25500000920E-02 0. -1.
        2   -1    0    0  501    0  0.00000000000E+00  0.00000000000E+00 -0.33266412069E+03  0.33266412070E+03  0.25500000920E-02 0.  1.
    10030    2    1    2    0    0  0.00000000000E+00  0.00000000000E+00  0.73195018537E+03  0.13972784268E+04  0.11902251585E+04 0.  0.
        1    1    3    3  502    0  0.83969427470E+02  0.25393547631E+03  0.99008206133E+03  0.10255713428E+04  0.50400001928E-02 0. -1.
       -1    1    3    3    0  502 -0.83969427470E+02 -0.25393547631E+03 -0.25813187597E+03  0.37170708400E+03  0.50400001928E-02 0.  1.
</event>
<event>
 5   0  0.9358428E-04  0.1201657E+04  0.7818609E-02  0.9111407E-01
       -1   -1    0    0    0  501  0.00000000000E+00  0.00000000000E+00  0.23990258581E+03  0.23990258586E+03  0.50400001928E-02 0.  1.
        1   -1    0    0  501    0  0.00000000000E+00  0.00000000000E+00 -0.15047571096E+04  0.15047571096E+04  0.50400001928E-02 0. -1.
    10030    2    1    2    0    0  0.00000000000E+00  0.00000000000E+00 -0.12648545238E+04  0.17446596955E+04  0.12016573916E+04 0.  0.
        2    1    3    3  502    0  0.15085411348E+03 -0.57584727558E+03 -0.75071809446E+03  0.95808909069E+03  0.25500000920E-02 0. -1.
       -2    1    3    3    0  502 -0.15085411348E+03  0.57584727558E+03 -0.51413642937E+03  0.78657060481E+03  0.25500000920E-02 0.  1.
</event>
<event>
 5   0  0.9208078E-04  0.1194906E+04  0.7818609E-02  0.9117327E-01
       -1   -1    0    0    0  501  0.00000000000E+00  0.00000000000E+00  0.10540600582E+04  0.10540600582E+04  0.50400001928E-02 0. -1.
        1   -1    0    0  501    0  0.00000000000E+00  0.00000000000E+00 -0.33864314568E+03  0.33864314572E+03  0.50400001928E-02 0.  1.
    10030    2    1    2    0    0  0.00000000000E+00  0.00000000000E+00  0.71541691255E+03  0.13927032040E+04  0.11949062120E+04 0.  0.
        3    1    3    3  502    0  0.33107410742E+03  0.48526003819E+03  0.23076246531E+03  0.63114078847E+03  0.10100000352E+00 0. -1.
       -3    1    3    3    0  502 -0.33107410742E+03 -0.48526003819E+03  0.48465444723E+03  0.76156241549E+03  0.10100000352E+00 0.  1.
</event>
<event>
 5   0  0.9169078E-04  0.1193662E+04  0.7818609E-02  0.9118422E-01
       -1   -1    0    0    0  501  0.00000000000E+00  0.00000000000E+00  0.47075356405E+03  0.47075356408E+03  0.50400001928E-02 0.  1.
        1   -1    0    0  501    0  0.00000000000E+00  0.00000000000E+00 -0.75667442277E+03  0.75667442279E+03  0.50400001928E-02 0. -1.
    10030    2    1    2    0    0  0.00000000000E+00  0.00000000000E+00 -0.28592085872E+03  0.12274279869E+04  0.11936618975E+04 0.  0.
        1    1    3    3  502    0 -0.37072822479E+03  0.41338608180E+03 -0.36796454157E+03  0.66612714489E+03  0.50400001928E-02 0. -1.
       -1    1    3    3    0  502  0.37072822479E+03 -0.41338608180E+03  0.82043682851E+02  0.56130084197E+03  0.50400001928E-02 0.  1.
</event>
<event>
 5   0  0.1551501E-03  0.1185877E+04  0.7818609E-02  0.9125309E-01
        2   -1    0    0  501    0  0.00000000000E+00  0.00000000000E+00  0.17912430995E+04  0.17912430995E+04  0.25500000920E-02 0.  1.
       -2   -1    0    0    0  501  0.00000000000E+00  0.00000000000E+00 -0.19627478695E+03  0.19627478697E+03  0.25500000920E-02 0. -1.
    10030    2    1    2    0    0  0.00000000000E+00  0.00000000000E+00  0.15949683126E+04  0.19875178865E+04  0.11858766508E+04 0.  0.
        4    1    3    3  502    0 -0.51452409926E+03  0.12317129528E+03  0.34880669345E+03  0.63369861843E+03  0.12699999809E+01 0. -1.
       -4    1    3    3    0  502  0.51452409926E+03 -0.12317129528E+03  0.12461616191E+04  0.13538192680E+04  0.12699999809E+01 0.  1.
</event>
<event>
 5   0  0.9170776E-04  0.1146554E+04  0.7818609E-02  0.9160969E-01
       -1   -1    0    0    0  501  0.00000000000E+00  0.00000000000E+00  0.45669730706E+03  0.45669730709E+03  0.50400001928E-02 0. -1.
        1   -1    0    0  501    0  0.00000000000E+00  0.00000000000E+00 -0.71961559083E+03  0.71961559085E+03  0.50400001928E-02 0.  1.
    10030    2    1    2    0    0  0.00000000000E+00  0.00000000000E+00 -0.26291828377E+03  0.11763128979E+04  0.11465539717E+04 0.  0.
        5    1    3    3  502    0 -0.27683919613E+03  0.34980616140E+03  0.23791336580E+03  0.50559781516E+03  0.46999998093E+01 0. -1.
       -5    1    3    3    0  502  0.27683919613E+03 -0.34980616140E+03 -0.50083164957E+03  0.67071508279E+03  0.46999998093E+01 0.  1.
</event>
<event>
 5   0  0.8908478E-04  0.1124757E+04  0.7818609E-02  0.9181392E-01
        1   -1    0    0  501    0  0.00000000000E+00  0.00000000000E+00  0.78998277569E+03  0.78998277571E+03  0.50400001928E-02 0.  1.
       -1   -1    0    0    0  501  0.00000000000E+00  0.00000000000E+00 -0.40035022937E+03  0.40035022940E+03  0.50400001928E-02 0. -1.
    10030    2    1    2    0    0  0.00000000000E+00  0.00000000000E+00  0.38963254632E+03  0.11903330051E+04  0.11247573702E+04 0.  0.
        4    1    3    3  502    0  0.22702172219E+03  0.16663610102E+03  0.70998409071E+03  0.76379674945E+03  0.12699999809E+01 0.  1.
       -4    1    3    3    0  502 -0.22702172219E+03 -0.16663610102E+03 -0.32035154438E+03  0.42653625567E+03  0.12699999809E+01 0. -1.
</event>
<event>
 5   0  0.9358428E-04  0.1200003E+04  0.7818609E-02  0.9112854E-01
       -1   -1    0    0    0  501  0.00000000000E+00  0.00000000000E+00  0.48154938726E+03  0.48154938728E+03  0.50400001928E-02 0. -1.
        1   -1    0    0  501    0  0.00000000000E+00  0.00000000000E+00 -0.74759072221E+03  0.74759072223E+03  0.50400001928E-02 0.  1.
    10030    2    1    2    0    0  0.00000000000E+00  0.00000000000E+00 -0.26604133496E+03  0.12291401095E+04  0.12000030904E+04 0.  0.
        2    1    3    3  502    0  0.77275910566E+02  0.25014632273E+03  0.41995541807E+03  0.49488109915E+03  0.25500000920E-02 0. -1.
       -2    1    3    3    0  502 -0.77275910566E+02 -0.25014632273E+03 -0.68599675303E+03  0.73425901036E+03  0.25500000920E-02 0.  1.
</event>
<event>
 5   0  0.1647550E-03  0.1216738E+04  0.7818609E-02  0.9098331E-01
       -2   -1    0    0    0  501  0.00000000000E+00  0.00000000000E+00  0.47527006684E+03  0.47527006685E+03  0.25500000920E-02 0. -1.
        2   -1    0    0  501    0  0.00000000000E+00  0.00000000000E+00 -0.77874177497E+03  0.77874177497E+03  0.25500000920E-02 0.  1.
    10030    2    1    2    0    0  0.00000000000E+00  0.00000000000E+00 -0.30347170813E+03  0.12540118418E+04  0.12167376964E+04 0.  0.
        3    1    3    3  502    0 -0.41540007351E+03  0.76848016654E+02  0.29945352392E+03  0.51781778835E+03  0.10100000352E+00 0. -1.
       -3    1    3    3    0  502  0.41540007351E+03 -0.76848016654E+02 -0.60292523204E+03  0.73619405348E+03  0.10100000352E+00 0.  1.
</event>
<event>
 5   0  0.1551501E-03  0.1203528E+04  0.7818609E-02  0.9109774E-01
        2   -1    0    0  501    0  0.00000000000E+00  0.00000000000E+00  0.49882616341E+03  0.49882616342E+03  0.25500000920E-02 0.  1.
       -2   -1    0    0    0  501  0.00000000000E+00  0.00000000000E+00 -0.72594415989E+03  0.72594415989E+03  0.25500000920E-02 0. -1.
    10030    2    1    2    0    0  0.00000000000E+00  0.00000000000E+00 -0.22711799648E+03  0.12247703233E+04  0.12035280473E+04 0.  0.
        4    1    3    3  502    0 -0.23839636185E+03 -0.22073592734E+03 -0.62901771446E+03  0.70797038989E+03  0.12699999809E+01 0. -1.
       -4    1    3    3    0  502  0.23839636185E+03  0.22073592734E+03  0.40189971798E+03  0.51679993342E+03  0.12699999809E+01 0.  1.
</event>
<event>
 5   0  0.1597352E-03  0.1185166E+04  0.7818609E-02  0.9125941E-01
        2   -1    0    0  501    0  0.00000000000E+00  0.00000000000E+00  0.49738432826E+03  0.49738432827E+03  0.25500000920E-02 0.  1.
       -2   -1    0    0    0  501  0.00000000000E+00  0.00000000000E+00 -0.70600267400E+03  0.70600267400E+03  0.25500000920E-02 0. -1.
    10030    2    1    2    0    0  0.00000000000E+00  0.00000000000E+00 -0.20861834573E+03  0.12033870023E+04  0.11851660909E+04 0.  0.
        1    1    3    3  502    0  0.27065439502E+03  0.17491871520E+02  0.43066379721E+03  0.50895095379E+03  0.50400001928E-02 0.  1.
       -1    1    3    3    0  502 -0.27065439502E+03 -0.17491871520E+02 -0.63928214294E+03  0.69443604848E+03  0.50400001928E-02 0. -1.
</event>
<event>
 5   0  0.1647550E-03  0.1197911E+04  0.7818609E-02  0.9114687E-01
       -2   -1    0    0    0  501  0.00000000000E+00  0.00000000000E+00  0.25782790984E+03  0.25782790986E+03  0.25500000920E-02 0. -1.
        2   -1    0    0  501    0  0.00000000000E+00  0.00000000000E+00 -0.13914241888E+04  0.13914241888E+04  0.25500000920E-02 0.  1.
    10030    2    1    2    0    0  0.00000000000E+00  0.00000000000E+00 -0.11335962790E+04  0.16492520987E+04  0.11979114998E+04 0.  0.
        3    1    3    3  502    0 -0.56407257400E+02  0.13288569765E+03  0.23351746819E+03  0.27453743912E+03  0.10100000352E+00 0. -1.
       -3    1    3    3    0  502  0.56407257400E+02 -0.13288569765E+03 -0.13671137472E+04  0.13747146596E+04  0.10100000352E+00 0.  1.
</event>
<event>
 5   0  0.9170776E-04  0.1205296E+04  0.7818609E-02  0.9108233E-01
       -1   -1    0    0    0  501  0.00000000000E+00  0.00000000000E+00  0.72888733840E+03  0.72888733842E+03  0.50400001928E-02 0. -1.
        1   -1    0    0  501    0  0.00000000000E+00  0.00000000000E+00 -0.49827299984E+03  0.49827299986E+03  0.50400001928E-02 0.  1.
    10030    2    1    2    0    0  0.00000000000E+00  0.00000000000E+00  0.23061433857E+03  0.12271603383E+04  0.12052964460E+04 0.  0.
        5    1    3    3  502    0  0.56285387895E+03 -0.21480003934E+03  0.13038267935E+03  0.61641323722E+03  0.46999998093E+01 0. -1.
       -5    1    3    3    0  502 -0.56285387895E+03  0.21480003934E+03  0.10023165922E+03  0.61074710106E+03  0.46999998093E+01 0.  1.
</event>
<event>
 5   0  0.8908478E-04  0.1206813E+04  0.7818609E-02  0.9106914E-01
        1   -1    0    0  501    0  0.00000000000E+00  0.00000000000E+00  0.40988385362E+03  0.40988385365E+03  0.50400001928E-02 0. -1.
       -1   -1    0    0    0  501  0.00000000000E+00  0.00000000000E+00 -0.88829848952E+03  0.88829848953E+03  0.50400001928E-02 0.  1.
    10030    2    1    2    0    0  0.00000000000E+00  0.00000000000E+00 -0.47841463590E+03  0.12981823432E+04  0.12068126749E+04 0.  0.
        4    1    3    3  502    0 -0.26993632083E+03  0.18433300080E+03 -0.78480979265E+03  0.85016015905E+03  0.12699999809E+01 0.  1.
       -4    1    3    3    0  502  0.26993632083E+03 -0.18433300080E+03  0.30639515676E+03  0.44802218413E+03  0.12699999809E+01 0. -1.
</event>
<event>
 5   0  0.9170776E-04  0.1270910E+04  0.7818609E-02  0.9052958E-01
        1   -1    0    0  501    0  0.00000000000E+00  0.00000000000E+00  0.62369829135E+03  0.62369829137E+03  0.50400001928E-02 0.  1.
       -1   -1    0    0    0  501  0.00000000000E+00  0.00000000000E+00 -0.64743291291E+03  0.64743291293E+03  0.50400001928E-02 0. -1.
    10030    2    1    2    0    0  0.00000000000E+00  0.00000000000E+00 -0.23734621563E+02  0.12711312043E+04  0.12709095980E+04 0.  0.
        5    1    3    3  502    0 -0.44651453573E+03 -0.43712401139E+03 -0.12733474346E+03  0.63772161548E+03  0.46999998093E+01 0. -1.
       -5    1    3    3    0  502  0.44651453573E+03  0.43712401139E+03  0.10360012190E+03  0.63340958882E+03  0.46999998093E+01 0.  1.
</event>
<event>
 5   0  0.9169078E-04  0.1199599E+04  0.7818609E-02  0.9113208E-01
        1   -1    0    0  501    0  0.00000000000E+00  0.00000000000E+00  0.19852830016E+04  0.19852830016E+04  0.50400001928E-02 0.  1.
       -1   -1    0    0    0  501  0.00000000000E+00  0.00000000000E+00 -0.18121315549E+03  0.18121315556E+03  0.50400001928E-02 0. -1.
    10030    2    1    2    0    0  0.00000000000E+00  0.00000000000E+00  0.18040698461E+04  0.21664961572E+04  0.11995989286E+04 0.  0.
        1    1    3    3  502    0  0.15437994232E+03  0.41902983528E+03  0.16252094199E+04  0.16854449941E+04  0.50400001928E-02 0.  1.
       -1    1    3    3    0  502 -0.15437994232E+03 -0.41902983528E+03  0.17886042621E+03  0.48105116312E+03  0.50400001928E-02 0. -1.
</event>
<event>
 5   0  0.1551501E-03  0.1147520E+04  0.7818609E-02  0.9160074E-01
       -2   -1    0    0    0  501  0.00000000000E+00  0.00000000000E+00  0.39630015013E+03  0.39630015014E+03  0.25500000920E-02 0.  1.
        2   -1    0    0  501    0  0.00000000000E+00  0.00000000000E+00 -0.83068493193E+03  0.83068493194E+03  0.25500000920E-02 0. -1.
    10030    2    1    2    0    0  0.00000000000E+00  0.00000000000E+00 -0.43438478180E+03  0.12269850821E+04  0.11475200447E+04 0.  0.
        4    1    3    3  502    0  0.48663332337E+03 -0.22138652504E+03 -0.43988129243E+03  0.69233023134E+03  0.12699999809E+01 0. -1.
       -4    1    3    3    0  502 -0.48663332337E+03  0.22138652504E+03  0.54965106313E+01  0.53465485074E+03  0.12699999809E+01 0.  1.
</event>
<event>
 5   0  0.1597352E-03  0.1194795E+04  0.7818609E-02  0.9117424E-01
       -2   -1    0    0    0  501  0.00000000000E+00  0.00000000000E+00  0.46501016537E+03  0.46501016538E+03  0.25500000920E-02 0. -1.
        2   -1    0    0  501    0  0.00000000000E+00  0.00000000000E+00 -0.76747567474E+03  0.76747567474E+03  0.25500000920E-02 0.  1.
    10030    2    1    2    0    0  0.00000000000E+00  0.00000000000E+00 -0.30246550937E+03  0.12324858401E+04  0.11947953640E+04 0.  0.
        1    1    3    3  502    0 -0.45103549836E+03 -0.27425393919E+03 -0.43976278738E+03  0.68705134679E+03  0.50400001928E-02 0.  1.
       -1    1    3    3    0  502  0.45103549836E+03  0.27425393919E+03  0.13729727801E+03  0.54543449333E+03  0.50400001928E-02 0. -1.
</event>
<event>
 5   0  0.1537557E-03  0.1199051E+04  0.7818609E-02  0.9113688E-01
       -2   -1    0    0    0  501  0.00000000000E+00  0.00000000000E+00  0.19949402796E+03  0.19949402797E+03  0.25500000920E-02 0.  1.
        2   -1    0    0  501    0  0.00000000000E+00  0.00000000000E+00 -0.18017109938E+04  0.18017109938E+04  0.25500000920E-02 0. -1.
    10030    2    1    2    0    0  0.00000000000E+00  0.00000000000E+00 -0.16022169658E+04  0.20012050217E+04  0.11990505967E+04 0.  0.
        2    1    3    3  502    0  0.23317190431E+02  0.16681813497E+03  0.15919059700E+03  0.23176200660E+03  0.25500000920E-02 0.  1.
       -2    1    3    3    0  502 -0.23317190431E+02 -0.16681813497E+03 -0.17614075628E+04  0.17694430151E+04  0.25500000920E-02 0. -1.
</event>
<event>
 5   0  0.9208078E-04  0.1201026E+04  0.7818609E-02  0.9111959E-01
        1   -1    0    0  501    0  0.00000000000E+00  0.00000000000E+00  0.53033388295E+03  0.53033388297E+03  0.50400001928E-02 0. -1.
       -1   -1    0    0    0  501  0.00000000000E+00  0.00000000000E+00 -0.67997926734E+03  0.67997926736E+03  0.50400001928E-02 0.  1.
    10030    2    1    2    0    0  0.00000000000E+00  0.00000000000E+00 -0.14964538439E+03  0.12103131503E+04  0.12010263031E+04 0.  0.
        3    1    3    3  502    0 -0.56048132358E+03  0.10025588505E+03 -0.26715306152E+03  0.62893666219E+03  0.10100000352E+00 0.  1.
       -3    1    3    3    0  502  0.56048132358E+03 -0.10025588505E+03  0.11750767713E+03  0.58137648813E+03  0.10100000352E+00 0. -1.
</event>
<event>
 5   0  0.1647550E-03  0.1168175E+04  0.7818609E-02  0.9141178E-01
        2   -1    0    0  501    0  0.00000000000E+00  0.00000000000E+00  0.11079581697E+04  0.11079581697E+04  0.25500000920E-02 0. -1.
       -2   -1    0    0    0  501  0.00000000000E+00  0.00000000000E+00 -0.30791604599E+03  0.30791604600E+03  0.25500000920E-02 0.  1.
    10030    2    1    2    0    0  0.00000000000E+00  0.00000000000E+00  0.80004212375E+03  0.14158742157E+04  0.11681748136E+04 0.  0.
        3    1    3    3  502    0  0.60469762176E+02 -0.34683727657E+03 -0.16485366408E+03  0.38875368721E+03  0.10100000352E+00 0.  1.
       -3    1    3    3    0  502 -0.60469762176E+02  0.34683727657E+03  0.96489578784E+03  0.10271205285E+04  0.10100000352E+00 0. -1.
</event>
<event>
 5   0  0.1567019E-03  0.1208284E+04  0.7818609E-02  0.9105637E-01
       -2   -1    0    0    0  501  0.00000000000E+00  0.00000000000E+00  0.40113798148E+03  0.40113798148E+03  0.25500000920E-02 0.  1.
        2   -1    0    0  501    0  0.00000000000E+00  0.00000000000E+00 -0.90987964193E+03  0.90987964194E+03  0.25500000920E-02 0. -1.
    10030    2    1    2    0    0  0.00000000000E+00  0.00000000000E+00 -0.50874166046E+03  0.13110176234E+04  0.12082835478E+04 0.  0.
        5    1    3    3  502    0 -0.38977596234E+03  0.30416113284E+03 -0.63105715564E+03  0.80168230567E+03  0.46999998093E+01 0. -1.
       -5    1    3    3    0  502  0.38977596234E+03 -0.30416113284E+03  0.12231549518E+03  0.50933531775E+03  0.46999998093E+01 0.  1.
</event>
<event>
 5   0  0.1597352E-03  0.1157068E+04  0.7818609E-02  0.9151288E-01
       -2   -1    0    0    0  501  0.00000000000E+00  0.00000000000E+00  0.26798898971E+03  0.26798898973E+03  0.25500000920E-02 0. -1.
        2   -1    0    0  501    0  0.00000000000E+00  0.00000000000E+00 -0.12489380807E+04  0.12489380807E+04  0.25500000920E-02 0.  1.
    10030    2    1    2    0    0  0.00000000000E+00  0.00000000000E+00 -0.98094909096E+03  0.15169270704E+04  0.11570681129E+04 0.  0.
        1    1    3    3  502    0  0.37868917067E+03 -0.23608342759E+03 -0.77795361316E+01  0.44631983372E+03  0.50400001928E-02 0. -1.
       -1    1    3    3    0  502 -0.37868917067E+03  0.23608342759E+03 -0.97316955483E+03  0.10706072367E+04  0.50400001928E-02 0.  1.
</event>
<event>
 5   0  0.9208078E-04  0.1213436E+04  0.7818609E-02  0.9101176E-01
        1   -1    0    0  501    0  0.00000000000E+00  0.00000000000E+00  0.10757858169E+04  0.10757858169E+04  0.50400001928E-02 0. -1.
       -1   -1    0    0    0  501  0.00000000000E+00  0.00000000000E+00 -0.34217484755E+03  0.34217484759E+03  0.50400001928E-02 0.  1.
    10030    2    1    2    0    0  0.00000000000E+00  0.00000000000E+00  0.73361096932E+03  0.14179606645E+04  0.12134361919E+04 0.  0.
        3    1    3    3  502    0 -0.52293512545E+02  0.21583748974E+03  0.10265824284E+04  0.10503294369E+04  0.10100000352E+00 0. -1.
       -3    1    3    3    0  502  0.52293512545E+02 -0.21583748974E+03 -0.29297145912E+03  0.36763122758E+03  0.10100000352E+00 0.  1.
</event>
<event>
 5   0  0.8908478E-04  0.1218171E+04  0.7818609E-02  0.9097098E-01
        1   -1    0    0  501    0  0.00000000000E+00  0.00000000000E+00  0.10268080383E+04  0.10268080383E+04  0.50400001928E-02 0. -1.
       -1   -1    0    0    0  501  0.00000000000E+00  0.00000000000E+00 -0.36129962714E+03  0.36129962717E+03  0.50400001928E-02 0.  1.
    10030    2    1    2    0    0  0.00000000000E+00  0.00000000000E+00  0.66550841114E+03  0.13881076655E+04  0.12181713531E+04 0.  0.
        4    1    3    3  502    0 -0.58564516557E+03 -0.16619793611E+03  0.35501781224E+03  0.70472780123E+03  0.12699999809E+01 0. -1.
       -4    1    3    3    0  502  0.58564516557E+03  0.16619793611E+03  0.31049059889E+03  0.68337986422E+03  0.12699999809E+01 0.  1.
</event>
<event>
 5   0  0.9208078E-04  0.1202045E+04  0.7818609E-02  0.9111069E-01
        1   -1    0    0  501    0  0.00000000000E+00  0.00000000000E+00  0.86975385479E+03  0.86975385480E+03  0.50400001928E-02 0.  1.
       -1   -1    0    0    0  501  0.00000000000E+00  0.00000000000E+00 -0.41532203892E+03  0.41532203895E+03  0.50400001928E-02 0. -1.
    10030    2    1    2    0    0  0.00000000000E+00  0.00000000000E+00  0.45443181587E+03  0.12850758938E+04  0.12020448317E+04 0.  0.
        3    1    3    3  502    0 -0.33459437507E+03  0.21398419379E+03  0.70946857165E+03  0.81307336408E+03  0.10100000352E+00 0.  1.
       -3    1    3    3    0  502  0.33459437507E+03 -0.21398419379E+03 -0.25503675578E+03  0.47200252967E+03  0.10100000352E+00 0. -1.
</event>
<event>
 5   0  0.1551501E-03  0.1197460E+04  0.7818609E-02  0.9115083E-01
       -2   -1    0    0    0  501  0.00000000000E+00  0.00000000000E+00  0.18284748573E+03  0.18284748575E+03  0.25500000920E-02 0.  1.
        2   -1    0    0  501    0  0.00000000000E+00  0.00000000000E+00 -0.19605275758E+04  0.19605275758E+04  0.25500000920E-02 0. -1.
    10030    2    1    2    0    0  0.00000000000E+00  0.00000000000E+00 -0.17776800901E+04  0.21433750616E+04  0.11974598749E+04 0.  0.
        4    1    3    3  502    0  0.34657902910E+03  0.69884850886E+02 -0.17537231317E+04  0.17890073648E+04  0.12699999809E+01 0. -1.
       -4    1    3    3    0  502 -0.34657902910E+03 -0.69884850886E+02 -0.23956958449E+02  0.35436769682E+03  0.12699999809E+01 0.  1.
</event>
<event>
 5   0  0.1567019E-03  0.1197246E+04  0.7818609E-02  0.9115270E-01
        2   -1    0    0  501    0  0.00000000000E+00  0.00000000000E+00  0.84317403749E+03  0.84317403749E+03  0.25500000920E-02 0. -1.
       -2   -1    0    0    0  501  0.00000000000E+00  0.00000000000E+00 -0.42500073877E+03  0.42500073877E+03  0.25500000920E-02 0.  1.
    10030    2    1    2    0    0  0.00000000000E+00  0.00000000000E+00  0.41817329872E+03  0.12681747763E+04  0.11972461549E+04 0.  0.
        5    1    3    3  502    0  0.12851910302E+03 -0.61804308480E+01 -0.41016046242E+03  0.42989423408E+03  0.46999998093E+01 0.  1.
       -5    1    3    3    0  502 -0.12851910302E+03  0.61804308480E+01  0.82833376114E+03  0.83828054219E+03  0.46999998093E+01 0. -1.
</event>
<event>
 5   0  0.1537557E-03  0.1213090E+04  0.7818609E-02  0.9101476E-01
        2   -1    0    0  501    0  0.00000000000E+00  0.00000000000E+00  0.92601925902E+03  0.92601925903E+03  0.25500000920E-02 0.  1.
       -2   -1    0    0    0  501  0.00000000000E+00  0.00000000000E+00 -0.39728840666E+03  0.39728840667E+03  0.25500000920E-02 0. -1.
    10030    2    1    2    0    0  0.00000000000E+00  0.00000000000E+00  0.52873085236E+03  0.13233076657E+04  0.12130898004E+04 0.  0.
        2    1    3    3  502    0  0.42489215140E+03 -0.33709991603E+03  0.56056281384E+03  0.78000023203E+03  0.25500000920E-02 0.  1.
       -2    1    3    3    0  502 -0.42489215140E+03  0.33709991603E+03 -0.31831961477E+02  0.54330743367E+03  0.25500000920E-02 0. -1.
</event>
<event>
 5   0  0.1647550E-03  0.1192250E+04  0.7818609E-02  0.9119667E-01
        2   -1    0    0  501    0  0.00000000000E+00  0.00000000000E+00  0.20159961559E+04  0.20159961559E+04  0.25500000920E-02 0. -1.
       -2   -1    0    0    0  501  0.00000000000E+00  0.00000000000E+00 -0.17627278850E+03  0.17627278851E+03  0.25500000920E-02 0.  1.
    10030    2    1    2    0    0  0.00000000000E+00  0.00000000000E+00  0.18397233674E+04  0.21922689444E+04  0.11922504167E+04 0.  0.
        3    1    3    3  502    0 -0.24552722710E+03  0.68525872091E+01  0.19186256848E+04  0.19342841326E+04  0.10100000352E+00 0. -1.
       -3    1    3    3    0  502  0.24552722710E+03 -0.68525872091E+01 -0.78902317425E+02  0.25798481175E+03  0.10100000352E+00 0.  1.
</event>
<event>
 5   0  0.1537557E-03  0.1199355E+04  0.7818609E-02  0.9113421E-01
       -2   -1    0    0    0  501  0.00000000000E+00  0.00000000000E+00  0.85676112498E+03  0.85676112498E+03  0.25500000920E-02 0.  1.
        2   -1    0    0  501    0  0.00000000000E+00  0.00000000000E+00 -0.41973555328E+03  0.41973555329E+03  0.25500000920E-02 0. -1.
    10030    2    1    2    0    0  0.00000000000E+00  0.00000000000E+00  0.43702557170E+03  0.12764966783E+04  0.11993550014E+04 0.  0.
        2    1    3    3  502    0 -0.57046394102E+02 -0.47766465959E+03 -0.16256002860E+03  0.50778300583E+03  0.25500000920E-02 0. -1.
       -2    1    3    3    0  502  0.57046394102E+02  0.47766465959E+03  0.59958560030E+03  0.76871367244E+03  0.25500000920E-02 0.  1.
</event>
<event>
 5   0  0.1647550E-03  0.1111415E+04  0.7818609E-02  0.9194137E-01
       -2   -1    0    0    0  501  0.00000000000E+00  0.00000000000E+00  0.18434137711E+03  0.18434137712E+03  0.25500000920E-02 0. -1.
        2   -1    0    0  501    0  0.00000000000E+00  0.00000000000E+00 -0.16752112212E+04  0.16752112212E+04  0.25500000920E-02 0.  1.
    10030    2    1    2    0    0  0.00000000000E+00  0.00000000000E+00 -0.14908698441E+04  0.18595525983E+04  0.11114148523E+04 0.  0.
        3    1    3    3  502    0  0.36106720718E+03  0.95112703674E+02 -0.14340591222E+04  0.14818709561E+04  0.10100000352E+00 0.  1.
       -3    1    3    3    0  502 -0.36106720718E+03 -0.95112703674E+02 -0.56810721874E+02  0.37768164216E+03  0.10100000352E+00 0. -1.
</event>
<event>
 5   0  0.1647550E-03  0.1217882E+04  0.7818609E-02  0.9097347E-01
       -2   -1    0    0    0  501  0.00000000000E+00  0.00000000000E+00  0.46511311827E+03  0.46511311827E+03  0.25500000920E-02 0. -1.
        2   -1    0    0  501    0  0.00000000000E+00  0.00000000000E+00 -0.79724466329E+03  0.79724466330E+03  0.25500000920E-02 0.  1.
    10030    2    1    2    0    0  0.00000000000E+00  0.00000000000E+00 -0.33213154502E+03  0.12623577816E+04  0.12178816878E+04 0.  0.
        3    1    3    3  502    0 -0.32227708732E+03 -0.97293798026E+02 -0.69202175039E+03  0.76956008041E+03  0.10100000352E+00 0.  1.
       -3    1    3    3    0  502  0.32227708732E+03  0.97293798026E+02  0.35989020537E+03  0.49279770116E+03  0.10100000352E+00 0. -1.
</event>
<event>
 5   0  0.1537557E-03  0.1177167E+04  0.7818609E-02  0.9133081E-01
        2   -1    0    0  501    0  0.00000000000E+00  0.00000000000E+00  0.77496921904E+03  0.77496921904E+03  0.25500000920E-02 0.  1.
       -2   -1    0    0    0  501  0.00000000000E+00  0.00000000000E+00 -0.44702471664E+03  0.44702471665E+03  0.25500000920E-02 0. -1.
    10030    2    1    2    0    0  0.00000000000E+00  0.00000000000E+00  0.32794450240E+03  0.12219939357E+04  0.11771667606E+04 0.  0.
        2    1    3    3  502    0 -0.25905951937E+03  0.41401911273E+03 -0.17702850077E+03  0.51948315697E+03  0.25500000920E-02 0. -1.
       -2    1    3    3    0  502  0.25905951937E+03 -0.41401911273E+03  0.50497300316E+03  0.70251077872E+03  0.25500000920E-02 0.  1.
</event>
<event>
 5   0  0.9208078E-04  0.1201213E+04  0.7818609E-02  0.9111795E-01
       -1   -1    0    0    0  501  0.00000000000E+00  0.00000000000E+00  0.13640963918E+04  0.13640963918E+04  0.50400001928E-02 0. -1.
        1   -1    0    0  501    0  0.00000000000E+00  0.00000000000E+00 -0.26444477853E+03  0.26444477858E+03  0.50400001928E-02 0.  1.
    10030    2    1    2    0    0  0.00000000000E+00  0.00000000000E+00  0.10996516133E+04  0.16285411704E+04  0.12012130007E+04 0.  0.
        3    1    3    3  502    0 -0.33194279692E+03  0.47380888091E+03  0.76863215814E+03  0.96201677780E+03  0.10100000352E+00 0.  1.
       -3    1    3    3    0  502  0.33194279692E+03 -0.47380888091E+03  0.33101945515E+03  0.66652439261E+03  0.10100000352E+00 0. -1.
</event>
<event>
 5   0  0.9358428E-04  0.1200742E+04  0.7818609E-02  0.9112207E-01
        1   -1    0    0  501    0  0.00000000000E+00  0.00000000000E+00  0.17788697134E+04  0.17788697134E+04  0.50400001928E-02 0. -1.
       -1   -1    0    0    0  501  0.00000000000E+00  0.00000000000E+00 -0.20262616617E+03  0.20262616623E+03  0.50400001928E-02 0.  1.
    10030    2    1    2    0    0  0.00000000000E+00  0.00000000000E+00  0.15762435472E+04  0.19814958796E+04  0.12007423541E+04 0.  0.
        2    1    3    3  502    0  0.57120965185E+02  0.53492917681E+03  0.34830173135E+03  0.64087918123E+03  0.25500000920E-02 0.  1.
       -2    1    3    3    0  502 -0.57120965185E+02 -0.53492917681E+03  0.12279418159E+04  0.13406166984E+04  0.25500000920E-02 0. -1.
</event>
<event>
 5   0  0.9358428E-04  0.1200524E+04  0.7818609E-02  0.9112398E-01
        1   -1    0    0  501    0  0.00000000000E+00  0.00000000000E+00  0.63029716605E+03  0.63029716607E+03  0.50400001928E-02 0.  1.
       -1   -1    0    0    0  501  0.00000000000E+00  0.00000000000E+00 -0.57165835921E+03  0.57165835923E+03  0.50400001928E-02 0. -1.
    10030    2    1    2    0    0  0.00000000000E+00  0.00000000000E+00  0.58638806846E+02  0.12019555253E+04  0.12005242918E+04 0.  0.
        2    1    3    3  502    0 -0.56253510658E+03  0.91417182482E+02  0.21798980206E+03  0.61018226883E+03  0.25500000920E-02 0.  1.
       -2    1    3    3    0  502  0.56253510658E+03 -0.91417182482E+02 -0.15935099522E+03  0.59177325647E+03  0.25500000920E-02 0. -1.
</event>
<event>
 5   0  0.9208078E-04  0.1186100E+04  0.7818609E-02  0.9125111E-01
        1   -1    0    0  501    0  0.00000000000E+00  0.00000000000E+00  0.19885457066E+04  0.19885457066E+04  0.50400001928E-02 0.  1.
       -1   -1    0    0    0  501  0.00000000000E+00  0.00000000000E+00 -0.17686703574E+03  0.17686703581E+03  0.50400001928E-02 0. -1.
    10030    2    1    2    0    0  0.00000000000E+00  0.00000000000E+00  0.18116786709E+04  0.21654127424E+04  0.11860998013E+04 0.  0.
        3    1    3    3  502    0 -0.48560070300E+03 -0.21868552015E+03  0.13821814077E+04  0.14812349083E+04  0.10100000352E+00 0.  1.
       -3    1    3    3    0  502  0.48560070300E+03  0.21868552015E+03  0.42949726317E+03  0.68417783415E+03  0.10100000352E+00 0. -1.
</event>
<event>
 5   0  0.1597352E-03  0.1211152E+04  0.7818609E-02  0.9103151E-01
        2   -1    0    0  501    0  0.00000000000E+00  0.00000000000E+00  0.11845847049E+04  0.11845847049E+04  0.25500000920E-02 0.  1.
       -2   -1    0    0    0  501  0.00000000000E+00  0.00000000000E+00 -0.30957879335E+03  0.30957879337E+03  0.25500000920E-02 0. -1.
    10030    2    1    2    0    0  0.00000000000E+00  0.00000000000E+00  0.87500591154E+03  0.14941634983E+04  0.12111520195E+04 0.  0.
        1    1    3    3  502    0 -0.26640610318E+03  0.54206901955E+03  0.49143668653E+03  0.77866619977E+03  0.50400001928E-02 0.  1.
       -1    1    3    3    0  502  0.26640610318E+03 -0.54206901955E+03  0.38356922501E+03  0.71549729850E+03  0.50400001928E-02 0. -1.
</event>
<event>
 5   0  0.9208078E-04  0.1201613E+04  0.7818609E-02  0.9111446E-01
        1   -1    0    0  501    0  0.00000000000E+00  0.00000000000E+00  0.51377272730E+03  0.51377272732E+03  0.50400001928E-02 0.  1.
       -1   -1    0    0    0  501  0.00000000000E+00  0.00000000000E+00 -0.70258432167E+03  0.70258432169E+03  0.50400001928E-02 0. -1.
    10030    2    1    2    0    0  0.00000000000E+00  0.00000000000E+00 -0.18881159438E+03  0.12163570490E+04  0.12016133540E+04 0.  0.
        3    1    3    3  502    0  0.18981264991E+03  0.54796160731E+03 -0.25342527486E+03  0.63286265911E+03  0.10100000352E+00 0.  1.
       -3    1    3    3    0  502 -0.18981264991E+03 -0.54796160731E+03  0.64613680485E+02  0.58349438991E+03  0.10100000352E+00 0. -1.
</event>
<event>
 5   0  0.1647550E-03  0.1201092E+04  0.7818609E-02  0.9111901E-01
       -2   -1    0    0    0  501  0.00000000000E+00  0.00000000000E+00  0.62277137011E+03  0.62277137012E+03  0.25500000920E-02 0.  1.
        2   -1    0    0  501    0  0.00000000000E+00  0.00000000000E+00 -0.57911389484E+03  0.57911389485E+03  0.25500000920E-02 0. -1.
    10030    2    1    2    0    0  0.00000000000E+00  0.00000000000E+00  0.43657475267E+02  0.12018852650E+04  0.12010920926E+04 0.  0.
        3    1    3    3  502    0  0.27125843796E+03  0.19287701985E+03  0.52203168406E+03  0.61911208542E+03  0.10100000352E+00 0.  1.
       -3    1    3    3    0  502 -0.27125843796E+03 -0.19287701985E+03 -0.47837420879E+03  0.58277317954E+03  0.10100000352E+00 0. -1.
</event>
<event>
 5   0  0.9169078E-04  0.1222062E+04  0.7818609E-02  0.9093762E-01
       -1   -1    0    0    0  501  0.00000000000E+00  0.00000000000E+00  0.46052412072E+03  0.46052412075E+03  0.50400001928E-02 0. -1.
        1   -1    0    0  501    0  0.00000000000E+00  0.00000000000E+00 -0.81072601552E+03  0.81072601553E+03  0.50400001928E-02 0.  1.
    10030    2    1    2    0    0  0.00000000000E+00  0.00000000000E+00 -0.35020189480E+03  0.12712501363E+04  0.12220620041E+04 0.  0.
        1    1    3    3  502    0 -0.72376792312E+02  0.53583056301E+03 -0.47117245460E+03  0.71718635955E+03  0.50400001928E-02 0.  1.
       -1    1    3    3    0  502  0.72376792312E+02 -0.53583056301E+03  0.12097055980E+03  0.55406377673E+03  0.50400001928E-02 0. -1.
</event>
<event>
 5   0  0.1551501E-03  0.1197835E+04  0.7818609E-02  0.9114754E-01
        2   -1    0    0  501    0  0.00000000000E+00  0.00000000000E+00  0.10206386707E+04  0.10206386707E+04  0.25500000920E-02 0. -1.
       -2   -1    0    0    0  501  0.00000000000E+00  0.00000000000E+00 -0.35144845723E+03  0.35144845724E+03  0.25500000920E-02 0.  1.
    10030    2    1    2    0    0  0.00000000000E+00  0.00000000000E+00  0.66919021347E+03  0.13720871279E+04  0.11978345231E+04 0.  0.
        4    1    3    3  502    0 -0.12566280705E+02  0.53964643995E+03  0.37380544919E+02  0.54108697046E+03  0.12699999809E+01 0.  1.
       -4    1    3    3    0  502  0.12566280705E+02 -0.53964643995E+03  0.63180966855E+03  0.83100015748E+03  0.12699999809E+01 0. -1.
</event>
<event>
 5   0  0.1551501E-03  0.1198607E+04  0.7818609E-02  0.9114076E-01
        2   -1    0    0  501    0  0.00000000000E+00  0.00000000000E+00  0.49595573888E+03  0.49595573889E+03  0.25500000920E-02 0. -1.
       -2   -1    0    0    0  501  0.00000000000E+00  0.00000000000E+00 -0.72418733227E+03  0.72418733227E+03  0.25500000920E-02 0.  1.
    10030    2    1    2    0    0  0.00000000000E+00  0.00000000000E+00 -0.22823159338E+03  0.12201430712E+04  0.11986072976E+04 0.  0.
        4    1    3    3  502    0  0.52819374716E+02  0.52769815337E+03 -0.39825092691E+03  0.66321990403E+03  0.12699999809E+01 0.  1.
       -4    1    3    3    0  502 -0.52819374716E+02 -0.52769815337E+03  0.17001933353E+03  0.55692316713E+03  0.12699999809E+01 0. -1.
</event>
<event>
 5   0  0.9170776E-04  0.1207587E+04  0.7818609E-02  0.9106241E-01
        1   -1    0    0  501    0  0.00000000000E+00  0.00000000000E+00  0.63872932033E+03  0.63872932035E+03  0.50400001928E-02 0.  1.
       -1   -1    0    0    0  501  0.00000000000E+00  0.00000000000E+00 -0.57076876581E+03  0.57076876583E+03  0.50400001928E-02 0. -1.
    10030    2    1    2    0    0  0.00000000000E+00  0.00000000000E+00  0.67960554524E+02  0.12094980862E+04  0.12075872571E+04 0.  0.
        5    1    3    3  502    0 -0.70948092259E+02 -0.52537273570E+02 -0.56425108572E+03  0.57113498811E+03  0.46999998093E+01 0. -1.
       -5    1    3    3    0  502  0.70948092259E+02  0.52537273570E+02  0.63221164025E+03  0.63836309806E+03  0.46999998093E+01 0.  1.
</event>
<event>
 5   0  0.9208078E-04  0.1191269E+04  0.7818609E-02  0.9120533E-01
       -1   -1    0    0    0  501  0.00000000000E+00  0.00000000000E+00  0.48223568789E+03  0.48223568791E+03  0.50400001928E-02 0.  1.
        1   -1    0    0  501    0  0.00000000000E+00  0.00000000000E+00 -0.73569926617E+03  0.73569926619E+03  0.50400001928E-02 0. -1.
    10030    2    1    2    0    0  0.00000000000E+00  0.00000000000E+00 -0.25346357828E+03  0.12179349541E+04  0.11912689734E+04 0.  0.
        3    1    3    3  502    0  0.27459781574E+03 -0.45877225892E+03  0.14164071051E+03  0.55311666675E+03  0.10100000352E+00 0.  1.
       -3    1    3    3    0  502 -0.27459781574E+03  0.45877225892E+03 -0.39510428879E+03  0.66481828735E+03  0.10100000352E+00 0. -1.
</event>
<event>
 5   0  0.9358428E-04  0.1189841E+04  0.7818609E-02  0.9121795E-01
       -1   -1    0    0    0  501  0.00000000000E+00  0.00000000000E+00  0.60577421600E+03  0.60577421602E+03  0.50400001928E-02 0.  1.
        1   -1    0    0  501    0  0.00000000000E+00  0.00000000000E+00 -0.58426169778E+03  0.58426169780E+03  0.50400001928E-02 0. -1.
    10030    2    1    2    0    0  0.00000000000E+00  0.00000000000E+00  0.21512518213E+02  0.11900359138E+04  0.11898414549E+04 0.  0.
        2    1    3    3  502    0 -0.43184319134E+03  0.28895124157E+03  0.30054368529E+03  0.60025650241E+03  0.25500000920E-02 0.  1.
       -2    1    3    3    0  502  0.43184319134E+03 -0.28895124157E+03 -0.27903116708E+03  0.58977941141E+03  0.25500000920E-02 0. -1.
</event>
<event>
 5   0  0.1551501E-03  0.1204541E+04  0.7818609E-02  0.9108891E-01
       -2   -1    0    0    0  501  0.00000000000E+00  0.00000000000E+00  0.68456587404E+03  0.68456587404E+03  0.25500000920E-02 0.  1.
        2   -1    0    0  501    0  0.00000000000E+00  0.00000000000E+00 -0.52986865712E+03  0.52986865713E+03  0.25500000920E-02 0. -1.
    10030    2    1    2    0    0  0.00000000000E+00  0.00000000000E+00  0.15469721691E+03  0.12144345312E+04  0.12045414072E+04 0.  0.
        4    1    3    3  502    0 -0.42890782757E+03 -0.27536091072E+03 -0.24613362202E+03  0.56601142082E+03  0.12699999809E+01 0. -1.
       -4    1    3    3    0  502  0.42890782757E+03  0.27536091072E+03  0.40083083893E+03  0.64842311036E+03  0.12699999809E+01 0.  1.
</event>
<event>
 5   0  0.9208078E-04  0.1197302E+04  0.7818609E-02  0.9115221E-01
       -1   -1    0    0    0  501  0.00000000000E+00  0.00000000000E+00  0.30852711626E+03  0.30852711630E+03  0.50400001928E-02 0.  1.
        1   -1    0    0  501    0  0.00000000000E+00  0.00000000000E+00 -0.11615936468E+04  0.11615936468E+04  0.50400001928E-02 0. -1.
    10030    2    1    2    0    0  0.00000000000E+00  0.00000000000E+00 -0.85306653056E+03  0.14701207631E+04  0.11973021977E+04 0.  0.
        3    1    3    3  502    0  0.11600766210E+03 -0.26809539246E+02  0.29384205838E+03  0.31704841040E+03  0.10100000352E+00 0.  1.
       -3    1    3    3    0  502 -0.11600766210E+03  0.26809539246E+02 -0.11469085889E+04  0.11530723527E+04  0.10100000352E+00 0. -1.
</event>
<event>
 5   0  0.1537557E-03  0.1188748E+04  0.7818609E-02  0.9122763E-01
        2   -1    0    0  501    0  0.00000000000E+00  0.00000000000E+00  0.10474832575E+04  0.10474832575E+04  0.25500000920E-02 0. -1.
       -2   -1    0    0    0  501  0.00000000000E+00  0.00000000000E+00 -0.33726570627E+03  0.33726570628E+03  0.25500000920E-02 0.  1.
    10030    2    1    2    0    0  0.00000000000E+00  0.00000000000E+00  0.71021755125E+03  0.13847489638E+04  0.11887475437E+04 0.  0.
        2    1    3    3  502    0  0.21391865027E+03  0.83737832059E+02 -0.28346148534E+03  0.36486110663E+03  0.25500000920E-02 0.  1.
       -2    1    3    3    0  502 -0.21391865027E+03 -0.83737832059E+02  0.99367903658E+03  0.10198878572E+04  0.25500000920E-02 0. -1.
</event>
<event>
 5   0  0.1551501E-03  0.1204494E+04  0.7818609E-02  0.9108932E-01
       -2   -1    0    0    0  501  0.00000000000E+00  0.00000000000E+00  0.35894778380E+03  0.35894778381E+03  0.25500000920E-02 0. -1.
        2   -1    0    0  501    0  0.00000000000E+00  0.00000000000E+00 -0.10104567222E+04  0.10104567222E+04  0.25500000920E-02 0.  1.
    10030    2    1    2    0    0  0.00000000000E+00  0.00000000000E+00 -0.65150893839E+03  0.13694045060E+04  0.12044935883E+04 0.  0.
        4    1    3    3  502    0 -0.47802981511E+03  0.14451634093E+03  0.56934779464E+02  0.50263372245E+03  0.12699999809E+01 0. -1.
       -4    1    3    3    0  502  0.47802981511E+03 -0.14451634093E+03 -0.70844371785E+03  0.86677078354E+03  0.12699999809E+01 0.  1.
</event>
<event>
 5   0  0.9170776E-04  0.1197289E+04  0.7818609E-02  0.9115233E-01
        1   -1    0    0  501    0  0.00000000000E+00  0.00000000000E+00  0.31974228521E+03  0.31974228525E+03  0.50400001928E-02 0.  1.
       -1   -1    0    0    0  501  0.00000000000E+00  0.00000000000E+00 -0.11208258497E+04  0.11208258498E+04  0.50400001928E-02 0. -1.
    10030    2    1    2    0    0  0.00000000000E+00  0.00000000000E+00 -0.80108356453E+03  0.14405681350E+04  0.11972893026E+04 0.  0.
        5    1    3    3  502    0 -0.23385782512E+03  0.15231606609E+02  0.26223193865E+03  0.35172313523E+03  0.46999998093E+01 0.  1.
       -5    1    3    3    0  502  0.23385782512E+03 -0.15231606609E+02 -0.10633155032E+04  0.10888449998E+04  0.46999998093E+01 0. -1.
</event>
<event>
 5   0  0.6137750E-04  0.1188475E+04  0.7818609E-02  0.9123004E-01
       -4   -1    0    0    0  501  0.00000000000E+00  0.00000000000E+00  0.35846571982E+03  0.35846796954E+03  0.12699999809E+01 0. -1.
        4   -1    0    0  501    0  0.00000000000E+00  0.00000000000E+00 -0.98507698148E+03  0.98507780015E+03  0.12699999809E+01 0.  1.
    10030    2    1    2    0    0  0.00000000000E+00  0.00000000000E+00 -0.62661126167E+03  0.13435457697E+04  0.11884753098E+04 0.  0.
        4    1    3    3  502    0 -0.49379223820E+02  0.56201115358E+03 -0.52426010483E+03  0.77015914907E+03  0.12699999809E+01 0.  1.
       -4    1    3    3    0  502  0.49379223820E+02 -0.56201115358E+03 -0.10235115684E+03  0.57338662061E+03  0.12699999809E+01 0. -1.
</event>
<event>
 5   0  0.1537557E-03  0.1198856E+04  0.7818609E-02  0.9113859E-01
       -2   -1    0    0    0  501  0.00000000000E+00  0.00000000000E+00  0.99996937450E+03  0.99996937451E+03  0.25500000920E-02 0.  1.
        2   -1    0    0  501    0  0.00000000000E+00  0.00000000000E+00 -0.35932465596E+03  0.35932465597E+03  0.25500000920E-02 0. -1.
    10030    2    1    2    0    0  0.00000000000E+00  0.00000000000E+00  0.64064471854E+03  0.13592940305E+04  0.11988555400E+04 0.  0.
        2    1    3    3  502    0  0.41136631711E+03  0.43589657745E+03  0.30983349239E+03  0.67470353942E+03  0.25500000920E-02 0.  1.
       -2    1    3    3    0  502 -0.41136631711E+03 -0.43589657745E+03  0.33081122615E+03  0.68459049105E+03  0.25500000920E-02 0. -1.
</event>
<event>
 5   0  0.1647550E-03  0.1193216E+04  0.7818609E-02  0.9118816E-01
        2   -1    0    0  501    0  0.00000000000E+00  0.00000000000E+00  0.17710795117E+04  0.17710795117E+04  0.25500000920E-02 0. -1.
       -2   -1    0    0    0  501  0.00000000000E+00  0.00000000000E+00 -0.20097400753E+03  0.20097400755E+03  0.25500000920E-02 0.  1.
    10030    2    1    2    0    0  0.00000000000E+00  0.00000000000E+00  0.15701055042E+04  0.19720535193E+04  0.11932157343E+04 0.  0.
        3    1    3    3  502    0 -0.29303803601E+03  0.50363821333E+03  0.57328372092E+03  0.81742092911E+03  0.10100000352E+00 0. -1.
       -3    1    3    3    0  502  0.29303803601E+03 -0.50363821333E+03  0.99682178329E+03  0.11546325902E+04  0.10100000352E+00 0.  1.
</event>
<event>
 5   0  0.1567019E-03  0.1198157E+04  0.7818609E-02  0.9114471E-01
        2   -1    0    0  501    0  0.00000000000E+00  0.00000000000E+00  0.38049427002E+03  0.38049427003E+03  0.25500000920E-02 0.  1.
       -2   -1    0    0    0  501  0.00000000000E+00  0.00000000000E+00 -0.94323346245E+03  0.94323346245E+03  0.25500000920E-02 0. -1.
    10030    2    1    2    0    0  0.00000000000E+00  0.00000000000E+00 -0.56273919243E+03  0.13237277325E+04  0.11981567973E+04 0.  0.
        5    1    3    3  502    0  0.44647171893E+03  0.23810554736E+02  0.15912551765E+03  0.47460189494E+03  0.46999998093E+01 0.  1.
       -5    1    3    3    0  502 -0.44647171893E+03 -0.23810554736E+02 -0.72186471008E+03  0.84912583753E+03  0.46999998093E+01 0. -1.
</event>
<event>
 5   0  0.9358428E-04  0.1199756E+04  0.7818609E-02  0.9113070E-01
        1   -1    0    0  501    0  0.00000000000E+00  0.00000000000E+00  0.82110368120E+03  0.82110368121E+03  0.50400001928E-02 0. -1.
       -1   -1    0    0    0  501  0.00000000000E+00  0.00000000000E+00 -0.43825593757E+03  0.43825593760E+03  0.50400001928E-02 0.  1.
    10030    2    1    2    0    0  0.00000000000E+00  0.00000000000E+00  0.38284774363E+03  0.12593596188E+04  0.11997559146E+04 0.  0.
        2    1    3    3  502    0  0.51870254262E+03 -0.28300858111E+03  0.82806709901E+02  0.59665998351E+03  0.25500000920E-02 0.  1.
       -2    1    3    3    0  502 -0.51870254262E+03  0.28300858111E+03  0.30004103373E+03  0.66269963530E+03  0.25500000920E-02 0. -1.
</event>
<event>
 5   0  0.1537557E-03  0.1218244E+04  0.7818609E-02  0.9097036E-01
        2   -1    0    0  501    0  0.00000000000E+00  0.00000000000E+00  0.75158170520E+03  0.75158170520E+03  0.25500000920E-02 0. -1.
       -2   -1    0    0    0  501  0.00000000000E+00  0.00000000000E+00 -0.49366494103E+03  0.49366494104E+03  0.25500000920E-02 0.  1.
    10030    2    1    2    0    0  0.00000000000E+00  0.00000000000E+00  0.25791676417E+03  0.12452466462E+04  0.12182438806E+04 0.  0.
        2    1    3    3  502    0  0.53948188191E+03 -0.28238360944E+03  0.14506630631E+03  0.62595961293E+03  0.25500000920E-02 0. -1.
       -2    1    3    3    0  502 -0.53948188191E+03  0.28238360944E+03  0.11285045786E+03  0.61928703331E+03  0.25500000920E-02 0.  1.
</event>
<event>
 5   0  0.6137750E-04  0.1190916E+04  0.7818609E-02  0.9120845E-01
        4   -1    0    0  501    0  0.00000000000E+00  0.00000000000E+00  0.42022704818E+03  0.42022896726E+03  0.12699999809E+01 0.  1.
       -4   -1    0    0    0  501  0.00000000000E+00  0.00000000000E+00 -0.84375440709E+03  0.84375536288E+03  0.12699999809E+01 0. -1.
    10030    2    1    2    0    0  0.00000000000E+00  0.00000000000E+00 -0.42352735891E+03  0.12639843301E+04  0.11909160185E+04 0.  0.
        5    1    3    3  502    0 -0.32487530728E+03  0.28296559604E+03 -0.64799810019E+03  0.77816265759E+03  0.46999998093E+01 0. -1.
       -5    1    3    3    0  502  0.32487530728E+03 -0.28296559604E+03  0.22447074128E+03  0.48582167254E+03  0.46999998093E+01 0.  1.
</event>
<event>
 5   0  0.1567019E-03  0.1205709E+04  0.7818609E-02  0.9107874E-01
       -2   -1    0    0    0  501  0.00000000000E+00  0.00000000000E+00  0.64876764193E+03  0.64876764194E+03  0.25500000920E-02 0. -1.
        2   -1    0    0  501    0  0.00000000000E+00  0.00000000000E+00 -0.56019033519E+03  0.56019033520E+03  0.25500000920E-02 0.  1.
    10030    2    1    2    0    0  0.00000000000E+00  0.00000000000E+00  0.88577306744E+02  0.12089579771E+04  0.12057086925E+04 0.  0.
        5    1    3    3  502    0  0.23398497268E+03 -0.48308520738E+03  0.31942015008E+03  0.62463718053E+03  0.46999998093E+01 0. -1.
       -5    1    3    3    0  502 -0.23398497268E+03  0.48308520738E+03 -0.23084284333E+03  0.58432079660E+03  0.46999998093E+01 0.  1.
</event>
<event>
 5   0  0.8908478E-04  0.1206630E+04  0.7818609E-02  0.9107073E-01
       -1   -1    0    0    0  501  0.00000000000E+00  0.00000000000E+00  0.11215157467E+04  0.11215157467E+04  0.50400001928E-02 0. -1.
        1   -1    0    0  501    0  0.00000000000E+00  0.00000000000E+00 -0.32455078799E+03  0.32455078803E+03  0.50400001928E-02 0.  1.
    10030    2    1    2    0    0  0.00000000000E+00  0.00000000000E+00  0.79696495874E+03  0.14460665348E+04  0.12066297185E+04 0.  0.
        4    1    3    3  502    0 -0.15036259924E+03 -0.54880988931E+03  0.15823897648E+03  0.59062881105E+03  0.12699999809E+01 0.  1.
       -4    1    3    3    0  502  0.15036259924E+03  0.54880988931E+03  0.63872598225E+03  0.85543772372E+03  0.12699999809E+01 0. -1.
</event>
<event>
 5   0  0.9358428E-04  0.1190402E+04  0.7818609E-02  0.9121299E-01
        1   -1    0    0  501    0  0.00000000000E+00  0.00000000000E+00  0.21866406100E+03  0.21866406106E+03  0.50400001928E-02 0. -1.
       -1   -1    0    0    0  501  0.00000000000E+00  0.00000000000E+00 -0.16201300164E+04  0.16201300164E+04  0.50400001928E-02 0.  1.
    10030    2    1    2    0    0  0.00000000000E+00  0.00000000000E+00 -0.14014659554E+04  0.18387940775E+04  0.11904019637E+04 0.  0.
        2    1    3    3  502    0 -0.49587468758E+03 -0.48901111798E+02 -0.19786515652E+03  0.53612838452E+03  0.25500000920E-02 0. -1.
       -2    1    3    3    0  502  0.49587468758E+03  0.48901111798E+02 -0.12036007989E+04  0.13026656929E+04  0.25500000920E-02 0.  1.
</event>
<event>
 5   0  0.9169078E-04  0.1195060E+04  0.7818609E-02  0.9117192E-01
        1   -1    0    0  501    0  0.00000000000E+00  0.00000000000E+00  0.88784705494E+03  0.88784705495E+03  0.50400001928E-02 0.  1.
       -1   -1    0    0    0  501  0.00000000000E+00  0.00000000000E+00 -0.40214364292E+03  0.40214364295E+03  0.50400001928E-02 0. -1.
    10030    2    1    2    0    0  0.00000000000E+00  0.00000000000E+00  0.48570341202E+03  0.12899906979E+04  0.11950599132E+04 0.  0.
        1    1    3    3  502    0  0.17313476516E+03 -0.14428377236E+03 -0.35450528734E+03  0.42008029310E+03  0.50400001928E-02 0. -1.
       -1    1    3    3    0  502 -0.17313476516E+03  0.14428377236E+03  0.84020869936E+03  0.86991040480E+03  0.50400001928E-02 0.  1.
</event>
<event>
 5   0  0.1567019E-03  0.1202542E+04  0.7818609E-02  0.9110634E-01
       -2   -1    0    0    0  501  0.00000000000E+00  0.00000000000E+00  0.49238684569E+03  0.49238684570E+03  0.25500000920E-02 0. -1.
        2   -1    0    0  501    0  0.00000000000E+00  0.00000000000E+00 -0.73423375710E+03  0.73423375711E+03  0.25500000920E-02 0.  1.
    10030    2    1    2    0    0  0.00000000000E+00  0.00000000000E+00 -0.24184691141E+03  0.12266206028E+04  0.12025423796E+04 0.  0.
        5    1    3    3  502    0 -0.17617087620E+02 -0.77144953149E+02  0.48703342851E+03  0.49344235333E+03  0.46999998093E+01 0. -1.
       -5    1    3    3    0  502  0.17617087620E+02  0.77144953149E+02 -0.72888033993E+03  0.73317824947E+03  0.46999998093E+01 0.  1.
</event>
<event>
 5   0  0.9170776E-04  0.1198088E+04  0.7818609E-02  0.9114532E-01
       -1   -1    0    0    0  501  0.00000000000E+00  0.00000000000E+00  0.85483502364E+03  0.85483502366E+03  0.50400001928E-02 0.  1.
        1   -1    0    0  501    0  0.00000000000E+00  0.00000000000E+00 -0.41979274891E+03  0.41979274894E+03  0.50400001928E-02 0. -1.
    10030    2    1    2    0    0  0.00000000000E+00  0.00000000000E+00  0.43504227473E+03  0.12746277726E+04  0.11980877171E+04 0.  0.
        5    1    3    3  502    0 -0.43820465292E+03  0.37124369516E+03  0.36390957353E+02  0.57549247676E+03  0.46999998093E+01 0. -1.
       -5    1    3    3    0  502  0.43820465292E+03 -0.37124369516E+03  0.39865131738E+03  0.69913529583E+03  0.46999998093E+01 0.  1.
</event>
<event>
 5   0  0.9208078E-04  0.1203535E+04  0.7818609E-02  0.9109768E-01
       -1   -1    0    0    0  501  0.00000000000E+00  0.00000000000E+00  0.21455833961E+03  0.21455833967E+03  0.50400001928E-02 0. -1.
        1   -1    0    0  501    0  0.00000000000E+00  0.00000000000E+00 -0.16877652525E+04  0.16877652525E+04  0.50400001928E-02 0.  1.
    10030    2    1    2    0    0  0.00000000000E+00  0.00000000000E+00 -0.14732069129E+04  0.19023235922E+04  0.12035349771E+04 0.  0.
        3    1    3    3  502    0  0.47220456268E+03  0.22286990995E+03 -0.12094049581E+04  0.13173110903E+04  0.10100000352E+00 0.  1.
       -3    1    3    3    0  502 -0.47220456268E+03 -0.22286990995E+03 -0.26380195478E+03  0.58501250185E+03  0.10100000352E+00 0. -1.
</event>
<event>
 5   0  0.1597352E-03  0.1199905E+04  0.7818609E-02  0.9112940E-01
       -2   -1    0    0    0  501  0.00000000000E+00  0.00000000000E+00  0.46927301667E+03  0.46927301668E+03  0.25500000920E-02 0. -1.
        2   -1    0    0  501    0  0.00000000000E+00  0.00000000000E+00 -0.76702203400E+03  0.76702203400E+03  0.25500000920E-02 0.  1.
    10030    2    1    2    0    0  0.00000000000E+00  0.00000000000E+00 -0.29774901733E+03  0.12362950507E+04  0.11999045691E+04 0.  0.
        1    1    3    3  502    0 -0.53634150180E+03  0.75605343758E+02 -0.41469982159E+03  0.68216883292E+03  0.50400001928E-02 0.  1.
       -1    1    3    3    0  502  0.53634150180E+03 -0.75605343758E+02  0.11695080426E+03  0.55412621776E+03  0.50400001928E-02 0. -1.
</event>
<event>
 5   0  0.9169078E-04  0.1227120E+04  0.7818609E-02  0.9089444E-01
        1   -1    0    0  501    0  0.00000000000E+00  0.00000000000E+00  0.12875397010E+04  0.12875397010E+04  0.50400001928E-02 0. -1.
       -1   -1    0    0    0  501  0.00000000000E+00  0.00000000000E+00 -0.29238385432E+03  0.29238385437E+03  0.50400001928E-02 0.  1.
    10030    2    1    2    0    0  0.00000000000E+00  0.00000000000E+00  0.99515584671E+03  0.15799235554E+04  0.12271199133E+04 0.  0.
        1    1    3    3  502    0  0.37422192468E+03 -0.17553568101E+03  0.10813746797E+04  0.11576813129E+04  0.50400001928E-02 0. -1.
       -1    1    3    3    0  502 -0.37422192468E+03  0.17553568101E+03 -0.86218832981E+02  0.42224224256E+03  0.50400001928E-02 0.  1.
</event>
<event>
 5   0  0.1647550E-03  0.1200029E+04  0.7818609E-02  0.9112831E-01
       -2   -1    0    0    0  501  0.00000000000E+00  0.00000000000E+00  0.32778321529E+03  0.32778321530E+03  0.25500000920E-02 0.  1.
        2   -1    0    0  501    0  0.00000000000E+00  0.00000000000E+00 -0.10983397182E+04  0.10983397182E+04  0.25500000920E-02 0. -1.
    10030    2    1    2    0    0  0.00000000000E+00  0.00000000000E+00 -0.77055650287E+03  0.14261229335E+04  0.12000288735E+04 0.  0.
        3    1    3    3  502    0  0.45825675466E+03  0.32910893074E+03 -0.14258300440E+03  0.58192943286E+03  0.10100000352E+00 0.  1.
       -3    1    3    3    0  502 -0.45825675466E+03 -0.32910893074E+03 -0.62797349847E+03  0.84419350061E+03  0.10100000352E+00 0. -1.
</event>
<event>
 5   0  0.9169078E-04  0.1190673E+04  0.7818609E-02  0.9121060E-01
        1   -1    0    0  501    0  0.00000000000E+00  0.00000000000E+00  0.14745750071E+04  0.14745750071E+04  0.50400001928E-02 0. -1.
       -1   -1    0    0    0  501  0.00000000000E+00  0.00000000000E+00 -0.24035770775E+03  0.24035770781E+03  0.50400001928E-02 0.  1.
    10030    2    1    2    0    0  0.00000000000E+00  0.00000000000E+00  0.12342172994E+04  0.17149327149E+04  0.11906728664E+04 0.  0.
        1    1    3    3  502    0  0.13992378152E+02  0.44896652054E+02  0.14718956698E+04  0.14726467190E+04  0.50400001928E-02 0. -1.
       -1    1    3    3    0  502 -0.13992378152E+02 -0.44896652054E+02 -0.23767837048E+03  0.24228599595E+03  0.50400001928E-02 0.  1.
</event>
<event>
 5   0  0.8908478E-04  0.1208391E+04  0.7818609E-02  0.9105543E-01
        1   -1    0    0  501    0  0.00000000000E+00  0.00000000000E+00  0.80402860769E+03  0.80402860770E+03  0.50400001928E-02 0. -1.
       -1   -1    0    0    0  501  0.00000000000E+00  0.00000000000E+00 -0.45402908368E+03  0.45402908371E+03  0.50400001928E-02 0.  1.
    10030    2    1    2    0    0  0.00000000000E+00  0.00000000000E+00  0.34999952401E+03  0.12580576914E+04  0.12083912810E+04 0.  0.
        4    1    3    3  502    0 -0.14610917038E+02  0.11348427850E+03  0.79264452615E+03  0.80086148497E+03  0.12699999809E+01 0. -1.
       -4    1    3    3    0  502  0.14610917038E+02 -0.11348427850E+03 -0.44264500214E+03  0.45719620644E+03  0.12699999809E+01 0.  1.
</event>
<event>
 5   0  0.1597352E-03  0.1163105E+04  0.7818609E-02  0.9145778E-01
        2   -1    0    0  501    0  0.00000000000E+00  0.00000000000E+00  0.10759886562E+04  0.10759886563E+04  0.25500000920E-02 0.  1.
       -2   -1    0    0    0  501  0.00000000000E+00  0.00000000000E+00 -0.31431849308E+03  0.31431849309E+03  0.25500000920E-02 0. -1.
    10030    2    1    2    0    0  0.00000000000E+00  0.00000000000E+00  0.76167016317E+03  0.13903071493E+04  0.11631046952E+04 0.  0.
        1    1    3    3  502    0  0.44183131702E+03  0.17799431719E+03  0.77963192286E+03  0.91363166802E+03  0.50400001928E-02 0.  1.
       -1    1    3    3    0  502 -0.44183131702E+03 -0.17799431719E+03 -0.17961759687E+02  0.47667548131E+03  0.50400001928E-02 0. -1.
</event>
<event>
 5   0  0.9169078E-04  0.1195630E+04  0.7818609E-02  0.9116691E-01
       -1   -1    0    0    0  501  0.00000000000E+00  0.00000000000E+00  0.51265128829E+03  0.51265128831E+03  0.50400001928E-02 0. -1.
        1   -1    0    0  501    0  0.00000000000E+00  0.00000000000E+00 -0.69712594323E+03  0.69712594325E+03  0.50400001928E-02 0.  1.
    10030    2    1    2    0    0  0.00000000000E+00  0.00000000000E+00 -0.18447465494E+03  0.12097772316E+04  0.11956295629E+04 0.  0.
        1    1    3    3  502    0 -0.27592659277E+03  0.20731295954E+03  0.40166600260E+03  0.52957504233E+03  0.50400001928E-02 0. -1.
       -1    1    3    3    0  502  0.27592659277E+03 -0.20731295954E+03 -0.58614065753E+03  0.68020218923E+03  0.50400001928E-02 0.  1.
</event>
<event>
 5   0  0.9169078E-04  0.1188717E+04  0.7818609E-02  0.9122791E-01
       -1   -1    0    0    0  501  0.00000000000E+00  0.00000000000E+00  0.17501028733E+03  0.17501028741E+03  0.50400001928E-02 0.  1.
        1   -1    0    0  501    0  0.00000000000E+00  0.00000000000E+00 -0.20185203299E+04  0.20185203299E+04  0.50400001928E-02 0. -1.
    10030    2    1    2    0    0  0.00000000000E+00  0.00000000000E+00 -0.18435100425E+04  0.21935306173E+04  0.11887166576E+04 0.  0.
        1    1    3    3  502    0  0.37933808499E+03  0.38218955797E+03 -0.13860051694E+04  0.14869352947E+04  0.50400001928E-02 0. -1.
       -1    1    3    3    0  502 -0.37933808499E+03 -0.38218955797E+03 -0.45750487311E+03  0.70659532258E+03  0.50400001928E-02 0.  1.
</event>
<event>
 5   0  0.1647550E-03  0.1206010E+04  0.7818609E-02  0.9107612E-01
        2   -1    0    0  501    0  0.00000000000E+00  0.00000000000E+00  0.17767088331E+04  0.17767088331E+04  0.25500000920E-02 0.  1.
       -2   -1    0    0    0  501  0.00000000000E+00  0.00000000000E+00 -0.20465648997E+03  0.20465648998E+03  0.25500000920E-02 0. -1.
    10030    2    1    2    0    0  0.00000000000E+00  0.00000000000E+00  0.15720523431E+04  0.19813653231E+04  0.12060099394E+04 0.  0.
        3    1    3    3  502    0 -0.12512022366E+03 -0.50913716727E+03  0.12754347381E+04  0.13789885811E+04  0.10100000352E+00 0.  1.
       -3    1    3    3    0  502  0.12512022366E+03  0.50913716727E+03  0.29661760502E+03  0.60237674197E+03  0.10100000352E+00 0. -1.
</event>
<event>
 5   0  0.1567019E-03  0.1209118E+04  0.7818609E-02  0.9104913E-01
       -2   -1    0    0    0  501  0.00000000000E+00  0.00000000000E+00  0.32600977349E+03  0.32600977350E+03  0.25500000920E-02 0.  1.
        2   -1    0    0  501    0  0.00000000000E+00  0.00000000000E+00 -0.11211062155E+04  0.11211062155E+04  0.25500000920E-02 0. -1.
    10030    2    1    2    0    0  0.00000000000E+00  0.00000000000E+00 -0.79509644198E+03  0.14471159890E+04  0.12091179982E+04 0.  0.
        5    1    3    3  502    0 -0.52300367473E+02 -0.48497418514E+03 -0.82496148468E+03  0.95839388035E+03  0.46999998093E+01 0. -1.
       -5    1    3    3    0  502  0.52300367473E+02  0.48497418514E+03  0.29865042699E+02  0.48872210863E+03  0.46999998093E+01 0.  1.
</event>
<event>
 5   0  0.1537557E-03  0.1212308E+04  0.7818609E-02  0.9102151E-01
       -2   -1    0    0    0  501  0.00000000000E+00  0.00000000000E+00  0.56410894896E+03  0.56410894897E+03  0.25500000920E-02 0. -1.
        2   -1    0    0  501    0  0.00000000000E+00  0.00000000000E+00 -0.65133248697E+03  0.65133248697E+03  0.25500000920E-02 0.  1.
    10030    2    1    2    0    0  0.00000000000E+00  0.00000000000E+00 -0.87223538009E+02  0.12154414359E+04  0.12123076914E+04 0.  0.
        2    1    3    3  502    0  0.35229198608E+03 -0.10116223570E+03  0.44041880037E+03  0.57298530620E+03  0.25500000920E-02 0. -1.
       -2    1    3    3    0  502 -0.35229198608E+03  0.10116223570E+03 -0.52764233838E+03  0.64245612975E+03  0.25500000920E-02 0.  1.
</event>
<event>
 5   0  0.1537557E-03  0.1179870E+04  0.7818609E-02  0.9130661E-01
        2   -1    0    0  501    0  0.00000000000E+00  0.00000000000E+00  0.27123474771E+04  0.27123474771E+04  0.25500000920E-02 0. -1.
       -2   -1    0    0    0  501  0.00000000000E+00  0.00000000000E+00 -0.12831071044E+03  0.12831071046E+03  0.25500000920E-02 0.  1.
    10030    2    1    2    0    0  0.00000000000E+00  0.00000000000E+00  0.25840367667E+04  0.28406581876E+04  0.11798698772E+04 0.  0.
        2    1    3    3  502    0 -0.37065686049E+03  0.45313099068E+03  0.14674437555E+04  0.15799067626E+04  0.25500000920E-02 0. -1.
       -2    1    3    3    0  502  0.37065686049E+03 -0.45313099068E+03  0.11165930111E+04  0.12607514249E+04  0.25500000920E-02 0.  1.
</event>
<event>
 5   0  0.1647550E-03  0.1207705E+04  0.7818609E-02  0.9106139E-01
        2   -1    0    0  501    0  0.00000000000E+00  0.00000000000E+00  0.15538656706E+04  0.15538656706E+04  0.25500000920E-02 0. -1.
       -2   -1    0    0    0  501  0.00000000000E+00  0.00000000000E+00 -0.23466491538E+03  0.23466491539E+03  0.25500000920E-02 0.  1.
    10030    2    1    2    0    0  0.00000000000E+00  0.00000000000E+00  0.13192007552E+04  0.17885305860E+04  0.12077048582E+04 0.  0.
        3    1    3    3  502    0  0.18067386191E+03  0.56339661170E+03  0.83841326756E+03  0.10261557406E+04  0.10100000352E+00 0. -1.
       -3    1    3    3    0  502 -0.18067386191E+03 -0.56339661170E+03  0.48078748765E+03  0.76237484543E+03  0.10100000352E+00 0.  1.
</event>
<event>
 5   0  0.9358428E-04  0.1207789E+04  0.7818609E-02  0.9106066E-01
       -1   -1    0    0    0  501  0.00000000000E+00  0.00000000000E+00  0.83898259782E+03  0.83898259784E+03  0.50400001928E-02 0.  1.
        1   -1    0    0  501    0  0.00000000000E+00  0.00000000000E+00 -0.43467920417E+03  0.43467920420E+03  0.50400001928E-02 0. -1.
    10030    2    1    2    0    0  0.00000000000E+00  0.00000000000E+00  0.40430339366E+03  0.12736618020E+04  0.12077885377E+04 0.  0.
        2    1    3    3  502    0  0.44894817810E+03 -0.16061204303E+03  0.59295473944E+03  0.76088502286E+03  0.25500000920E-02 0.  1.
       -2    1    3    3    0  502 -0.44894817810E+03  0.16061204303E+03 -0.18865134578E+03  0.51277677917E+03  0.25500000920E-02 0. -1.
</event>
<event>
 5   0  0.1597352E-03  0.1205249E+04  0.7818609E-02  0.9108275E-01
        2   -1    0    0  501    0  0.00000000000E+00  0.00000000000E+00  0.31884727574E+03  0.31884727575E+03  0.25500000920E-02 0. -1.
       -2   -1    0    0    0  501  0.00000000000E+00  0.00000000000E+00 -0.11389656106E+04  0.11389656106E+04  0.25500000920E-02 0.  1.
    10030    2    1    2    0    0  0.00000000000E+00  0.00000000000E+00 -0.82011833488E+03  0.14578128864E+04  0.12052486584E+04 0.  0.
        1    1    3    3  502    0 -0.18918699670E+03 -0.11921464762E+03 -0.10869254530E+04  0.11096895027E+04  0.50400001928E-02 0.  1.
       -1    1    3    3    0  502  0.18918699670E+03  0.11921464762E+03  0.26680711816E+03  0.34812338366E+03  0.50400001928E-02 0. -1.
</event>
<event>
 5   0  0.9169078E-04  0.1200094E+04  0.7818609E-02  0.9112775E-01
        1   -1    0    0  501    0  0.00000000000E+00  0.00000000000E+00  0.50687001351E+03  0.50687001353E+03  0.50400001928E-02 0.  1.
       -1   -1    0    0    0  501  0.00000000000E+00  0.00000000000E+00 -0.71035204848E+03  0.71035204850E+03  0.50400001928E-02 0. -1.
    10030    2    1    2    0    0  0.00000000000E+00  0.00000000000E+00 -0.20348203497E+03  0.12172220620E+04  0.12000935837E+04 0.  0.
        1    1    3    3  502    0  0.37561011633E+02 -0.54037417136E+03  0.16009278177E+03  0.56484048498E+03  0.50400001928E-02 0. -1.
       -1    1    3    3    0  502 -0.37561011633E+02  0.54037417136E+03 -0.36357481674E+03  0.65238157704E+03  0.50400001928E-02 0.  1.
</event>
<event>
 5   0  0.9208078E-04  0.1139804E+04  0.7818609E-02  0.9167242E-01
        1   -1    0    0  501    0  0.00000000000E+00  0.00000000000E+00  0.10533574106E+04  0.10533574106E+04  0.50400001928E-02 0. -1.
       -1   -1    0    0    0  501  0.00000000000E+00  0.00000000000E+00 -0.30833632307E+03  0.30833632311E+03  0.50400001928E-02 0.  1.
    10030    2    1    2    0    0  0.00000000000E+00  0.00000000000E+00  0.74502108749E+03  0.13616937337E+04  0.11398041075E+04 0.  0.
        3    1    3    3  502    0 -0.16713967966E+03 -0.25857565369E+03 -0.20042389041E+03  0.36737826180E+03  0.10100000352E+00 0.  1.
       -3    1    3    3    0  502  0.16713967966E+03  0.25857565369E+03  0.94544497790E+03  0.99431547188E+03  0.10100000352E+00 0. -1.
</event>
<event>
 5   0  0.8908478E-04  0.1190190E+04  0.7818609E-02  0.9121487E-01
       -1   -1    0    0    0  501  0.00000000000E+00  0.00000000000E+00  0.60115898498E+03  0.60115898500E+03  0.50400001928E-02 0.  1.
        1   -1    0    0  501    0  0.00000000000E+00  0.00000000000E+00 -0.58909211111E+03  0.58909211113E+03  0.50400001928E-02 0. -1.
    10030    2    1    2    0    0  0.00000000000E+00  0.00000000000E+00  0.12066873873E+02  0.11902510961E+04  0.11901899270E+04 0.  0.
        4    1    3    3  502    0  0.52664284101E+03 -0.86783384245E+02  0.26920540254E+03  0.59779360939E+03  0.12699999809E+01 0.  1.
       -4    1    3    3    0  502 -0.52664284101E+03  0.86783384245E+02 -0.25713852867E+03  0.59245748674E+03  0.12699999809E+01 0. -1.
</event>
<event>
 5   0  0.1551501E-03  0.1198578E+04  0.7818609E-02  0.9114102E-01
       -2   -1    0    0    0  501  0.00000000000E+00  0.00000000000E+00  0.11860958330E+04  0.11860958330E+04  0.25500000920E-02 0.  1.
        2   -1    0    0  501    0  0.00000000000E+00  0.00000000000E+00 -0.30279790097E+03  0.30279790098E+03  0.25500000920E-02 0. -1.
    10030    2    1    2    0    0  0.00000000000E+00  0.00000000000E+00  0.88329793202E+03  0.14888937340E+04  0.11985780385E+04 0.  0.
        4    1    3    3  502    0 -0.68349954757E+02  0.52501989394E+02  0.11783552937E+04  0.11815036971E+04  0.12699999809E+01 0.  1.
       -4    1    3    3    0  502  0.68349954757E+02 -0.52501989394E+02 -0.29505736165E+03  0.30739003688E+03  0.12699999809E+01 0. -1.
</event>
<event>
 5   0  0.9208078E-04  0.1196725E+04  0.7818609E-02  0.9115728E-01
        1   -1    0    0  501    0  0.00000000000E+00  0.00000000000E+00  0.11697667297E+04  0.11697667298E+04  0.50400001928E-02 0.  1.
       -1   -1    0    0    0  501  0.00000000000E+00  0.00000000000E+00 -0.30607612546E+03  0.30607612550E+03  0.50400001928E-02 0. -1.
    10030    2    1    2    0    0  0.00000000000E+00  0.00000000000E+00  0.86369060428E+03  0.14758428553E+04  0.11967249782E+04 0.  0.
        3    1    3    3  502    0  0.30886738379E+03 -0.13187132421E+03 -0.17888432229E+03  0.38051112714E+03  0.10100000352E+00 0. -1.
       -3    1    3    3    0  502 -0.30886738379E+03  0.13187132421E+03  0.10425749266E+04  0.10953317281E+04  0.10100000352E+00 0.  1.
</event>
<event>
 5   0  0.1567019E-03  0.1204536E+04  0.7818609E-02  0.9108895E-01
        2   -1    0    0  501    0  0.00000000000E+00  0.00000000000E+00  0.97774421407E+03  0.97774421407E+03  0.25500000920E-02 0. -1.
       -2   -1    0    0    0  501  0.00000000000E+00  0.00000000000E+00 -0.37098323343E+03  0.37098323344E+03  0.25500000920E-02 0.  1.
    10030    2    1    2    0    0  0.00000000000E+00  0.00000000000E+00  0.60676098064E+03  0.13487274475E+04  0.12045359439E+04 0.  0.
        5    1    3    3  502    0 -0.14700233849E+03  0.15606211763E+03  0.93354737611E+03  0.95786108884E+03  0.46999998093E+01 0. -1.
       -5    1    3    3    0  502  0.14700233849E+03 -0.15606211763E+03 -0.32678639547E+03  0.39086635867E+03  0.46999998093E+01 0.  1.
</event>
<event>
 5   0  0.9208078E-04  0.1196424E+04  0.7818609E-02  0.9115992E-01
        1   -1    0    0  501    0  0.00000000000E+00  0.00000000000E+00  0.13060928590E+04  0.13060928590E+04  0.50400001928E-02 0.  1.
       -1   -1    0    0    0  501  0.00000000000E+00  0.00000000000E+00 -0.27399097966E+03  0.27399097970E+03  0.50400001928E-02 0. -1.
    10030    2    1    2    0    0  0.00000000000E+00  0.00000000000E+00  0.10321018794E+04  0.15800838387E+04  0.11964241088E+04 0.  0.
        3    1    3    3  502    0 -0.12863844786E+03 -0.71997339257E+02 -0.24962702408E+03  0.28990537850E+03  0.10100000352E+00 0. -1.
       -3    1    3    3    0  502  0.12863844786E+03  0.71997339257E+02  0.12817289034E+04  0.12901784602E+04  0.10100000352E+00 0.  1.
</event>
<event>
 5   0  0.1597352E-03  0.1193129E+04  0.7818609E-02  0.9118892E-01
       -2   -1    0    0    0  501  0.00000000000E+00  0.00000000000E+00  0.40046057000E+03  0.40046057001E+03  0.25500000920E-02 0.  1.
        2   -1    0    0  501    0  0.00000000000E+00  0.00000000000E+00 -0.88870014912E+03  0.88870014913E+03  0.25500000920E-02 0. -1.
    10030    2    1    2    0    0  0.00000000000E+00  0.00000000000E+00 -0.48823957912E+03  0.12891607191E+04  0.11931292776E+04 0.  0.
        1    1    3    3  502    0  0.13779399991E+03 -0.31342715302E+03  0.28373501152E+03  0.44466765505E+03  0.50400001928E-02 0.  1.
       -1    1    3    3    0  502 -0.13779399991E+03  0.31342715302E+03 -0.77197459064E+03  0.84449306408E+03  0.50400001928E-02 0. -1.
</event>
<event>
 5   0  0.9208078E-04  0.1173000E+04  0.7818609E-02  0.9136824E-01
       -1   -1    0    0    0  501  0.00000000000E+00  0.00000000000E+00  0.19094973637E+03  0.19094973644E+03  0.50400001928E-02 0. -1.
        1   -1    0    0  501    0  0.00000000000E+00  0.00000000000E+00 -0.18014271213E+04  0.18014271213E+04  0.50400001928E-02 0.  1.
    10030    2    1    2    0    0  0.00000000000E+00  0.00000000000E+00 -0.16104773849E+04  0.19923768577E+04  0.11729996317E+04 0.  0.
        3    1    3    3  502    0 -0.49110166469E+03  0.84269816961E+02 -0.27979150111E+03  0.57145913363E+03  0.10100000352E+00 0. -1.
       -3    1    3    3    0  502  0.49110166469E+03 -0.84269816961E+02 -0.13306858838E+04  0.14209177241E+04  0.10100000352E+00 0.  1.
</event>
<event>
 5   0  0.1567019E-03  0.1189848E+04  0.7818609E-02  0.9121789E-01
        2   -1    0    0  501    0  0.00000000000E+00  0.00000000000E+00  0.15297240740E+04  0.15297240740E+04  0.25500000920E-02 0.  1.
       -2   -1    0    0    0  501  0.00000000000E+00  0.00000000000E+00 -0.23137163085E+03  0.23137163086E+03  0.25500000920E-02 0. -1.
    10030    2    1    2    0    0  0.00000000000E+00  0.00000000000E+00  0.12983524432E+04  0.17610957049E+04  0.11898483160E+04 0.  0.
        5    1    3    3  502    0 -0.20029147171E+03  0.35460712143E+02  0.14766288480E+04  0.14905800819E+04  0.46999998093E+01 0.  1.
       -5    1    3    3    0  502  0.20029147171E+03 -0.35460712143E+02 -0.17827640486E+03  0.27051562298E+03  0.46999998093E+01 0. -1.
</event>
<event>
 5   0  0.1647550E-03  0.1199681E+04  0.7818609E-02  0.9113136E-01
       -2   -1    0    0    0  501  0.00000000000E+00  0.00000000000E+00  0.41002324659E+03  0.41002324660E+03  0.25500000920E-02 0. -1.
        2   -1    0    0  501    0  0.00000000000E+00  0.00000000000E+00 -0.87753229760E+03  0.87753229760E+03  0.25500000920E-02 0.  1.
    10030    2    1    2    0    0  0.00000000000E+00  0.00000000000E+00 -0.46750905101E+03  0.12875555442E+04  0.11996810270E+04 0.  0.
        3    1    3    3  502    0  0.25018080274E+03 -0.47573682913E+03  0.52005081279E+02  0.54001898423E+03  0.10100000352E+00 0. -1.
       -3    1    3    3    0  502 -0.25018080274E+03  0.47573682913E+03 -0.51951413229E+03  0.74753655997E+03  0.10100000352E+00 0.  1.
</event>
<event>
 5   0  0.1647550E-03  0.1209224E+04  0.7818609E-02  0.9104821E-01
       -2   -1    0    0    0  501  0.00000000000E+00  0.00000000000E+00  0.68211781539E+03  0.68211781540E+03  0.25500000920E-02 0.  1.
        2   -1    0    0  501    0  0.00000000000E+00  0.00000000000E+00 -0.53591294622E+03  0.53591294623E+03  0.25500000920E-02 0. -1.
    10030    2    1    2    0    0  0.00000000000E+00  0.00000000000E+00  0.14620486917E+03  0.12180307616E+04  0.12092241614E+04 0.  0.
        3    1    3    3  502    0 -0.21442513325E+03  0.46775189903E+03 -0.24667739995E+03  0.57063098992E+03  0.10100000352E+00 0. -1.
       -3    1    3    3    0  502  0.21442513325E+03 -0.46775189903E+03  0.39288226912E+03  0.64739977170E+03  0.10100000352E+00 0.  1.
</event>
<event>
 5   0  0.8908478E-04  0.1187523E+04  0.7818609E-02  0.9123848E-01
        1   -1    0    0  501    0  0.00000000000E+00  0.00000000000E+00  0.12988506881E+04  0.12988506881E+04  0.50400001928E-02 0. -1.
       -1   -1    0    0    0  501  0.00000000000E+00  0.00000000000E+00 -0.27143431116E+03  0.27143431120E+03  0.50400001928E-02 0.  1.
    10030    2    1    2    0    0  0.00000000000E+00  0.00000000000E+00  0.10274163770E+04  0.15702849993E+04  0.11875228703E+04 0.  0.
        4    1    3    3  502    0 -0.33541312098E+03 -0.10759454282E+03 -0.11834474168E+03  0.37159875962E+03  0.12699999809E+01 0.  1.
       -4    1    3    3    0  502  0.33541312098E+03  0.10759454282E+03  0.11457611186E+04  0.11986862397E+04  0.12699999809E+01 0. -1.
</event>
<event>
 5   0  0.8908478E-04  0.1198862E+04  0.7818609E-02  0.9113853E-01
        1   -1    0    0  501    0  0.00000000000E+00  0.00000000000E+00  0.39313422723E+03  0.39313422726E+03  0.50400001928E-02 0. -1.
       -1   -1    0    0    0  501  0.00000000000E+00  0.00000000000E+00 -0.91398233619E+03  0.91398233621E+03  0.50400001928E-02 0.  1.
    10030    2    1    2    0    0  0.00000000000E+00  0.00000000000E+00 -0.52084810896E+03  0.13071165635E+04  0.11988623599E+04 0.  0.
        4    1    3    3  502    0 -0.23935969035E+03 -0.12214747132E+03  0.32377910838E+03  0.42077023426E+03  0.12699999809E+01 0. -1.
       -4    1    3    3    0  502  0.23935969035E+03  0.12214747132E+03 -0.84462721734E+03  0.88634632920E+03  0.12699999809E+01 0.  1.
</event>
<event>
 5   0  0.9169078E-04  0.1139821E+04  0.7818609E-02  0.9167226E-01
        1   -1    0    0  501    0  0.00000000000E+00  0.00000000000E+00  0.12953768222E+04  0.12953768222E+04  0.50400001928E-02 0. -1.
       -1   -1    0    0    0  501  0.00000000000E+00  0.00000000000E+00 -0.25073611750E+03  0.25073611756E+03  0.50400001928E-02 0.  1.
    10030    2    1    2    0    0  0.00000000000E+00  0.00000000000E+00  0.10446407047E+04  0.15461129397E+04  0.11398206089E+04 0.  0.
        1    1    3    3  502    0 -0.10250224924E+03  0.11850796745E+03 -0.22094515653E+03  0.27086456333E+03  0.50400001928E-02 0.  1.
       -1    1    3    3    0  502  0.10250224924E+03 -0.11850796745E+03  0.12655858612E+04  0.12752483764E+04  0.50400001928E-02 0. -1.
</event>
<event>
 5   0  0.9170776E-04  0.1204155E+04  0.7818609E-02  0.9109227E-01
       -1   -1    0    0    0  501  0.00000000000E+00  0.00000000000E+00  0.38176249068E+03  0.38176249072E+03  0.50400001928E-02 0. -1.
        1   -1    0    0  501    0  0.00000000000E+00  0.00000000000E+00 -0.94953664022E+03  0.94953664023E+03  0.50400001928E-02 0.  1.
    10030    2    1    2    0    0  0.00000000000E+00  0.00000000000E+00 -0.56777414953E+03  0.13312991309E+04  0.12041552604E+04 0.  0.
        5    1    3    3  502    0  0.40263346575E+03  0.11337039183E+03 -0.76263182254E+03  0.86982523546E+03  0.46999998093E+01 0.  1.
       -5    1    3    3    0  502 -0.40263346575E+03 -0.11337039183E+03  0.19485767301E+03  0.46147389549E+03  0.46999998093E+01 0. -1.
</event>
<event>
 5   0  0.9208078E-04  0.1196334E+04  0.7818609E-02  0.9116071E-01
       -1   -1    0    0    0  501  0.00000000000E+00  0.00000000000E+00  0.44053460349E+03  0.44053460352E+03  0.50400001928E-02 0.  1.
        1   -1    0    0  501    0  0.00000000000E+00  0.00000000000E+00 -0.81220354348E+03  0.81220354350E+03  0.50400001928E-02 0. -1.
    10030    2    1    2    0    0  0.00000000000E+00  0.00000000000E+00 -0.37166893999E+03  0.12527381470E+04  0.11963340102E+04 0.  0.
        3    1    3    3  502    0  0.35133784381E+03  0.47841984042E+03 -0.10831774391E+03  0.60337100366E+03  0.10100000352E+00 0.  1.
       -3    1    3    3    0  502 -0.35133784381E+03 -0.47841984042E+03 -0.26335119608E+03  0.64936714337E+03  0.10100000352E+00 0. -1.
</event>
<event>
 5   0  0.9358428E-04  0.1206624E+04  0.7818609E-02  0.9107078E-01
       -1   -1    0    0    0  501  0.00000000000E+00  0.00000000000E+00  0.34430636265E+03  0.34430636269E+03  0.50400001928E-02 0. -1.
        1   -1    0    0  501    0  0.00000000000E+00  0.00000000000E+00 -0.10571563865E+04  0.10571563865E+04  0.50400001928E-02 0.  1.
    10030    2    1    2    0    0  0.00000000000E+00  0.00000000000E+00 -0.71285002382E+03  0.14014627492E+04  0.12066244987E+04 0.  0.
        2    1    3    3  502    0 -0.36836357472E+03 -0.83389597517E+02 -0.90286124962E+03  0.97867460590E+03  0.25500000920E-02 0.  1.
       -2    1    3    3    0  502  0.36836357472E+03  0.83389597517E+02  0.19001122580E+03  0.42278814327E+03  0.25500000920E-02 0. -1.
</event>
<event>
 5   0  0.9358428E-04  0.1188915E+04  0.7818609E-02  0.9122615E-01
        1   -1    0    0  501    0  0.00000000000E+00  0.00000000000E+00  0.82715286982E+03  0.82715286983E+03  0.50400001928E-02 0. -1.
       -1   -1    0    0    0  501  0.00000000000E+00  0.00000000000E+00 -0.42722449545E+03  0.42722449548E+03  0.50400001928E-02 0.  1.
    10030    2    1    2    0    0  0.00000000000E+00  0.00000000000E+00  0.39992837437E+03  0.12543773653E+04  0.11889154175E+04 0.  0.
        2    1    3    3  502    0 -0.43518493309E+03  0.12384547125E+03  0.60675297020E+03  0.75688360637E+03  0.25500000920E-02 0. -1.
       -2    1    3    3    0  502  0.43518493309E+03 -0.12384547125E+03 -0.20682459583E+03  0.49749375894E+03  0.25500000920E-02 0.  1.
</event>
<event>
 5   0  0.1537557E-03  0.1200932E+04  0.7818609E-02  0.9112041E-01
        2   -1    0    0  501    0  0.00000000000E+00  0.00000000000E+00  0.72043473556E+03  0.72043473556E+03  0.25500000920E-02 0. -1.
       -2   -1    0    0    0  501  0.00000000000E+00  0.00000000000E+00 -0.50047469782E+03  0.50047469783E+03  0.25500000920E-02 0.  1.
    10030    2    1    2    0    0  0.00000000000E+00  0.00000000000E+00  0.21996003774E+03  0.12209094334E+04  0.12009318991E+04 0.  0.
        2    1    3    3  502    0  0.18774284517E+03  0.24075900876E+03 -0.41567739183E+03  0.51575184953E+03  0.25500000920E-02 0.  1.
       -2    1    3    3    0  502 -0.18774284517E+03 -0.24075900876E+03  0.63563742956E+03  0.70515758386E+03  0.25500000920E-02 0. -1.
</event>
<event>
 5   0  0.9208078E-04  0.1196458E+04  0.7818609E-02  0.9115963E-01
        1   -1    0    0  501    0  0.00000000000E+00  0.00000000000E+00  0.38252508403E+03  0.38252508407E+03  0.50400001928E-02 0.  1.
       -1   -1    0    0    0  501  0.00000000000E+00  0.00000000000E+00 -0.93556652909E+03  0.93556652911E+03  0.50400001928E-02 0. -1.
    10030    2    1    2    0    0  0.00000000000E+00  0.00000000000E+00 -0.55304144506E+03  0.13180916132E+04  0.11964575466E+04 0.  0.
        3    1    3    3  502    0 -0.10476493865E+03  0.30526719335E+03  0.27838657570E+03  0.42621924809E+03  0.10100000352E+00 0.  1.
       -3    1    3    3    0  502  0.10476493865E+03 -0.30526719335E+03 -0.83142802076E+03  0.89187236509E+03  0.10100000352E+00 0. -1.
</event>
<event>
 5   0  0.9169078E-04  0.1200400E+04  0.7818609E-02  0.9112506E-01
        1   -1    0    0  501    0  0.00000000000E+00  0.00000000000E+00  0.27958862030E+03  0.27958862034E+03  0.50400001928E-02 0. -1.
       -1   -1    0    0    0  501  0.00000000000E+00  0.00000000000E+00 -0.12884655678E+04  0.12884655678E+04  0.50400001928E-02 0.  1.
    10030    2    1    2    0    0  0.00000000000E+00  0.00000000000E+00 -0.10088769475E+04  0.15680541881E+04  0.12004004506E+04 0.  0.
        1    1    3    3  502    0  0.10080850346E+03  0.29744904442E+02  0.26747354662E+03  0.28738338831E+03  0.50400001928E-02 0. -1.
       -1    1    3    3    0  502 -0.10080850346E+03 -0.29744904442E+02 -0.12763504941E+04  0.12806707998E+04  0.50400001928E-02 0.  1.
</event>
<event>
 5   0  0.1537557E-03  0.1175486E+04  0.7818609E-02  0.9134588E-01
       -2   -1    0    0    0  501  0.00000000000E+00  0.00000000000E+00  0.10331673691E+04  0.10331673691E+04  0.25500000920E-02 0. -1.
        2   -1    0    0  501    0  0.00000000000E+00  0.00000000000E+00 -0.33435238831E+03  0.33435238832E+03  0.25500000920E-02 0.  1.
    10030    2    1    2    0    0  0.00000000000E+00  0.00000000000E+00  0.69881498082E+03  0.13675197574E+04  0.11754862439E+04 0.  0.
        2    1    3    3  502    0  0.51107888996E+03 -0.98059756498E+02  0.66720987620E+03  0.84615977600E+03  0.25500000920E-02 0. -1.
       -2    1    3    3    0  502 -0.51107888996E+03  0.98059756498E+02  0.31605104620E+02  0.52135998145E+03  0.25500000920E-02 0.  1.
</event>
<event>
 5   0  0.9358428E-04  0.1201245E+04  0.7818609E-02  0.9111768E-01
        1   -1    0    0  501    0  0.00000000000E+00  0.00000000000E+00  0.12990736208E+04  0.12990736208E+04  0.50400001928E-02 0.  1.
       -1   -1    0    0    0  501  0.00000000000E+00  0.00000000000E+00 -0.27769578114E+03  0.27769578119E+03  0.50400001928E-02 0. -1.
    10030    2    1    2    0    0  0.00000000000E+00  0.00000000000E+00  0.10213778397E+04  0.15767694020E+04  0.12012447943E+04 0.  0.
        2    1    3    3  502    0 -0.30349174417E+03 -0.46600861893E+03  0.80849874966E+03  0.98129582691E+03  0.25500000920E-02 0.  1.
       -2    1    3    3    0  502  0.30349174417E+03  0.46600861893E+03  0.21287909003E+03  0.59547357512E+03  0.25500000920E-02 0. -1.
</event>
<event>
 5   0  0.9208078E-04  0.1207250E+04  0.7818609E-02  0.9106534E-01
       -1   -1    0    0    0  501  0.00000000000E+00  0.00000000000E+00  0.52629250511E+03  0.52629250514E+03  0.50400001928E-02 0. -1.
        1   -1    0    0  501    0  0.00000000000E+00  0.00000000000E+00 -0.69232067540E+03  0.69232067541E+03  0.50400001928E-02 0.  1.
    10030    2    1    2    0    0  0.00000000000E+00  0.00000000000E+00 -0.16602817028E+03  0.12186131805E+04  0.12072500696E+04 0.  0.
        3    1    3    3  502    0 -0.12924451553E+02 -0.22687777615E+03 -0.64749370947E+03  0.68621329101E+03  0.10100000352E+00 0.  1.
       -3    1    3    3    0  502  0.12924451553E+02  0.22687777615E+03  0.48146553918E+03  0.53239988954E+03  0.10100000352E+00 0. -1.
</event>
<event>
 5   0  0.1597352E-03  0.1214192E+04  0.7818609E-02  0.9100524E-01
        2   -1    0    0  501    0  0.00000000000E+00  0.00000000000E+00  0.10830351861E+04  0.10830351861E+04  0.25500000920E-02 0. -1.
       -2   -1    0    0    0  501  0.00000000000E+00  0.00000000000E+00 -0.34030825069E+03  0.34030825070E+03  0.25500000920E-02 0.  1.
    10030    2    1    2    0    0  0.00000000000E+00  0.00000000000E+00  0.74272693543E+03  0.14233434368E+04  0.12141924224E+04 0.  0.
        1    1    3    3  502    0 -0.29537265418E+03  0.18664689492E+03 -0.21062760601E+03  0.40797801002E+03  0.50400001928E-02 0.  1.
       -1    1    3    3    0  502  0.29537265418E+03 -0.18664689492E+03  0.95335454145E+03  0.10153654268E+04  0.50400001928E-02 0. -1.
</event>
<event>
 5   0  0.1537557E-03  0.1238323E+04  0.7818609E-02  0.9079958E-01
        2   -1    0    0  501    0  0.00000000000E+00  0.00000000000E+00  0.58729160125E+03  0.58729160125E+03  0.25500000920E-02 0.  1.
       -2   -1    0    0    0  501  0.00000000000E+00  0.00000000000E+00 -0.65276126028E+03  0.65276126028E+03  0.25500000920E-02 0. -1.
    10030    2    1    2    0    0  0.00000000000E+00  0.00000000000E+00 -0.65469659031E+02  0.12400528615E+04  0.12383233920E+04 0.  0.
        2    1    3    3  502    0 -0.51305291951E+03  0.28212762685E+02  0.31320668509E+03  0.60176215051E+03  0.25500000920E-02 0.  1.
       -2    1    3    3    0  502  0.51305291951E+03 -0.28212762685E+02 -0.37867634412E+03  0.63829071103E+03  0.25500000920E-02 0. -1.
</event>
<event>
 5   0  0.1551501E-03  0.1193087E+04  0.7818609E-02  0.9118929E-01
       -2   -1    0    0    0  501  0.00000000000E+00  0.00000000000E+00  0.20952026270E+03  0.20952026271E+03  0.25500000920E-02 0.  1.
        2   -1    0    0  501    0  0.00000000000E+00  0.00000000000E+00 -0.16984724249E+04  0.16984724249E+04  0.25500000920E-02 0. -1.
    10030    2    1    2    0    0  0.00000000000E+00  0.00000000000E+00 -0.14889521622E+04  0.19079926876E+04  0.11930874044E+04 0.  0.
        4    1    3    3  502    0  0.49995067477E+01 -0.13786152194E+03  0.18365882254E+03  0.22970191618E+03  0.12699999809E+01 0.  1.
       -4    1    3    3    0  502 -0.49995067477E+01  0.13786152194E+03 -0.16726109847E+04  0.16782907714E+04  0.12699999809E+01 0. -1.
</event>
<event>
 5   0  0.1567019E-03  0.1204487E+04  0.7818609E-02  0.9108938E-01
        2   -1    0    0  501    0  0.00000000000E+00  0.00000000000E+00  0.11754749656E+04  0.11754749657E+04  0.25500000920E-02 0. -1.
       -2   -1    0    0    0  501  0.00000000000E+00  0.00000000000E+00 -0.30855373350E+03  0.30855373351E+03  0.25500000920E-02 0.  1.
    10030    2    1    2    0    0  0.00000000000E+00  0.00000000000E+00  0.86692123215E+03  0.14840286992E+04  0.12044869269E+04 0.  0.
        5    1    3    3  502    0 -0.26892956939E+03  0.19402346063E+03  0.10528285886E+04  0.11038289467E+04  0.46999998093E+01 0. -1.
       -5    1    3    3    0  502  0.26892956939E+03 -0.19402346063E+03 -0.18590735648E+03  0.38019975245E+03  0.46999998093E+01 0.  1.
</event>
<event>
 5   0  0.1551501E-03  0.1204029E+04  0.7818609E-02  0.9109338E-01
       -2   -1    0    0    0  501  0.00000000000E+00  0.00000000000E+00  0.37828845282E+03  0.37828845283E+03  0.25500000920E-02 0. -1.
        2   -1    0    0  501    0  0.00000000000E+00  0.00000000000E+00 -0.95805513715E+03  0.95805513715E+03  0.25500000920E-02 0.  1.
    10030    2    1    2    0    0  0.00000000000E+00  0.00000000000E+00 -0.57976668433E+03  0.13363435900E+04  0.12040285637E+04 0.  0.
        4    1    3    3  502    0 -0.22156120414E+03  0.31603446736E+03 -0.80266430962E+03  0.89063952224E+03  0.12699999809E+01 0.  1.
       -4    1    3    3    0  502  0.22156120414E+03 -0.31603446736E+03  0.22289762529E+03  0.44570406774E+03  0.12699999809E+01 0. -1.
</event>
<event>
 5   0  0.1597352E-03  0.1198652E+04  0.7818609E-02  0.9114037E-01
        2   -1    0    0  501    0  0.00000000000E+00  0.00000000000E+00  0.57601141890E+03  0.57601141890E+03  0.25500000920E-02 0. -1.
       -2   -1    0    0    0  501  0.00000000000E+00  0.00000000000E+00 -0.62358471475E+03  0.62358471476E+03  0.25500000920E-02 0.  1.
    10030    2    1    2    0    0  0.00000000000E+00  0.00000000000E+00 -0.47573295855E+02  0.11995961337E+04  0.11986524373E+04 0.  0.
        1    1    3    3  502    0  0.12111809842E+03  0.17686893610E+03  0.53633219839E+03  0.57758500792E+03  0.50400001928E-02 0. -1.
       -1    1    3    3    0  502 -0.12111809842E+03 -0.17686893610E+03 -0.58390549424E+03  0.62201112575E+03  0.50400001928E-02 0.  1.
</event>
<event>
 5   0  0.9358428E-04  0.1184641E+04  0.7818609E-02  0.9126408E-01
        1   -1    0    0  501    0  0.00000000000E+00  0.00000000000E+00  0.69879949707E+03  0.69879949708E+03  0.50400001928E-02 0.  1.
       -1   -1    0    0    0  501  0.00000000000E+00  0.00000000000E+00 -0.50206596549E+03  0.50206596551E+03  0.50400001928E-02 0. -1.
    10030    2    1    2    0    0  0.00000000000E+00  0.00000000000E+00  0.19673353158E+03  0.12008654626E+04  0.11846407796E+04 0.  0.
        2    1    3    3  502    0 -0.17563299702E+03 -0.28183600534E+03 -0.39882492422E+03  0.51897957930E+03  0.25500000920E-02 0. -1.
       -2    1    3    3    0  502  0.17563299702E+03  0.28183600534E+03  0.59555845580E+03  0.68188588329E+03  0.25500000920E-02 0.  1.
</event>
<event>
 5   0  0.1537557E-03  0.1204144E+04  0.7818609E-02  0.9109237E-01
        2   -1    0    0  501    0  0.00000000000E+00  0.00000000000E+00  0.13213515586E+04  0.13213515586E+04  0.25500000920E-02 0.  1.
       -2   -1    0    0    0  501  0.00000000000E+00  0.00000000000E+00 -0.27433321404E+03  0.27433321405E+03  0.25500000920E-02 0. -1.
    10030    2    1    2    0    0  0.00000000000E+00  0.00000000000E+00  0.10470183446E+04  0.15956847727E+04  0.12041438784E+04 0.  0.
        2    1    3    3  502    0 -0.37383790600E+03  0.25094320828E+03  0.10531815103E+04  0.11453901376E+04  0.25500000920E-02 0.  1.
       -2    1    3    3    0  502  0.37383790600E+03 -0.25094320828E+03 -0.61631656982E+01  0.45029463506E+03  0.25500000920E-02 0. -1.
</event>
<event>
 5   0  0.1647550E-03  0.1198804E+04  0.7818609E-02  0.9113904E-01
       -2   -1    0    0    0  501  0.00000000000E+00  0.00000000000E+00  0.28728603741E+03  0.28728603742E+03  0.25500000920E-02 0.  1.
        2   -1    0    0  501    0  0.00000000000E+00  0.00000000000E+00 -0.12506098298E+04  0.12506098298E+04  0.25500000920E-02 0. -1.
    10030    2    1    2    0    0  0.00000000000E+00  0.00000000000E+00 -0.96332379239E+03  0.15378958672E+04  0.11988039746E+04 0.  0.
        3    1    3    3  502    0 -0.25676207761E+03  0.17914802114E+03  0.17405570461E+03  0.35821247394E+03  0.10100000352E+00 0.  1.
       -3    1    3    3    0  502  0.25676207761E+03 -0.17914802114E+03 -0.11373794970E+04  0.11796833933E+04  0.10100000352E+00 0. -1.
</event>
<event>
 5   0  0.1567019E-03  0.1199701E+04  0.7818609E-02  0.9113119E-01
        2   -1    0    0  501    0  0.00000000000E+00  0.00000000000E+00  0.48712356242E+03  0.48712356243E+03  0.25500000920E-02 0.  1.
       -2   -1    0    0    0  501  0.00000000000E+00  0.00000000000E+00 -0.73866354585E+03  0.73866354585E+03  0.25500000920E-02 0. -1.
    10030    2    1    2    0    0  0.00000000000E+00  0.00000000000E+00 -0.25153998343E+03  0.12257871083E+04  0.11997006592E+04 0.  0.
        5    1    3    3  502    0 -0.16871389469E+03 -0.17521588385E+03 -0.68599272183E+03  0.72785512887E+03  0.46999998093E+01 0. -1.
       -5    1    3    3    0  502  0.16871389469E+03  0.17521588385E+03  0.43445273841E+03  0.49793197941E+03  0.46999998093E+01 0.  1.
</event>
<event>
 5   0  0.1597352E-03  0.1192242E+04  0.7818609E-02  0.9119674E-01
        2   -1    0    0  501    0  0.00000000000E+00  0.00000000000E+00  0.77697215631E+03  0.77697215632E+03  0.25500000920E-02 0. -1.
       -2   -1    0    0    0  501  0.00000000000E+00  0.00000000000E+00 -0.45736576937E+03  0.45736576938E+03  0.25500000920E-02 0.  1.
    10030    2    1    2    0    0  0.00000000000E+00  0.00000000000E+00  0.31960638694E+03  0.12343379257E+04  0.11922423714E+04 0.  0.
        1    1    3    3  502    0  0.52365534297E+02  0.53383395824E+03 -0.10945573481E+03  0.54744990826E+03  0.50400001928E-02 0. -1.
       -1    1    3    3    0  502 -0.52365534297E+02 -0.53383395824E+03  0.42906212175E+03  0.68688801743E+03  0.50400001928E-02 0.  1.
</event>
<event>
 5   0  0.9169078E-04  0.1197125E+04  0.7818609E-02  0.9115377E-01
        1   -1    0    0  501    0  0.00000000000E+00  0.00000000000E+00  0.26228054518E+03  0.26228054523E+03  0.50400001928E-02 0.  1.
       -1   -1    0    0    0  501  0.00000000000E+00  0.00000000000E+00 -0.13660059215E+04  0.13660059215E+04  0.50400001928E-02 0. -1.
    10030    2    1    2    0    0  0.00000000000E+00  0.00000000000E+00 -0.11037253763E+04  0.16282864667E+04  0.11971245179E+04 0.  0.
        1    1    3    3  502    0 -0.88483735933E+02 -0.55019250281E+03 -0.84903801846E+03  0.10155819605E+04  0.50400001928E-02 0. -1.
       -1    1    3    3    0  502  0.88483735933E+02  0.55019250281E+03 -0.25468735786E+03  0.61270450623E+03  0.50400001928E-02 0.  1.
</event>
<event>
 5   0  0.1537557E-03  0.1186093E+04  0.7818609E-02  0.9125117E-01
       -2   -1    0    0    0  501  0.00000000000E+00  0.00000000000E+00  0.11970969344E+03  0.11970969347E+03  0.25500000920E-02 0.  1.
        2   -1    0    0  501    0  0.00000000000E+00  0.00000000000E+00 -0.29379752052E+04  0.29379752052E+04  0.25500000920E-02 0. -1.
    10030    2    1    2    0    0  0.00000000000E+00  0.00000000000E+00 -0.28182655117E+04  0.30576848986E+04  0.11860929326E+04 0.  0.
        2    1    3    3  502    0  0.28115671240E+03 -0.17224419801E+03 -0.26798984603E+04  0.27001060939E+04  0.25500000920E-02 0. -1.
       -2    1    3    3    0  502 -0.28115671240E+03  0.17224419801E+03 -0.13836705141E+03  0.35757880474E+03  0.25500000920E-02 0.  1.
</event>
<event>
 5   0  0.9208078E-04  0.1204440E+04  0.7818609E-02  0.9108979E-01
       -1   -1    0    0    0  501  0.00000000000E+00  0.00000000000E+00  0.50100891344E+03  0.50100891347E+03  0.50400001928E-02 0.  1.
        1   -1    0    0  501    0  0.00000000000E+00  0.00000000000E+00 -0.72387764901E+03  0.72387764903E+03  0.50400001928E-02 0. -1.
    10030    2    1    2    0    0  0.00000000000E+00  0.00000000000E+00 -0.22286873557E+03  0.12248865625E+04  0.12044403753E+04 0.  0.
        3    1    3    3  502    0 -0.56217642074E+03 -0.89590651162E+01  0.10797457228E+03  0.57252171255E+03  0.10100000352E+00 0.  1.
       -3    1    3    3    0  502  0.56217642074E+03  0.89590651162E+01 -0.33084330785E+03  0.65236484994E+03  0.10100000352E+00 0. -1.
</event>
<event>
 5   0  0.1567019E-03  0.1203178E+04  0.7818609E-02  0.9110079E-01
        2   -1    0    0  501    0  0.00000000000E+00  0.00000000000E+00  0.14902483149E+04  0.14902483149E+04  0.25500000920E-02 0. -1.
       -2   -1    0    0    0  501  0.00000000000E+00  0.00000000000E+00 -0.24285180140E+03  0.24285180141E+03  0.25500000920E-02 0.  1.
    10030    2    1    2    0    0  0.00000000000E+00  0.00000000000E+00  0.12473965135E+04  0.17331001163E+04  0.12031782708E+04 0.  0.
        5    1    3    3  502    0 -0.47356266047E+03 -0.32611860349E+03  0.87842509222E+03  0.10498893606E+04  0.46999998093E+01 0. -1.
       -5    1    3    3    0  502  0.47356266047E+03  0.32611860349E+03  0.36897142124E+03  0.68321075564E+03  0.46999998093E+01 0.  1.
</event>
<event>
 5   0  0.9358428E-04  0.1202091E+04  0.7818609E-02  0.9111028E-01
        1   -1    0    0  501    0  0.00000000000E+00  0.00000000000E+00  0.40815687369E+03  0.40815687372E+03  0.50400001928E-02 0. -1.
       -1   -1    0    0    0  501  0.00000000000E+00  0.00000000000E+00 -0.88509073558E+03  0.88509073560E+03  0.50400001928E-02 0.  1.
    10030    2    1    2    0    0  0.00000000000E+00  0.00000000000E+00 -0.47693386189E+03  0.12932476093E+04  0.12020912904E+04 0.  0.
        2    1    3    3  502    0 -0.57790718051E+03 -0.12703491302E+03 -0.35202342015E+03  0.68850204557E+03  0.25500000920E-02 0. -1.
       -2    1    3    3    0  502  0.57790718051E+03  0.12703491302E+03 -0.12491044174E+03  0.60474556375E+03  0.25500000920E-02 0.  1.
</event>
<event>
 5   0  0.1551501E-03  0.1082017E+04  0.7818609E-02  0.9222899E-01
       -2   -1    0    0    0  501  0.00000000000E+00  0.00000000000E+00  0.43822615644E+03  0.43822615645E+03  0.25500000920E-02 0. -1.
        2   -1    0    0  501    0  0.00000000000E+00  0.00000000000E+00 -0.66789762577E+03  0.66789762578E+03  0.25500000920E-02 0.  1.
    10030    2    1    2    0    0  0.00000000000E+00  0.00000000000E+00 -0.22967146933E+03  0.11061237822E+04  0.10820170229E+04 0.  0.
        4    1    3    3  502    0  0.29727768372E+03  0.43901729542E+03 -0.22483599589E+03  0.57590194032E+03  0.12699999809E+01 0.  1.
       -4    1    3    3    0  502 -0.29727768372E+03 -0.43901729542E+03 -0.48354734474E+01  0.53022184190E+03  0.12699999809E+01 0. -1.
</event>
<event>
 5   0  0.9169078E-04  0.1178813E+04  0.7818609E-02  0.9131606E-01
        1   -1    0    0  501    0  0.00000000000E+00  0.00000000000E+00  0.10494975902E+04  0.10494975903E+04  0.50400001928E-02 0. -1.
       -1   -1    0    0    0  501  0.00000000000E+00  0.00000000000E+00 -0.33101546490E+03  0.33101546494E+03  0.50400001928E-02 0.  1.
    10030    2    1    2    0    0  0.00000000000E+00  0.00000000000E+00  0.71848212535E+03  0.13805130552E+04  0.11788128482E+04 0.  0.
        1    1    3    3  502    0 -0.36197668925E+03 -0.25642238938E+03 -0.95262726906E+02  0.45371197086E+03  0.50400001928E-02 0.  1.
       -1    1    3    3    0  502  0.36197668925E+03  0.25642238938E+03  0.81374485226E+03  0.92680108434E+03  0.50400001928E-02 0. -1.
</event>
<event>
 5   0  0.1597352E-03  0.1209755E+04  0.7818609E-02  0.9104361E-01
        2   -1    0    0  501    0  0.00000000000E+00  0.00000000000E+00  0.11471829147E+04  0.11471829147E+04  0.25500000920E-02 0. -1.
       -2   -1    0    0    0  501  0.00000000000E+00  0.00000000000E+00 -0.31893495047E+03  0.31893495048E+03  0.25500000920E-02 0.  1.
    10030    2    1    2    0    0  0.00000000000E+00  0.00000000000E+00  0.82824796428E+03  0.14661178652E+04  0.12097548944E+04 0.  0.
        1    1    3    3  502    0 -0.65470909914E+02  0.46589946549E+03 -0.46607040189E+02  0.47278004210E+03  0.50400001928E-02 0.  1.
       -1    1    3    3    0  502  0.65470909914E+02 -0.46589946549E+03  0.87485500447E+03  0.99333782313E+03  0.50400001928E-02 0. -1.
</event>
<event>
 5   0  0.8908478E-04  0.1202589E+04  0.7818609E-02  0.9110593E-01
        1   -1    0    0  501    0  0.00000000000E+00  0.00000000000E+00  0.91356048338E+03  0.91356048340E+03  0.50400001928E-02 0.  1.
       -1   -1    0    0    0  501  0.00000000000E+00  0.00000000000E+00 -0.39576494837E+03  0.39576494840E+03  0.50400001928E-02 0. -1.
    10030    2    1    2    0    0  0.00000000000E+00  0.00000000000E+00  0.51779553501E+03  0.13093254318E+04  0.12025892359E+04 0.  0.
        4    1    3    3  502    0 -0.27717472766E+03  0.14206660543E+03  0.81888735370E+03  0.87612034617E+03  0.12699999809E+01 0.  1.
       -4    1    3    3    0  502  0.27717472766E+03 -0.14206660543E+03 -0.30109181869E+03  0.43320508563E+03  0.12699999809E+01 0. -1.
</event>
<event>
 5   0  0.6137750E-04  0.1199787E+04  0.7818609E-02  0.9113043E-01
        3   -1    0    0  501    0  0.00000000000E+00  0.00000000000E+00  0.67324698012E+03  0.67324698770E+03  0.10100000352E+00 0.  1.
       -3   -1    0    0    0  501  0.00000000000E+00  0.00000000000E+00 -0.53453265083E+03  0.53453266037E+03  0.10100000352E+00 0. -1.
    10030    2    1    2    0    0  0.00000000000E+00  0.00000000000E+00  0.13871432929E+03  0.12077796481E+04  0.11997874867E+04 0.  0.
        1    1    3    3  502    0  0.27658453310E+03 -0.15712932418E+03 -0.44264059173E+03  0.54508652702E+03  0.50400001928E-02 0. -1.
       -1    1    3    3    0  502 -0.27658453310E+03  0.15712932418E+03  0.58135492102E+03  0.66269312105E+03  0.50400001928E-02 0.  1.
</event>
<event>
 5   0  0.1647550E-03  0.1199165E+04  0.7818609E-02  0.9113588E-01
        2   -1    0    0  501    0  0.00000000000E+00  0.00000000000E+00  0.12537862755E+04  0.12537862755E+04  0.25500000920E-02 0.  1.
       -2   -1    0    0    0  501  0.00000000000E+00  0.00000000000E+00 -0.28673075513E+03  0.28673075514E+03  0.25500000920E-02 0. -1.
    10030    2    1    2    0    0  0.00000000000E+00  0.00000000000E+00  0.96705552036E+03  0.15405170306E+04  0.11991648520E+04 0.  0.
        3    1    3    3  502    0 -0.34729516097E+03  0.41962000240E+03  0.16158255787E+03  0.56815826004E+03  0.10100000352E+00 0. -1.
       -3    1    3    3    0  502  0.34729516097E+03 -0.41962000240E+03  0.80547296249E+03  0.97235877059E+03  0.10100000352E+00 0.  1.
</event>
<event>
 5   0  0.9208078E-04  0.1205726E+04  0.7818609E-02  0.9107859E-01
        1   -1    0    0  501    0  0.00000000000E+00  0.00000000000E+00  0.16076218272E+04  0.16076218272E+04  0.50400001928E-02 0.  1.
       -1   -1    0    0    0  501  0.00000000000E+00  0.00000000000E+00 -0.22607541736E+03  0.22607541741E+03  0.50400001928E-02 0. -1.
    10030    2    1    2    0    0  0.00000000000E+00  0.00000000000E+00  0.13815464099E+04  0.18336972446E+04  0.12057259649E+04 0.  0.
        3    1    3    3  502    0  0.21488789078E+03  0.20852266154E+03 -0.10499035909E+03  0.31730346938E+03  0.10100000352E+00 0. -1.
       -3    1    3    3    0  502 -0.21488789078E+03 -0.20852266154E+03  0.14865367690E+04  0.15163937753E+04  0.10100000352E+00 0.  1.
</event>
<event>
 5   0  0.1597352E-03  0.1197941E+04  0.7818609E-02  0.9114660E-01
       -2   -1    0    0    0  501  0.00000000000E+00  0.00000000000E+00  0.56417393983E+03  0.56417393983E+03  0.25500000920E-02 0.  1.
        2   -1    0    0  501    0  0.00000000000E+00  0.00000000000E+00 -0.63591364199E+03  0.63591364200E+03  0.25500000920E-02 0. -1.
    10030    2    1    2    0    0  0.00000000000E+00  0.00000000000E+00 -0.71739702166E+02  0.12000875818E+04  0.11979414089E+04 0.  0.
        1    1    3    3  502    0 -0.16244624774E+03 -0.32278224563E+03 -0.51441671310E+03  0.62865071084E+03  0.50400001928E-02 0. -1.
       -1    1    3    3    0  502  0.16244624774E+03  0.32278224563E+03  0.44267701093E+03  0.57143687099E+03  0.50400001928E-02 0.  1.
</event>
<event>
 5   0  0.8908478E-04  0.1204055E+04  0.7818609E-02  0.9109314E-01
        1   -1    0    0  501    0  0.00000000000E+00  0.00000000000E+00  0.38387888107E+03  0.38387888110E+03  0.50400001928E-02 0. -1.
       -1   -1    0    0    0  501  0.00000000000E+00  0.00000000000E+00 -0.94414500061E+03  0.94414500062E+03  0.50400001928E-02 0.  1.
    10030    2    1    2    0    0  0.00000000000E+00  0.00000000000E+00 -0.56026611954E+03  0.13280238817E+04  0.12040553582E+04 0.  0.
        4    1    3    3  502    0 -0.34152964622E+03  0.16537804509E+03  0.23536710807E+03  0.44653296128E+03  0.12699999809E+01 0. -1.
       -4    1    3    3    0  502  0.34152964622E+03 -0.16537804509E+03 -0.79563322761E+03  0.88149092045E+03  0.12699999809E+01 0.  1.
</event>
<event>
 5   0  0.1647550E-03  0.1202142E+04  0.7818609E-02  0.9110984E-01
        2   -1    0    0  501    0  0.00000000000E+00  0.00000000000E+00  0.85525323060E+03  0.85525323061E+03  0.25500000920E-02 0. -1.
       -2   -1    0    0    0  501  0.00000000000E+00  0.00000000000E+00 -0.42243188345E+03  0.42243188346E+03  0.25500000920E-02 0.  1.
    10030    2    1    2    0    0  0.00000000000E+00  0.00000000000E+00  0.43282134715E+03  0.12776851141E+04  0.12021418103E+04 0.  0.
        3    1    3    3  502    0  0.44157293475E+03 -0.20180120211E+03 -0.16022476416E+03  0.51125567686E+03  0.10100000352E+00 0.  1.
       -3    1    3    3    0  502 -0.44157293475E+03  0.20180120211E+03  0.59304611131E+03  0.76642943720E+03  0.10100000352E+00 0. -1.
</event>
<event>
 5   0  0.8908478E-04  0.1201394E+04  0.7818609E-02  0.9111637E-01
        1   -1    0    0  501    0  0.00000000000E+00  0.00000000000E+00  0.82105850119E+03  0.82105850121E+03  0.50400001928E-02 0. -1.
       -1   -1    0    0    0  501  0.00000000000E+00  0.00000000000E+00 -0.43947764602E+03  0.43947764605E+03  0.50400001928E-02 0.  1.
    10030    2    1    2    0    0  0.00000000000E+00  0.00000000000E+00  0.38158085517E+03  0.12605361473E+04  0.12013939527E+04 0.  0.
        4    1    3    3  502    0  0.54464315519E+03 -0.10383999444E+03 -0.51706868250E+02  0.55686095577E+03  0.12699999809E+01 0.  1.
       -4    1    3    3    0  502 -0.54464315519E+03  0.10383999444E+03  0.43328772342E+03  0.70367519148E+03  0.12699999809E+01 0. -1.
</event>
<event>
 5   0  0.9170776E-04  0.1184568E+04  0.7818609E-02  0.9126472E-01
        1   -1    0    0  501    0  0.00000000000E+00  0.00000000000E+00  0.95724139466E+03  0.95724139467E+03  0.50400001928E-02 0.  1.
       -1   -1    0    0    0  501  0.00000000000E+00  0.00000000000E+00 -0.36647011104E+03  0.36647011107E+03  0.50400001928E-02 0. -1.
    10030    2    1    2    0    0  0.00000000000E+00  0.00000000000E+00  0.59077128362E+03  0.13237115057E+04  0.11845680398E+04 0.  0.
        5    1    3    3  502    0  0.32478676831E+03  0.39391508337E+03  0.63085318501E+03  0.81157462307E+03  0.46999998093E+01 0.  1.
       -5    1    3    3    0  502 -0.32478676831E+03 -0.39391508337E+03 -0.40081901390E+02  0.51213688267E+03  0.46999998093E+01 0. -1.
</event>
<event>
 5   0  0.8908478E-04  0.1229425E+04  0.7818609E-02  0.9087483E-01
       -1   -1    0    0    0  501  0.00000000000E+00  0.00000000000E+00  0.92281582348E+03  0.92281582349E+03  0.50400001928E-02 0. -1.
        1   -1    0    0  501    0  0.00000000000E+00  0.00000000000E+00 -0.40947685790E+03  0.40947685794E+03  0.50400001928E-02 0.  1.
    10030    2    1    2    0    0  0.00000000000E+00  0.00000000000E+00  0.51333896557E+03  0.13322926814E+04  0.12294254330E+04 0.  0.
        4    1    3    3  502    0 -0.25457447636E+03  0.37099777264E+03 -0.19720965423E+03  0.49126446232E+03  0.12699999809E+01 0.  1.
       -4    1    3    3    0  502  0.25457447636E+03 -0.37099777264E+03  0.71054861981E+03  0.84102821910E+03  0.12699999809E+01 0. -1.
</event>
<event>
 5   0  0.9208078E-04  0.1193049E+04  0.7818609E-02  0.9118963E-01
       -1   -1    0    0    0  501  0.00000000000E+00  0.00000000000E+00  0.31214692632E+03  0.31214692636E+03  0.50400001928E-02 0.  1.
        1   -1    0    0  501    0  0.00000000000E+00  0.00000000000E+00 -0.11399800759E+04  0.11399800759E+04  0.50400001928E-02 0. -1.
    10030    2    1    2    0    0  0.00000000000E+00  0.00000000000E+00 -0.82783314955E+03  0.14521270023E+04  0.11930486609E+04 0.  0.
        3    1    3    3  502    0  0.49316966786E+03 -0.27680479996E+03 -0.18296437154E+03  0.59440153939E+03  0.10100000352E+00 0.  1.
       -3    1    3    3    0  502 -0.49316966786E+03  0.27680479996E+03 -0.64486877801E+03  0.85772546286E+03  0.10100000352E+00 0. -1.
</event>
<event>
 5   0  0.1537557E-03  0.1128144E+04  0.7818609E-02  0.9178187E-01
        2   -1    0    0  501    0  0.00000000000E+00  0.00000000000E+00  0.44780043337E+03  0.44780043338E+03  0.25500000920E-02 0. -1.
       -2   -1    0    0    0  501  0.00000000000E+00  0.00000000000E+00 -0.71053383841E+03  0.71053383841E+03  0.25500000920E-02 0.  1.
    10030    2    1    2    0    0  0.00000000000E+00  0.00000000000E+00 -0.26273340504E+03  0.11583342718E+04  0.11281442475E+04 0.  0.
        2    1    3    3  502    0  0.44572252876E+03 -0.32955021748E+03 -0.23859043338E+03  0.60348762489E+03  0.25500000920E-02 0. -1.
       -2    1    3    3    0  502 -0.44572252876E+03  0.32955021748E+03 -0.24142971656E+02  0.55484664690E+03  0.25500000920E-02 0.  1.
</event>
<event>
 5   0  0.1551501E-03  0.1214821E+04  0.7818609E-02  0.9099982E-01
        2   -1    0    0  501    0  0.00000000000E+00  0.00000000000E+00  0.69525847760E+03  0.69525847761E+03  0.25500000920E-02 0. -1.
       -2   -1    0    0    0  501  0.00000000000E+00  0.00000000000E+00 -0.53066226916E+03  0.53066226916E+03  0.25500000920E-02 0.  1.
    10030    2    1    2    0    0  0.00000000000E+00  0.00000000000E+00  0.16459620845E+03  0.12259207468E+04  0.12148208780E+04 0.  0.
        4    1    3    3  502    0  0.46294756322E+03  0.32731900195E+03  0.30220583715E+03  0.64248591910E+03  0.12699999809E+01 0. -1.
       -4    1    3    3    0  502 -0.46294756322E+03 -0.32731900195E+03 -0.13760962870E+03  0.58343482768E+03  0.12699999809E+01 0.  1.
</event>
<event>
 5   0  0.1567019E-03  0.1185666E+04  0.7818609E-02  0.9125496E-01
       -2   -1    0    0    0  501  0.00000000000E+00  0.00000000000E+00  0.59175362717E+03  0.59175362718E+03  0.25500000920E-02 0. -1.
        2   -1    0    0  501    0  0.00000000000E+00  0.00000000000E+00 -0.59391482708E+03  0.59391482709E+03  0.25500000920E-02 0.  1.
    10030    2    1    2    0    0  0.00000000000E+00  0.00000000000E+00 -0.21611999116E+01  0.11856684543E+04  0.11856664846E+04 0.  0.
        5    1    3    3  502    0 -0.12688869897E+03 -0.47017983792E+03  0.33694265498E+03  0.59221808876E+03  0.46999998093E+01 0. -1.
       -5    1    3    3    0  502  0.12688869897E+03  0.47017983792E+03 -0.33910385489E+03  0.59345036550E+03  0.46999998093E+01 0.  1.
</event>
<event>
 5   0  0.1567019E-03  0.1199226E+04  0.7818609E-02  0.9113534E-01
        2   -1    0    0  501    0  0.00000000000E+00  0.00000000000E+00  0.10516330996E+04  0.10516330996E+04  0.25500000920E-02 0.  1.
       -2   -1    0    0    0  501  0.00000000000E+00  0.00000000000E+00 -0.34188333570E+03  0.34188333571E+03  0.25500000920E-02 0. -1.
    10030    2    1    2    0    0  0.00000000000E+00  0.00000000000E+00  0.70974976392E+03  0.13935164353E+04  0.11992261372E+04 0.  0.
        5    1    3    3  502    0 -0.11893846198E+03 -0.55142189098E+03  0.59102750747E+03  0.81703614619E+03  0.46999998093E+01 0.  1.
       -5    1    3    3    0  502  0.11893846198E+03  0.55142189098E+03  0.11872225646E+03  0.57648028914E+03  0.46999998093E+01 0. -1.
</event>
<event>
 5   0  0.9358428E-04  0.1203059E+04  0.7818609E-02  0.9110184E-01
       -1   -1    0    0    0  501  0.00000000000E+00  0.00000000000E+00  0.40774048830E+03  0.40774048833E+03  0.50400001928E-02 0.  1.
        1   -1    0    0  501    0  0.00000000000E+00  0.00000000000E+00 -0.88742098136E+03  0.88742098137E+03  0.50400001928E-02 0. -1.
    10030    2    1    2    0    0  0.00000000000E+00  0.00000000000E+00 -0.47968049305E+03  0.12951614697E+04  0.12030585427E+04 0.  0.
        2    1    3    3  502    0  0.57036465255E+03 -0.48404643517E+02 -0.43886834928E+03  0.72129347314E+03  0.25500000920E-02 0.  1.
       -2    1    3    3    0  502 -0.57036465255E+03  0.48404643517E+02 -0.40812143778E+02  0.57386799656E+03  0.25500000920E-02 0. -1.
</event>
<event>
 5   0  0.9169078E-04  0.1201040E+04  0.7818609E-02  0.9111947E-01
        1   -1    0    0  501    0  0.00000000000E+00  0.00000000000E+00  0.18286928584E+04  0.18286928584E+04  0.50400001928E-02 0.  1.
       -1   -1    0    0    0  501  0.00000000000E+00  0.00000000000E+00 -0.19720330743E+03  0.19720330750E+03  0.50400001928E-02 0. -1.
    10030    2    1    2    0    0  0.00000000000E+00  0.00000000000E+00  0.16314895510E+04  0.20258961659E+04  0.12010400160E+04 0.  0.
        1    1    3    3  502    0  0.24085534006E+03  0.34338705653E+02 -0.11035058197E+03  0.26714732361E+03  0.50400001928E-02 0. -1.
       -1    1    3    3    0  502 -0.24085534006E+03 -0.34338705653E+02  0.17418401330E+04  0.17587488423E+04  0.50400001928E-02 0.  1.
</event>
<event>
 5   0  0.1647550E-03  0.1197967E+04  0.7818609E-02  0.9114638E-01
       -2   -1    0    0    0  501  0.00000000000E+00  0.00000000000E+00  0.70592992092E+03  0.70592992092E+03  0.25500000920E-02 0.  1.
        2   -1    0    0  501    0  0.00000000000E+00  0.00000000000E+00 -0.50823927535E+03  0.50823927536E+03  0.25500000920E-02 0. -1.
    10030    2    1    2    0    0  0.00000000000E+00  0.00000000000E+00  0.19769064556E+03  0.12141691963E+04  0.11979671305E+04 0.  0.
        3    1    3    3  502    0 -0.56983316855E+03 -0.60073569643E+02  0.27574131290E+03  0.63588674745E+03  0.10100000352E+00 0. -1.
       -3    1    3    3    0  502  0.56983316855E+03  0.60073569643E+02 -0.78050667334E+02  0.57828244883E+03  0.10100000352E+00 0.  1.
</event>
<event>
 5   0  0.1597352E-03  0.1180891E+04  0.7818609E-02  0.9129749E-01
        2   -1    0    0  501    0  0.00000000000E+00  0.00000000000E+00  0.94509115577E+03  0.94509115577E+03  0.25500000920E-02 0. -1.
       -2   -1    0    0    0  501  0.00000000000E+00  0.00000000000E+00 -0.36888046826E+03  0.36888046827E+03  0.25500000920E-02 0.  1.
    10030    2    1    2    0    0  0.00000000000E+00  0.00000000000E+00  0.57621068751E+03  0.13139716240E+04  0.11808906268E+04 0.  0.
        1    1    3    3  502    0  0.58082349968E+03  0.10585035596E+03  0.27910471523E+03  0.65303880262E+03  0.50400001928E-02 0. -1.
       -1    1    3    3    0  502 -0.58082349968E+03 -0.10585035596E+03  0.29710597229E+03  0.66093282142E+03  0.50400001928E-02 0.  1.
</event>
<event>
 5   0  0.6137750E-04  0.1224842E+04  0.7818609E-02  0.9091386E-01
       -3   -1    0    0    0  501  0.00000000000E+00  0.00000000000E+00  0.76603221092E+03  0.76603221758E+03  0.10100000352E+00 0.  1.
        3   -1    0    0  501    0  0.00000000000E+00  0.00000000000E+00 -0.48961307973E+03  0.48961309015E+03  0.10100000352E+00 0. -1.
    10030    2    1    2    0    0  0.00000000000E+00  0.00000000000E+00  0.27641913119E+03  0.12556453077E+04  0.12248418685E+04 0.  0.
        4    1    3    3  502    0 -0.46532531749E+03  0.11049870544E+03  0.53034768108E+03  0.71414836744E+03  0.12699999809E+01 0.  1.
       -4    1    3    3    0  502  0.46532531749E+03 -0.11049870544E+03 -0.25392854989E+03  0.54149694029E+03  0.12699999809E+01 0. -1.
</event>
<event>
 5   0  0.1567019E-03  0.1205161E+04  0.7818609E-02  0.9108351E-01
        2   -1    0    0  501    0  0.00000000000E+00  0.00000000000E+00  0.84581586410E+03  0.84581586410E+03  0.25500000920E-02 0. -1.
       -2   -1    0    0    0  501  0.00000000000E+00  0.00000000000E+00 -0.42929349336E+03  0.42929349337E+03  0.25500000920E-02 0.  1.
    10030    2    1    2    0    0  0.00000000000E+00  0.00000000000E+00  0.41652237074E+03  0.12751093575E+04  0.12051609802E+04 0.  0.
        5    1    3    3  502    0  0.42106673191E+03 -0.15919484489E+03 -0.21553788972E+03  0.49911808549E+03  0.46999998093E+01 0. -1.
       -5    1    3    3    0  502 -0.42106673191E+03  0.15919484489E+03  0.63206026045E+03  0.77599127199E+03  0.46999998093E+01 0.  1.
</event>
<event>
 5   0  0.9208078E-04  0.1199096E+04  0.7818609E-02  0.9113648E-01
       -1   -1    0    0    0  501  0.00000000000E+00  0.00000000000E+00  0.32196350696E+03  0.32196350700E+03  0.50400001928E-02 0. -1.
        1   -1    0    0  501    0  0.00000000000E+00  0.00000000000E+00 -0.11164559521E+04  0.11164559521E+04  0.50400001928E-02 0.  1.
    10030    2    1    2    0    0  0.00000000000E+00  0.00000000000E+00 -0.79449244515E+03  0.14384194591E+04  0.11990964494E+04 0.  0.
        3    1    3    3  502    0  0.36884508828E+03  0.33268016884E+03  0.55276926055E+01  0.49674274979E+03  0.10100000352E+00 0. -1.
       -3    1    3    3    0  502 -0.36884508828E+03 -0.33268016884E+03 -0.80002013775E+03  0.94167670933E+03  0.10100000352E+00 0.  1.
</event>
<event>
 5   0  0.6137750E-04  0.1200435E+04  0.7818609E-02  0.9112476E-01
       -3   -1    0    0    0  501  0.00000000000E+00  0.00000000000E+00  0.34496918658E+03  0.34496920136E+03  0.10100000352E+00 0. -1.
        3   -1    0    0  501    0  0.00000000000E+00  0.00000000000E+00 -0.10443276002E+04  0.10443276051E+04  0.10100000352E+00 0.  1.
    10030    2    1    2    0    0  0.00000000000E+00  0.00000000000E+00 -0.69935841367E+03  0.13892968065E+04  0.12004346820E+04 0.  0.
        3    1    3    3  502    0 -0.35386920441E+01 -0.33382882461E+03  0.22760208869E+03  0.40405064963E+03  0.10100000352E+00 0. -1.
       -3    1    3    3    0  502  0.35386920441E+01  0.33382882461E+03 -0.92696050236E+03  0.98524615687E+03  0.10100000352E+00 0.  1.
</event>
<event>
 5   0  0.1537557E-03  0.1165743E+04  0.7818609E-02  0.9143382E-01
        2   -1    0    0  501    0  0.00000000000E+00  0.00000000000E+00  0.87546830606E+03  0.87546830606E+03  0.25500000920E-02 0. -1.
       -2   -1    0    0    0  501  0.00000000000E+00  0.00000000000E+00 -0.38806544833E+03  0.38806544834E+03  0.25500000920E-02 0.  1.
    10030    2    1    2    0    0  0.00000000000E+00  0.00000000000E+00  0.48740285773E+03  0.12635337544E+04  0.11657426829E+04 0.  0.
        2    1    3    3  502    0 -0.89858909208E+01  0.30519762196E+03  0.78185195521E+03  0.83935619052E+03  0.25500000920E-02 0. -1.
       -2    1    3    3    0  502  0.89858909208E+01 -0.30519762196E+03 -0.29444909748E+03  0.42417756388E+03  0.25500000920E-02 0.  1.
</event>
<event>
 5   0  0.9169078E-04  0.1200411E+04  0.7818609E-02  0.9112497E-01
       -1   -1    0    0    0  501  0.00000000000E+00  0.00000000000E+00  0.21186558477E+03  0.21186558483E+03  0.50400001928E-02 0.  1.
        1   -1    0    0  501    0  0.00000000000E+00  0.00000000000E+00 -0.17003552490E+04  0.17003552490E+04  0.50400001928E-02 0. -1.
    10030    2    1    2    0    0  0.00000000000E+00  0.00000000000E+00 -0.14884896642E+04  0.19122208338E+04  0.12004111949E+04 0.  0.
        1    1    3    3  502    0  0.12870127218E+03 -0.23109575105E+03 -0.16024965717E+04  0.16241811863E+04  0.50400001928E-02 0. -1.
       -1    1    3    3    0  502 -0.12870127218E+03  0.23109575105E+03  0.11400690742E+03  0.28803964758E+03  0.50400001928E-02 0.  1.
</event>
<event>
 5   0  0.1647550E-03  0.1203807E+04  0.7818609E-02  0.9109531E-01
        2   -1    0    0  501    0  0.00000000000E+00  0.00000000000E+00  0.84634705512E+03  0.84634705513E+03  0.25500000920E-02 0. -1.
       -2   -1    0    0    0  501  0.00000000000E+00  0.00000000000E+00 -0.42806036169E+03  0.42806036170E+03  0.25500000920E-02 0.  1.
    10030    2    1    2    0    0  0.00000000000E+00  0.00000000000E+00  0.41828669343E+03  0.12744074168E+04  0.12038066731E+04 0.  0.
        3    1    3    3  502    0  0.23039299438E+03 -0.34160025209E+03 -0.25535578318E+03  0.48474555211E+03  0.10100000352E+00 0.  1.
       -3    1    3    3    0  502 -0.23039299438E+03  0.34160025209E+03  0.67364247661E+03  0.78966186471E+03  0.10100000352E+00 0. -1.
</event>
<event>
 5   0  0.1537557E-03  0.1207609E+04  0.7818609E-02  0.9106223E-01
        2   -1    0    0  501    0  0.00000000000E+00  0.00000000000E+00  0.24809818833E+03  0.24809818835E+03  0.25500000920E-02 0.  1.
       -2   -1    0    0    0  501  0.00000000000E+00  0.00000000000E+00 -0.14694973460E+04  0.14694973460E+04  0.25500000920E-02 0. -1.
    10030    2    1    2    0    0  0.00000000000E+00  0.00000000000E+00 -0.12213991577E+04  0.17175955343E+04  0.12076085944E+04 0.  0.
        2    1    3    3  502    0 -0.31182053675E+03  0.46755590634E+03 -0.29669696264E+03  0.63550740384E+03  0.25500000920E-02 0.  1.
       -2    1    3    3    0  502  0.31182053675E+03 -0.46755590634E+03 -0.92470219501E+03  0.10820881305E+04  0.25500000920E-02 0. -1.
</event>
<event>
 5   0  0.9169078E-04  0.1210150E+04  0.7818609E-02  0.9104018E-01
       -1   -1    0    0    0  501  0.00000000000E+00  0.00000000000E+00  0.29173350919E+03  0.29173350923E+03  0.50400001928E-02 0.  1.
        1   -1    0    0  501    0  0.00000000000E+00  0.00000000000E+00 -0.12549674084E+04  0.12549674085E+04  0.50400001928E-02 0. -1.
    10030    2    1    2    0    0  0.00000000000E+00  0.00000000000E+00 -0.96323389926E+03  0.15467009177E+04  0.12101504799E+04 0.  0.
        1    1    3    3  502    0  0.48258826754E+03 -0.26455601882E+03 -0.16021776115E+03  0.57319373171E+03  0.50400001928E-02 0.  1.
       -1    1    3    3    0  502 -0.48258826754E+03  0.26455601882E+03 -0.80301613811E+03  0.97350718598E+03  0.50400001928E-02 0. -1.
</event>
<event>
 5   0  0.1567019E-03  0.1196063E+04  0.7818609E-02  0.9116310E-01
       -2   -1    0    0    0  501  0.00000000000E+00  0.00000000000E+00  0.24994327085E+03  0.24994327087E+03  0.25500000920E-02 0. -1.
        2   -1    0    0  501    0  0.00000000000E+00  0.00000000000E+00 -0.14308914597E+04  0.14308914597E+04  0.25500000920E-02 0.  1.
    10030    2    1    2    0    0  0.00000000000E+00  0.00000000000E+00 -0.11809481888E+04  0.16808347305E+04  0.11960630279E+04 0.  0.
        5    1    3    3  502    0 -0.63039915212E+02 -0.32655038232E+03  0.10796506839E+03  0.34969662437E+03  0.46999998093E+01 0. -1.
       -5    1    3    3    0  502  0.63039915212E+02  0.32655038232E+03 -0.12889132572E+04  0.13311381062E+04  0.46999998093E+01 0.  1.
</event>
<event>
 5   0  0.1537557E-03  0.1201846E+04  0.7818609E-02  0.9111242E-01
       -2   -1    0    0    0  501  0.00000000000E+00  0.00000000000E+00  0.64799700198E+03  0.64799700199E+03  0.25500000920E-02 0.  1.
        2   -1    0    0  501    0  0.00000000000E+00  0.00000000000E+00 -0.55726896669E+03  0.55726896669E+03  0.25500000920E-02 0. -1.
    10030    2    1    2    0    0  0.00000000000E+00  0.00000000000E+00  0.90728035298E+02  0.12052659687E+04  0.12018462792E+04 0.  0.
        2    1    3    3  502    0  0.29715422269E+02  0.54027930946E+03  0.30749613483E+03  0.62236533604E+03  0.25500000920E-02 0.  1.
       -2    1    3    3    0  502 -0.29715422269E+02 -0.54027930946E+03 -0.21676809954E+03  0.58290063264E+03  0.25500000920E-02 0. -1.
</event>
<event>
 5   0  0.1567019E-03  0.1197288E+04  0.7818609E-02  0.9115234E-01
        2   -1    0    0  501    0  0.00000000000E+00  0.00000000000E+00  0.42608224280E+03  0.42608224281E+03  0.25500000920E-02 0.  1.
       -2   -1    0    0    0  501  0.00000000000E+00  0.00000000000E+00 -0.84109281858E+03  0.84109281859E+03  0.25500000920E-02 0. -1.
    10030    2    1    2    0    0  0.00000000000E+00  0.00000000000E+00 -0.41501057578E+03  0.12671750614E+04  0.11972881267E+04 0.  0.
        5    1    3    3  502    0  0.22887118599E+03  0.28931891592E+03 -0.70647438285E+03  0.79700413958E+03  0.46999998093E+01 0. -1.
       -5    1    3    3    0  502 -0.22887118599E+03 -0.28931891592E+03  0.29146380707E+03  0.47017092181E+03  0.46999998093E+01 0.  1.
</event>
<event>
 5   0  0.9169078E-04  0.1198280E+04  0.7818609E-02  0.9114363E-01
       -1   -1    0    0    0  501  0.00000000000E+00  0.00000000000E+00  0.73525732807E+03  0.73525732809E+03  0.50400001928E-02 0.  1.
        1   -1    0    0  501    0  0.00000000000E+00  0.00000000000E+00 -0.48822186330E+03  0.48822186332E+03  0.50400001928E-02 0. -1.
    10030    2    1    2    0    0  0.00000000000E+00  0.00000000000E+00  0.24703546477E+03  0.12234791914E+04  0.11982799385E+04 0.  0.
        1    1    3    3  502    0  0.37780142756E+03 -0.29480099004E+03  0.49070124302E+03  0.68587845302E+03  0.50400001928E-02 0.  1.
       -1    1    3    3    0  502 -0.37780142756E+03  0.29480099004E+03 -0.24366577824E+03  0.53760073839E+03  0.50400001928E-02 0. -1.
</event>
<event>
 5   0  0.1551501E-03  0.1213511E+04  0.7818609E-02  0.9101112E-01
       -2   -1    0    0    0  501  0.00000000000E+00  0.00000000000E+00  0.30338448664E+03  0.30338448665E+03  0.25500000920E-02 0. -1.
        2   -1    0    0  501    0  0.00000000000E+00  0.00000000000E+00 -0.12134847827E+04  0.12134847827E+04  0.25500000920E-02 0.  1.
    10030    2    1    2    0    0  0.00000000000E+00  0.00000000000E+00 -0.91010029605E+03  0.15168692693E+04  0.12135113643E+04 0.  0.
        4    1    3    3  502    0  0.53224705614E+02  0.25783688438E+03  0.22826697004E+03  0.34845394351E+03  0.12699999809E+01 0. -1.
       -4    1    3    3    0  502 -0.53224705614E+02 -0.25783688438E+03 -0.11383672661E+04  0.11684153258E+04  0.12699999809E+01 0.  1.
</event>
<event>
 5   0  0.1647550E-03  0.1201004E+04  0.7818609E-02  0.9111979E-01
        2   -1    0    0  501    0  0.00000000000E+00  0.00000000000E+00  0.13437327851E+04  0.13437327851E+04  0.25500000920E-02 0. -1.
       -2   -1    0    0    0  501  0.00000000000E+00  0.00000000000E+00 -0.26835872247E+03  0.26835872248E+03  0.25500000920E-02 0.  1.
    10030    2    1    2    0    0  0.00000000000E+00  0.00000000000E+00  0.10753740626E+04  0.16120915076E+04  0.12010036029E+04 0.  0.
        3    1    3    3  502    0 -0.45304067397E+03 -0.59638040353E+02  0.14711874810E+02  0.45718595516E+03  0.10100000352E+00 0.  1.
       -3    1    3    3    0  502  0.45304067397E+03  0.59638040353E+02  0.10606621878E+04  0.11549055524E+04  0.10100000352E+00 0. -1.
</event>
<event>
 5   0  0.1567019E-03  0.1190125E+04  0.7818609E-02  0.9121544E-01
       -2   -1    0    0    0  501  0.00000000000E+00  0.00000000000E+00  0.27481412323E+03  0.27481412324E+03  0.25500000920E-02 0.  1.
        2   -1    0    0  501    0  0.00000000000E+00  0.00000000000E+00 -0.12885052770E+04  0.12885052770E+04  0.25500000920E-02 0. -1.
    10030    2    1    2    0    0  0.00000000000E+00  0.00000000000E+00 -0.10136911538E+04  0.15633194002E+04  0.11901251161E+04 0.  0.
        5    1    3    3  502    0 -0.57977225410E+03  0.13021007444E+03 -0.46558115170E+03  0.75490292682E+03  0.46999998093E+01 0.  1.
       -5    1    3    3    0  502  0.57977225410E+03 -0.13021007444E+03 -0.54811000206E+03  0.80841647340E+03  0.46999998093E+01 0. -1.
</event>
<event>
 5   0  0.1647550E-03  0.1194673E+04  0.7818609E-02  0.9117532E-01
       -2   -1    0    0    0  501  0.00000000000E+00  0.00000000000E+00  0.40032715734E+03  0.40032715735E+03  0.25500000920E-02 0.  1.
        2   -1    0    0  501    0  0.00000000000E+00  0.00000000000E+00 -0.89129812739E+03  0.89129812739E+03  0.25500000920E-02 0. -1.
    10030    2    1    2    0    0  0.00000000000E+00  0.00000000000E+00 -0.49097097005E+03  0.12916252847E+04  0.11946729187E+04 0.  0.
        3    1    3    3  502    0 -0.49297967746E+03 -0.16614184252E+03  0.71900424880E+02  0.52516831161E+03  0.10100000352E+00 0.  1.
       -3    1    3    3    0  502  0.49297967746E+03  0.16614184252E+03 -0.56287139493E+03  0.76645697312E+03  0.10100000352E+00 0. -1.
</event>
<event>
 5   0  0.9208078E-04  0.1202273E+04  0.7818609E-02  0.9110869E-01
       -1   -1    0    0    0  501  0.00000000000E+00  0.00000000000E+00  0.79830785587E+03  0.79830785589E+03  0.50400001928E-02 0. -1.
        1   -1    0    0  501    0  0.00000000000E+00  0.00000000000E+00 -0.45266378372E+03  0.45266378375E+03  0.50400001928E-02 0.  1.
    10030    2    1    2    0    0  0.00000000000E+00  0.00000000000E+00  0.34564407215E+03  0.12509716396E+04  0.12022729385E+04 0.  0.
        3    1    3    3  502    0 -0.11805781420E+03 -0.11637327682E+03 -0.42841070627E+03  0.45936492084E+03  0.10100000352E+00 0.  1.
       -3    1    3    3    0  502  0.11805781420E+03  0.11637327682E+03  0.77405477842E+03  0.79160671880E+03  0.10100000352E+00 0. -1.
</event>
<event>
 5   0  0.9208078E-04  0.1208518E+04  0.7818609E-02  0.9105433E-01
        1   -1    0    0  501    0  0.00000000000E+00  0.00000000000E+00  0.54017437042E+03  0.54017437045E+03  0.50400001928E-02 0. -1.
       -1   -1    0    0    0  501  0.00000000000E+00  0.00000000000E+00 -0.67594621309E+03  0.67594621311E+03  0.50400001928E-02 0.  1.
    10030    2    1    2    0    0  0.00000000000E+00  0.00000000000E+00 -0.13577184267E+03  0.12161205836E+04  0.12085178031E+04 0.  0.
        3    1    3    3  502    0 -0.27245657965E+03 -0.40371391478E+03 -0.42778276531E+03  0.64824040084E+03  0.10100000352E+00 0.  1.
       -3    1    3    3    0  502  0.27245657965E+03  0.40371391478E+03  0.29201092264E+03  0.56788018272E+03  0.10100000352E+00 0. -1.
</event>
<event>
 5   0  0.1551501E-03  0.1191278E+04  0.7818609E-02  0.9120525E-01
       -2   -1    0    0    0  501  0.00000000000E+00  0.00000000000E+00  0.40716941679E+03  0.40716941680E+03  0.25500000920E-02 0. -1.
        2   -1    0    0  501    0  0.00000000000E+00  0.00000000000E+00 -0.87134744900E+03  0.87134744900E+03  0.25500000920E-02 0.  1.
    10030    2    1    2    0    0  0.00000000000E+00  0.00000000000E+00 -0.46417803221E+03  0.12785168658E+04  0.11912783598E+04 0.  0.
        4    1    3    3  502    0 -0.14800974503E+03  0.46989010476E+03 -0.59139038140E+03  0.76970630197E+03  0.12699999809E+01 0.  1.
       -4    1    3    3    0  502  0.14800974503E+03 -0.46989010476E+03  0.12721234920E+03  0.50881056383E+03  0.12699999809E+01 0. -1.
</event>
<event>
 5   0  0.9170776E-04  0.1203708E+04  0.7818609E-02  0.9109617E-01
        1   -1    0    0  501    0  0.00000000000E+00  0.00000000000E+00  0.70463545933E+03  0.70463545935E+03  0.50400001928E-02 0. -1.
       -1   -1    0    0    0  501  0.00000000000E+00  0.00000000000E+00 -0.51406457309E+03  0.51406457311E+03  0.50400001928E-02 0.  1.
    10030    2    1    2    0    0  0.00000000000E+00  0.00000000000E+00  0.19057088624E+03  0.12187000325E+04  0.12037078161E+04 0.  0.
        5    1    3    3  502    0 -0.57400109742E+03  0.20101454836E+02 -0.86744590509E+02  0.58088556730E+03  0.46999998093E+01 0.  1.
       -5    1    3    3    0  502  0.57400109742E+03 -0.20101454836E+02  0.27731547675E+03  0.63781446516E+03  0.46999998093E+01 0. -1.
</event>
<event>
 5   0  0.6137750E-04  0.1202796E+04  0.7818609E-02  0.9110413E-01
        3   -1    0    0  501    0  0.00000000000E+00  0.00000000000E+00  0.38024658072E+03  0.38024659414E+03  0.10100000352E+00 0.  1.
       -3   -1    0    0    0  501  0.00000000000E+00  0.00000000000E+00 -0.95117050269E+03  0.95117050805E+03  0.10100000352E+00 0. -1.
    10030    2    1    2    0    0  0.00000000000E+00  0.00000000000E+00 -0.57092392197E+03  0.13314171022E+04  0.12027956499E+04 0.  0.
        4    1    3    3  502    0 -0.35734763654E+03 -0.48284252912E+03 -0.25331335349E+03  0.65192293197E+03  0.12699999809E+01 0.  1.
       -4    1    3    3    0  502  0.35734763654E+03  0.48284252912E+03 -0.31761056847E+03  0.67949417022E+03  0.12699999809E+01 0. -1.
</event>
<event>
 5   0  0.9208078E-04  0.1207792E+04  0.7818609E-02  0.9106064E-01
       -1   -1    0    0    0  501  0.00000000000E+00  0.00000000000E+00  0.37615592600E+03  0.37615592604E+03  0.50400001928E-02 0.  1.
        1   -1    0    0  501    0  0.00000000000E+00  0.00000000000E+00 -0.96951876305E+03  0.96951876306E+03  0.50400001928E-02 0. -1.
    10030    2    1    2    0    0  0.00000000000E+00  0.00000000000E+00 -0.59336283704E+03  0.13456746891E+04  0.12077917505E+04 0.  0.
        3    1    3    3  502    0 -0.27828235796E+03 -0.33718398955E+03  0.16747885947E+03  0.46817015297E+03  0.10100000352E+00 0.  1.
       -3    1    3    3    0  502  0.27828235796E+03  0.33718398955E+03 -0.76084169652E+03  0.87750453612E+03  0.10100000352E+00 0. -1.
</event>
<event>
 5   0  0.9170776E-04  0.1199398E+04  0.7818609E-02  0.9113384E-01
       -1   -1    0    0    0  501  0.00000000000E+00  0.00000000000E+00  0.35095891135E+03  0.35095891139E+03  0.50400001928E-02 0.  1.
        1   -1    0    0  501    0  0.00000000000E+00  0.00000000000E+00 -0.10247315159E+04  0.10247315159E+04  0.50400001928E-02 0. -1.
    10030    2    1    2    0    0  0.00000000000E+00  0.00000000000E+00 -0.67377260451E+03  0.13756904273E+04  0.11993976109E+04 0.  0.
        5    1    3    3  502    0 -0.29956834392E+03  0.38071837137E+03  0.68518591974E+02  0.48928985113E+03  0.46999998093E+01 0.  1.
       -5    1    3    3    0  502  0.29956834392E+03 -0.38071837137E+03 -0.74229119649E+03  0.88640057613E+03  0.46999998093E+01 0. -1.
</event>
<event>
 5   0  0.9208078E-04  0.1191230E+04  0.7818609E-02  0.9120567E-01
        1   -1    0    0  501    0  0.00000000000E+00  0.00000000000E+00  0.56095716360E+03  0.56095716362E+03  0.50400001928E-02 0.  1.
       -1   -1    0    0    0  501  0.00000000000E+00  0.00000000000E+00 -0.63241439512E+03  0.63241439514E+03  0.50400001928E-02 0. -1.
    10030    2    1    2    0    0  0.00000000000E+00  0.00000000000E+00 -0.71457231519E+02  0.11933715588E+04  0.11912302638E+04 0.  0.
        3    1    3    3  502    0 -0.42538307539E+03  0.17565989408E+03 -0.41449582382E+03  0.61936577027E+03  0.10100000352E+00 0. -1.
       -3    1    3    3    0  502  0.42538307539E+03 -0.17565989408E+03  0.34303859230E+03  0.57400578849E+03  0.10100000352E+00 0.  1.
</event>
<event>
 5   0  0.1597352E-03  0.1209319E+04  0.7818609E-02  0.9104739E-01
       -2   -1    0    0    0  501  0.00000000000E+00  0.00000000000E+00  0.19215963693E+03  0.19215963695E+03  0.25500000920E-02 0.  1.
        2   -1    0    0  501    0  0.00000000000E+00  0.00000000000E+00 -0.19026526521E+04  0.19026526521E+04  0.25500000920E-02 0. -1.
    10030    2    1    2    0    0  0.00000000000E+00  0.00000000000E+00 -0.17104930152E+04  0.20948122891E+04  0.12093188874E+04 0.  0.
        1    1    3    3  502    0 -0.31419196522E+03 -0.45059438322E+03 -0.12929929820E+04  0.14048426036E+04  0.50400001928E-02 0. -1.
       -1    1    3    3    0  502  0.31419196522E+03  0.45059438322E+03 -0.41750003314E+03  0.68996968549E+03  0.50400001928E-02 0.  1.
</event>
<event>
 5   0  0.9358428E-04  0.1206921E+04  0.7818609E-02  0.9106820E-01
        1   -1    0    0  501    0  0.00000000000E+00  0.00000000000E+00  0.10263908831E+04  0.10263908832E+04  0.50400001928E-02 0. -1.
       -1   -1    0    0    0  501  0.00000000000E+00  0.00000000000E+00 -0.35480118535E+03  0.35480118538E+03  0.50400001928E-02 0.  1.
    10030    2    1    2    0    0  0.00000000000E+00  0.00000000000E+00  0.67158969780E+03  0.13811920685E+04  0.12069212104E+04 0.  0.
        2    1    3    3  502    0  0.92002564335E+02  0.34275736211E+03  0.89434490222E+03  0.96218495377E+03  0.25500000920E-02 0. -1.
       -2    1    3    3    0  502 -0.92002564335E+02 -0.34275736211E+03 -0.22275520442E+03  0.41900711477E+03  0.25500000920E-02 0.  1.
</event>
<event>
 5   0  0.9208078E-04  0.1204542E+04  0.7818609E-02  0.9108891E-01
        1   -1    0    0  501    0  0.00000000000E+00  0.00000000000E+00  0.13293591255E+04  0.13293591255E+04  0.50400001928E-02 0.  1.
       -1   -1    0    0    0  501  0.00000000000E+00  0.00000000000E+00 -0.27286088987E+03  0.27286088991E+03  0.50400001928E-02 0. -1.
    10030    2    1    2    0    0  0.00000000000E+00  0.00000000000E+00  0.10564982356E+04  0.16022200154E+04  0.12045415958E+04 0.  0.
        3    1    3    3  502    0 -0.52381487607E+03 -0.15748591370E+02  0.13343883428E+03  0.54077349715E+03  0.10100000352E+00 0. -1.
       -3    1    3    3    0  502  0.52381487607E+03  0.15748591370E+02  0.92305940135E+03  0.10614465183E+04  0.10100000352E+00 0.  1.
</event>
<event>
 5   0  0.9358428E-04  0.1191295E+04  0.7818609E-02  0.9120510E-01
        1   -1    0    0  501    0  0.00000000000E+00  0.00000000000E+00  0.91109292175E+03  0.91109292176E+03  0.50400001928E-02 0.  1.
       -1   -1    0    0    0  501  0.00000000000E+00  0.00000000000E+00 -0.38941789443E+03  0.38941789447E+03  0.50400001928E-02 0. -1.
    10030    2    1    2    0    0  0.00000000000E+00  0.00000000000E+00  0.52167502731E+03  0.13005108162E+04  0.11912949043E+04 0.  0.
        2    1    3    3  502    0  0.21367308318E+03  0.44376243642E+03 -0.10485777800E+03  0.50356373982E+03  0.25500000920E-02 0. -1.
       -2    1    3    3    0  502 -0.21367308318E+03 -0.44376243642E+03  0.62653280531E+03  0.79694707641E+03  0.25500000920E-02 0.  1.
</event>
<event>
 5   0  0.9208078E-04  0.1212051E+04  0.7818609E-02  0.9102374E-01
        1   -1    0    0  501    0  0.00000000000E+00  0.00000000000E+00  0.56604365925E+03  0.56604365928E+03  0.50400001928E-02 0. -1.
       -1   -1    0    0    0  501  0.00000000000E+00  0.00000000000E+00 -0.64883108151E+03  0.64883108153E+03  0.50400001928E-02 0.  1.
    10030    2    1    2    0    0  0.00000000000E+00  0.00000000000E+00 -0.82787422261E+02  0.12148747408E+04  0.12120506914E+04 0.  0.
        3    1    3    3  502    0 -0.12909213217E+03 -0.34004942711E+03 -0.52725844004E+03  0.64054653559E+03  0.10100000352E+00 0.  1.
       -3    1    3    3    0  502  0.12909213217E+03  0.34004942711E+03  0.44447101778E+03  0.57432820522E+03  0.10100000352E+00 0. -1.
</event>
<event>
 5   0  0.1567019E-03  0.1194522E+04  0.7818609E-02  0.9117665E-01
       -2   -1    0    0    0  501  0.00000000000E+00  0.00000000000E+00  0.11548943974E+04  0.11548943974E+04  0.25500000920E-02 0.  1.
        2   -1    0    0  501    0  0.00000000000E+00  0.00000000000E+00 -0.30887759216E+03  0.30887759217E+03  0.25500000920E-02 0. -1.
    10030    2    1    2    0    0  0.00000000000E+00  0.00000000000E+00  0.84601680525E+03  0.14637719896E+04  0.11945224999E+04 0.  0.
        5    1    3    3  502    0  0.82629474880E+02  0.12430871707E+03 -0.28562941471E+03  0.32231434936E+03  0.46999998093E+01 0. -1.
       -5    1    3    3    0  502 -0.82629474880E+02 -0.12430871707E+03  0.11316462200E+04  0.11414576402E+04  0.46999998093E+01 0.  1.
</event>
<event>
 5   0  0.1597352E-03  0.1235142E+04  0.7818609E-02  0.9082641E-01
       -2   -1    0    0    0  501  0.00000000000E+00  0.00000000000E+00  0.28515147289E+03  0.28515147290E+03  0.25500000920E-02 0.  1.
        2   -1    0    0  501    0  0.00000000000E+00  0.00000000000E+00 -0.13375135870E+04  0.13375135870E+04  0.25500000920E-02 0. -1.
    10030    2    1    2    0    0  0.00000000000E+00  0.00000000000E+00 -0.10523621141E+04  0.16226650599E+04  0.12351420475E+04 0.  0.
        1    1    3    3  502    0  0.30341810460E+03  0.19149898533E+03  0.13417755729E+03  0.38306399529E+03  0.50400001928E-02 0.  1.
       -1    1    3    3    0  502 -0.30341810460E+03 -0.19149898533E+03 -0.11865396714E+04  0.12396010646E+04  0.50400001928E-02 0. -1.
</event>
<event>
 5   0  0.9169078E-04  0.1192559E+04  0.7818609E-02  0.9119395E-01
       -1   -1    0    0    0  501  0.00000000000E+00  0.00000000000E+00  0.56001092828E+03  0.56001092830E+03  0.50400001928E-02 0. -1.
        1   -1    0    0  501    0  0.00000000000E+00  0.00000000000E+00 -0.63489707797E+03  0.63489707799E+03  0.50400001928E-02 0.  1.
    10030    2    1    2    0    0  0.00000000000E+00  0.00000000000E+00 -0.74886149691E+02  0.11949080063E+04  0.11925591005E+04 0.  0.
        1    1    3    3  502    0  0.32800049431E+03  0.69608157166E+02 -0.53148592653E+03  0.62841619166E+03  0.50400001928E-02 0.  1.
       -1    1    3    3    0  502 -0.32800049431E+03 -0.69608157166E+02  0.45659977684E+03  0.56649181463E+03  0.50400001928E-02 0. -1.
</event>
<event>
 5   0  0.1537557E-03  0.1218161E+04  0.7818609E-02  0.9097107E-01
       -2   -1    0    0    0  501  0.00000000000E+00  0.00000000000E+00  0.20608689082E+03  0.20608689084E+03  0.25500000920E-02 0.  1.
        2   -1    0    0  501    0  0.00000000000E+00  0.00000000000E+00 -0.18001097548E+04  0.18001097548E+04  0.25500000920E-02 0. -1.
    10030    2    1    2    0    0  0.00000000000E+00  0.00000000000E+00 -0.15940228639E+04  0.20061966456E+04  0.12181609459E+04 0.  0.
        2    1    3    3  502    0 -0.24914113998E+03  0.13519533339E+03  0.90837346768E+02  0.29765837696E+03  0.25500000920E-02 0.  1.
       -2    1    3    3    0  502  0.24914113998E+03 -0.13519533339E+03 -0.16848602107E+04  0.17085382686E+04  0.25500000920E-02 0. -1.
</event>
<event>
 5   0  0.1567019E-03  0.1194548E+04  0.7818609E-02  0.9117642E-01
        2   -1    0    0  501    0  0.00000000000E+00  0.00000000000E+00  0.38446798773E+03  0.38446798773E+03  0.25500000920E-02 0.  1.
       -2   -1    0    0    0  501  0.00000000000E+00  0.00000000000E+00 -0.92787001073E+03  0.92787001074E+03  0.25500000920E-02 0. -1.
    10030    2    1    2    0    0  0.00000000000E+00  0.00000000000E+00 -0.54340202301E+03  0.13123379985E+04  0.11945481420E+04 0.  0.
        5    1    3    3  502    0 -0.20771221971E+03  0.39110960800E+03  0.16856894931E+03  0.47386566911E+03  0.46999998093E+01 0.  1.
       -5    1    3    3    0  502  0.20771221971E+03 -0.39110960800E+03 -0.71197097232E+03  0.83847232936E+03  0.46999998093E+01 0. -1.
</event>
<event>
 5   0  0.9358428E-04  0.1190263E+04  0.7818609E-02  0.9121422E-01
        1   -1    0    0  501    0  0.00000000000E+00  0.00000000000E+00  0.39618354569E+03  0.39618354572E+03  0.50400001928E-02 0. -1.
       -1   -1    0    0    0  501  0.00000000000E+00  0.00000000000E+00 -0.89398354793E+03  0.89398354795E+03  0.50400001928E-02 0.  1.
    10030    2    1    2    0    0  0.00000000000E+00  0.00000000000E+00 -0.49780000225E+03  0.12901670937E+04  0.11902631169E+04 0.  0.
        2    1    3    3  502    0 -0.13719272820E+03  0.52479947103E+03  0.16487426480E+02  0.54268606460E+03  0.25500000920E-02 0.  1.
       -2    1    3    3    0  502  0.13719272820E+03 -0.52479947103E+03 -0.51428742873E+03  0.74748102907E+03  0.25500000920E-02 0. -1.
</event>
<event>
 5   0  0.1537557E-03  0.1205545E+04  0.7818609E-02  0.9108017E-01
       -2   -1    0    0    0  501  0.00000000000E+00  0.00000000000E+00  0.19723436894E+03  0.19723436896E+03  0.25500000920E-02 0. -1.
        2   -1    0    0  501    0  0.00000000000E+00  0.00000000000E+00 -0.18421468579E+04  0.18421468579E+04  0.25500000920E-02 0.  1.
    10030    2    1    2    0    0  0.00000000000E+00  0.00000000000E+00 -0.16449124890E+04  0.20393812269E+04  0.12055449772E+04 0.  0.
        2    1    3    3  502    0 -0.43068136126E+03  0.18738102967E+03 -0.14615766070E+04  0.15351886735E+04  0.25500000920E-02 0.  1.
       -2    1    3    3    0  502  0.43068136126E+03 -0.18738102967E+03 -0.18333588197E+03  0.50419255334E+03  0.25500000920E-02 0. -1.
</event>
<event>
 5   0  0.1647550E-03  0.1191952E+04  0.7818609E-02  0.9119930E-01
       -2   -1    0    0    0  501  0.00000000000E+00  0.00000000000E+00  0.29179583858E+03  0.29179583859E+03  0.25500000920E-02 0. -1.
        2   -1    0    0  501    0  0.00000000000E+00  0.00000000000E+00 -0.12172469504E+04  0.12172469504E+04  0.25500000920E-02 0.  1.
    10030    2    1    2    0    0  0.00000000000E+00  0.00000000000E+00 -0.92545111186E+03  0.15090427890E+04  0.11919523391E+04 0.  0.
        3    1    3    3  502    0  0.10513435736E+03  0.51784538638E+03 -0.81167714231E+03  0.96852303579E+03  0.10100000352E+00 0.  1.
       -3    1    3    3    0  502 -0.10513435736E+03 -0.51784538638E+03 -0.11377396954E+03  0.54051975324E+03  0.10100000352E+00 0. -1.
</event>
<event>
 5   0  0.9170776E-04  0.1200745E+04  0.7818609E-02  0.9112204E-01
        1   -1    0    0  501    0  0.00000000000E+00  0.00000000000E+00  0.55849608692E+03  0.55849608695E+03  0.50400001928E-02 0. -1.
       -1   -1    0    0    0  501  0.00000000000E+00  0.00000000000E+00 -0.64538923827E+03  0.64538923829E+03  0.50400001928E-02 0.  1.
    10030    2    1    2    0    0  0.00000000000E+00  0.00000000000E+00 -0.86893151348E+02  0.12038853252E+04  0.12007453754E+04 0.  0.
        5    1    3    3  502    0 -0.47136051082E+03 -0.26596708458E+03 -0.30394527290E+03  0.62074474638E+03  0.46999998093E+01 0.  1.
       -5    1    3    3    0  502  0.47136051082E+03  0.26596708458E+03  0.21705212155E+03  0.58314057886E+03  0.46999998093E+01 0. -1.
</event>
<event>
 5   0  0.9170776E-04  0.1206188E+04  0.7818609E-02  0.9107457E-01
        1   -1    0    0  501    0  0.00000000000E+00  0.00000000000E+00  0.10156690143E+04  0.10156690143E+04  0.50400001928E-02 0. -1.
       -1   -1    0    0    0  501  0.00000000000E+00  0.00000000000E+00 -0.35811141981E+03  0.35811141985E+03  0.50400001928E-02 0.  1.
    10030    2    1    2    0    0  0.00000000000E+00  0.00000000000E+00  0.65755759452E+03  0.13737804342E+04  0.12061884974E+04 0.  0.
        5    1    3    3  502    0 -0.30405727005E+03  0.28287420650E+03  0.82683959813E+03  0.92528614558E+03  0.46999998093E+01 0. -1.
       -5    1    3    3    0  502  0.30405727005E+03 -0.28287420650E+03 -0.16928200361E+03  0.44849428861E+03  0.46999998093E+01 0.  1.
</event>
<event>
 5   0  0.1597352E-03  0.1213415E+04  0.7818609E-02  0.9101194E-01
       -2   -1    0    0    0  501  0.00000000000E+00  0.00000000000E+00  0.40880843351E+03  0.40880843352E+03  0.25500000920E-02 0.  1.
        2   -1    0    0  501    0  0.00000000000E+00  0.00000000000E+00 -0.90040759982E+03  0.90040759983E+03  0.25500000920E-02 0. -1.
    10030    2    1    2    0    0  0.00000000000E+00  0.00000000000E+00 -0.49159916631E+03  0.13092160333E+04  0.12134153789E+04 0.  0.
        1    1    3    3  502    0  0.57778844903E+03 -0.18449631759E+03 -0.26165089182E+03  0.66056004440E+03  0.50400001928E-02 0.  1.
       -1    1    3    3    0  502 -0.57778844903E+03  0.18449631759E+03 -0.22994827449E+03  0.64865598895E+03  0.50400001928E-02 0. -1.
</event>
<event>
 5   0  0.8908478E-04  0.1134343E+04  0.7818609E-02  0.9172350E-01
        1   -1    0    0  501    0  0.00000000000E+00  0.00000000000E+00  0.12876571685E+04  0.12876571685E+04  0.50400001928E-02 0. -1.
       -1   -1    0    0    0  501  0.00000000000E+00  0.00000000000E+00 -0.24982087757E+03  0.24982087762E+03  0.50400001928E-02 0.  1.
    10030    2    1    2    0    0  0.00000000000E+00  0.00000000000E+00  0.10378362910E+04  0.15374780462E+04  0.11343432354E+04 0.  0.
        4    1    3    3  502    0  0.54565766941E+03 -0.14606067393E+03  0.44972657767E+03  0.72203297724E+03  0.12699999809E+01 0.  1.
       -4    1    3    3    0  502 -0.54565766941E+03  0.14606067393E+03  0.58810971331E+03  0.81544506893E+03  0.12699999809E+01 0. -1.
</event>
<event>
 5   0  0.9358428E-04  0.1196315E+04  0.7818609E-02  0.9116088E-01
        1   -1    0    0  501    0  0.00000000000E+00  0.00000000000E+00  0.57114413502E+03  0.57114413505E+03  0.50400001928E-02 0.  1.
       -1   -1    0    0    0  501  0.00000000000E+00  0.00000000000E+00 -0.62644830989E+03  0.62644830991E+03  0.50400001928E-02 0. -1.
    10030    2    1    2    0    0  0.00000000000E+00  0.00000000000E+00 -0.55304174866E+02  0.11975924450E+04  0.11963148049E+04 0.  0.
        2    1    3    3  502    0  0.50064695331E+03 -0.32400421637E+03  0.18939793302E+02  0.59664463449E+03  0.25500000920E-02 0.  1.
       -2    1    3    3    0  502 -0.50064695331E+03  0.32400421637E+03 -0.74243968169E+02  0.60094781047E+03  0.25500000920E-02 0. -1.
</event>
<event>
 5   0  0.1551501E-03  0.1173060E+04  0.7818609E-02  0.9136770E-01
        2   -1    0    0  501    0  0.00000000000E+00  0.00000000000E+00  0.10359435644E+04  0.10359435644E+04  0.25500000920E-02 0.  1.
       -2   -1    0    0    0  501  0.00000000000E+00  0.00000000000E+00 -0.33208112952E+03  0.33208112953E+03  0.25500000920E-02 0. -1.
    10030    2    1    2    0    0  0.00000000000E+00  0.00000000000E+00  0.70386243488E+03  0.13680246939E+04  0.11730597751E+04 0.  0.
        4    1    3    3  502    0  0.27981419840E+03 -0.45990452498E+03  0.62345235026E+03  0.82371269486E+03  0.12699999809E+01 0.  1.
       -4    1    3    3    0  502 -0.27981419840E+03  0.45990452498E+03  0.80410084620E+02  0.54431199907E+03  0.12699999809E+01 0. -1.
</event>
<event>
 5   0  0.1537557E-03  0.1201406E+04  0.7818609E-02  0.9111627E-01
       -2   -1    0    0    0  501  0.00000000000E+00  0.00000000000E+00  0.24819420254E+03  0.24819420255E+03  0.25500000920E-02 0.  1.
        2   -1    0    0  501    0  0.00000000000E+00  0.00000000000E+00 -0.14538774918E+04  0.14538774918E+04  0.25500000920E-02 0. -1.
    10030    2    1    2    0    0  0.00000000000E+00  0.00000000000E+00 -0.12056832892E+04  0.17020716943E+04  0.12014057844E+04 0.  0.
        2    1    3    3  502    0  0.99287208648E+02  0.66980984427E+02 -0.14367906137E+04  0.14417737929E+04  0.25500000920E-02 0. -1.
       -2    1    3    3    0  502 -0.99287208648E+02 -0.66980984427E+02  0.23110732448E+03  0.26029790148E+03  0.25500000920E-02 0.  1.
</event>
<event>
 5   0  0.1647550E-03  0.1196837E+04  0.7818609E-02  0.9115629E-01
        2   -1    0    0  501    0  0.00000000000E+00  0.00000000000E+00  0.11308589978E+04  0.11308589978E+04  0.25500000920E-02 0. -1.
       -2   -1    0    0    0  501  0.00000000000E+00  0.00000000000E+00 -0.31666621560E+03  0.31666621561E+03  0.25500000920E-02 0.  1.
    10030    2    1    2    0    0  0.00000000000E+00  0.00000000000E+00  0.81419278218E+03  0.14475252134E+04  0.11968372307E+04 0.  0.
        3    1    3    3  502    0 -0.13296328679E+03  0.57615165378E+03  0.51843798825E+03  0.78638916679E+03  0.10100000352E+00 0.  1.
       -3    1    3    3    0  502  0.13296328679E+03 -0.57615165378E+03  0.29575479393E+03  0.66113604661E+03  0.10100000352E+00 0. -1.
</event>
<event>
 5   0  0.6137750E-04  0.1193556E+04  0.7818609E-02  0.9118516E-01
        4   -1    0    0  501    0  0.00000000000E+00  0.00000000000E+00  0.63849592031E+03  0.63849718336E+03  0.12699999809E+01 0. -1.
       -4   -1    0    0    0  501  0.00000000000E+00  0.00000000000E+00 -0.55778325179E+03  0.55778469760E+03  0.12699999809E+01 0.  1.
    10030    2    1    2    0    0  0.00000000000E+00  0.00000000000E+00  0.80712668519E+02  0.11962818810E+04  0.11935559492E+04 0.  0.
        2    1    3    3  502    0  0.17503366412E+02 -0.54282670304E+03  0.28826057530E+03  0.61486694223E+03  0.25500000920E-02 0. -1.
       -2    1    3    3    0  502 -0.17503366412E+02  0.54282670304E+03 -0.20754790678E+03  0.58141493873E+03  0.25500000920E-02 0.  1.
</event>
<event>
 5   0  0.1551501E-03  0.1201107E+04  0.7818609E-02  0.9111888E-01
       -2   -1    0    0    0  501  0.00000000000E+00  0.00000000000E+00  0.40625159523E+03  0.40625159524E+03  0.25500000920E-02 0.  1.
        2   -1    0    0  501    0  0.00000000000E+00  0.00000000000E+00 -0.88778550722E+03  0.88778550723E+03  0.25500000920E-02 0. -1.
    10030    2    1    2    0    0  0.00000000000E+00  0.00000000000E+00 -0.48153391199E+03  0.12940371025E+04  0.12011066206E+04 0.  0.
        4    1    3    3  502    0  0.26968640545E+03  0.51676277404E+03 -0.85057462796E+02  0.58907631662E+03  0.12699999809E+01 0.  1.
       -4    1    3    3    0  502 -0.26968640545E+03 -0.51676277404E+03 -0.39647644919E+03  0.70496078585E+03  0.12699999809E+01 0. -1.
</event>
<event>
 5   0  0.1647550E-03  0.1195403E+04  0.7818609E-02  0.9116889E-01
        2   -1    0    0  501    0  0.00000000000E+00  0.00000000000E+00  0.14215481458E+04  0.14215481458E+04  0.25500000920E-02 0.  1.
       -2   -1    0    0    0  501  0.00000000000E+00  0.00000000000E+00 -0.25130863405E+03  0.25130863406E+03  0.25500000920E-02 0. -1.
    10030    2    1    2    0    0  0.00000000000E+00  0.00000000000E+00  0.11702395117E+04  0.16728567798E+04  0.11954034010E+04 0.  0.
        3    1    3    3  502    0 -0.30912451557E+03  0.50965862928E+03  0.52352311015E+03  0.79333873067E+03  0.10100000352E+00 0.  1.
       -3    1    3    3    0  502  0.30912451557E+03 -0.50965862928E+03  0.64671640156E+03  0.87951804915E+03  0.10100000352E+00 0. -1.
</event>
<event>
 5   0  0.9208078E-04  0.1200315E+04  0.7818609E-02  0.9112581E-01
        1   -1    0    0  501    0  0.00000000000E+00  0.00000000000E+00  0.94967453296E+03  0.94967453298E+03  0.50400001928E-02 0.  1.
       -1   -1    0    0    0  501  0.00000000000E+00  0.00000000000E+00 -0.37927649419E+03  0.37927649423E+03  0.50400001928E-02 0. -1.
    10030    2    1    2    0    0  0.00000000000E+00  0.00000000000E+00  0.57039803877E+03  0.13289510272E+04  0.12003153378E+04 0.  0.
        3    1    3    3  502    0 -0.43307022317E+03 -0.29651036814E+03 -0.37063026613E+02  0.52615767100E+03  0.10100000352E+00 0. -1.
       -3    1    3    3    0  502  0.43307022317E+03  0.29651036814E+03  0.60746106538E+03  0.80279335620E+03  0.10100000352E+00 0.  1.
</event>
<event>
 5   0  0.1597352E-03  0.1197805E+04  0.7818609E-02  0.9114780E-01
        2   -1    0    0  501    0  0.00000000000E+00  0.00000000000E+00  0.14872193434E+04  0.14872193434E+04  0.25500000920E-02 0.  1.
       -2   -1    0    0    0  501  0.00000000000E+00  0.00000000000E+00 -0.24117764131E+03  0.24117764133E+03  0.25500000920E-02 0. -1.
    10030    2    1    2    0    0  0.00000000000E+00  0.00000000000E+00  0.12460417021E+04  0.17283969848E+04  0.11978047477E+04 0.  0.
        1    1    3    3  502    0 -0.28049180325E+03  0.29599858459E+03  0.12559460308E+04  0.13204890178E+04  0.50400001928E-02 0.  1.
       -1    1    3    3    0  502  0.28049180325E+03 -0.29599858459E+03 -0.99043286919E+01  0.40790796697E+03  0.50400001928E-02 0. -1.
</event>
<event>
 5   0  0.9358428E-04  0.1195848E+04  0.7818609E-02  0.9116499E-01
        1   -1    0    0  501    0  0.00000000000E+00  0.00000000000E+00  0.10928769265E+04  0.10928769265E+04  0.50400001928E-02 0. -1.
       -1   -1    0    0    0  501  0.00000000000E+00  0.00000000000E+00 -0.32713020436E+03  0.32713020439E+03  0.50400001928E-02 0.  1.
    10030    2    1    2    0    0  0.00000000000E+00  0.00000000000E+00  0.76574672209E+03  0.14200071309E+04  0.11958479039E+04 0.  0.
        2    1    3    3  502    0 -0.15488353406E+03 -0.27226427051E+03  0.98765204516E+03  0.10361338255E+04  0.25500000920E-02 0. -1.
       -2    1    3    3    0  502  0.15488353406E+03  0.27226427051E+03 -0.22190532307E+03  0.38387330531E+03  0.25500000920E-02 0.  1.
</event>
<event>
 5   0  0.9169078E-04  0.1202889E+04  0.7818609E-02  0.9110332E-01
        1   -1    0    0  501    0  0.00000000000E+00  0.00000000000E+00  0.11377751296E+04  0.11377751296E+04  0.50400001928E-02 0. -1.
       -1   -1    0    0    0  501  0.00000000000E+00  0.00000000000E+00 -0.31793225498E+03  0.31793225502E+03  0.50400001928E-02 0.  1.
    10030    2    1    2    0    0  0.00000000000E+00  0.00000000000E+00  0.81984287464E+03  0.14557073846E+04  0.12028888771E+04 0.  0.
        1    1    3    3  502    0 -0.14251922574E+03 -0.27679420625E+03  0.10326727619E+04  0.10785823082E+04  0.50400001928E-02 0. -1.
       -1    1    3    3    0  502  0.14251922574E+03  0.27679420625E+03 -0.21282988730E+03  0.37712507643E+03  0.50400001928E-02 0.  1.
</event>
<event>
 5   0  0.1551501E-03  0.1197036E+04  0.7818609E-02  0.9115455E-01
       -2   -1    0    0    0  501  0.00000000000E+00  0.00000000000E+00  0.27354475719E+03  0.27354475720E+03  0.25500000920E-02 0. -1.
        2   -1    0    0  501    0  0.00000000000E+00  0.00000000000E+00 -0.13095616585E+04  0.13095616585E+04  0.25500000920E-02 0.  1.
    10030    2    1    2    0    0  0.00000000000E+00  0.00000000000E+00 -0.10360169013E+04  0.15831064157E+04  0.11970358823E+04 0.  0.
        4    1    3    3  502    0  0.45981741245E+03  0.19195653815E+03 -0.95652524755E+03  0.10785274811E+04  0.12699999809E+01 0.  1.
       -4    1    3    3    0  502 -0.45981741245E+03 -0.19195653815E+03 -0.79491653721E+02  0.50457893459E+03  0.12699999809E+01 0. -1.
</event>
<event>
 5   0  0.1551501E-03  0.1209770E+04  0.7818609E-02  0.9104348E-01
       -2   -1    0    0    0  501  0.00000000000E+00  0.00000000000E+00  0.36534120156E+03  0.36534120157E+03  0.25500000920E-02 0.  1.
        2   -1    0    0  501    0  0.00000000000E+00  0.00000000000E+00 -0.10014903669E+04  0.10014903669E+04  0.25500000920E-02 0. -1.
    10030    2    1    2    0    0  0.00000000000E+00  0.00000000000E+00 -0.63614916530E+03  0.13668315684E+04  0.12097697202E+04 0.  0.
        4    1    3    3  502    0 -0.54955458211E+03 -0.27435893389E+02 -0.34217576146E+02  0.55130338506E+03  0.12699999809E+01 0.  1.
       -4    1    3    3    0  502  0.54955458211E+03  0.27435893389E+02 -0.60193158915E+03  0.81552818337E+03  0.12699999809E+01 0. -1.
</event>
<event>
 5   0  0.1551501E-03  0.1197320E+04  0.7818609E-02  0.9115206E-01
        2   -1    0    0  501    0  0.00000000000E+00  0.00000000000E+00  0.14423728890E+04  0.14423728890E+04  0.25500000920E-02 0.  1.
       -2   -1    0    0    0  501  0.00000000000E+00  0.00000000000E+00 -0.24847509318E+03  0.24847509320E+03  0.25500000920E-02 0. -1.
    10030    2    1    2    0    0  0.00000000000E+00  0.00000000000E+00  0.11938977958E+04  0.16908479822E+04  0.11973199038E+04 0.  0.
        4    1    3    3  502    0 -0.44592263851E+02  0.48387898332E+03  0.10907420411E+04  0.11940884195E+04  0.12699999809E+01 0.  1.
       -4    1    3    3    0  502  0.44592263851E+02 -0.48387898332E+03  0.10315575473E+03  0.49675956270E+03  0.12699999809E+01 0. -1.
</event>
<event>
 5   0  0.6137750E-04  0.1202554E+04  0.7818609E-02  0.9110624E-01
        3   -1    0    0  501    0  0.00000000000E+00  0.00000000000E+00  0.13818136728E+04  0.13818136765E+04  0.10100000352E+00 0. -1.
       -3   -1    0    0    0  501  0.00000000000E+00  0.00000000000E+00 -0.26163750173E+03  0.26163752123E+03  0.10100000352E+00 0.  1.
    10030    2    1    2    0    0  0.00000000000E+00  0.00000000000E+00  0.11201761711E+04  0.16434511978E+04  0.12025544416E+04 0.  0.
        4    1    3    3  502    0 -0.22044040780E+03 -0.52813212873E+03  0.30803712672E+03  0.64992769069E+03  0.12699999809E+01 0.  1.
       -4    1    3    3    0  502  0.22044040780E+03  0.52813212873E+03  0.81213904439E+03  0.99352350708E+03  0.12699999809E+01 0. -1.
</event>
<event>
 5   0  0.9169078E-04  0.1208283E+04  0.7818609E-02  0.9105637E-01
        1   -1    0    0  501    0  0.00000000000E+00  0.00000000000E+00  0.57591128214E+03  0.57591128217E+03  0.50400001928E-02 0.  1.
       -1   -1    0    0    0  501  0.00000000000E+00  0.00000000000E+00 -0.63375533752E+03  0.63375533754E+03  0.50400001928E-02 0. -1.
    10030    2    1    2    0    0  0.00000000000E+00  0.00000000000E+00 -0.57844055374E+02  0.12096666197E+04  0.12082828295E+04 0.  0.
        1    1    3    3  502    0 -0.54681580237E+03  0.23409761470E+03 -0.13476743940E+03  0.60989464473E+03  0.50400001928E-02 0. -1.
       -1    1    3    3    0  502  0.54681580237E+03 -0.23409761470E+03  0.76923384024E+02  0.59977197497E+03  0.50400001928E-02 0.  1.
</event>
<event>
 5   0  0.6137750E-04  0.1195662E+04  0.7818609E-02  0.9116662E-01
       -3   -1    0    0    0  501  0.00000000000E+00  0.00000000000E+00  0.35698820039E+03  0.35698821468E+03  0.10100000352E+00 0. -1.
        3   -1    0    0  501    0  0.00000000000E+00  0.00000000000E+00 -0.10011592574E+04  0.10011592625E+04  0.10100000352E+00 0.  1.
    10030    2    1    2    0    0  0.00000000000E+00  0.00000000000E+00 -0.64417105698E+03  0.13581474771E+04  0.11956622512E+04 0.  0.
        1    1    3    3  502    0 -0.28671978142E+03 -0.51724433949E+03 -0.42144954891E+03  0.72620221846E+03  0.50400001928E-02 0. -1.
       -1    1    3    3    0  502  0.28671978142E+03  0.51724433949E+03 -0.22272150807E+03  0.63194525868E+03  0.50400001928E-02 0.  1.
</event>
<event>
 5   0  0.1647550E-03  0.1190374E+04  0.7818609E-02  0.9121324E-01
        2   -1    0    0  501    0  0.00000000000E+00  0.00000000000E+00  0.93876834181E+03  0.93876834181E+03  0.25500000920E-02 0.  1.
       -2   -1    0    0    0  501  0.00000000000E+00  0.00000000000E+00 -0.37735386092E+03  0.37735386093E+03  0.25500000920E-02 0. -1.
    10030    2    1    2    0    0  0.00000000000E+00  0.00000000000E+00  0.56141448089E+03  0.13161222027E+04  0.11903744928E+04 0.  0.
        3    1    3    3  502    0  0.24949184154E+03 -0.40315696934E+03  0.67853096743E+03  0.82775962990E+03  0.10100000352E+00 0. -1.
       -3    1    3    3    0  502 -0.24949184154E+03  0.40315696934E+03 -0.11711648654E+03  0.48836257284E+03  0.10100000352E+00 0.  1.
</event>
<event>
 5   0  0.6137750E-04  0.1201882E+04  0.7818609E-02  0.9111211E-01
        3   -1    0    0  501    0  0.00000000000E+00  0.00000000000E+00  0.28491321474E+03  0.28491323265E+03  0.10100000352E+00 0.  1.
       -3   -1    0    0    0  501  0.00000000000E+00  0.00000000000E+00 -0.12675088478E+04  0.12675088518E+04  0.10100000352E+00 0. -1.
    10030    2    1    2    0    0  0.00000000000E+00  0.00000000000E+00 -0.98259563305E+03  0.15524220845E+04  0.12018819203E+04 0.  0.
        5    1    3    3  502    0 -0.25143125637E+03  0.45802026667E+03 -0.87470033171E+03  0.10188832130E+04  0.46999998093E+01 0. -1.
       -5    1    3    3    0  502  0.25143125637E+03 -0.45802026667E+03 -0.10789530134E+03  0.53353887151E+03  0.46999998093E+01 0.  1.
</event>
<event>
 5   0  0.1597352E-03  0.1193396E+04  0.7818609E-02  0.9118657E-01
       -2   -1    0    0    0  501  0.00000000000E+00  0.00000000000E+00  0.32009562704E+03  0.32009562705E+03  0.25500000920E-02 0.  1.
        2   -1    0    0  501    0  0.00000000000E+00  0.00000000000E+00 -0.11123194536E+04  0.11123194536E+04  0.25500000920E-02 0. -1.
    10030    2    1    2    0    0  0.00000000000E+00  0.00000000000E+00 -0.79222382657E+03  0.14324150807E+04  0.11933961505E+04 0.  0.
        1    1    3    3  502    0 -0.36823507080E+03  0.73198063517E+02 -0.95278210306E+03  0.10240843519E+04  0.50400001928E-02 0. -1.
       -1    1    3    3    0  502  0.36823507080E+03 -0.73198063517E+02  0.16055827650E+03  0.40833072876E+03  0.50400001928E-02 0.  1.
</event>
<event>
 5   0  0.6137750E-04  0.1194071E+04  0.7818609E-02  0.9118062E-01
        4   -1    0    0  501    0  0.00000000000E+00  0.00000000000E+00  0.75593272375E+03  0.75593379058E+03  0.12699999809E+01 0.  1.
       -4   -1    0    0    0  501  0.00000000000E+00  0.00000000000E+00 -0.47153628005E+03  0.47153799031E+03  0.12699999809E+01 0. -1.
    10030    2    1    2    0    0  0.00000000000E+00  0.00000000000E+00  0.28439644370E+03  0.12274717809E+04  0.11940710346E+04 0.  0.
        4    1    3    3  502    0  0.27395305190E+03 -0.51318286660E+03  0.41171579051E+01  0.58174349425E+03  0.12699999809E+01 0. -1.
       -4    1    3    3    0  502 -0.27395305190E+03  0.51318286660E+03  0.28027928579E+03  0.64572828663E+03  0.12699999809E+01 0.  1.
</event>
<event>
 5   0  0.9169078E-04  0.1202046E+04  0.7818609E-02  0.9111068E-01
       -1   -1    0    0    0  501  0.00000000000E+00  0.00000000000E+00  0.49970766425E+03  0.49970766428E+03  0.50400001928E-02 0. -1.
        1   -1    0    0  501    0  0.00000000000E+00  0.00000000000E+00 -0.72287962666E+03  0.72287962668E+03  0.50400001928E-02 0.  1.
    10030    2    1    2    0    0  0.00000000000E+00  0.00000000000E+00 -0.22317196240E+03  0.12225872910E+04  0.12020457392E+04 0.  0.
        1    1    3    3  502    0 -0.49838241159E+02  0.23107111535E+03 -0.67361456003E+03  0.71388674602E+03  0.50400001928E-02 0.  1.
       -1    1    3    3    0  502  0.49838241159E+02 -0.23107111535E+03  0.45044259763E+03  0.50870054493E+03  0.50400001928E-02 0. -1.
</event>
<event>
 5   0  0.9358428E-04  0.1190628E+04  0.7818609E-02  0.9121100E-01
        1   -1    0    0  501    0  0.00000000000E+00  0.00000000000E+00  0.23409619749E+03  0.23409619754E+03  0.50400001928E-02 0. -1.
       -1   -1    0    0    0  501  0.00000000000E+00  0.00000000000E+00 -0.15139023863E+04  0.15139023863E+04  0.50400001928E-02 0.  1.
    10030    2    1    2    0    0  0.00000000000E+00  0.00000000000E+00 -0.12798061888E+04  0.17479985839E+04  0.11906280562E+04 0.  0.
        2    1    3    3  502    0 -0.14863905015E+03  0.30480260454E+03 -0.13582390066E+04  0.13999326391E+04  0.25500000920E-02 0.  1.
       -2    1    3    3    0  502  0.14863905015E+03 -0.30480260454E+03  0.78432817808E+02  0.34806594473E+03  0.25500000920E-02 0. -1.
</event>
<event>
 5   0  0.1647550E-03  0.1194093E+04  0.7818609E-02  0.9118042E-01
        2   -1    0    0  501    0  0.00000000000E+00  0.00000000000E+00  0.66403404710E+03  0.66403404711E+03  0.25500000920E-02 0. -1.
       -2   -1    0    0    0  501  0.00000000000E+00  0.00000000000E+00 -0.53681687466E+03  0.53681687466E+03  0.25500000920E-02 0.  1.
    10030    2    1    2    0    0  0.00000000000E+00  0.00000000000E+00  0.12721717245E+03  0.12008509218E+04  0.11940932658E+04 0.  0.
        3    1    3    3  502    0 -0.42251823968E+03  0.31842237531E+03  0.34185143462E+03  0.62990228252E+03  0.10100000352E+00 0. -1.
       -3    1    3    3    0  502  0.42251823968E+03 -0.31842237531E+03 -0.21463426218E+03  0.57094863925E+03  0.10100000352E+00 0.  1.
</event>
<event>
 5   0  0.9358428E-04  0.1194575E+04  0.7818609E-02  0.9117618E-01
       -1   -1    0    0    0  501  0.00000000000E+00  0.00000000000E+00  0.93701171822E+03  0.93701171823E+03  0.50400001928E-02 0.  1.
        1   -1    0    0  501    0  0.00000000000E+00  0.00000000000E+00 -0.38073416499E+03  0.38073416503E+03  0.50400001928E-02 0. -1.
    10030    2    1    2    0    0  0.00000000000E+00  0.00000000000E+00  0.55627755322E+03  0.13177458833E+04  0.11945750276E+04 0.  0.
        2    1    3    3  502    0 -0.25536147498E+03  0.21329464536E+03 -0.26903894665E+03  0.42788554949E+03  0.25500000920E-02 0. -1.
       -2    1    3    3    0  502  0.25536147498E+03 -0.21329464536E+03  0.82531649988E+03  0.88986033377E+03  0.25500000920E-02 0.  1.
</event>
<event>
 5   0  0.1537557E-03  0.1200209E+04  0.7818609E-02  0.9112674E-01
        2   -1    0    0  501    0  0.00000000000E+00  0.00000000000E+00  0.97411715066E+03  0.97411715066E+03  0.25500000920E-02 0.  1.
       -2   -1    0    0    0  501  0.00000000000E+00  0.00000000000E+00 -0.36969396008E+03  0.36969396009E+03  0.25500000920E-02 0. -1.
    10030    2    1    2    0    0  0.00000000000E+00  0.00000000000E+00  0.60442319057E+03  0.13438111108E+04  0.12002086936E+04 0.  0.
        2    1    3    3  502    0  0.48124402709E+03 -0.49627579515E+02 -0.95328864827E+02  0.49309867444E+03  0.25500000920E-02 0.  1.
       -2    1    3    3    0  502 -0.48124402709E+03  0.49627579515E+02  0.69975205540E+03  0.85071243632E+03  0.25500000920E-02 0. -1.
</event>
<event>
 5   0  0.9208078E-04  0.1187713E+04  0.7818609E-02  0.9123679E-01
       -1   -1    0    0    0  501  0.00000000000E+00  0.00000000000E+00  0.88463083183E+03  0.88463083185E+03  0.50400001928E-02 0. -1.
        1   -1    0    0  501    0  0.00000000000E+00  0.00000000000E+00 -0.39865870293E+03  0.39865870296E+03  0.50400001928E-02 0.  1.
    10030    2    1    2    0    0  0.00000000000E+00  0.00000000000E+00  0.48597212891E+03  0.12832895348E+04  0.11877133998E+04 0.  0.
        3    1    3    3  502    0  0.74497012679E+02 -0.53479142739E+03 -0.24119961389E+02  0.54049371731E+03  0.10100000352E+00 0.  1.
       -3    1    3    3    0  502 -0.74497012679E+02  0.53479142739E+03  0.51009209029E+03  0.74279581750E+03  0.10100000352E+00 0. -1.
</event>
<event>
 5   0  0.9169078E-04  0.1185984E+04  0.7818609E-02  0.9125213E-01
       -1   -1    0    0    0  501  0.00000000000E+00  0.00000000000E+00  0.42726002292E+03  0.42726002295E+03  0.50400001928E-02 0. -1.
        1   -1    0    0  501    0  0.00000000000E+00  0.00000000000E+00 -0.82301122740E+03  0.82301122741E+03  0.50400001928E-02 0.  1.
    10030    2    1    2    0    0  0.00000000000E+00  0.00000000000E+00 -0.39575120447E+03  0.12502712504E+04  0.11859844787E+04 0.  0.
        1    1    3    3  502    0  0.57268753339E+02  0.51923331299E+03 -0.49372413177E+03  0.71878123358E+03  0.50400001928E-02 0.  1.
       -1    1    3    3    0  502 -0.57268753339E+02 -0.51923331299E+03  0.97972927304E+02  0.53149001678E+03  0.50400001928E-02 0. -1.
</event>
<event>
 5   0  0.1551501E-03  0.1199272E+04  0.7818609E-02  0.9113494E-01
       -2   -1    0    0    0  501  0.00000000000E+00  0.00000000000E+00  0.74730506604E+03  0.74730506604E+03  0.25500000920E-02 0. -1.
        2   -1    0    0  501    0  0.00000000000E+00  0.00000000000E+00 -0.48114633476E+03  0.48114633477E+03  0.25500000920E-02 0.  1.
    10030    2    1    2    0    0  0.00000000000E+00  0.00000000000E+00  0.26615873128E+03  0.12284514008E+04  0.11992716014E+04 0.  0.
        4    1    3    3  502    0  0.43997765409E+03 -0.22221334486E+03  0.48285868326E+03  0.69000958517E+03  0.12699999809E+01 0. -1.
       -4    1    3    3    0  502 -0.43997765409E+03  0.22221334486E+03 -0.21669995198E+03  0.53844181563E+03  0.12699999809E+01 0.  1.
</event>
<event>
 5   0  0.1567019E-03  0.1197689E+04  0.7818609E-02  0.9114882E-01
        2   -1    0    0  501    0  0.00000000000E+00  0.00000000000E+00  0.24460872262E+04  0.24460872262E+04  0.25500000920E-02 0.  1.
       -2   -1    0    0    0  501  0.00000000000E+00  0.00000000000E+00 -0.14660748606E+03  0.14660748608E+03  0.25500000920E-02 0. -1.
    10030    2    1    2    0    0  0.00000000000E+00  0.00000000000E+00  0.22994797402E+04  0.25926947123E+04  0.11976889395E+04 0.  0.
        5    1    3    3  502    0 -0.37766609791E+03 -0.11322099112E+03  0.17406047125E+03  0.43101022260E+03  0.46999998093E+01 0. -1.
       -5    1    3    3    0  502  0.37766609791E+03  0.11322099112E+03  0.21254192689E+04  0.21616844897E+04  0.46999998093E+01 0.  1.
</event>
<event>
 5   0  0.9358428E-04  0.1205155E+04  0.7818609E-02  0.9108356E-01
       -1   -1    0    0    0  501  0.00000000000E+00  0.00000000000E+00  0.26905928980E+03  0.26905928985E+03  0.50400001928E-02 0. -1.
        1   -1    0    0  501    0  0.00000000000E+00  0.00000000000E+00 -0.13495151747E+04  0.13495151747E+04  0.50400001928E-02 0.  1.
    10030    2    1    2    0    0  0.00000000000E+00  0.00000000000E+00 -0.10804558849E+04  0.16185744646E+04  0.12051549187E+04 0.  0.
        2    1    3    3  502    0 -0.22820990058E+03  0.55737602548E+03 -0.56541856932E+03  0.82610286953E+03  0.25500000920E-02 0. -1.
       -2    1    3    3    0  502  0.22820990058E+03 -0.55737602548E+03 -0.51503731559E+03  0.79247159505E+03  0.25500000920E-02 0.  1.
</event>
<event>
 5   0  0.9358428E-04  0.1192786E+04  0.7818609E-02  0.9119195E-01
        1   -1    0    0  501    0  0.00000000000E+00  0.00000000000E+00  0.74156713915E+03  0.74156713916E+03  0.50400001928E-02 0. -1.
       -1   -1    0    0    0  501  0.00000000000E+00  0.00000000000E+00 -0.47963872352E+03  0.47963872355E+03  0.50400001928E-02 0.  1.
    10030    2    1    2    0    0  0.00000000000E+00  0.00000000000E+00  0.26192841563E+03  0.12212058627E+04  0.11927855064E+04 0.  0.
        2    1    3    3  502    0 -0.31442362507E+03  0.41186562904E+03 -0.17134883641E+03  0.54576179431E+03  0.25500000920E-02 0.  1.
       -2    1    3    3    0  502  0.31442362507E+03 -0.41186562904E+03  0.43327725204E+03  0.67544406839E+03  0.25500000920E-02 0. -1.
</event>
<event>
 5   0  0.9169078E-04  0.1193276E+04  0.7818609E-02  0.9118763E-01
        1   -1    0    0  501    0  0.00000000000E+00  0.00000000000E+00  0.12452186719E+04  0.12452186719E+04  0.50400001928E-02 0. -1.
       -1   -1    0    0    0  501  0.00000000000E+00  0.00000000000E+00 -0.28587488187E+03  0.28587488191E+03  0.50400001928E-02 0.  1.
    10030    2    1    2    0    0  0.00000000000E+00  0.00000000000E+00  0.95934379004E+03  0.15310935538E+04  0.11932757280E+04 0.  0.
        1    1    3    3  502    0 -0.11749102177E+03  0.52550381341E+03  0.14999141804E+03  0.55897748042E+03  0.50400001928E-02 0.  1.
       -1    1    3    3    0  502  0.11749102177E+03 -0.52550381341E+03  0.80935237200E+03  0.97211607342E+03  0.50400001928E-02 0. -1.
</event>
<event>
 5   0  0.9170776E-04  0.1280347E+04  0.7818609E-02  0.9045297E-01
       -1   -1    0    0    0  501  0.00000000000E+00  0.00000000000E+00  0.48679763335E+03  0.48679763337E+03  0.50400001928E-02 0.  1.
        1   -1    0    0  501    0  0.00000000000E+00  0.00000000000E+00 -0.84187418022E+03  0.84187418024E+03  0.50400001928E-02 0. -1.
    10030    2    1    2    0    0  0.00000000000E+00  0.00000000000E+00 -0.35507654687E+03  0.13286718136E+04  0.12803473881E+04 0.  0.
        5    1    3    3  502    0 -0.38113792567E+03  0.49484879634E+03 -0.32036390569E+02  0.62545173270E+03  0.46999998093E+01 0. -1.
       -5    1    3    3    0  502  0.38113792567E+03 -0.49484879634E+03 -0.32304015630E+03  0.70322008091E+03  0.46999998093E+01 0.  1.
</event>
<event>
 5   0  0.9208078E-04  0.1200787E+04  0.7818609E-02  0.9112168E-01
       -1   -1    0    0    0  501  0.00000000000E+00  0.00000000000E+00  0.82020514255E+03  0.82020514256E+03  0.50400001928E-02 0. -1.
        1   -1    0    0  501    0  0.00000000000E+00  0.00000000000E+00 -0.43949072588E+03  0.43949072591E+03  0.50400001928E-02 0.  1.
    10030    2    1    2    0    0  0.00000000000E+00  0.00000000000E+00  0.38071441667E+03  0.12596958685E+04  0.12007873309E+04 0.  0.
        3    1    3    3  502    0 -0.38875955270E+03 -0.28816084005E+03 -0.18246735836E+03  0.51717019115E+03  0.10100000352E+00 0. -1.
       -3    1    3    3    0  502  0.38875955270E+03  0.28816084005E+03  0.56318177503E+03  0.74252567732E+03  0.10100000352E+00 0.  1.
</event>
<event>
 5   0  0.1597352E-03  0.1200331E+04  0.7818609E-02  0.9112567E-01
       -2   -1    0    0    0  501  0.00000000000E+00  0.00000000000E+00  0.11449863276E+04  0.11449863276E+04  0.25500000920E-02 0.  1.
        2   -1    0    0  501    0  0.00000000000E+00  0.00000000000E+00 -0.31458782229E+03  0.31458782230E+03  0.25500000920E-02 0. -1.
    10030    2    1    2    0    0  0.00000000000E+00  0.00000000000E+00  0.83039850527E+03  0.14595741499E+04  0.12003312132E+04 0.  0.
        1    1    3    3  502    0  0.22351454729E+03 -0.55513371163E+03  0.35992160362E+03  0.69833784905E+03  0.50400001928E-02 0. -1.
       -1    1    3    3    0  502 -0.22351454729E+03  0.55513371163E+03  0.47047690165E+03  0.76123630080E+03  0.50400001928E-02 0.  1.
</event>
<event>
 5   0  0.9208078E-04  0.1204074E+04  0.7818609E-02  0.9109298E-01
        1   -1    0    0  501    0  0.00000000000E+00  0.00000000000E+00  0.25361489012E+03  0.25361489017E+03  0.50400001928E-02 0. -1.
       -1   -1    0    0    0  501  0.00000000000E+00  0.00000000000E+00 -0.14291294811E+04  0.14291294811E+04  0.50400001928E-02 0.  1.
    10030    2    1    2    0    0  0.00000000000E+00  0.00000000000E+00 -0.11755145910E+04  0.16827443713E+04  0.12040739452E+04 0.  0.
        3    1    3    3  502    0 -0.35571456495E+01 -0.19483900235E+03 -0.13838335723E+04  0.13974871220E+04  0.10100000352E+00 0.  1.
       -3    1    3    3    0  502  0.35571456495E+01  0.19483900235E+03  0.20831898129E+03  0.28525724932E+03  0.10100000352E+00 0. -1.
</event>
<event>
 5   0  0.9169078E-04  0.1319360E+04  0.7818609E-02  0.9014352E-01
       -1   -1    0    0    0  501  0.00000000000E+00  0.00000000000E+00  0.45147498984E+03  0.45147498987E+03  0.50400001928E-02 0. -1.
        1   -1    0    0  501    0  0.00000000000E+00  0.00000000000E+00 -0.96390249048E+03  0.96390249049E+03  0.50400001928E-02 0.  1.
    10030    2    1    2    0    0  0.00000000000E+00  0.00000000000E+00 -0.51242750064E+03  0.14153774804E+04  0.13193602497E+04 0.  0.
        1    1    3    3  502    0 -0.29596279018E+03 -0.40534555159E+03 -0.71548059553E+03  0.87396308387E+03  0.50400001928E-02 0.  1.
       -1    1    3    3    0  502  0.29596279018E+03  0.40534555159E+03  0.20305309489E+03  0.54141439650E+03  0.50400001928E-02 0. -1.
</event>
<event>
 5   0  0.9169078E-04  0.1203513E+04  0.7818609E-02  0.9109787E-01
        1   -1    0    0  501    0  0.00000000000E+00  0.00000000000E+00  0.98976014898E+03  0.98976014900E+03  0.50400001928E-02 0. -1.
       -1   -1    0    0    0  501  0.00000000000E+00  0.00000000000E+00 -0.36585747680E+03  0.36585747684E+03  0.50400001928E-02 0.  1.
    10030    2    1    2    0    0  0.00000000000E+00  0.00000000000E+00  0.62390267218E+03  0.13556176258E+04  0.12035134412E+04 0.  0.
        1    1    3    3  502    0 -0.28845318110E+03  0.37301307266E+03  0.73305481890E+03  0.87161537251E+03  0.50400001928E-02 0. -1.
       -1    1    3    3    0  502  0.28845318110E+03 -0.37301307266E+03 -0.10915214672E+03  0.48400225332E+03  0.50400001928E-02 0.  1.
</event>
<event>
 5   0  0.9358428E-04  0.1196644E+04  0.7818609E-02  0.9115799E-01
       -1   -1    0    0    0  501  0.00000000000E+00  0.00000000000E+00  0.21721694287E+03  0.21721694293E+03  0.50400001928E-02 0. -1.
        1   -1    0    0  501    0  0.00000000000E+00  0.00000000000E+00 -0.16480729860E+04  0.16480729860E+04  0.50400001928E-02 0.  1.
    10030    2    1    2    0    0  0.00000000000E+00  0.00000000000E+00 -0.14308560431E+04  0.18652899289E+04  0.11966442674E+04 0.  0.
        2    1    3    3  502    0 -0.34915797720E+03 -0.34921037181E+03 -0.12420288860E+04  0.13365982682E+04  0.25500000920E-02 0.  1.
       -2    1    3    3    0  502  0.34915797720E+03  0.34921037181E+03 -0.18882715705E+03  0.52869166068E+03  0.25500000920E-02 0. -1.
</event>
<event>
 5   0  0.9208078E-04  0.1203601E+04  0.7818609E-02  0.9109710E-01
       -1   -1    0    0    0  501  0.00000000000E+00  0.00000000000E+00  0.36250736418E+03  0.36250736421E+03  0.50400001928E-02 0.  1.
        1   -1    0    0  501    0  0.00000000000E+00  0.00000000000E+00 -0.99905310357E+03  0.99905310358E+03  0.50400001928E-02 0. -1.
    10030    2    1    2    0    0  0.00000000000E+00  0.00000000000E+00 -0.63654573939E+03  0.13615604678E+04  0.12036014411E+04 0.  0.
        3    1    3    3  502    0 -0.14158481392E+03  0.70682705444E+02  0.33854906573E+03  0.37370815416E+03  0.10100000352E+00 0.  1.
       -3    1    3    3    0  502  0.14158481392E+03 -0.70682705444E+02 -0.97509480512E+03  0.98785231364E+03  0.10100000352E+00 0. -1.
</event>
<event>
 5   0  0.1597352E-03  0.1199525E+04  0.7818609E-02  0.9113272E-01
       -2   -1    0    0    0  501  0.00000000000E+00  0.00000000000E+00  0.42963516238E+03  0.42963516238E+03  0.25500000920E-02 0. -1.
        2   -1    0    0  501    0  0.00000000000E+00  0.00000000000E+00 -0.83725727156E+03  0.83725727156E+03  0.25500000920E-02 0.  1.
    10030    2    1    2    0    0  0.00000000000E+00  0.00000000000E+00 -0.40762210918E+03  0.12668924339E+04  0.11995251791E+04 0.  0.
        1    1    3    3  502    0 -0.11520319948E+03  0.53960356723E+03  0.44491115704E+02  0.55355509784E+03  0.50400001928E-02 0. -1.
       -1    1    3    3    0  502  0.11520319948E+03 -0.53960356723E+03 -0.45211322488E+03  0.71333733611E+03  0.50400001928E-02 0.  1.
</event>
<event>
 5   0  0.1647550E-03  0.1204208E+04  0.7818609E-02  0.9109181E-01
        2   -1    0    0  501    0  0.00000000000E+00  0.00000000000E+00  0.10878755701E+04  0.10878755701E+04  0.25500000920E-02 0. -1.
       -2   -1    0    0    0  501  0.00000000000E+00  0.00000000000E+00 -0.33324497396E+03  0.33324497397E+03  0.25500000920E-02 0.  1.
    10030    2    1    2    0    0  0.00000000000E+00  0.00000000000E+00  0.75463059611E+03  0.14211205441E+04  0.12042077330E+04 0.  0.
        3    1    3    3  502    0 -0.24133091615E+03 -0.69362998805E+02  0.10231351666E+04  0.10534977057E+04  0.10100000352E+00 0. -1.
       -3    1    3    3    0  502  0.24133091615E+03  0.69362998805E+02 -0.26850457047E+03  0.36762283832E+03  0.10100000352E+00 0.  1.
</event>
<event>
 5   0  0.9208078E-04  0.1190287E+04  0.7818609E-02  0.9121401E-01
       -1   -1    0    0    0  501  0.00000000000E+00  0.00000000000E+00  0.66556040184E+03  0.66556040186E+03  0.50400001928E-02 0. -1.
        1   -1    0    0  501    0  0.00000000000E+00  0.00000000000E+00 -0.53217649069E+03  0.53217649071E+03  0.50400001928E-02 0.  1.
    10030    2    1    2    0    0  0.00000000000E+00  0.00000000000E+00  0.13338391116E+03  0.11977368926E+04  0.11902866865E+04 0.  0.
        3    1    3    3  502    0 -0.12629147958E+03  0.57858047127E+03  0.72400956065E+01  0.59224769205E+03  0.10100000352E+00 0. -1.
       -3    1    3    3    0  502  0.12629147958E+03 -0.57858047127E+03  0.12614381555E+03  0.60548920053E+03  0.10100000352E+00 0.  1.
</event>
<event>
 5   0  0.1567019E-03  0.1214471E+04  0.7818609E-02  0.9100283E-01
        2   -1    0    0  501    0  0.00000000000E+00  0.00000000000E+00  0.88597601835E+03  0.88597601835E+03  0.25500000920E-02 0.  1.
       -2   -1    0    0    0  501  0.00000000000E+00  0.00000000000E+00 -0.41619075005E+03  0.41619075006E+03  0.25500000920E-02 0. -1.
    10030    2    1    2    0    0  0.00000000000E+00  0.00000000000E+00  0.46978526829E+03  0.13021667684E+04  0.12144711172E+04 0.  0.
        5    1    3    3  502    0  0.47074262258E+03  0.33502210444E+03  0.43512461883E+03  0.72332147147E+03  0.46999998093E+01 0.  1.
       -5    1    3    3    0  502 -0.47074262258E+03 -0.33502210444E+03  0.34660649466E+02  0.57884529694E+03  0.46999998093E+01 0. -1.
</event>
<event>
 5   0  0.8908478E-04  0.1220423E+04  0.7818609E-02  0.9095166E-01
       -1   -1    0    0    0  501  0.00000000000E+00  0.00000000000E+00  0.26397229250E+03  0.26397229255E+03  0.50400001928E-02 0.  1.
        1   -1    0    0  501    0  0.00000000000E+00  0.00000000000E+00 -0.14105952013E+04  0.14105952013E+04  0.50400001928E-02 0. -1.
    10030    2    1    2    0    0  0.00000000000E+00  0.00000000000E+00 -0.11466229088E+04  0.16745674938E+04  0.12204229580E+04 0.  0.
        4    1    3    3  502    0  0.29779167611E+02  0.21400416460E+03  0.20972575815E+03  0.30111640244E+03  0.12699999809E+01 0.  1.
       -4    1    3    3    0  502 -0.29779167611E+02 -0.21400416460E+03 -0.13563486669E+04  0.13734510914E+04  0.12699999809E+01 0. -1.
</event>
<event>
 5   0  0.9358428E-04  0.1218645E+04  0.7818609E-02  0.9096692E-01
       -1   -1    0    0    0  501  0.00000000000E+00  0.00000000000E+00  0.29983952660E+03  0.29983952664E+03  0.50400001928E-02 0. -1.
        1   -1    0    0  501    0  0.00000000000E+00  0.00000000000E+00 -0.12382417051E+04  0.12382417051E+04  0.50400001928E-02 0.  1.
    10030    2    1    2    0    0  0.00000000000E+00  0.00000000000E+00 -0.93840217846E+03  0.15380812317E+04  0.12186448321E+04 0.  0.
        2    1    3    3  502    0  0.42806075864E+03  0.42176550764E+03 -0.34203525538E+03  0.69145518470E+03  0.25500000920E-02 0.  1.
       -2    1    3    3    0  502 -0.42806075864E+03 -0.42176550764E+03 -0.59636692308E+03  0.84662604701E+03  0.25500000920E-02 0. -1.
</event>
<event>
 5   0  0.9169078E-04  0.1199422E+04  0.7818609E-02  0.9113362E-01
       -1   -1    0    0    0  501  0.00000000000E+00  0.00000000000E+00  0.65520516349E+03  0.65520516351E+03  0.50400001928E-02 0.  1.
        1   -1    0    0  501    0  0.00000000000E+00  0.00000000000E+00 -0.54891718437E+03  0.54891718439E+03  0.50400001928E-02 0. -1.
    10030    2    1    2    0    0  0.00000000000E+00  0.00000000000E+00  0.10628797913E+03  0.12041223479E+04  0.11994221501E+04 0.  0.
        1    1    3    3  502    0  0.90816966344E+02  0.12686724348E+03  0.63447305095E+03  0.65337513823E+03  0.50400001928E-02 0.  1.
       -1    1    3    3    0  502 -0.90816966344E+02 -0.12686724348E+03 -0.52818507182E+03  0.55074720968E+03  0.50400001928E-02 0. -1.
</event>
<event>
 5   0  0.9170776E-04  0.1212490E+04  0.7818609E-02  0.9101994E-01
        1   -1    0    0  501    0  0.00000000000E+00  0.00000000000E+00  0.69646910647E+03  0.69646910648E+03  0.50400001928E-02 0. -1.
       -1   -1    0    0    0  501  0.00000000000E+00  0.00000000000E+00 -0.52770893169E+03  0.52770893171E+03  0.50400001928E-02 0.  1.
    10030    2    1    2    0    0  0.00000000000E+00  0.00000000000E+00  0.16876017478E+03  0.12241780382E+04  0.12124899474E+04 0.  0.
        5    1    3    3  502    0  0.12980653637E+03 -0.33198369720E+03  0.57946192155E+03  0.68033897479E+03  0.46999998093E+01 0. -1.
       -5    1    3    3    0  502 -0.12980653637E+03  0.33198369720E+03 -0.41070174677E+03  0.54383906341E+03  0.46999998093E+01 0.  1.
</event>
<event>
 5   0  0.1567019E-03  0.1206287E+04  0.7818609E-02  0.9107371E-01
        2   -1    0    0  501    0  0.00000000000E+00  0.00000000000E+00  0.92543321740E+03  0.92543321740E+03  0.25500000920E-02 0.  1.
       -2   -1    0    0    0  501  0.00000000000E+00  0.00000000000E+00 -0.39309409062E+03  0.39309409063E+03  0.25500000920E-02 0. -1.
    10030    2    1    2    0    0  0.00000000000E+00  0.00000000000E+00  0.53233912678E+03  0.13185273080E+04  0.12062874103E+04 0.  0.
        5    1    3    3  502    0 -0.14870885908E+03 -0.49561280587E+03  0.60486184575E+03  0.79600648273E+03  0.46999998093E+01 0.  1.
       -5    1    3    3    0  502  0.14870885908E+03  0.49561280587E+03 -0.72522718973E+02  0.52252082530E+03  0.46999998093E+01 0. -1.
</event>
<event>
 5   0  0.1551501E-03  0.1217613E+04  0.7818609E-02  0.9097578E-01
        2   -1    0    0  501    0  0.00000000000E+00  0.00000000000E+00  0.65301622051E+03  0.65301622052E+03  0.25500000920E-02 0. -1.
       -2   -1    0    0    0  501  0.00000000000E+00  0.00000000000E+00 -0.56758997243E+03  0.56758997243E+03  0.25500000920E-02 0.  1.
    10030    2    1    2    0    0  0.00000000000E+00  0.00000000000E+00  0.85426248086E+02  0.12206061929E+04  0.12176131711E+04 0.  0.
        4    1    3    3  502    0 -0.37489437446E+03 -0.31816084654E+03  0.40258264036E+03  0.63548919069E+03  0.12699999809E+01 0. -1.
       -4    1    3    3    0  502  0.37489437446E+03  0.31816084654E+03 -0.31715639227E+03  0.58511700226E+03  0.12699999809E+01 0.  1.
</event>
<event>
 5   0  0.9170776E-04  0.1197242E+04  0.7818609E-02  0.9115274E-01
        1   -1    0    0  501    0  0.00000000000E+00  0.00000000000E+00  0.35974052216E+03  0.35974052219E+03  0.50400001928E-02 0. -1.
       -1   -1    0    0    0  501  0.00000000000E+00  0.00000000000E+00 -0.99612683761E+03  0.99612683762E+03  0.50400001928E-02 0.  1.
    10030    2    1    2    0    0  0.00000000000E+00  0.00000000000E+00 -0.63638631545E+03  0.13558673598E+04  0.11972421455E+04 0.  0.
        5    1    3    3  502    0 -0.56911285668E+03  0.64311521918E+02 -0.12106246249E+03  0.58540893853E+03  0.46999998093E+01 0. -1.
       -5    1    3    3    0  502  0.56911285668E+03 -0.64311521918E+02 -0.51532385297E+03  0.77045842128E+03  0.46999998093E+01 0.  1.
</event>
<event>
 5   0  0.9170776E-04  0.1190407E+04  0.7818609E-02  0.9121295E-01
       -1   -1    0    0    0  501  0.00000000000E+00  0.00000000000E+00  0.53158621894E+03  0.53158621897E+03  0.50400001928E-02 0.  1.
        1   -1    0    0  501    0  0.00000000000E+00  0.00000000000E+00 -0.66643393434E+03  0.66643393436E+03  0.50400001928E-02 0. -1.
    10030    2    1    2    0    0  0.00000000000E+00  0.00000000000E+00 -0.13484771540E+03  0.11980201533E+04  0.11904068134E+04 0.  0.
        5    1    3    3  502    0 -0.24694241309E+03  0.53105310841E+03  0.39306497835E+02  0.58699663551E+03  0.46999998093E+01 0.  1.
       -5    1    3    3    0  502  0.24694241309E+03 -0.53105310841E+03 -0.17415421324E+03  0.61102351781E+03  0.46999998093E+01 0. -1.
</event>
<event>
 5   0  0.1597352E-03  0.1229114E+04  0.7818609E-02  0.9087748E-01
        2   -1    0    0  501    0  0.00000000000E+00  0.00000000000E+00  0.78745041033E+03  0.78745041034E+03  0.25500000920E-02 0.  1.
       -2   -1    0    0    0  501  0.00000000000E+00  0.00000000000E+00 -0.47962417231E+03  0.47962417232E+03  0.25500000920E-02 0. -1.
    10030    2    1    2    0    0  0.00000000000E+00  0.00000000000E+00  0.30782623802E+03  0.12670745827E+04  0.12291139106E+04 0.  0.
        1    1    3    3  502    0 -0.62912386762E+02  0.68852559853E+02 -0.47228593148E+03  0.48140694272E+03  0.50400001928E-02 0. -1.
       -1    1    3    3    0  502  0.62912386762E+02 -0.68852559853E+02  0.78011216950E+03  0.78566763993E+03  0.50400001928E-02 0.  1.
</event>
<event>
 5   0  0.1551501E-03  0.1198344E+04  0.7818609E-02  0.9114307E-01
       -2   -1    0    0    0  501  0.00000000000E+00  0.00000000000E+00  0.47479326673E+03  0.47479326674E+03  0.25500000920E-02 0. -1.
        2   -1    0    0  501    0  0.00000000000E+00  0.00000000000E+00 -0.75613349697E+03  0.75613349697E+03  0.25500000920E-02 0.  1.
    10030    2    1    2    0    0  0.00000000000E+00  0.00000000000E+00 -0.28134023023E+03  0.12309267637E+04  0.11983440126E+04 0.  0.
        4    1    3    3  502    0  0.50870133697E+03  0.48272839620E+02 -0.46206427096E+03  0.68892112806E+03  0.12699999809E+01 0.  1.
       -4    1    3    3    0  502 -0.50870133697E+03 -0.48272839620E+02  0.18072404073E+03  0.54200563565E+03  0.12699999809E+01 0. -1.
</event>
<event>
 5   0  0.1551501E-03  0.1198945E+04  0.7818609E-02  0.9113781E-01
       -2   -1    0    0    0  501  0.00000000000E+00  0.00000000000E+00  0.18534112915E+04  0.18534112915E+04  0.25500000920E-02 0.  1.
        2   -1    0    0  501    0  0.00000000000E+00  0.00000000000E+00 -0.19389489475E+03  0.19389489477E+03  0.25500000920E-02 0. -1.
    10030    2    1    2    0    0  0.00000000000E+00  0.00000000000E+00  0.16595163968E+04  0.20473061863E+04  0.11989445147E+04 0.  0.
        4    1    3    3  502    0 -0.57486214184E+03 -0.14383752766E+03  0.98447812290E+03  0.11490667969E+04  0.12699999809E+01 0.  1.
       -4    1    3    3    0  502  0.57486214184E+03  0.14383752766E+03  0.67503827387E+03  0.89823938934E+03  0.12699999809E+01 0. -1.
</event>
<event>
 5   0  0.8908478E-04  0.1203588E+04  0.7818609E-02  0.9109722E-01
       -1   -1    0    0    0  501  0.00000000000E+00  0.00000000000E+00  0.13314092750E+03  0.13314092759E+03  0.50400001928E-02 0.  1.
        1   -1    0    0  501    0  0.00000000000E+00  0.00000000000E+00 -0.27200959267E+04  0.27200959267E+04  0.50400001928E-02 0. -1.
    10030    2    1    2    0    0  0.00000000000E+00  0.00000000000E+00 -0.25869549992E+04  0.28532368543E+04  0.12035881268E+04 0.  0.
        4    1    3    3  502    0  0.45235733659E+03 -0.12008429492E+03 -0.39668803747E+03  0.61352294972E+03  0.12699999809E+01 0.  1.
       -4    1    3    3    0  502 -0.45235733659E+03  0.12008429492E+03 -0.21902669618E+04  0.22397139046E+04  0.12699999809E+01 0. -1.
</event>
<event>
 5   0  0.9208078E-04  0.1203436E+04  0.7818609E-02  0.9109855E-01
       -1   -1    0    0    0  501  0.00000000000E+00  0.00000000000E+00  0.60086354948E+03  0.60086354950E+03  0.50400001928E-02 0. -1.
        1   -1    0    0  501    0  0.00000000000E+00  0.00000000000E+00 -0.60257328962E+03  0.60257328964E+03  0.50400001928E-02 0.  1.
    10030    2    1    2    0    0  0.00000000000E+00  0.00000000000E+00 -0.17097401373E+01  0.12034368391E+04  0.12034356246E+04 0.  0.
        3    1    3    3  502    0  0.19990833023E+03  0.19250977553E+03  0.53303794372E+03  0.60095991032E+03  0.10100000352E+00 0. -1.
       -3    1    3    3    0  502 -0.19990833023E+03 -0.19250977553E+03 -0.53474768386E+03  0.60247692882E+03  0.10100000352E+00 0.  1.
</event>
<event>
 5   0  0.9208078E-04  0.1205044E+04  0.7818609E-02  0.9108453E-01
       -1   -1    0    0    0  501  0.00000000000E+00  0.00000000000E+00  0.37693519098E+03  0.37693519102E+03  0.50400001928E-02 0. -1.
        1   -1    0    0  501    0  0.00000000000E+00  0.00000000000E+00 -0.96311766358E+03  0.96311766359E+03  0.50400001928E-02 0.  1.
    10030    2    1    2    0    0  0.00000000000E+00  0.00000000000E+00 -0.58618247259E+03  0.13400528546E+04  0.12050442988E+04 0.  0.
        3    1    3    3  502    0 -0.28509338443E+03  0.69504029901E+02 -0.87828423509E+03  0.92600877740E+03  0.10100000352E+00 0.  1.
       -3    1    3    3    0  502  0.28509338443E+03 -0.69504029901E+02  0.29210176249E+03  0.41404407721E+03  0.10100000352E+00 0. -1.
</event>
<event>
 5   0  0.1551501E-03  0.1199411E+04  0.7818609E-02  0.9113372E-01
        2   -1    0    0  501    0  0.00000000000E+00  0.00000000000E+00  0.19806205608E+04  0.19806205608E+04  0.25500000920E-02 0. -1.
       -2   -1    0    0    0  501  0.00000000000E+00  0.00000000000E+00 -0.18158285624E+03  0.18158285626E+03  0.25500000920E-02 0.  1.
    10030    2    1    2    0    0  0.00000000000E+00  0.00000000000E+00  0.17990377046E+04  0.21622034171E+04  0.11994110865E+04 0.  0.
        4    1    3    3  502    0  0.47483031847E+03  0.21362460955E+03  0.36308951179E+03  0.63477154285E+03  0.12699999809E+01 0.  1.
       -4    1    3    3    0  502 -0.47483031847E+03 -0.21362460955E+03  0.14359481928E+04  0.15274318742E+04  0.12699999809E+01 0. -1.
</event>
<event>
 5   0  0.8908478E-04  0.1196822E+04  0.7818609E-02  0.9115642E-01
        1   -1    0    0  501    0  0.00000000000E+00  0.00000000000E+00  0.46510385361E+03  0.46510385364E+03  0.50400001928E-02 0.  1.
       -1   -1    0    0    0  501  0.00000000000E+00  0.00000000000E+00 -0.76992684023E+03  0.76992684024E+03  0.50400001928E-02 0. -1.
    10030    2    1    2    0    0  0.00000000000E+00  0.00000000000E+00 -0.30482298661E+03  0.12350306939E+04  0.11968223601E+04 0.  0.
        4    1    3    3  502    0 -0.11641473377E+03  0.16906525915E+02  0.45305328369E+03  0.46807810418E+03  0.12699999809E+01 0.  1.
       -4    1    3    3    0  502  0.11641473377E+03 -0.16906525915E+02 -0.75787627030E+03  0.76695258970E+03  0.12699999809E+01 0. -1.
</event>
<event>
 5   0  0.1597352E-03  0.1194792E+04  0.7818609E-02  0.9117427E-01
        2   -1    0    0  501    0  0.00000000000E+00  0.00000000000E+00  0.21227945669E+04  0.21227945669E+04  0.25500000920E-02 0. -1.
       -2   -1    0    0    0  501  0.00000000000E+00  0.00000000000E+00 -0.16811892369E+03  0.16811892371E+03  0.25500000920E-02 0.  1.
    10030    2    1    2    0    0  0.00000000000E+00  0.00000000000E+00  0.19546756432E+04  0.22909134906E+04  0.11947919280E+04 0.  0.
        1    1    3    3  502    0  0.10703824960E+03 -0.39157979137E+03  0.18177044701E+04  0.18624826068E+04  0.50400001928E-02 0. -1.
       -1    1    3    3    0  502 -0.10703824960E+03  0.39157979137E+03  0.13697117304E+03  0.42843088376E+03  0.50400001928E-02 0.  1.
</event>
<event>
 5   0  0.9170776E-04  0.1201760E+04  0.7818609E-02  0.9111318E-01
        1   -1    0    0  501    0  0.00000000000E+00  0.00000000000E+00  0.12925303343E+04  0.12925303343E+04  0.50400001928E-02 0. -1.
       -1   -1    0    0    0  501  0.00000000000E+00  0.00000000000E+00 -0.27934091093E+03  0.27934091097E+03  0.50400001928E-02 0.  1.
    10030    2    1    2    0    0  0.00000000000E+00  0.00000000000E+00  0.10131894233E+04  0.15718712453E+04  0.12017597115E+04 0.  0.
        5    1    3    3  502    0  0.17399204610E+03 -0.53472311717E+03  0.78354106256E+03  0.96444840757E+03  0.46999998093E+01 0. -1.
       -5    1    3    3    0  502 -0.17399204610E+03  0.53472311717E+03  0.22964836078E+03  0.60742283769E+03  0.46999998093E+01 0.  1.
</event>
<event>
 5   0  0.1647550E-03  0.1199415E+04  0.7818609E-02  0.9113369E-01
        2   -1    0    0  501    0  0.00000000000E+00  0.00000000000E+00  0.65677366086E+03  0.65677366086E+03  0.25500000920E-02 0. -1.
       -2   -1    0    0    0  501  0.00000000000E+00  0.00000000000E+00 -0.54759962967E+03  0.54759962968E+03  0.25500000920E-02 0.  1.
    10030    2    1    2    0    0  0.00000000000E+00  0.00000000000E+00  0.10917403119E+03  0.12043732905E+04  0.11994148798E+04 0.  0.
        3    1    3    3  502    0 -0.32765627852E+03  0.20984439029E+03  0.51282399119E+03  0.64372491107E+03  0.10100000352E+00 0. -1.
       -3    1    3    3    0  502  0.32765627852E+03 -0.20984439029E+03 -0.40364996000E+03  0.56064837947E+03  0.10100000352E+00 0.  1.
</event>
<event>
 5   0  0.1597352E-03  0.1207382E+04  0.7818609E-02  0.9106419E-01
       -2   -1    0    0    0  501  0.00000000000E+00  0.00000000000E+00  0.33917612826E+03  0.33917612827E+03  0.25500000920E-02 0. -1.
        2   -1    0    0  501    0  0.00000000000E+00  0.00000000000E+00 -0.10744949234E+04  0.10744949234E+04  0.25500000920E-02 0.  1.
    10030    2    1    2    0    0  0.00000000000E+00  0.00000000000E+00 -0.73531879518E+03  0.14136710517E+04  0.12073823387E+04 0.  0.
        1    1    3    3  502    0  0.28143138771E+03 -0.13199958174E+03 -0.97358793973E+03  0.10220083131E+04  0.50400001928E-02 0.  1.
       -1    1    3    3    0  502 -0.28143138771E+03  0.13199958174E+03  0.23826914455E+03  0.39166273864E+03  0.50400001928E-02 0. -1.
</event>
<event>
 5   0  0.9170776E-04  0.1189893E+04  0.7818609E-02  0.9121750E-01
       -1   -1    0    0    0  501  0.00000000000E+00  0.00000000000E+00  0.62342862644E+03  0.62342862646E+03  0.50400001928E-02 0.  1.
        1   -1    0    0  501    0  0.00000000000E+00  0.00000000000E+00 -0.56776523136E+03  0.56776523138E+03  0.50400001928E-02 0. -1.
    10030    2    1    2    0    0  0.00000000000E+00  0.00000000000E+00  0.55663395076E+02  0.11911938578E+04  0.11898925974E+04 0.  0.
        5    1    3    3  502    0  0.32807636058E+03 -0.86575086153E+02  0.51704767446E+03  0.61845754226E+03  0.46999998093E+01 0.  1.
       -5    1    3    3    0  502 -0.32807636058E+03  0.86575086153E+02 -0.46138427939E+03  0.57273631558E+03  0.46999998093E+01 0. -1.
</event>
<event>
 5   0  0.9358428E-04  0.1195825E+04  0.7818609E-02  0.9116519E-01
        1   -1    0    0  501    0  0.00000000000E+00  0.00000000000E+00  0.27743073000E+03  0.27743073005E+03  0.50400001928E-02 0. -1.
       -1   -1    0    0    0  501  0.00000000000E+00  0.00000000000E+00 -0.12886065776E+04  0.12886065776E+04  0.50400001928E-02 0.  1.
    10030    2    1    2    0    0  0.00000000000E+00  0.00000000000E+00 -0.10111758476E+04  0.15660373077E+04  0.11958245081E+04 0.  0.
        2    1    3    3  502    0 -0.41465050358E+02 -0.36711708812E+03  0.11006431729E+03  0.38549767929E+03  0.25500000920E-02 0. -1.
       -2    1    3    3    0  502  0.41465050358E+02  0.36711708812E+03 -0.11212401649E+04  0.11805396284E+04  0.25500000920E-02 0.  1.
</event>
<event>
 5   0  0.1537557E-03  0.1199723E+04  0.7818609E-02  0.9113099E-01
        2   -1    0    0  501    0  0.00000000000E+00  0.00000000000E+00  0.16548310842E+04  0.16548310842E+04  0.25500000920E-02 0.  1.
       -2   -1    0    0    0  501  0.00000000000E+00  0.00000000000E+00 -0.21744444875E+03  0.21744444877E+03  0.25500000920E-02 0. -1.
    10030    2    1    2    0    0  0.00000000000E+00  0.00000000000E+00  0.14373866354E+04  0.18722755330E+04  0.11997230229E+04 0.  0.
        2    1    3    3  502    0  0.52864359196E+03  0.15209286274E+03  0.10920545955E+04  0.12227753374E+04  0.25500000920E-02 0.  1.
       -2    1    3    3    0  502 -0.52864359196E+03 -0.15209286274E+03  0.34533203997E+03  0.64950019558E+03  0.25500000920E-02 0. -1.
</event>
<event>
 5   0  0.1537557E-03  0.1200691E+04  0.7818609E-02  0.9112252E-01
        2   -1    0    0  501    0  0.00000000000E+00  0.00000000000E+00  0.39832294720E+03  0.39832294721E+03  0.25500000920E-02 0.  1.
       -2   -1    0    0    0  501  0.00000000000E+00  0.00000000000E+00 -0.90482998569E+03  0.90482998569E+03  0.25500000920E-02 0. -1.
    10030    2    1    2    0    0  0.00000000000E+00  0.00000000000E+00 -0.50650703849E+03  0.13031529329E+04  0.12006907122E+04 0.  0.
        2    1    3    3  502    0  0.23755755294E+03  0.19829007187E+03  0.30510099548E+03  0.43455628060E+03  0.25500000920E-02 0.  1.
       -2    1    3    3    0  502 -0.23755755294E+03 -0.19829007187E+03 -0.81160803397E+03  0.86859665229E+03  0.25500000920E-02 0. -1.
</event>
<event>
 5   0  0.9169078E-04  0.1199948E+04  0.7818609E-02  0.9112902E-01
        1   -1    0    0  501    0  0.00000000000E+00  0.00000000000E+00  0.32992578503E+03  0.32992578507E+03  0.50400001928E-02 0.  1.
       -1   -1    0    0    0  501  0.00000000000E+00  0.00000000000E+00 -0.10910598492E+04  0.10910598492E+04  0.50400001928E-02 0. -1.
    10030    2    1    2    0    0  0.00000000000E+00  0.00000000000E+00 -0.76113406414E+03  0.14209856342E+04  0.11999479610E+04 0.  0.
        1    1    3    3  502    0 -0.44911306063E+03  0.30420579794E+03 -0.68416076283E+03  0.87310919027E+03  0.50400001928E-02 0. -1.
       -1    1    3    3    0  502  0.44911306063E+03 -0.30420579794E+03 -0.76973301306E+02  0.54787644397E+03  0.50400001928E-02 0.  1.
</event>
<event>
 5   0  0.9358428E-04  0.1328740E+04  0.7818609E-02  0.9007080E-01
       -1   -1    0    0    0  501  0.00000000000E+00  0.00000000000E+00  0.32983008486E+03  0.32983008489E+03  0.50400001928E-02 0.  1.
        1   -1    0    0  501    0  0.00000000000E+00  0.00000000000E+00 -0.13382267266E+04  0.13382267266E+04  0.50400001928E-02 0. -1.
    10030    2    1    2    0    0  0.00000000000E+00  0.00000000000E+00 -0.10083966417E+04  0.16680568115E+04  0.13287399066E+04 0.  0.
        2    1    3    3  502    0 -0.52023797352E+03 -0.40902269227E+03 -0.43056566520E+03  0.78951498019E+03  0.25500000920E-02 0. -1.
       -2    1    3    3    0  502  0.52023797352E+03  0.40902269227E+03 -0.57783097652E+03  0.87854183129E+03  0.25500000920E-02 0.  1.
</event>
<event>
 5   0  0.1597352E-03  0.1201118E+04  0.7818609E-02  0.9111878E-01
        2   -1    0    0  501    0  0.00000000000E+00  0.00000000000E+00  0.90232801678E+03  0.90232801678E+03  0.25500000920E-02 0.  1.
       -2   -1    0    0    0  501  0.00000000000E+00  0.00000000000E+00 -0.39971198570E+03  0.39971198570E+03  0.25500000920E-02 0. -1.
    10030    2    1    2    0    0  0.00000000000E+00  0.00000000000E+00  0.50261603108E+03  0.13020400025E+04  0.12011183511E+04 0.  0.
        1    1    3    3  502    0  0.24257798499E+03 -0.54400041426E+03  0.33450841960E+03  0.68313718412E+03  0.50400001928E-02 0.  1.
       -1    1    3    3    0  502 -0.24257798499E+03  0.54400041426E+03  0.16810761148E+03  0.61890281837E+03  0.50400001928E-02 0. -1.
</event>
<event>
 5   0  0.8908478E-04  0.1179736E+04  0.7818609E-02  0.9130781E-01
        1   -1    0    0  501    0  0.00000000000E+00  0.00000000000E+00  0.46651401766E+03  0.46651401769E+03  0.50400001928E-02 0.  1.
       -1   -1    0    0    0  501  0.00000000000E+00  0.00000000000E+00 -0.74583918524E+03  0.74583918526E+03  0.50400001928E-02 0. -1.
    10030    2    1    2    0    0  0.00000000000E+00  0.00000000000E+00 -0.27932516758E+03  0.12123532029E+04  0.11797363008E+04 0.  0.
        4    1    3    3  502    0 -0.32140081518E+03 -0.30690759896E+02 -0.64697341866E+03  0.72306059503E+03  0.12699999809E+01 0. -1.
       -4    1    3    3    0  502  0.32140081518E+03  0.30690759896E+02  0.36764825108E+03  0.48929260791E+03  0.12699999809E+01 0.  1.
</event>
<event>
 5   0  0.1597352E-03  0.1197827E+04  0.7818609E-02  0.9114760E-01
        2   -1    0    0  501    0  0.00000000000E+00  0.00000000000E+00  0.94076286102E+03  0.94076286102E+03  0.25500000920E-02 0. -1.
       -2   -1    0    0    0  501  0.00000000000E+00  0.00000000000E+00 -0.38128380827E+03  0.38128380828E+03  0.25500000920E-02 0.  1.
    10030    2    1    2    0    0  0.00000000000E+00  0.00000000000E+00  0.55947905275E+03  0.13220466693E+04  0.11978274439E+04 0.  0.
        1    1    3    3  502    0  0.25823761080E+03 -0.34527850684E+03  0.73853225247E+03  0.85518056507E+03  0.50400001928E-02 0. -1.
       -1    1    3    3    0  502 -0.25823761080E+03  0.34527850684E+03 -0.17905319971E+03  0.46686610423E+03  0.50400001928E-02 0.  1.
</event>
<event>
 5   0  0.9169078E-04  0.1196820E+04  0.7818609E-02  0.9115645E-01
       -1   -1    0    0    0  501  0.00000000000E+00  0.00000000000E+00  0.72040979483E+03  0.72040979485E+03  0.50400001928E-02 0. -1.
        1   -1    0    0  501    0  0.00000000000E+00  0.00000000000E+00 -0.49707022258E+03  0.49707022261E+03  0.50400001928E-02 0.  1.
    10030    2    1    2    0    0  0.00000000000E+00  0.00000000000E+00  0.22333957224E+03  0.12174800175E+04  0.11968195471E+04 0.  0.
        1    1    3    3  502    0  0.51521399170E+03  0.18693214705E+03  0.35603565049E+03  0.65356749406E+03  0.50400001928E-02 0. -1.
       -1    1    3    3    0  502 -0.51521399170E+03 -0.18693214705E+03 -0.13269607825E+03  0.56391252340E+03  0.50400001928E-02 0.  1.
</event>
<event>
 5   0  0.1551501E-03  0.1201040E+04  0.7818609E-02  0.9111946E-01
       -2   -1    0    0    0  501  0.00000000000E+00  0.00000000000E+00  0.64953923817E+03  0.64953923818E+03  0.25500000920E-02 0.  1.
        2   -1    0    0  501    0  0.00000000000E+00  0.00000000000E+00 -0.55520046854E+03  0.55520046854E+03  0.25500000920E-02 0. -1.
    10030    2    1    2    0    0  0.00000000000E+00  0.00000000000E+00  0.94338769637E+02  0.12047397067E+04  0.12010403646E+04 0.  0.
        4    1    3    3  502    0 -0.31500707798E+03  0.19056445340E+03 -0.42871639727E+03  0.56510497455E+03  0.12699999809E+01 0. -1.
       -4    1    3    3    0  502  0.31500707798E+03 -0.19056445340E+03  0.52305516691E+03  0.63963473217E+03  0.12699999809E+01 0.  1.
</event>
<event>
 5   0  0.9170776E-04  0.1199448E+04  0.7818609E-02  0.9113340E-01
        1   -1    0    0  501    0  0.00000000000E+00  0.00000000000E+00  0.82743039203E+03  0.82743039204E+03  0.50400001928E-02 0.  1.
       -1   -1    0    0    0  501  0.00000000000E+00  0.00000000000E+00 -0.43468155534E+03  0.43468155537E+03  0.50400001928E-02 0. -1.
    10030    2    1    2    0    0  0.00000000000E+00  0.00000000000E+00  0.39274883668E+03  0.12621119474E+04  0.11994477559E+04 0.  0.
        5    1    3    3  502    0  0.24548208379E+03  0.53610061372E+03  0.81196600998E+02  0.59521449874E+03  0.46999998093E+01 0. -1.
       -5    1    3    3    0  502 -0.24548208379E+03 -0.53610061372E+03  0.31155223568E+03  0.66689744868E+03  0.46999998093E+01 0.  1.
</event>
<event>
 5   0  0.1647550E-03  0.1201145E+04  0.7818609E-02  0.9111855E-01
       -2   -1    0    0    0  501  0.00000000000E+00  0.00000000000E+00  0.28243961079E+03  0.28243961080E+03  0.25500000920E-02 0. -1.
        2   -1    0    0  501    0  0.00000000000E+00  0.00000000000E+00 -0.12770420437E+04  0.12770420437E+04  0.25500000920E-02 0.  1.
    10030    2    1    2    0    0  0.00000000000E+00  0.00000000000E+00 -0.99460243291E+03  0.15594816545E+04  0.12011448835E+04 0.  0.
        3    1    3    3  502    0 -0.39029393203E+03  0.13154838192E+03  0.70193354879E+02  0.41780551388E+03  0.10100000352E+00 0. -1.
       -3    1    3    3    0  502  0.39029393203E+03 -0.13154838192E+03 -0.10647957878E+04  0.11416761406E+04  0.10100000352E+00 0.  1.
</event>
<event>
 5   0  0.1537557E-03  0.1193586E+04  0.7818609E-02  0.9118489E-01
       -2   -1    0    0    0  501  0.00000000000E+00  0.00000000000E+00  0.67293087368E+03  0.67293087369E+03  0.25500000920E-02 0. -1.
        2   -1    0    0  501    0  0.00000000000E+00  0.00000000000E+00 -0.52926942869E+03  0.52926942869E+03  0.25500000920E-02 0.  1.
    10030    2    1    2    0    0  0.00000000000E+00  0.00000000000E+00  0.14366144499E+03  0.12022003024E+04  0.11935857557E+04 0.  0.
        2    1    3    3  502    0 -0.50204527135E+03  0.25847589520E+03  0.26636321566E+03  0.62434654284E+03  0.25500000920E-02 0.  1.
       -2    1    3    3    0  502  0.50204527135E+03 -0.25847589520E+03 -0.12270177067E+03  0.57785375954E+03  0.25500000920E-02 0. -1.
</event>
<event>
 5   0  0.1597352E-03  0.1187058E+04  0.7818609E-02  0.9124261E-01
       -2   -1    0    0    0  501  0.00000000000E+00  0.00000000000E+00  0.27032702707E+03  0.27032702708E+03  0.25500000920E-02 0. -1.
        2   -1    0    0  501    0  0.00000000000E+00  0.00000000000E+00 -0.13031496281E+04  0.13031496281E+04  0.25500000920E-02 0.  1.
    10030    2    1    2    0    0  0.00000000000E+00  0.00000000000E+00 -0.10328226010E+04  0.15734766552E+04  0.11870578163E+04 0.  0.
        1    1    3    3  502    0 -0.34006293496E+03 -0.32374193513E+03 -0.99767953495E+03  0.11026405102E+04  0.50400001928E-02 0.  1.
       -1    1    3    3    0  502  0.34006293496E+03  0.32374193513E+03 -0.35143066097E+02  0.47083614498E+03  0.50400001928E-02 0. -1.
</event>
<event>
 5   0  0.9358428E-04  0.1209856E+04  0.7818609E-02  0.9104273E-01
        1   -1    0    0  501    0  0.00000000000E+00  0.00000000000E+00  0.56567914371E+03  0.56567914373E+03  0.50400001928E-02 0. -1.
       -1   -1    0    0    0  501  0.00000000000E+00  0.00000000000E+00 -0.64689960061E+03  0.64689960063E+03  0.50400001928E-02 0.  1.
    10030    2    1    2    0    0  0.00000000000E+00  0.00000000000E+00 -0.81220456902E+02  0.12125787444E+04  0.12098555487E+04 0.  0.
        2    1    3    3  502    0  0.41111073494E+03  0.59978480920E+02 -0.48129088377E+03  0.63580686483E+03  0.25500000920E-02 0.  1.
       -2    1    3    3    0  502 -0.41111073494E+03 -0.59978480920E+02  0.40007042687E+03  0.57677187953E+03  0.25500000920E-02 0. -1.
</event>
<event>
 5   0  0.1537557E-03  0.1197239E+04  0.7818609E-02  0.9115276E-01
        2   -1    0    0  501    0  0.00000000000E+00  0.00000000000E+00  0.76629730366E+03  0.76629730367E+03  0.25500000920E-02 0. -1.
       -2   -1    0    0    0  501  0.00000000000E+00  0.00000000000E+00 -0.46763237926E+03  0.46763237927E+03  0.25500000920E-02 0.  1.
    10030    2    1    2    0    0  0.00000000000E+00  0.00000000000E+00  0.29866492440E+03  0.12339296829E+04  0.11972392098E+04 0.  0.
        2    1    3    3  502    0  0.58735482945E+02 -0.28131647607E+03 -0.39188580861E+03  0.48596636062E+03  0.25500000920E-02 0.  1.
       -2    1    3    3    0  502 -0.58735482945E+02  0.28131647607E+03  0.69055073301E+03  0.74796332232E+03  0.25500000920E-02 0. -1.
</event>
<event>
 5   0  0.9208078E-04  0.1202206E+04  0.7818609E-02  0.9110928E-01
       -1   -1    0    0    0  501  0.00000000000E+00  0.00000000000E+00  0.46317592858E+03  0.46317592861E+03  0.50400001928E-02 0. -1.
        1   -1    0    0  501    0  0.00000000000E+00  0.00000000000E+00 -0.78010317033E+03  0.78010317035E+03  0.50400001928E-02 0.  1.
    10030    2    1    2    0    0  0.00000000000E+00  0.00000000000E+00 -0.31692724176E+03  0.12432790990E+04  0.12022063223E+04 0.  0.
        3    1    3    3  502    0 -0.57525698442E+03  0.85416362808E+02 -0.31567175196E+03  0.66171384929E+03  0.10100000352E+00 0. -1.
       -3    1    3    3    0  502  0.57525698442E+03 -0.85416362808E+02 -0.12554897998E+01  0.58156524966E+03  0.10100000352E+00 0.  1.
</event>
<event>
 5   0  0.8908478E-04  0.1191822E+04  0.7818609E-02  0.9120045E-01
        1   -1    0    0  501    0  0.00000000000E+00  0.00000000000E+00  0.49594076649E+03  0.49594076652E+03  0.50400001928E-02 0.  1.
       -1   -1    0    0    0  501  0.00000000000E+00  0.00000000000E+00 -0.71603350470E+03  0.71603350472E+03  0.50400001928E-02 0. -1.
    10030    2    1    2    0    0  0.00000000000E+00  0.00000000000E+00 -0.22009273821E+03  0.12119742712E+04  0.11918224787E+04 0.  0.
        4    1    3    3  502    0  0.20531756064E+03  0.24395415828E+03 -0.62198643136E+03  0.69895469505E+03  0.12699999809E+01 0. -1.
       -4    1    3    3    0  502 -0.20531756064E+03 -0.24395415828E+03  0.40189369315E+03  0.51301957618E+03  0.12699999809E+01 0.  1.
</event>
<event>
 5   0  0.9358428E-04  0.1195627E+04  0.7818609E-02  0.9116692E-01
        1   -1    0    0  501    0  0.00000000000E+00  0.00000000000E+00  0.21431711280E+04  0.21431711280E+04  0.50400001928E-02 0.  1.
       -1   -1    0    0    0  501  0.00000000000E+00  0.00000000000E+00 -0.16675349325E+03  0.16675349333E+03  0.50400001928E-02 0. -1.
    10030    2    1    2    0    0  0.00000000000E+00  0.00000000000E+00  0.19764176348E+04  0.23099246214E+04  0.11956274877E+04 0.  0.
        2    1    3    3  502    0 -0.12305896006E+03  0.29359094227E+03  0.19658007906E+04  0.19914095253E+04  0.25500000920E-02 0.  1.
       -2    1    3    3    0  502  0.12305896006E+03 -0.29359094227E+03  0.10616844155E+02  0.31851509606E+03  0.25500000920E-02 0. -1.
</event>
<event>
 5   0  0.9170776E-04  0.1197196E+04  0.7818609E-02  0.9115315E-01
       -1   -1    0    0    0  501  0.00000000000E+00  0.00000000000E+00  0.39883140472E+03  0.39883140475E+03  0.50400001928E-02 0. -1.
        1   -1    0    0  501    0  0.00000000000E+00  0.00000000000E+00 -0.89842327665E+03  0.89842327666E+03  0.50400001928E-02 0.  1.
    10030    2    1    2    0    0  0.00000000000E+00  0.00000000000E+00 -0.49959187193E+03  0.12972546814E+04  0.11971957526E+04 0.  0.
        5    1    3    3  502    0  0.70846906845E+02 -0.53074914246E+03  0.40116078209E+02  0.53697795687E+03  0.46999998093E+01 0. -1.
       -5    1    3    3    0  502 -0.70846906845E+02  0.53074914246E+03 -0.53970795014E+03  0.76027672454E+03  0.46999998093E+01 0.  1.
</event>
<event>
 5   0  0.1597352E-03  0.1201792E+04  0.7818609E-02  0.9111290E-01
       -2   -1    0    0    0  501  0.00000000000E+00  0.00000000000E+00  0.47612498384E+03  0.47612498384E+03  0.25500000920E-02 0.  1.
        2   -1    0    0  501    0  0.00000000000E+00  0.00000000000E+00 -0.75836370848E+03  0.75836370849E+03  0.25500000920E-02 0. -1.
    10030    2    1    2    0    0  0.00000000000E+00  0.00000000000E+00 -0.28223872465E+03  0.12344886923E+04  0.12017918430E+04 0.  0.
        1    1    3    3  502    0  0.50373313974E+03 -0.22032608794E+03  0.10793378775E+03  0.56030381371E+03  0.50400001928E-02 0.  1.
       -1    1    3    3    0  502 -0.50373313974E+03  0.22032608794E+03 -0.39017251239E+03  0.67418487861E+03  0.50400001928E-02 0. -1.
</event>
<event>
 5   0  0.1551501E-03  0.1188296E+04  0.7818609E-02  0.9123163E-01
        2   -1    0    0  501    0  0.00000000000E+00  0.00000000000E+00  0.21150285779E+03  0.21150285781E+03  0.25500000920E-02 0.  1.
       -2   -1    0    0    0  501  0.00000000000E+00  0.00000000000E+00 -0.16690644020E+04  0.16690644020E+04  0.25500000920E-02 0. -1.
    10030    2    1    2    0    0  0.00000000000E+00  0.00000000000E+00 -0.14575615442E+04  0.18805672598E+04  0.11882960757E+04 0.  0.
        4    1    3    3  502    0 -0.10538972984E+03  0.53118910925E+03 -0.34196697776E+03  0.64047786201E+03  0.12699999809E+01 0.  1.
       -4    1    3    3    0  502  0.10538972984E+03 -0.53118910925E+03 -0.11155945664E+04  0.12400893978E+04  0.12699999809E+01 0. -1.
</event>
<event>
 5   0  0.1647550E-03  0.1195811E+04  0.7818609E-02  0.9116531E-01
       -2   -1    0    0    0  501  0.00000000000E+00  0.00000000000E+00  0.98814747466E+03  0.98814747466E+03  0.25500000920E-02 0. -1.
        2   -1    0    0  501    0  0.00000000000E+00  0.00000000000E+00 -0.36177876871E+03  0.36177876872E+03  0.25500000920E-02 0.  1.
    10030    2    1    2    0    0  0.00000000000E+00  0.00000000000E+00  0.62636870594E+03  0.13499262434E+04  0.11958106484E+04 0.  0.
        3    1    3    3  502    0 -0.24083653110E+03 -0.31334104572E+03  0.81968021115E+03  0.90997829886E+03  0.10100000352E+00 0. -1.
       -3    1    3    3    0  502  0.24083653110E+03  0.31334104572E+03 -0.19331150520E+03  0.43994794452E+03  0.10100000352E+00 0.  1.
</event>
<event>
 5   0  0.9358428E-04  0.1200586E+04  0.7818609E-02  0.9112343E-01
        1   -1    0    0  501    0  0.00000000000E+00  0.00000000000E+00  0.42468572447E+03  0.42468572450E+03  0.50400001928E-02 0. -1.
       -1   -1    0    0    0  501  0.00000000000E+00  0.00000000000E+00 -0.84851422258E+03  0.84851422259E+03  0.50400001928E-02 0.  1.
    10030    2    1    2    0    0  0.00000000000E+00  0.00000000000E+00 -0.42382849811E+03  0.12731999471E+04  0.12005863190E+04 0.  0.
        2    1    3    3  502    0  0.58097223327E+03  0.12307031919E+03 -0.11899741331E+03  0.60566940130E+03  0.25500000920E-02 0. -1.
       -2    1    3    3    0  502 -0.58097223327E+03 -0.12307031919E+03 -0.30483108480E+03  0.66753054579E+03  0.25500000920E-02 0.  1.
</event>
<event>
 5   0  0.6137750E-04  0.1197127E+04  0.7818609E-02  0.9115375E-01
       -4   -1    0    0    0  501  0.00000000000E+00  0.00000000000E+00  0.65057979941E+03  0.65058103900E+03  0.12699999809E+01 0. -1.
        4   -1    0    0  501    0  0.00000000000E+00  0.00000000000E+00 -0.55070395907E+03  0.55070542346E+03  0.12699999809E+01 0.  1.
    10030    2    1    2    0    0  0.00000000000E+00  0.00000000000E+00  0.99875840346E+02  0.12012864625E+04  0.11971273873E+04 0.  0.
        4    1    3    3  502    0 -0.55480123363E+02  0.11115758826E+03 -0.53762414882E+03  0.55179288851E+03  0.12699999809E+01 0.  1.
       -4    1    3    3    0  502  0.55480123363E+02 -0.11115758826E+03  0.63749998917E+03  0.64949357395E+03  0.12699999809E+01 0. -1.
</event>
<event>
 5   0  0.6137750E-04  0.1312327E+04  0.7818609E-02  0.9019846E-01
       -3   -1    0    0    0  501  0.00000000000E+00  0.00000000000E+00  0.66342477918E+03  0.66342478686E+03  0.10100000352E+00 0.  1.
        3   -1    0    0  501    0  0.00000000000E+00  0.00000000000E+00 -0.64898165069E+03  0.64898165855E+03  0.10100000352E+00 0. -1.
    10030    2    1    2    0    0  0.00000000000E+00  0.00000000000E+00  0.14443128487E+02  0.13124064454E+04  0.13123269692E+04 0.  0.
        2    1    3    3  502    0  0.60597843440E+03 -0.10550000694E+03 -0.22128823451E+03  0.65368845573E+03  0.25500000920E-02 0. -1.
       -2    1    3    3    0  502 -0.60597843440E+03  0.10550000694E+03  0.23573136299E+03  0.65871798968E+03  0.25500000920E-02 0.  1.
</event>
<event>
 5   0  0.9170776E-04  0.1206077E+04  0.7818609E-02  0.9107554E-01
       -1   -1    0    0    0  501  0.00000000000E+00  0.00000000000E+00  0.28135036525E+03  0.28135036529E+03  0.50400001928E-02 0.  1.
        1   -1    0    0  501    0  0.00000000000E+00  0.00000000000E+00 -0.12925356520E+04  0.12925356520E+04  0.50400001928E-02 0. -1.
    10030    2    1    2    0    0  0.00000000000E+00  0.00000000000E+00 -0.10111852867E+04  0.15738860173E+04  0.12060769094E+04 0.  0.
        5    1    3    3  502    0  0.35643704186E+03 -0.18381600165E+03  0.82072159611E+02  0.40938199357E+03  0.46999998093E+01 0.  1.
       -5    1    3    3    0  502 -0.35643704186E+03  0.18381600165E+03 -0.10932574463E+04  0.11645040237E+04  0.46999998093E+01 0. -1.
</event>
<event>
 5   0  0.8908478E-04  0.1198860E+04  0.7818609E-02  0.9113855E-01
        1   -1    0    0  501    0  0.00000000000E+00  0.00000000000E+00  0.11822232870E+04  0.11822232870E+04  0.50400001928E-02 0. -1.
       -1   -1    0    0    0  501  0.00000000000E+00  0.00000000000E+00 -0.30393266285E+03  0.30393266289E+03  0.50400001928E-02 0.  1.
    10030    2    1    2    0    0  0.00000000000E+00  0.00000000000E+00  0.87829062418E+03  0.14861559499E+04  0.11988599113E+04 0.  0.
        4    1    3    3  502    0  0.43742939502E+03  0.28057371059E+03  0.80948187757E+03  0.96194002189E+03  0.12699999809E+01 0. -1.
       -4    1    3    3    0  502 -0.43742939502E+03 -0.28057371059E+03  0.68808746616E+02  0.52421592804E+03  0.12699999809E+01 0.  1.
</event>
<event>
 5   0  0.9169078E-04  0.1200564E+04  0.7818609E-02  0.9112363E-01
        1   -1    0    0  501    0  0.00000000000E+00  0.00000000000E+00  0.88547715537E+03  0.88547715539E+03  0.50400001928E-02 0.  1.
       -1   -1    0    0    0  501  0.00000000000E+00  0.00000000000E+00 -0.40694273066E+03  0.40694273069E+03  0.50400001928E-02 0. -1.
    10030    2    1    2    0    0  0.00000000000E+00  0.00000000000E+00  0.47853442471E+03  0.12924198861E+04  0.12005640201E+04 0.  0.
        1    1    3    3  502    0 -0.48800245645E+03  0.27706810889E+03  0.98280845870E+01  0.56125727232E+03  0.50400001928E-02 0. -1.
       -1    1    3    3    0  502  0.48800245645E+03 -0.27706810889E+03  0.46870634012E+03  0.73116261376E+03  0.50400001928E-02 0.  1.
</event>
<event>
 5   0  0.1551501E-03  0.1199373E+04  0.7818609E-02  0.9113406E-01
        2   -1    0    0  501    0  0.00000000000E+00  0.00000000000E+00  0.19179802249E+04  0.19179802249E+04  0.25500000920E-02 0.  1.
       -2   -1    0    0    0  501  0.00000000000E+00  0.00000000000E+00 -0.18750120395E+03  0.18750120397E+03  0.25500000920E-02 0. -1.
    10030    2    1    2    0    0  0.00000000000E+00  0.00000000000E+00  0.17304790210E+04  0.21054814289E+04  0.11993725048E+04 0.  0.
        4    1    3    3  502    0  0.24442976018E+03  0.47939142610E+03  0.13298962186E+04  0.14346384953E+04  0.12699999809E+01 0. -1.
       -4    1    3    3    0  502 -0.24442976018E+03 -0.47939142610E+03  0.40058280239E+03  0.67084293359E+03  0.12699999809E+01 0.  1.
</event>
<event>
 5   0  0.1567019E-03  0.1145782E+04  0.7818609E-02  0.9161683E-01
       -2   -1    0    0    0  501  0.00000000000E+00  0.00000000000E+00  0.37938367203E+03  0.37938367204E+03  0.25500000920E-02 0. -1.
        2   -1    0    0  501    0  0.00000000000E+00  0.00000000000E+00 -0.86509844020E+03  0.86509844021E+03  0.25500000920E-02 0.  1.
    10030    2    1    2    0    0  0.00000000000E+00  0.00000000000E+00 -0.48571476817E+03  0.12444821122E+04  0.11457822183E+04 0.  0.
        5    1    3    3  502    0  0.32647119303E+03 -0.20961507402E+03  0.21494881676E+03  0.44356172396E+03  0.46999998093E+01 0. -1.
       -5    1    3    3    0  502 -0.32647119303E+03  0.20961507402E+03 -0.70066358493E+03  0.80092038829E+03  0.46999998093E+01 0.  1.
</event>
<event>
 5   0  0.9170776E-04  0.1219163E+04  0.7818609E-02  0.9096247E-01
        1   -1    0    0  501    0  0.00000000000E+00  0.00000000000E+00  0.14655951617E+04  0.14655951617E+04  0.50400001928E-02 0. -1.
       -1   -1    0    0    0  501  0.00000000000E+00  0.00000000000E+00 -0.25354164442E+03  0.25354164447E+03  0.50400001928E-02 0.  1.
    10030    2    1    2    0    0  0.00000000000E+00  0.00000000000E+00  0.12120535173E+04  0.17191368062E+04  0.12191626756E+04 0.  0.
        5    1    3    3  502    0  0.44587956074E+03 -0.38832536056E+03  0.39705567368E+03  0.71223624335E+03  0.46999998093E+01 0.  1.
       -5    1    3    3    0  502 -0.44587956074E+03  0.38832536056E+03  0.81499784362E+03  0.10069005628E+04  0.46999998093E+01 0. -1.
</event>
<event>
 5   0  0.1597352E-03  0.1200954E+04  0.7818609E-02  0.9112022E-01
       -2   -1    0    0    0  501  0.00000000000E+00  0.00000000000E+00  0.10700347578E+04  0.10700347578E+04  0.25500000920E-02 0.  1.
        2   -1    0    0  501    0  0.00000000000E+00  0.00000000000E+00 -0.33697302322E+03  0.33697302323E+03  0.25500000920E-02 0. -1.
    10030    2    1    2    0    0  0.00000000000E+00  0.00000000000E+00  0.73306173459E+03  0.14070077811E+04  0.12009543660E+04 0.  0.
        1    1    3    3  502    0  0.27999743695E+03  0.29859256999E+03 -0.14818493786E+03  0.43533304881E+03  0.50400001928E-02 0. -1.
       -1    1    3    3    0  502 -0.27999743695E+03 -0.29859256999E+03  0.88124667245E+03  0.97167473224E+03  0.50400001928E-02 0.  1.
</event>
<event>
 5   0  0.1537557E-03  0.1201072E+04  0.7818609E-02  0.9111918E-01
        2   -1    0    0  501    0  0.00000000000E+00  0.00000000000E+00  0.18150380087E+04  0.18150380087E+04  0.25500000920E-02 0. -1.
       -2   -1    0    0    0  501  0.00000000000E+00  0.00000000000E+00 -0.19869759813E+03  0.19869759814E+03  0.25500000920E-02 0.  1.
    10030    2    1    2    0    0  0.00000000000E+00  0.00000000000E+00  0.16163404105E+04  0.20137356068E+04  0.12010723423E+04 0.  0.
        2    1    3    3  502    0  0.33219836755E+03 -0.14139256799E+03  0.35766399943E+01  0.36105457489E+03  0.25500000920E-02 0.  1.
       -2    1    3    3    0  502 -0.33219836755E+03  0.14139256799E+03  0.16127637705E+04  0.16526810319E+04  0.25500000920E-02 0. -1.
</event>
<event>
 5   0  0.1537557E-03  0.1194304E+04  0.7818609E-02  0.9117857E-01
       -2   -1    0    0    0  501  0.00000000000E+00  0.00000000000E+00  0.44150515035E+03  0.44150515036E+03  0.25500000920E-02 0. -1.
        2   -1    0    0  501    0  0.00000000000E+00  0.00000000000E+00 -0.80766950940E+03  0.80766950941E+03  0.25500000920E-02 0.  1.
    10030    2    1    2    0    0  0.00000000000E+00  0.00000000000E+00 -0.36616435905E+03  0.12491746598E+04  0.11943035597E+04 0.  0.
        2    1    3    3  502    0  0.11339857151E+03 -0.94433308249E+02 -0.78829738424E+03  0.80199105465E+03  0.25500000920E-02 0.  1.
       -2    1    3    3    0  502 -0.11339857151E+03  0.94433308249E+02  0.42213302519E+03  0.44718360512E+03  0.25500000920E-02 0. -1.
</event>
<event>
 5   0  0.8908478E-04  0.1201023E+04  0.7818609E-02  0.9111961E-01
       -1   -1    0    0    0  501  0.00000000000E+00  0.00000000000E+00  0.32195166402E+03  0.32195166406E+03  0.50400001928E-02 0.  1.
        1   -1    0    0  501    0  0.00000000000E+00  0.00000000000E+00 -0.11200881784E+04  0.11200881784E+04  0.50400001928E-02 0. -1.
    10030    2    1    2    0    0  0.00000000000E+00  0.00000000000E+00 -0.79813651438E+03  0.14420398425E+04  0.12010233185E+04 0.  0.
        4    1    3    3  502    0 -0.13212624239E+03 -0.44068326444E+03  0.64326652515E+02  0.46454129483E+03  0.12699999809E+01 0.  1.
       -4    1    3    3    0  502  0.13212624239E+03  0.44068326444E+03 -0.86246316690E+03  0.97749854764E+03  0.12699999809E+01 0. -1.
</event>
<event>
 5   0  0.9169078E-04  0.1198413E+04  0.7818609E-02  0.9114247E-01
        1   -1    0    0  501    0  0.00000000000E+00  0.00000000000E+00  0.12873535908E+04  0.12873535908E+04  0.50400001928E-02 0.  1.
       -1   -1    0    0    0  501  0.00000000000E+00  0.00000000000E+00 -0.27890425140E+03  0.27890425144E+03  0.50400001928E-02 0. -1.
    10030    2    1    2    0    0  0.00000000000E+00  0.00000000000E+00  0.10084493394E+04  0.15662578423E+04  0.11984129331E+04 0.  0.
        1    1    3    3  502    0  0.26045547466E+03 -0.48294831014E+03  0.18954628972E+03  0.58052038769E+03  0.50400001928E-02 0. -1.
       -1    1    3    3    0  502 -0.26045547466E+03  0.48294831014E+03  0.81890304972E+03  0.98573745460E+03  0.50400001928E-02 0.  1.
</event>
<event>
 5   0  0.1567019E-03  0.1209658E+04  0.7818609E-02  0.9104444E-01
       -2   -1    0    0    0  501  0.00000000000E+00  0.00000000000E+00  0.16357335796E+03  0.16357335798E+03  0.25500000920E-02 0. -1.
        2   -1    0    0  501    0  0.00000000000E+00  0.00000000000E+00 -0.22364177523E+04  0.22364177523E+04  0.25500000920E-02 0.  1.
    10030    2    1    2    0    0  0.00000000000E+00  0.00000000000E+00 -0.20728443943E+04  0.23999911102E+04  0.12096584006E+04 0.  0.
        5    1    3    3  502    0 -0.19025867419E+03 -0.30964111790E+03 -0.19955911049E+04  0.20284185794E+04  0.46999998093E+01 0.  1.
       -5    1    3    3    0  502  0.19025867419E+03  0.30964111790E+03 -0.77253289386E+02  0.37157253089E+03  0.46999998093E+01 0. -1.
</event>
<event>
 5   0  0.9170776E-04  0.1196979E+04  0.7818609E-02  0.9115505E-01
        1   -1    0    0  501    0  0.00000000000E+00  0.00000000000E+00  0.11570722178E+04  0.11570722178E+04  0.50400001928E-02 0. -1.
       -1   -1    0    0    0  501  0.00000000000E+00  0.00000000000E+00 -0.30956553402E+03  0.30956553406E+03  0.50400001928E-02 0.  1.
    10030    2    1    2    0    0  0.00000000000E+00  0.00000000000E+00  0.84750668373E+03  0.14666377518E+04  0.11969789957E+04 0.  0.
        5    1    3    3  502    0  0.39713837478E+03  0.36944602393E+03  0.11387950669E+03  0.55425615500E+03  0.46999998093E+01 0.  1.
       -5    1    3    3    0  502 -0.39713837478E+03 -0.36944602393E+03  0.73362717704E+03  0.91238159682E+03  0.46999998093E+01 0. -1.
</event>
<event>
 5   0  0.1537557E-03  0.1203897E+04  0.7818609E-02  0.9109453E-01
       -2   -1    0    0    0  501  0.00000000000E+00  0.00000000000E+00  0.14170470160E+04  0.14170470160E+04  0.25500000920E-02 0.  1.
        2   -1    0    0  501    0  0.00000000000E+00  0.00000000000E+00 -0.25570201506E+03  0.25570201507E+03  0.25500000920E-02 0. -1.
    10030    2    1    2    0    0  0.00000000000E+00  0.00000000000E+00  0.11613450009E+04  0.16727490310E+04  0.12038966358E+04 0.  0.
        2    1    3    3  502    0  0.16955784090E+02  0.57093953390E+03  0.84460256124E+03  0.10196141115E+04  0.25500000920E-02 0.  1.
       -2    1    3    3    0  502 -0.16955784090E+02 -0.57093953390E+03  0.31674243967E+03  0.65313491951E+03  0.25500000920E-02 0. -1.
</event>
<event>
 5   0  0.1551501E-03  0.1209080E+04  0.7818609E-02  0.9104946E-01
       -2   -1    0    0    0  501  0.00000000000E+00  0.00000000000E+00  0.54223198623E+03  0.54223198624E+03  0.25500000920E-02 0.  1.
        2   -1    0    0  501    0  0.00000000000E+00  0.00000000000E+00 -0.67400775714E+03  0.67400775715E+03  0.25500000920E-02 0. -1.
    10030    2    1    2    0    0  0.00000000000E+00  0.00000000000E+00 -0.13177577091E+03  0.12162397434E+04  0.12090799227E+04 0.  0.
        4    1    3    3  502    0 -0.47499773075E+03  0.29338652399E+02  0.30912446518E+03  0.56748845681E+03  0.12699999809E+01 0.  1.
       -4    1    3    3    0  502  0.47499773075E+03 -0.29338652399E+02 -0.44090023609E+03  0.64875128657E+03  0.12699999809E+01 0. -1.
</event>
<event>
 5   0  0.8908478E-04  0.1201360E+04  0.7818609E-02  0.9111667E-01
        1   -1    0    0  501    0  0.00000000000E+00  0.00000000000E+00  0.48599920911E+03  0.48599920913E+03  0.50400001928E-02 0.  1.
       -1   -1    0    0    0  501  0.00000000000E+00  0.00000000000E+00 -0.74242248945E+03  0.74242248947E+03  0.50400001928E-02 0. -1.
    10030    2    1    2    0    0  0.00000000000E+00  0.00000000000E+00 -0.25642328034E+03  0.12284216986E+04  0.12013604667E+04 0.  0.
        4    1    3    3  502    0  0.16775476948E+03  0.42332447482E+03 -0.52878834132E+03  0.69782805653E+03  0.12699999809E+01 0. -1.
       -4    1    3    3    0  502 -0.16775476948E+03 -0.42332447482E+03  0.27236506098E+03  0.53059364207E+03  0.12699999809E+01 0.  1.
</event>
<event>
 5   0  0.1567019E-03  0.1202565E+04  0.7818609E-02  0.9110615E-01
       -2   -1    0    0    0  501  0.00000000000E+00  0.00000000000E+00  0.28518185575E+03  0.28518185576E+03  0.25500000920E-02 0.  1.
        2   -1    0    0  501    0  0.00000000000E+00  0.00000000000E+00 -0.12677537076E+04  0.12677537076E+04  0.25500000920E-02 0. -1.
    10030    2    1    2    0    0  0.00000000000E+00  0.00000000000E+00 -0.98257185185E+03  0.15529355634E+04  0.12025645180E+04 0.  0.
        5    1    3    3  502    0 -0.95257021105E+02  0.56171151299E+03 -0.24314259753E+03  0.61946278067E+03  0.46999998093E+01 0.  1.
       -5    1    3    3    0  502  0.95257021105E+02 -0.56171151299E+03 -0.73942925432E+03  0.93347278270E+03  0.46999998093E+01 0. -1.
</event>
<event>
 5   0  0.1647550E-03  0.1185410E+04  0.7818609E-02  0.9125724E-01
        2   -1    0    0  501    0  0.00000000000E+00  0.00000000000E+00  0.95260390385E+03  0.95260390385E+03  0.25500000920E-02 0.  1.
       -2   -1    0    0    0  501  0.00000000000E+00  0.00000000000E+00 -0.36877806990E+03  0.36877806991E+03  0.25500000920E-02 0. -1.
    10030    2    1    2    0    0  0.00000000000E+00  0.00000000000E+00  0.58382583395E+03  0.13213819738E+04  0.11854103577E+04 0.  0.
        3    1    3    3  502    0 -0.55613847610E+03 -0.15477831542E+03  0.14213927115E+03  0.59451653815E+03  0.10100000352E+00 0. -1.
       -3    1    3    3    0  502  0.55613847610E+03  0.15477831542E+03  0.44168656280E+03  0.72686543561E+03  0.10100000352E+00 0.  1.
</event>
<event>
 5   0  0.1551501E-03  0.1144437E+04  0.7818609E-02  0.9162931E-01
        2   -1    0    0  501    0  0.00000000000E+00  0.00000000000E+00  0.22050974662E+03  0.22050974664E+03  0.25500000920E-02 0. -1.
       -2   -1    0    0    0  501  0.00000000000E+00  0.00000000000E+00 -0.14848955130E+04  0.14848955130E+04  0.25500000920E-02 0.  1.
    10030    2    1    2    0    0  0.00000000000E+00  0.00000000000E+00 -0.12643857664E+04  0.17054052597E+04  0.11444368630E+04 0.  0.
        4    1    3    3  502    0 -0.35766819080E+03  0.25676910445E+03 -0.87566065737E+02  0.44891684806E+03  0.12699999809E+01 0.  1.
       -4    1    3    3    0  502  0.35766819080E+03 -0.25676910445E+03 -0.11768197007E+04  0.12564884116E+04  0.12699999809E+01 0. -1.
</event>
<event>
 5   0  0.9358428E-04  0.1203192E+04  0.7818609E-02  0.9110067E-01
       -1   -1    0    0    0  501  0.00000000000E+00  0.00000000000E+00  0.56127307159E+03  0.56127307162E+03  0.50400001928E-02 0. -1.
        1   -1    0    0  501    0  0.00000000000E+00  0.00000000000E+00 -0.64481607419E+03  0.64481607421E+03  0.50400001928E-02 0.  1.
    10030    2    1    2    0    0  0.00000000000E+00  0.00000000000E+00 -0.83543002596E+02  0.12060891458E+04  0.12031922516E+04 0.  0.
        2    1    3    3  502    0 -0.55465358237E+03 -0.13293579724E+02  0.19138383232E+03  0.58689444279E+03  0.25500000920E-02 0. -1.
       -2    1    3    3    0  502  0.55465358237E+03  0.13293579724E+02 -0.27492683492E+03  0.61919470303E+03  0.25500000920E-02 0.  1.
</event>
<event>
 5   0  0.1647550E-03  0.1201235E+04  0.7818609E-02  0.9111776E-01
       -2   -1    0    0    0  501  0.00000000000E+00  0.00000000000E+00  0.27694912628E+03  0.27694912630E+03  0.25500000920E-02 0.  1.
        2   -1    0    0  501    0  0.00000000000E+00  0.00000000000E+00 -0.13025542480E+04  0.13025542480E+04  0.25500000920E-02 0. -1.
    10030    2    1    2    0    0  0.00000000000E+00  0.00000000000E+00 -0.10256051217E+04  0.15795033743E+04  0.12012347996E+04 0.  0.
        3    1    3    3  502    0  0.67177210512E+02  0.15562592810E+03 -0.12704507851E+04  0.12817087870E+04  0.10100000352E+00 0. -1.
       -3    1    3    3    0  502 -0.67177210512E+02 -0.15562592810E+03  0.24484566342E+03  0.29779458726E+03  0.10100000352E+00 0.  1.
</event>
<event>
 5   0  0.9208078E-04  0.1194831E+04  0.7818609E-02  0.9117393E-01
       -1   -1    0    0    0  501  0.00000000000E+00  0.00000000000E+00  0.80906134580E+03  0.80906134582E+03  0.50400001928E-02 0.  1.
        1   -1    0    0  501    0  0.00000000000E+00  0.00000000000E+00 -0.44113487264E+03  0.44113487267E+03  0.50400001928E-02 0. -1.
    10030    2    1    2    0    0  0.00000000000E+00  0.00000000000E+00  0.36792647316E+03  0.12501962185E+04  0.11948308228E+04 0.  0.
        3    1    3    3  502    0 -0.18380485969E+02 -0.58983999840E+03  0.28131253714E+03  0.65374751987E+03  0.10100000352E+00 0.  1.
       -3    1    3    3    0  502  0.18380485969E+02  0.58983999840E+03  0.86613936012E+02  0.59644869862E+03  0.10100000352E+00 0. -1.
</event>
<event>
 5   0  0.1551501E-03  0.1235783E+04  0.7818609E-02  0.9082100E-01
       -2   -1    0    0    0  501  0.00000000000E+00  0.00000000000E+00  0.68899460423E+03  0.68899460424E+03  0.25500000920E-02 0.  1.
        2   -1    0    0  501    0  0.00000000000E+00  0.00000000000E+00 -0.55412603092E+03  0.55412603092E+03  0.25500000920E-02 0. -1.
    10030    2    1    2    0    0  0.00000000000E+00  0.00000000000E+00  0.13486857332E+03  0.12431206352E+04  0.12357829022E+04 0.  0.
        4    1    3    3  502    0 -0.21395195722E+03 -0.24083589654E+03  0.59783240738E+03  0.67910424035E+03  0.12699999809E+01 0.  1.
       -4    1    3    3    0  502  0.21395195722E+03  0.24083589654E+03 -0.46296383406E+03  0.56401639480E+03  0.12699999809E+01 0. -1.
</event>
<event>
 5   0  0.9169078E-04  0.1217814E+04  0.7818609E-02  0.9097405E-01
       -1   -1    0    0    0  501  0.00000000000E+00  0.00000000000E+00  0.34766335981E+03  0.34766335985E+03  0.50400001928E-02 0. -1.
        1   -1    0    0  501    0  0.00000000000E+00  0.00000000000E+00 -0.10664564703E+04  0.10664564703E+04  0.50400001928E-02 0.  1.
    10030    2    1    2    0    0  0.00000000000E+00  0.00000000000E+00 -0.71879311052E+03  0.14141198302E+04  0.12178141724E+04 0.  0.
        1    1    3    3  502    0 -0.12423086943E+03  0.59100206627E+03 -0.26906865090E+03  0.66114649676E+03  0.50400001928E-02 0. -1.
       -1    1    3    3    0  502  0.12423086943E+03 -0.59100206627E+03 -0.44972445962E+03  0.75297333343E+03  0.50400001928E-02 0.  1.
</event>
<event>
 5   0  0.1567019E-03  0.1211777E+04  0.7818609E-02  0.9102610E-01
        2   -1    0    0  501    0  0.00000000000E+00  0.00000000000E+00  0.14775087831E+04  0.14775087831E+04  0.25500000920E-02 0. -1.
       -2   -1    0    0    0  501  0.00000000000E+00  0.00000000000E+00 -0.24845925225E+03  0.24845925226E+03  0.25500000920E-02 0.  1.
    10030    2    1    2    0    0  0.00000000000E+00  0.00000000000E+00  0.12290495308E+04  0.17259680353E+04  0.12117767574E+04 0.  0.
        5    1    3    3  502    0 -0.20430307064E+03  0.37273927755E+03  0.12294723798E+04  0.13008838290E+04  0.46999998093E+01 0. -1.
       -5    1    3    3    0  502  0.20430307064E+03 -0.37273927755E+03 -0.42284900620E+00  0.42508420636E+03  0.46999998093E+01 0.  1.
</event>
<event>
 5   0  0.9170776E-04  0.1213728E+04  0.7818609E-02  0.9100924E-01
       -1   -1    0    0    0  501  0.00000000000E+00  0.00000000000E+00  0.33813991863E+03  0.33813991867E+03  0.50400001928E-02 0.  1.
        1   -1    0    0  501    0  0.00000000000E+00  0.00000000000E+00 -0.10891467558E+04  0.10891467558E+04  0.50400001928E-02 0. -1.
    10030    2    1    2    0    0  0.00000000000E+00  0.00000000000E+00 -0.75100683715E+03  0.14272866745E+04  0.12137281333E+04 0.  0.
        5    1    3    3  502    0 -0.12853258741E+03 -0.65495202495E+02 -0.10686689944E+04  0.10783718084E+04  0.46999998093E+01 0. -1.
       -5    1    3    3    0  502  0.12853258741E+03  0.65495202495E+02  0.31766215727E+03  0.34891486603E+03  0.46999998093E+01 0.  1.
</event>
<event>
 5   0  0.9170776E-04  0.1218146E+04  0.7818609E-02  0.9097120E-01
        1   -1    0    0  501    0  0.00000000000E+00  0.00000000000E+00  0.12951169459E+04  0.12951169459E+04  0.50400001928E-02 0.  1.
       -1   -1    0    0    0  501  0.00000000000E+00  0.00000000000E+00 -0.28643739784E+03  0.28643739788E+03  0.50400001928E-02 0. -1.
    10030    2    1    2    0    0  0.00000000000E+00  0.00000000000E+00  0.10086795480E+04  0.15815543438E+04  0.12181460141E+04 0.  0.
        5    1    3    3  502    0 -0.45799484236E+03 -0.22293788119E+03  0.70831492466E+02  0.51429540619E+03  0.46999998093E+01 0. -1.
       -5    1    3    3    0  502  0.45799484236E+03  0.22293788119E+03  0.93784805557E+03  0.10672589376E+04  0.46999998093E+01 0.  1.
</event>
<event>
 5   0  0.1567019E-03  0.1165646E+04  0.7818609E-02  0.9143470E-01
        2   -1    0    0  501    0  0.00000000000E+00  0.00000000000E+00  0.36429877675E+03  0.36429877676E+03  0.25500000920E-02 0.  1.
       -2   -1    0    0    0  501  0.00000000000E+00  0.00000000000E+00 -0.93242853104E+03  0.93242853104E+03  0.25500000920E-02 0. -1.
    10030    2    1    2    0    0  0.00000000000E+00  0.00000000000E+00 -0.56812975429E+03  0.12967273078E+04  0.11656458695E+04 0.  0.
        5    1    3    3  502    0  0.22538908155E+03 -0.96787599048E+02 -0.87218634666E+03  0.90603487279E+03  0.46999998093E+01 0. -1.
       -5    1    3    3    0  502 -0.22538908155E+03  0.96787599048E+02  0.30405659238E+03  0.39069243501E+03  0.46999998093E+01 0.  1.
</event>
<event>
 5   0  0.8908478E-04  0.1202429E+04  0.7818609E-02  0.9110733E-01
        1   -1    0    0  501    0  0.00000000000E+00  0.00000000000E+00  0.14859493449E+04  0.14859493449E+04  0.50400001928E-02 0.  1.
       -1   -1    0    0    0  501  0.00000000000E+00  0.00000000000E+00 -0.24325125192E+03  0.24325125198E+03  0.50400001928E-02 0. -1.
    10030    2    1    2    0    0  0.00000000000E+00  0.00000000000E+00  0.12426980930E+04  0.17292005969E+04  0.12024292719E+04 0.  0.
        4    1    3    3  502    0 -0.24968202348E+03  0.42335748020E+03  0.11192785038E+04  0.12224396308E+04  0.12699999809E+01 0.  1.
       -4    1    3    3    0  502  0.24968202348E+03 -0.42335748020E+03  0.12341958917E+03  0.50676096612E+03  0.12699999809E+01 0. -1.
</event>
<event>
 5   0  0.8908478E-04  0.1204265E+04  0.7818609E-02  0.9109132E-01
        1   -1    0    0  501    0  0.00000000000E+00  0.00000000000E+00  0.11836473991E+04  0.11836473991E+04  0.50400001928E-02 0.  1.
       -1   -1    0    0    0  501  0.00000000000E+00  0.00000000000E+00 -0.30631030982E+03  0.30631030986E+03  0.50400001928E-02 0. -1.
    10030    2    1    2    0    0  0.00000000000E+00  0.00000000000E+00  0.87733708931E+03  0.14899577090E+04  0.12042647576E+04 0.  0.
        4    1    3    3  502    0  0.56756964117E+03 -0.16571383601E+03  0.57954719641E+03  0.82793293133E+03  0.12699999809E+01 0.  1.
       -4    1    3    3    0  502 -0.56756964117E+03  0.16571383601E+03  0.29778989290E+03  0.66202477766E+03  0.12699999809E+01 0. -1.
</event>
<event>
 5   0  0.9170776E-04  0.1239064E+04  0.7818609E-02  0.9079334E-01
        1   -1    0    0  501    0  0.00000000000E+00  0.00000000000E+00  0.12133910775E+04  0.12133910776E+04  0.50400001928E-02 0. -1.
       -1   -1    0    0    0  501  0.00000000000E+00  0.00000000000E+00 -0.31632024009E+03  0.31632024013E+03  0.50400001928E-02 0.  1.
    10030    2    1    2    0    0  0.00000000000E+00  0.00000000000E+00  0.89707083745E+03  0.15297113177E+04  0.12390644164E+04 0.  0.
        5    1    3    3  502    0 -0.36364542014E+02  0.17224750587E+03 -0.28476827702E+03  0.33482330383E+03  0.46999998093E+01 0.  1.
       -5    1    3    3    0  502  0.36364542014E+02 -0.17224750587E+03  0.11818391145E+04  0.11948880139E+04  0.46999998093E+01 0. -1.
</event>
<event>
 5   0  0.9358428E-04  0.1198615E+04  0.7818609E-02  0.9114070E-01
       -1   -1    0    0    0  501  0.00000000000E+00  0.00000000000E+00  0.31613507992E+03  0.31613507996E+03  0.50400001928E-02 0. -1.
        1   -1    0    0  501    0  0.00000000000E+00  0.00000000000E+00 -0.11361263514E+04  0.11361263514E+04  0.50400001928E-02 0.  1.
    10030    2    1    2    0    0  0.00000000000E+00  0.00000000000E+00 -0.81999127148E+03  0.14522614314E+04  0.11986148588E+04 0.  0.
        2    1    3    3  502    0 -0.40289053762E+03  0.12799147525E+03  0.10471577406E+03  0.43550889357E+03  0.25500000920E-02 0.  1.
       -2    1    3    3    0  502  0.40289053762E+03 -0.12799147525E+03 -0.92470704554E+03  0.10167525378E+04  0.25500000920E-02 0. -1.
</event>
<event>
 5   0  0.8908478E-04  0.1200355E+04  0.7818609E-02  0.9112546E-01
       -1   -1    0    0    0  501  0.00000000000E+00  0.00000000000E+00  0.81345204091E+03  0.81345204093E+03  0.50400001928E-02 0.  1.
        1   -1    0    0  501    0  0.00000000000E+00  0.00000000000E+00 -0.44282036959E+03  0.44282036962E+03  0.50400001928E-02 0. -1.
    10030    2    1    2    0    0  0.00000000000E+00  0.00000000000E+00  0.37063167132E+03  0.12562724106E+04  0.12003551698E+04 0.  0.
        4    1    3    3  502    0 -0.48397690107E+03 -0.20954288938E+03 -0.11450745390E+03  0.53968086233E+03  0.12699999809E+01 0.  1.
       -4    1    3    3    0  502  0.48397690107E+03  0.20954288938E+03  0.48513912522E+03  0.71659154822E+03  0.12699999809E+01 0. -1.
</event>
<event>
 5   0  0.8908478E-04  0.1202363E+04  0.7818609E-02  0.9110790E-01
       -1   -1    0    0    0  501  0.00000000000E+00  0.00000000000E+00  0.53667721683E+03  0.53667721685E+03  0.50400001928E-02 0.  1.
        1   -1    0    0  501    0  0.00000000000E+00  0.00000000000E+00 -0.67343899921E+03  0.67343899923E+03  0.50400001928E-02 0. -1.
    10030    2    1    2    0    0  0.00000000000E+00  0.00000000000E+00 -0.13676178238E+03  0.12101162161E+04  0.12023632859E+04 0.  0.
        4    1    3    3  502    0 -0.14596718709E+03 -0.62814370183E+02 -0.65191744629E+03  0.67100673207E+03  0.12699999809E+01 0. -1.
       -4    1    3    3    0  502  0.14596718709E+03  0.62814370183E+02  0.51515566390E+03  0.53910948402E+03  0.12699999809E+01 0.  1.
</event>
<event>
 5   0  0.9169078E-04  0.1235050E+04  0.7818609E-02  0.9082719E-01
       -1   -1    0    0    0  501  0.00000000000E+00  0.00000000000E+00  0.85161777052E+03  0.85161777053E+03  0.50400001928E-02 0.  1.
        1   -1    0    0  501    0  0.00000000000E+00  0.00000000000E+00 -0.44777952027E+03  0.44777952030E+03  0.50400001928E-02 0. -1.
    10030    2    1    2    0    0  0.00000000000E+00  0.00000000000E+00  0.40383825024E+03  0.12993972908E+04  0.12350497913E+04 0.  0.
        1    1    3    3  502    0  0.28285090631E+03 -0.41607102388E+03  0.57864959222E+03  0.76678229160E+03  0.50400001928E-02 0.  1.
       -1    1    3    3    0  502 -0.28285090631E+03  0.41607102388E+03 -0.17481134197E+03  0.53261499924E+03  0.50400001928E-02 0. -1.
</event>
<event>
 5   0  0.1537557E-03  0.1193124E+04  0.7818609E-02  0.9118896E-01
        2   -1    0    0  501    0  0.00000000000E+00  0.00000000000E+00  0.55324491256E+03  0.55324491256E+03  0.25500000920E-02 0. -1.
       -2   -1    0    0    0  501  0.00000000000E+00  0.00000000000E+00 -0.64327115563E+03  0.64327115564E+03  0.25500000920E-02 0.  1.
    10030    2    1    2    0    0  0.00000000000E+00  0.00000000000E+00 -0.90026243072E+02  0.11965160682E+04  0.11931244600E+04 0.  0.
        2    1    3    3  502    0 -0.96528793519E+02  0.18206057344E+02  0.54507879532E+03  0.55385933378E+03  0.25500000920E-02 0. -1.
       -2    1    3    3    0  502  0.96528793519E+02 -0.18206057344E+02 -0.63510503839E+03  0.64265673442E+03  0.25500000920E-02 0.  1.
</event>
<event>
 5   0  0.9169078E-04  0.1212267E+04  0.7818609E-02  0.9102187E-01
       -1   -1    0    0    0  501  0.00000000000E+00  0.00000000000E+00  0.59099181947E+03  0.59099181949E+03  0.50400001928E-02 0.  1.
        1   -1    0    0  501    0  0.00000000000E+00  0.00000000000E+00 -0.62166287554E+03  0.62166287556E+03  0.50400001928E-02 0. -1.
    10030    2    1    2    0    0  0.00000000000E+00  0.00000000000E+00 -0.30671056077E+02  0.12126546951E+04  0.12122667593E+04 0.  0.
        1    1    3    3  502    0 -0.95033725935E+02 -0.30966454343E+02 -0.61336238945E+03  0.62145293561E+03  0.50400001928E-02 0. -1.
       -1    1    3    3    0  502  0.95033725935E+02  0.30966454343E+02  0.58269133337E+03  0.59120175944E+03  0.50400001928E-02 0.  1.
</event>
<event>
 5   0  0.8908478E-04  0.1198550E+04  0.7818609E-02  0.9114126E-01
        1   -1    0    0  501    0  0.00000000000E+00  0.00000000000E+00  0.93345856754E+03  0.93345856755E+03  0.50400001928E-02 0.  1.
       -1   -1    0    0    0  501  0.00000000000E+00  0.00000000000E+00 -0.38473128917E+03  0.38473128920E+03  0.50400001928E-02 0. -1.
    10030    2    1    2    0    0  0.00000000000E+00  0.00000000000E+00  0.54872727837E+03  0.13181898568E+04  0.11985503212E+04 0.  0.
        4    1    3    3  502    0 -0.20077140838E+03 -0.48589969624E+03 -0.41959319998E+02  0.52741811749E+03  0.12699999809E+01 0.  1.
       -4    1    3    3    0  502  0.20077140838E+03  0.48589969624E+03  0.59068659837E+03  0.79077173926E+03  0.12699999809E+01 0. -1.
</event>
<event>
 5   0  0.1567019E-03  0.1206281E+04  0.7818609E-02  0.9107376E-01
       -2   -1    0    0    0  501  0.00000000000E+00  0.00000000000E+00  0.57101966713E+03  0.57101966714E+03  0.25500000920E-02 0.  1.
        2   -1    0    0  501    0  0.00000000000E+00  0.00000000000E+00 -0.63706853008E+03  0.63706853008E+03  0.25500000920E-02 0. -1.
    10030    2    1    2    0    0  0.00000000000E+00  0.00000000000E+00 -0.66048862950E+02  0.12080881972E+04  0.12062813270E+04 0.  0.
        5    1    3    3  502    0  0.50850645464E+03 -0.22425750494E+03 -0.26765366446E+03  0.61687179951E+03  0.46999998093E+01 0. -1.
       -5    1    3    3    0  502 -0.50850645464E+03  0.22425750494E+03  0.20160480151E+03  0.59121639771E+03  0.46999998093E+01 0.  1.
</event>
<event>
 5   0  0.1567019E-03  0.1216124E+04  0.7818609E-02  0.9098859E-01
       -2   -1    0    0    0  501  0.00000000000E+00  0.00000000000E+00  0.25805270541E+03  0.25805270542E+03  0.25500000920E-02 0.  1.
        2   -1    0    0  501    0  0.00000000000E+00  0.00000000000E+00 -0.14328047761E+04  0.14328047762E+04  0.25500000920E-02 0. -1.
    10030    2    1    2    0    0  0.00000000000E+00  0.00000000000E+00 -0.11747520707E+04  0.16908574816E+04  0.12161235938E+04 0.  0.
        5    1    3    3  502    0  0.34090219674E+03  0.48070422429E+03 -0.37916337505E+03  0.70076944423E+03  0.46999998093E+01 0.  1.
       -5    1    3    3    0  502 -0.34090219674E+03 -0.48070422429E+03 -0.79558869569E+03  0.99008803735E+03  0.46999998093E+01 0. -1.
</event>
<event>
 5   0  0.9208078E-04  0.1202229E+04  0.7818609E-02  0.9110907E-01
        1   -1    0    0  501    0  0.00000000000E+00  0.00000000000E+00  0.45616402937E+03  0.45616402939E+03  0.50400001928E-02 0.  1.
       -1   -1    0    0    0  501  0.00000000000E+00  0.00000000000E+00 -0.79212477196E+03  0.79212477198E+03  0.50400001928E-02 0. -1.
    10030    2    1    2    0    0  0.00000000000E+00  0.00000000000E+00 -0.33596074260E+03  0.12482888014E+04  0.12022293089E+04 0.  0.
        3    1    3    3  502    0  0.23072306120E+03  0.45697398893E+03  0.15917921739E+03  0.53609364012E+03  0.10100000352E+00 0.  1.
       -3    1    3    3    0  502 -0.23072306120E+03 -0.45697398893E+03 -0.49513995999E+03  0.71219516125E+03  0.10100000352E+00 0. -1.
</event>
<event>
 5   0  0.8908478E-04  0.1236344E+04  0.7818609E-02  0.9081626E-01
        1   -1    0    0  501    0  0.00000000000E+00  0.00000000000E+00  0.78083838600E+03  0.78083838602E+03  0.50400001928E-02 0.  1.
       -1   -1    0    0    0  501  0.00000000000E+00  0.00000000000E+00 -0.48939285310E+03  0.48939285312E+03  0.50400001928E-02 0. -1.
    10030    2    1    2    0    0  0.00000000000E+00  0.00000000000E+00  0.29144553290E+03  0.12702312391E+04  0.12363441682E+04 0.  0.
        4    1    3    3  502    0  0.14320878042E+03 -0.38975143475E+03 -0.32478144205E+03  0.52716177183E+03  0.12699999809E+01 0. -1.
       -4    1    3    3    0  502 -0.14320878042E+03  0.38975143475E+03  0.61622697495E+03  0.74306946731E+03  0.12699999809E+01 0.  1.
</event>
<event>
 5   0  0.9358428E-04  0.1298740E+04  0.7818609E-02  0.9030565E-01
        1   -1    0    0  501    0  0.00000000000E+00  0.00000000000E+00  0.87479485152E+03  0.87479485154E+03  0.50400001928E-02 0.  1.
       -1   -1    0    0    0  501  0.00000000000E+00  0.00000000000E+00 -0.48203443098E+03  0.48203443101E+03  0.50400001928E-02 0. -1.
    10030    2    1    2    0    0  0.00000000000E+00  0.00000000000E+00  0.39276042054E+03  0.13568292825E+04  0.12987397561E+04 0.  0.
        2    1    3    3  502    0  0.31323800104E+02  0.23418511825E+03  0.82829568058E+03  0.86133476915E+03  0.25500000920E-02 0.  1.
       -2    1    3    3    0  502 -0.31323800104E+02 -0.23418511825E+03 -0.43553526004E+03  0.49549451340E+03  0.25500000920E-02 0. -1.
</event>
<event>
 5   0  0.1551501E-03  0.1068247E+04  0.7818609E-02  0.9236705E-01
        2   -1    0    0  501    0  0.00000000000E+00  0.00000000000E+00  0.10859347163E+04  0.10859347163E+04  0.25500000920E-02 0.  1.
       -2   -1    0    0    0  501  0.00000000000E+00  0.00000000000E+00 -0.26271188196E+03  0.26271188197E+03  0.25500000920E-02 0. -1.
    10030    2    1    2    0    0  0.00000000000E+00  0.00000000000E+00  0.82322283433E+03  0.13486465983E+04  0.10682470744E+04 0.  0.
        4    1    3    3  502    0  0.75367433064E+02  0.32714785919E+03  0.93608322098E+03  0.99446436901E+03  0.12699999809E+01 0.  1.
       -4    1    3    3    0  502 -0.75367433064E+02 -0.32714785919E+03 -0.11286038665E+03  0.35418222924E+03  0.12699999809E+01 0. -1.
</event>
<event>
 5   0  0.6137750E-04  0.1199125E+04  0.7818609E-02  0.9113622E-01
        3   -1    0    0  501    0  0.00000000000E+00  0.00000000000E+00  0.84633189829E+03  0.84633190431E+03  0.10100000352E+00 0.  1.
       -3   -1    0    0    0  501  0.00000000000E+00  0.00000000000E+00 -0.42474520696E+03  0.42474521896E+03  0.10100000352E+00 0. -1.
    10030    2    1    2    0    0  0.00000000000E+00  0.00000000000E+00  0.42158669133E+03  0.12710771233E+04  0.11991253959E+04 0.  0.
        2    1    3    3  502    0  0.45636408971E+03  0.23700637353E+03  0.53756893443E+03  0.74392241715E+03  0.25500000920E-02 0.  1.
       -2    1    3    3    0  502 -0.45636408971E+03 -0.23700637353E+03 -0.11598224310E+03  0.52715470613E+03  0.25500000920E-02 0. -1.
</event>
<event>
 5   0  0.9208078E-04  0.1195303E+04  0.7818609E-02  0.9116977E-01
        1   -1    0    0  501    0  0.00000000000E+00  0.00000000000E+00  0.60175944217E+03  0.60175944219E+03  0.50400001928E-02 0.  1.
       -1   -1    0    0    0  501  0.00000000000E+00  0.00000000000E+00 -0.59357198150E+03  0.59357198152E+03  0.50400001928E-02 0. -1.
    10030    2    1    2    0    0  0.00000000000E+00  0.00000000000E+00  0.81874606715E+01  0.11953314237E+04  0.11953033833E+04 0.  0.
        3    1    3    3  502    0  0.22677982984E+03 -0.45198696363E+03 -0.31445138172E+03  0.59548382697E+03  0.10100000352E+00 0. -1.
       -3    1    3    3    0  502 -0.22677982984E+03  0.45198696363E+03  0.32263884239E+03  0.59984759675E+03  0.10100000352E+00 0.  1.
</event>
<event>
 5   0  0.1537557E-03  0.1285623E+04  0.7818609E-02  0.9041045E-01
       -2   -1    0    0    0  501  0.00000000000E+00  0.00000000000E+00  0.21453145194E+03  0.21453145195E+03  0.25500000920E-02 0. -1.
        2   -1    0    0  501    0  0.00000000000E+00  0.00000000000E+00 -0.19260887271E+04  0.19260887271E+04  0.25500000920E-02 0.  1.
    10030    2    1    2    0    0  0.00000000000E+00  0.00000000000E+00 -0.17115572752E+04  0.21406201791E+04  0.12856229793E+04 0.  0.
        2    1    3    3  502    0  0.54739426937E+03 -0.24461824808E+03 -0.46983269594E+03  0.76172261067E+03  0.25500000920E-02 0. -1.
       -2    1    3    3    0  502 -0.54739426937E+03  0.24461824808E+03 -0.12417245793E+04  0.13788975684E+04  0.25500000920E-02 0.  1.
</event>
<event>
 5   0  0.1567019E-03  0.1203389E+04  0.7818609E-02  0.9109895E-01
        2   -1    0    0  501    0  0.00000000000E+00  0.00000000000E+00  0.35570890776E+03  0.35570890777E+03  0.25500000920E-02 0. -1.
       -2   -1    0    0    0  501  0.00000000000E+00  0.00000000000E+00 -0.10177878443E+04  0.10177878443E+04  0.25500000920E-02 0.  1.
    10030    2    1    2    0    0  0.00000000000E+00  0.00000000000E+00 -0.66207893655E+03  0.13734967521E+04  0.12033888855E+04 0.  0.
        5    1    3    3  502    0  0.47601246184E+03 -0.11136019697E+02 -0.75087010763E+03  0.88912309794E+03  0.46999998093E+01 0.  1.
       -5    1    3    3    0  502 -0.47601246184E+03  0.11136019697E+02  0.88791171079E+02  0.48437365414E+03  0.46999998093E+01 0. -1.
</event>
<event>
 5   0  0.1647550E-03  0.1192046E+04  0.7818609E-02  0.9119847E-01
       -2   -1    0    0    0  501  0.00000000000E+00  0.00000000000E+00  0.33284526033E+03  0.33284526034E+03  0.25500000920E-02 0. -1.
        2   -1    0    0  501    0  0.00000000000E+00  0.00000000000E+00 -0.10672935062E+04  0.10672935062E+04  0.25500000920E-02 0.  1.
    10030    2    1    2    0    0  0.00000000000E+00  0.00000000000E+00 -0.73444824589E+03  0.14001387666E+04  0.11920462826E+04 0.  0.
        3    1    3    3  502    0 -0.46596567389E+03 -0.31193850831E+03 -0.12993262181E+03  0.57559720171E+03  0.10100000352E+00 0. -1.
       -3    1    3    3    0  502  0.46596567389E+03  0.31193850831E+03 -0.60451562408E+03  0.82454156485E+03  0.10100000352E+00 0.  1.
</event>
<event>
 5   0  0.6137750E-04  0.1195494E+04  0.7818609E-02  0.9116810E-01
        4   -1    0    0  501    0  0.00000000000E+00  0.00000000000E+00  0.31036371756E+03  0.31036631595E+03  0.12699999809E+01 0.  1.
       -4   -1    0    0    0  501  0.00000000000E+00  0.00000000000E+00 -0.11512264982E+04  0.11512271988E+04  0.12699999809E+01 0. -1.
    10030    2    1    2    0    0  0.00000000000E+00  0.00000000000E+00 -0.84086278068E+03  0.14615935147E+04  0.11954937835E+04 0.  0.
        5    1    3    3  502    0 -0.24677264435E+02  0.10812936725E+03  0.29765251424E+03  0.31767914108E+03  0.46999998093E+01 0.  1.
       -5    1    3    3    0  502  0.24677264435E+02 -0.10812936725E+03 -0.11385152949E+04  0.11439143736E+04  0.46999998093E+01 0. -1.
</event>
<event>
 5   0  0.1647550E-03  0.1158146E+04  0.7818609E-02  0.9150301E-01
       -2   -1    0    0    0  501  0.00000000000E+00  0.00000000000E+00  0.15785526157E+04  0.15785526157E+04  0.25500000920E-02 0.  1.
        2   -1    0    0  501    0  0.00000000000E+00  0.00000000000E+00 -0.21242590512E+03  0.21242590513E+03  0.25500000920E-02 0. -1.
    10030    2    1    2    0    0  0.00000000000E+00  0.00000000000E+00  0.13661267106E+04  0.17909785208E+04  0.11581458771E+04 0.  0.
        3    1    3    3  502    0  0.89542522333E+01  0.56485831674E+03  0.48635571887E+03  0.74544415760E+03  0.10100000352E+00 0. -1.
       -3    1    3    3    0  502 -0.89542522333E+01 -0.56485831674E+03  0.87977099168E+03  0.10455343632E+04  0.10100000352E+00 0.  1.
</event>
<event>
 5   0  0.9170776E-04  0.1183751E+04  0.7818609E-02  0.9127199E-01
       -1   -1    0    0    0  501  0.00000000000E+00  0.00000000000E+00  0.52299414175E+03  0.52299414178E+03  0.50400001928E-02 0. -1.
        1   -1    0    0  501    0  0.00000000000E+00  0.00000000000E+00 -0.66982885692E+03  0.66982885694E+03  0.50400001928E-02 0.  1.
    10030    2    1    2    0    0  0.00000000000E+00  0.00000000000E+00 -0.14683471517E+03  0.11928229987E+04  0.11837509336E+04 0.  0.
        5    1    3    3  502    0  0.84547474048E+02 -0.56533005032E+03 -0.22804742549E+03  0.61544622790E+03  0.46999998093E+01 0.  1.
       -5    1    3    3    0  502 -0.84547474048E+02  0.56533005032E+03  0.81212710318E+02  0.57737677082E+03  0.46999998093E+01 0. -1.
</event>
<event>
 5   0  0.9208078E-04  0.1206049E+04  0.7818609E-02  0.9107578E-01
        1   -1    0    0  501    0  0.00000000000E+00  0.00000000000E+00  0.16992221600E+04  0.16992221600E+04  0.50400001928E-02 0.  1.
       -1   -1    0    0    0  501  0.00000000000E+00  0.00000000000E+00 -0.21400286769E+03  0.21400286775E+03  0.50400001928E-02 0. -1.
    10030    2    1    2    0    0  0.00000000000E+00  0.00000000000E+00  0.14852192923E+04  0.19132250277E+04  0.12060487803E+04 0.  0.
        3    1    3    3  502    0 -0.55493587174E+03 -0.13082267133E+03  0.10541584340E+04  0.11984650213E+04  0.10100000352E+00 0.  1.
       -3    1    3    3    0  502  0.55493587174E+03  0.13082267133E+03  0.43106085831E+03  0.71476000647E+03  0.10100000352E+00 0. -1.
</event>
<event>
 5   0  0.6137750E-04  0.1198217E+04  0.7818609E-02  0.9114419E-01
       -3   -1    0    0    0  501  0.00000000000E+00  0.00000000000E+00  0.42452167668E+03  0.42452168869E+03  0.10100000352E+00 0.  1.
        3   -1    0    0  501    0  0.00000000000E+00  0.00000000000E+00 -0.84549442038E+03  0.84549442641E+03  0.10100000352E+00 0. -1.
    10030    2    1    2    0    0  0.00000000000E+00  0.00000000000E+00 -0.42097274370E+03  0.12700161151E+04  0.11982165421E+04 0.  0.
        5    1    3    3  502    0 -0.54738451177E+03  0.77931403786E+02 -0.45497140575E+03  0.71604760838E+03  0.46999998093E+01 0. -1.
       -5    1    3    3    0  502  0.54738451177E+03 -0.77931403786E+02  0.33998662046E+02  0.55396850673E+03  0.46999998093E+01 0.  1.
</event>
<event>
 5   0  0.8908478E-04  0.1200038E+04  0.7818609E-02  0.9112823E-01
        1   -1    0    0  501    0  0.00000000000E+00  0.00000000000E+00  0.14055158672E+04  0.14055158672E+04  0.50400001928E-02 0. -1.
       -1   -1    0    0    0  501  0.00000000000E+00  0.00000000000E+00 -0.25615014490E+03  0.25615014495E+03  0.50400001928E-02 0.  1.
    10030    2    1    2    0    0  0.00000000000E+00  0.00000000000E+00  0.11493657223E+04  0.16616660122E+04  0.12000384879E+04 0.  0.
        4    1    3    3  502    0 -0.42340304961E+02 -0.56479665779E+03  0.84895214123E+03  0.10205436380E+04  0.12699999809E+01 0. -1.
       -4    1    3    3    0  502  0.42340304961E+02  0.56479665779E+03  0.30041358110E+03  0.64112237419E+03  0.12699999809E+01 0.  1.
</event>
<event>
 5   0  0.1551501E-03  0.1199341E+04  0.7818609E-02  0.9113434E-01
        2   -1    0    0  501    0  0.00000000000E+00  0.00000000000E+00  0.57929560824E+03  0.57929560824E+03  0.25500000920E-02 0. -1.
       -2   -1    0    0    0  501  0.00000000000E+00  0.00000000000E+00 -0.62076151037E+03  0.62076151038E+03  0.25500000920E-02 0.  1.
    10030    2    1    2    0    0  0.00000000000E+00  0.00000000000E+00 -0.41465902134E+02  0.12000571186E+04  0.11993405133E+04 0.  0.
        4    1    3    3  502    0 -0.38829414202E+03 -0.15794662285E+03 -0.44980536156E+03  0.61485441577E+03  0.12699999809E+01 0.  1.
       -4    1    3    3    0  502  0.38829414202E+03  0.15794662285E+03  0.40833945943E+03  0.58520270285E+03  0.12699999809E+01 0. -1.
</event>
<event>
 5   0  0.8908478E-04  0.1203130E+04  0.7818609E-02  0.9110121E-01
        1   -1    0    0  501    0  0.00000000000E+00  0.00000000000E+00  0.52721718556E+03  0.52721718559E+03  0.50400001928E-02 0.  1.
       -1   -1    0    0    0  501  0.00000000000E+00  0.00000000000E+00 -0.68639739574E+03  0.68639739576E+03  0.50400001928E-02 0. -1.
    10030    2    1    2    0    0  0.00000000000E+00  0.00000000000E+00 -0.15918021017E+03  0.12136145813E+04  0.12031300897E+04 0.  0.
        4    1    3    3  502    0 -0.10624337161E+03 -0.26387348709E+03  0.45508751337E+03  0.53667786327E+03  0.12699999809E+01 0.  1.
       -4    1    3    3    0  502  0.10624337161E+03  0.26387348709E+03 -0.61426772354E+03  0.67693671808E+03  0.12699999809E+01 0. -1.
</event>
<event>
 5   0  0.1567019E-03  0.1197565E+04  0.7818609E-02  0.9114990E-01
       -2   -1    0    0    0  501  0.00000000000E+00  0.00000000000E+00  0.60075366834E+03  0.60075366834E+03  0.25500000920E-02 0.  1.
        2   -1    0    0  501    0  0.00000000000E+00  0.00000000000E+00 -0.59681818624E+03  0.59681818624E+03  0.25500000920E-02 0. -1.
    10030    2    1    2    0    0  0.00000000000E+00  0.00000000000E+00  0.39354820974E+01  0.11975718546E+04  0.11975653881E+04 0.  0.
        5    1    3    3  502    0  0.83256059271E+02  0.10678348125E+03 -0.58128864787E+03  0.59686921969E+03  0.46999998093E+01 0. -1.
       -5    1    3    3    0  502 -0.83256059271E+02 -0.10678348125E+03  0.58522412997E+03  0.60070263489E+03  0.46999998093E+01 0.  1.
</event>
<event>
 5   0  0.9208078E-04  0.1124367E+04  0.7818609E-02  0.9181762E-01
       -1   -1    0    0    0  501  0.00000000000E+00  0.00000000000E+00  0.21236003542E+03  0.21236003547E+03  0.50400001928E-02 0.  1.
        1   -1    0    0  501    0  0.00000000000E+00  0.00000000000E+00 -0.14882768932E+04  0.14882768932E+04  0.50400001928E-02 0. -1.
    10030    2    1    2    0    0  0.00000000000E+00  0.00000000000E+00 -0.12759168577E+04  0.17006369286E+04  0.11243674378E+04 0.  0.
        3    1    3    3  502    0  0.38246430196E+03 -0.24443845191E+03 -0.11396559758E+04  0.12267211796E+04  0.10100000352E+00 0. -1.
       -3    1    3    3    0  502 -0.38246430196E+03  0.24443845191E+03 -0.13626088192E+03  0.47391574904E+03  0.10100000352E+00 0.  1.
</event>
<event>
 5   0  0.1537557E-03  0.1179989E+04  0.7818609E-02  0.9130554E-01
        2   -1    0    0  501    0  0.00000000000E+00  0.00000000000E+00  0.25949902580E+04  0.25949902580E+04  0.25500000920E-02 0.  1.
       -2   -1    0    0    0  501  0.00000000000E+00  0.00000000000E+00 -0.13414065864E+03  0.13414065867E+03  0.25500000920E-02 0. -1.
    10030    2    1    2    0    0  0.00000000000E+00  0.00000000000E+00  0.24608495993E+04  0.27291309167E+04  0.11799893261E+04 0.  0.
        2    1    3    3  502    0 -0.80354418843E+02 -0.40562078832E+03  0.22037683866E+04  0.22422266073E+04  0.25500000920E-02 0. -1.
       -2    1    3    3    0  502  0.80354418843E+02  0.40562078832E+03  0.25708121272E+03  0.48690430937E+03  0.25500000920E-02 0.  1.
</event>
<event>
 5   0  0.1551501E-03  0.1194869E+04  0.7818609E-02  0.9117360E-01
        2   -1    0    0  501    0  0.00000000000E+00  0.00000000000E+00  0.87700082041E+03  0.87700082041E+03  0.25500000920E-02 0. -1.
       -2   -1    0    0    0  501  0.00000000000E+00  0.00000000000E+00 -0.40698692480E+03  0.40698692481E+03  0.25500000920E-02 0.  1.
    10030    2    1    2    0    0  0.00000000000E+00  0.00000000000E+00  0.47001389561E+03  0.12839877452E+04  0.11948688078E+04 0.  0.
        4    1    3    3  502    0 -0.41291811376E+03 -0.17559421534E+03  0.65887791227E+03  0.79715520027E+03  0.12699999809E+01 0. -1.
       -4    1    3    3    0  502  0.41291811376E+03  0.17559421534E+03 -0.18886401666E+03  0.48683254495E+03  0.12699999809E+01 0.  1.
</event>
<event>
 5   0  0.1537557E-03  0.1196510E+04  0.7818609E-02  0.9115917E-01
       -2   -1    0    0    0  501  0.00000000000E+00  0.00000000000E+00  0.25918427796E+03  0.25918427797E+03  0.25500000920E-02 0. -1.
        2   -1    0    0  501    0  0.00000000000E+00  0.00000000000E+00 -0.13809047315E+04  0.13809047315E+04  0.25500000920E-02 0.  1.
    10030    2    1    2    0    0  0.00000000000E+00  0.00000000000E+00 -0.11217204535E+04  0.16400890095E+04  0.11965095834E+04 0.  0.
        2    1    3    3  502    0  0.12606614683E+03  0.39121292411E+02 -0.13606956631E+04  0.13670829662E+04  0.25500000920E-02 0.  1.
       -2    1    3    3    0  502 -0.12606614683E+03 -0.39121292411E+02  0.23897520953E+03  0.27300604329E+03  0.25500000920E-02 0. -1.
</event>
<event>
 5   0  0.8908478E-04  0.1200377E+04  0.7818609E-02  0.9112526E-01
        1   -1    0    0  501    0  0.00000000000E+00  0.00000000000E+00  0.99613160011E+03  0.99613160013E+03  0.50400001928E-02 0. -1.
       -1   -1    0    0    0  501  0.00000000000E+00  0.00000000000E+00 -0.36162537075E+03  0.36162537078E+03  0.50400001928E-02 0.  1.
    10030    2    1    2    0    0  0.00000000000E+00  0.00000000000E+00  0.63450622937E+03  0.13577569709E+04  0.12003773727E+04 0.  0.
        4    1    3    3  502    0  0.15187539287E+03 -0.23259512176E+03 -0.28453295047E+03  0.39765215757E+03  0.12699999809E+01 0.  1.
       -4    1    3    3    0  502 -0.15187539287E+03  0.23259512176E+03  0.91903917983E+03  0.96010481333E+03  0.12699999809E+01 0. -1.
</event>
<event>
 5   0  0.1567019E-03  0.1185518E+04  0.7818609E-02  0.9125628E-01
       -2   -1    0    0    0  501  0.00000000000E+00  0.00000000000E+00  0.44621146043E+03  0.44621146044E+03  0.25500000920E-02 0.  1.
        2   -1    0    0  501    0  0.00000000000E+00  0.00000000000E+00 -0.78743651553E+03  0.78743651554E+03  0.25500000920E-02 0. -1.
    10030    2    1    2    0    0  0.00000000000E+00  0.00000000000E+00 -0.34122505511E+03  0.12336479760E+04  0.11855179418E+04 0.  0.
        5    1    3    3  502    0 -0.55936989496E+03  0.85875271536E+02  0.12815960690E+02  0.56608796180E+03  0.46999998093E+01 0.  1.
       -5    1    3    3    0  502  0.55936989496E+03 -0.85875271536E+02 -0.35404101580E+03  0.66756001417E+03  0.46999998093E+01 0. -1.
</event>
<event>
 5   0  0.9358428E-04  0.1217565E+04  0.7818609E-02  0.9097620E-01
        1   -1    0    0  501    0  0.00000000000E+00  0.00000000000E+00  0.10380509715E+04  0.10380509715E+04  0.50400001928E-02 0.  1.
       -1   -1    0    0    0  501  0.00000000000E+00  0.00000000000E+00 -0.35703053860E+03  0.35703053863E+03  0.50400001928E-02 0. -1.
    10030    2    1    2    0    0  0.00000000000E+00  0.00000000000E+00  0.68102043293E+03  0.13950815102E+04  0.12175646143E+04 0.  0.
        2    1    3    3  502    0  0.44193049318E+03  0.28366786789E+03 -0.12361454677E+02  0.52528356689E+03  0.25500000920E-02 0.  1.
       -2    1    3    3    0  502 -0.44193049318E+03 -0.28366786789E+03  0.69338188760E+03  0.86979794328E+03  0.25500000920E-02 0. -1.
</event>
<event>
 5   0  0.9169078E-04  0.1179356E+04  0.7818609E-02  0.9131121E-01
        1   -1    0    0  501    0  0.00000000000E+00  0.00000000000E+00  0.13731006811E+04  0.13731006811E+04  0.50400001928E-02 0. -1.
       -1   -1    0    0    0  501  0.00000000000E+00  0.00000000000E+00 -0.25323710398E+03  0.25323710403E+03  0.50400001928E-02 0.  1.
    10030    2    1    2    0    0  0.00000000000E+00  0.00000000000E+00  0.11198635771E+04  0.16263377851E+04  0.11793558242E+04 0.  0.
        1    1    3    3  502    0 -0.20463666308E+03  0.38900045732E+03  0.17853781571E+02  0.43990485018E+03  0.50400001928E-02 0.  1.
       -1    1    3    3    0  502  0.20463666308E+03 -0.38900045732E+03  0.11020097955E+04  0.11864329350E+04  0.50400001928E-02 0. -1.
</event>
<event>
 5   0  0.9170776E-04  0.1200247E+04  0.7818609E-02  0.9112640E-01
        1   -1    0    0  501    0  0.00000000000E+00  0.00000000000E+00  0.40055724260E+03  0.40055724263E+03  0.50400001928E-02 0. -1.
       -1   -1    0    0    0  501  0.00000000000E+00  0.00000000000E+00 -0.89911782744E+03  0.89911782745E+03  0.50400001928E-02 0.  1.
    10030    2    1    2    0    0  0.00000000000E+00  0.00000000000E+00 -0.49856058484E+03  0.12996750701E+04  0.12002469042E+04 0.  0.
        5    1    3    3  502    0 -0.15951447597E+03  0.26845582401E+03  0.30562904395E+03  0.43697208148E+03  0.46999998093E+01 0. -1.
       -5    1    3    3    0  502  0.15951447597E+03 -0.26845582401E+03 -0.80418962879E+03  0.86270298860E+03  0.46999998093E+01 0.  1.
</event>
<event>
 5   0  0.8908478E-04  0.1198524E+04  0.7818609E-02  0.9114149E-01
        1   -1    0    0  501    0  0.00000000000E+00  0.00000000000E+00  0.10803395763E+04  0.10803395763E+04  0.50400001928E-02 0. -1.
       -1   -1    0    0    0  501  0.00000000000E+00  0.00000000000E+00 -0.33240958985E+03  0.33240958989E+03  0.50400001928E-02 0.  1.
    10030    2    1    2    0    0  0.00000000000E+00  0.00000000000E+00  0.74792998646E+03  0.14127491662E+04  0.11985244854E+04 0.  0.
        4    1    3    3  502    0  0.38180189650E+03 -0.40063466743E+03  0.10302697297E+03  0.56293604875E+03  0.12699999809E+01 0. -1.
       -4    1    3    3    0  502 -0.38180189650E+03  0.40063466743E+03  0.64490301350E+03  0.84981311748E+03  0.12699999809E+01 0.  1.
</event>
<event>
 5   0  0.1597352E-03  0.1195860E+04  0.7818609E-02  0.9116488E-01
       -2   -1    0    0    0  501  0.00000000000E+00  0.00000000000E+00  0.35226182641E+03  0.35226182642E+03  0.25500000920E-02 0.  1.
        2   -1    0    0  501    0  0.00000000000E+00  0.00000000000E+00 -0.10149277414E+04  0.10149277414E+04  0.25500000920E-02 0. -1.
    10030    2    1    2    0    0  0.00000000000E+00  0.00000000000E+00 -0.66266591496E+03  0.13671895678E+04  0.11958600250E+04 0.  0.
        1    1    3    3  502    0  0.96712658470E+02 -0.13778831180E+03 -0.98727579381E+03  0.10015250622E+04  0.50400001928E-02 0. -1.
       -1    1    3    3    0  502 -0.96712658470E+02  0.13778831180E+03  0.32460987885E+03  0.36566450559E+03  0.50400001928E-02 0.  1.
</event>
<event>
 5   0  0.9169078E-04  0.1184338E+04  0.7818609E-02  0.9126677E-01
       -1   -1    0    0    0  501  0.00000000000E+00  0.00000000000E+00  0.33334712969E+03  0.33334712973E+03  0.50400001928E-02 0. -1.
        1   -1    0    0  501    0  0.00000000000E+00  0.00000000000E+00 -0.10519481738E+04  0.10519481738E+04  0.50400001928E-02 0.  1.
    10030    2    1    2    0    0  0.00000000000E+00  0.00000000000E+00 -0.71860104412E+03  0.13852953035E+04  0.11843376281E+04 0.  0.
        1    1    3    3  502    0  0.15206747381E+03 -0.33647310001E+03 -0.90080679789E+03  0.97354586475E+03  0.50400001928E-02 0.  1.
       -1    1    3    3    0  502 -0.15206747381E+03  0.33647310001E+03  0.18220575377E+03  0.41174943880E+03  0.50400001928E-02 0. -1.
</event>
<event>
 5   0  0.1647550E-03  0.1179667E+04  0.7818609E-02  0.9130843E-01
        2   -1    0    0  501    0  0.00000000000E+00  0.00000000000E+00  0.10046050925E+04  0.10046050925E+04  0.25500000920E-02 0.  1.
       -2   -1    0    0    0  501  0.00000000000E+00  0.00000000000E+00 -0.34630859474E+03  0.34630859475E+03  0.25500000920E-02 0. -1.
    10030    2    1    2    0    0  0.00000000000E+00  0.00000000000E+00  0.65829649778E+03  0.13509136873E+04  0.11796666951E+04 0.  0.
        3    1    3    3  502    0  0.35266938865E+03  0.36997622374E+03 -0.79377373002E+01  0.51119577630E+03  0.10100000352E+00 0. -1.
       -3    1    3    3    0  502 -0.35266938865E+03 -0.36997622374E+03  0.66623423508E+03  0.83971791098E+03  0.10100000352E+00 0.  1.
</event>
<event>
 5   0  0.1597352E-03  0.1201091E+04  0.7818609E-02  0.9111902E-01
       -2   -1    0    0    0  501  0.00000000000E+00  0.00000000000E+00  0.26541643391E+03  0.26541643392E+03  0.25500000920E-02 0. -1.
        2   -1    0    0  501    0  0.00000000000E+00  0.00000000000E+00 -0.13588272392E+04  0.13588272392E+04  0.25500000920E-02 0.  1.
    10030    2    1    2    0    0  0.00000000000E+00  0.00000000000E+00 -0.10934108053E+04  0.16242436731E+04  0.12010913040E+04 0.  0.
        1    1    3    3  502    0 -0.13570868612E+03  0.20230937872E+03  0.19559777509E+03  0.31241706395E+03  0.50400001928E-02 0. -1.
       -1    1    3    3    0  502  0.13570868612E+03 -0.20230937872E+03 -0.12890085804E+04  0.13118266092E+04  0.50400001928E-02 0.  1.
</event>
<event>
 5   0  0.1597352E-03  0.1206588E+04  0.7818609E-02  0.9107110E-01
        2   -1    0    0  501    0  0.00000000000E+00  0.00000000000E+00  0.34085989647E+03  0.34085989648E+03  0.25500000920E-02 0. -1.
       -2   -1    0    0    0  501  0.00000000000E+00  0.00000000000E+00 -0.10677802516E+04  0.10677802516E+04  0.25500000920E-02 0.  1.
    10030    2    1    2    0    0  0.00000000000E+00  0.00000000000E+00 -0.72692035512E+03  0.14086401481E+04  0.12065876943E+04 0.  0.
        1    1    3    3  502    0 -0.32647434036E+03  0.41565719064E+03 -0.23878303635E+02  0.52908087138E+03  0.50400001928E-02 0. -1.
       -1    1    3    3    0  502  0.32647434036E+03 -0.41565719064E+03 -0.70304205148E+03  0.87955927670E+03  0.50400001928E-02 0.  1.
</event>
<event>
 5   0  0.1567019E-03  0.1185533E+04  0.7818609E-02  0.9125614E-01
       -2   -1    0    0    0  501  0.00000000000E+00  0.00000000000E+00  0.15027499978E+03  0.15027499980E+03  0.25500000920E-02 0. -1.
        2   -1    0    0  501    0  0.00000000000E+00  0.00000000000E+00 -0.23381951447E+04  0.23381951447E+04  0.25500000920E-02 0.  1.
    10030    2    1    2    0    0  0.00000000000E+00  0.00000000000E+00 -0.21879201449E+04  0.24884701445E+04  0.11855332554E+04 0.  0.
        5    1    3    3  502    0  0.57734355600E+03 -0.94048470641E+02 -0.12950674175E+04  0.14210532722E+04  0.46999998093E+01 0. -1.
       -5    1    3    3    0  502 -0.57734355600E+03  0.94048470641E+02 -0.89285272745E+03  0.10674168724E+04  0.46999998093E+01 0.  1.
</event>
<event>
 5   0  0.9170776E-04  0.1191571E+04  0.7818609E-02  0.9120266E-01
        1   -1    0    0  501    0  0.00000000000E+00  0.00000000000E+00  0.87711648471E+03  0.87711648473E+03  0.50400001928E-02 0. -1.
       -1   -1    0    0    0  501  0.00000000000E+00  0.00000000000E+00 -0.40469042790E+03  0.40469042794E+03  0.50400001928E-02 0.  1.
    10030    2    1    2    0    0  0.00000000000E+00  0.00000000000E+00  0.47242605681E+03  0.12818069127E+04  0.11915714759E+04 0.  0.
        5    1    3    3  502    0  0.42828834216E+03 -0.26302472257E+03 -0.10789496433E+03  0.51407812834E+03  0.46999998093E+01 0.  1.
       -5    1    3    3    0  502 -0.42828834216E+03  0.26302472257E+03  0.58032102114E+03  0.76772878433E+03  0.46999998093E+01 0. -1.
</event>
<event>
 5   0  0.1647550E-03  0.1202639E+04  0.7818609E-02  0.9110550E-01
        2   -1    0    0  501    0  0.00000000000E+00  0.00000000000E+00  0.12231391615E+04  0.12231391615E+04  0.25500000920E-02 0.  1.
       -2   -1    0    0    0  501  0.00000000000E+00  0.00000000000E+00 -0.29562057620E+03  0.29562057621E+03  0.25500000920E-02 0. -1.
    10030    2    1    2    0    0  0.00000000000E+00  0.00000000000E+00  0.92751858534E+03  0.15187597377E+04  0.12026389379E+04 0.  0.
        3    1    3    3  502    0 -0.35952505926E+03  0.14711359296E+03  0.10434148728E+04  0.11133801168E+04  0.10100000352E+00 0.  1.
       -3    1    3    3    0  502  0.35952505926E+03 -0.14711359296E+03 -0.11589628743E+03  0.40537962099E+03  0.10100000352E+00 0. -1.
</event>
<event>
 5   0  0.9358428E-04  0.1195815E+04  0.7818609E-02  0.9116528E-01
        1   -1    0    0  501    0  0.00000000000E+00  0.00000000000E+00  0.65274985535E+03  0.65274985537E+03  0.50400001928E-02 0.  1.
       -1   -1    0    0    0  501  0.00000000000E+00  0.00000000000E+00 -0.54767257841E+03  0.54767257844E+03  0.50400001928E-02 0. -1.
    10030    2    1    2    0    0  0.00000000000E+00  0.00000000000E+00  0.10507727694E+03  0.12004224338E+04  0.11958146953E+04 0.  0.
        2    1    3    3  502    0 -0.32709838826E+03 -0.30625112140E+03 -0.34485297620E+03  0.56542610495E+03  0.25500000920E-02 0. -1.
       -2    1    3    3    0  502  0.32709838826E+03  0.30625112140E+03  0.44993025314E+03  0.63499632885E+03  0.25500000920E-02 0.  1.
</event>
<event>
 5   0  0.9169078E-04  0.1201523E+04  0.7818609E-02  0.9111524E-01
       -1   -1    0    0    0  501  0.00000000000E+00  0.00000000000E+00  0.58732118200E+03  0.58732118202E+03  0.50400001928E-02 0.  1.
        1   -1    0    0  501    0  0.00000000000E+00  0.00000000000E+00 -0.61450985672E+03  0.61450985674E+03  0.50400001928E-02 0. -1.
    10030    2    1    2    0    0  0.00000000000E+00  0.00000000000E+00 -0.27188674719E+02  0.12018310388E+04  0.12015234587E+04 0.  0.
        1    1    3    3  502    0 -0.32761128687E+03 -0.22186424028E+03 -0.46577395018E+03  0.61114504750E+03  0.50400001928E-02 0. -1.
       -1    1    3    3    0  502  0.32761128687E+03  0.22186424028E+03  0.43858527546E+03  0.59068599126E+03  0.50400001928E-02 0.  1.
</event>
<event>
 5   0  0.9208078E-04  0.1204692E+04  0.7818609E-02  0.9108759E-01
       -1   -1    0    0    0  501  0.00000000000E+00  0.00000000000E+00  0.18844511957E+03  0.18844511964E+03  0.50400001928E-02 0. -1.
        1   -1    0    0  501    0  0.00000000000E+00  0.00000000000E+00 -0.19253400176E+04  0.19253400176E+04  0.50400001928E-02 0.  1.
    10030    2    1    2    0    0  0.00000000000E+00  0.00000000000E+00 -0.17368948980E+04  0.21137851372E+04  0.12046923755E+04 0.  0.
        3    1    3    3  502    0  0.82542689847E+02  0.47568049595E+03 -0.15004435673E+04  0.15762030766E+04  0.10100000352E+00 0.  1.
       -3    1    3    3    0  502 -0.82542689847E+02 -0.47568049595E+03 -0.23645133068E+03  0.53758206058E+03  0.10100000352E+00 0. -1.
</event>
<event>
 5   0  0.9208078E-04  0.1204915E+04  0.7818609E-02  0.9108565E-01
       -1   -1    0    0    0  501  0.00000000000E+00  0.00000000000E+00  0.29854516434E+03  0.29854516438E+03  0.50400001928E-02 0. -1.
        1   -1    0    0  501    0  0.00000000000E+00  0.00000000000E+00 -0.12157463188E+04  0.12157463188E+04  0.50400001928E-02 0.  1.
    10030    2    1    2    0    0  0.00000000000E+00  0.00000000000E+00 -0.91720115442E+03  0.15142914832E+04  0.12049152411E+04 0.  0.
        3    1    3    3  502    0 -0.76821608888E+02  0.55012596302E+02 -0.12063762200E+04  0.12100708821E+04  0.10100000352E+00 0.  1.
       -3    1    3    3    0  502  0.76821608888E+02 -0.55012596302E+02  0.28917506558E+03  0.30422060104E+03  0.10100000352E+00 0. -1.
</event>
<event>
 5   0  0.1537557E-03  0.1205286E+04  0.7818609E-02  0.9108242E-01
       -2   -1    0    0    0  501  0.00000000000E+00  0.00000000000E+00  0.14991334718E+03  0.14991334720E+03  0.25500000920E-02 0.  1.
        2   -1    0    0  501    0  0.00000000000E+00  0.00000000000E+00 -0.24225898772E+04  0.24225898772E+04  0.25500000920E-02 0. -1.
    10030    2    1    2    0    0  0.00000000000E+00  0.00000000000E+00 -0.22726765300E+04  0.25725032244E+04  0.12052859534E+04 0.  0.
        2    1    3    3  502    0  0.43327226708E+03 -0.25876475222E+03 -0.43331499594E+03  0.66516609965E+03  0.25500000920E-02 0.  1.
       -2    1    3    3    0  502 -0.43327226708E+03  0.25876475222E+03 -0.18393615341E+04  0.19073371248E+04  0.25500000920E-02 0. -1.
</event>
<event>
 5   0  0.9170776E-04  0.1167595E+04  0.7818609E-02  0.9141703E-01
        1   -1    0    0  501    0  0.00000000000E+00  0.00000000000E+00  0.14500512990E+04  0.14500512990E+04  0.50400001928E-02 0.  1.
       -1   -1    0    0    0  501  0.00000000000E+00  0.00000000000E+00 -0.23503961879E+03  0.23503961884E+03  0.50400001928E-02 0. -1.
    10030    2    1    2    0    0  0.00000000000E+00  0.00000000000E+00  0.12150116802E+04  0.16850909178E+04  0.11675949719E+04 0.  0.
        5    1    3    3  502    0  0.12604657252E+03  0.39908846938E+03  0.20136595966E+02  0.41903092647E+03  0.46999998093E+01 0. -1.
       -5    1    3    3    0  502 -0.12604657252E+03 -0.39908846938E+03  0.11948750842E+04  0.12660599914E+04  0.46999998093E+01 0.  1.
</event>
<event>
 5   0  0.1567019E-03  0.1205385E+04  0.7818609E-02  0.9108156E-01
        2   -1    0    0  501    0  0.00000000000E+00  0.00000000000E+00  0.10820303682E+04  0.10820303683E+04  0.25500000920E-02 0. -1.
       -2   -1    0    0    0  501  0.00000000000E+00  0.00000000000E+00 -0.33570063936E+03  0.33570063937E+03  0.25500000920E-02 0.  1.
    10030    2    1    2    0    0  0.00000000000E+00  0.00000000000E+00  0.74632972889E+03  0.14177310076E+04  0.12053850612E+04 0.  0.
        5    1    3    3  502    0 -0.54988688397E+02  0.57875886606E+03  0.18634116990E+03  0.61051675038E+03  0.46999998093E+01 0.  1.
       -5    1    3    3    0  502  0.54988688397E+02 -0.57875886606E+03  0.55998855899E+03  0.80721425724E+03  0.46999998093E+01 0. -1.
</event>
<event>
 5   0  0.6137750E-04  0.1205134E+04  0.7818609E-02  0.9108375E-01
       -4   -1    0    0    0  501  0.00000000000E+00  0.00000000000E+00  0.24305351135E+03  0.24305682932E+03  0.12699999809E+01 0.  1.
        4   -1    0    0  501    0  0.00000000000E+00  0.00000000000E+00 -0.14938424014E+04  0.14938429412E+04  0.12699999809E+01 0. -1.
    10030    2    1    2    0    0  0.00000000000E+00  0.00000000000E+00 -0.12507888900E+04  0.17368997705E+04  0.12051340031E+04 0.  0.
        5    1    3    3  502    0 -0.45925219592E+03  0.28656318652E+03 -0.24398323282E+03  0.59378527029E+03  0.46999998093E+01 0.  1.
       -5    1    3    3    0  502  0.45925219592E+03 -0.28656318652E+03 -0.10068056572E+04  0.11431145002E+04  0.46999998093E+01 0. -1.
</event>
<event>
 5   0  0.1567019E-03  0.1201633E+04  0.7818609E-02  0.9111429E-01
        2   -1    0    0  501    0  0.00000000000E+00  0.00000000000E+00  0.37891063575E+03  0.37891063576E+03  0.25500000920E-02 0. -1.
       -2   -1    0    0    0  501  0.00000000000E+00  0.00000000000E+00 -0.95267909344E+03  0.95267909345E+03  0.25500000920E-02 0.  1.
    10030    2    1    2    0    0  0.00000000000E+00  0.00000000000E+00 -0.57376845769E+03  0.13315897292E+04  0.12016326243E+04 0.  0.
        5    1    3    3  502    0  0.52200376401E+03  0.49892578277E+02 -0.61182174054E+03  0.80580713028E+03  0.46999998093E+01 0.  1.
       -5    1    3    3    0  502 -0.52200376401E+03 -0.49892578277E+02  0.38053282850E+02  0.52578259893E+03  0.46999998093E+01 0. -1.
</event>
<event>
 5   0  0.9169078E-04  0.1200651E+04  0.7818609E-02  0.9112287E-01
       -1   -1    0    0    0  501  0.00000000000E+00  0.00000000000E+00  0.83212467569E+03  0.83212467571E+03  0.50400001928E-02 0. -1.
        1   -1    0    0  501    0  0.00000000000E+00  0.00000000000E+00 -0.43309667484E+03  0.43309667487E+03  0.50400001928E-02 0.  1.
    10030    2    1    2    0    0  0.00000000000E+00  0.00000000000E+00  0.39902800086E+03  0.12652213506E+04  0.12006505405E+04 0.  0.
        1    1    3    3  502    0  0.39635515490E+03 -0.13226326400E+02 -0.27541007790E+03  0.48282818431E+03  0.50400001928E-02 0.  1.
       -1    1    3    3    0  502 -0.39635515490E+03  0.13226326400E+02  0.67443807875E+03  0.78239316627E+03  0.50400001928E-02 0. -1.
</event>
<event>
 5   0  0.9358428E-04  0.1191225E+04  0.7818609E-02  0.9120572E-01
        1   -1    0    0  501    0  0.00000000000E+00  0.00000000000E+00  0.68074021599E+03  0.68074021601E+03  0.50400001928E-02 0.  1.
       -1   -1    0    0    0  501  0.00000000000E+00  0.00000000000E+00 -0.52113042343E+03  0.52113042345E+03  0.50400001928E-02 0. -1.
    10030    2    1    2    0    0  0.00000000000E+00  0.00000000000E+00  0.15960979256E+03  0.12018706395E+04  0.11912253138E+04 0.  0.
        2    1    3    3  502    0  0.26945511573E+03 -0.38618482971E+03  0.44776895081E+03  0.64980136611E+03  0.25500000920E-02 0.  1.
       -2    1    3    3    0  502 -0.26945511573E+03  0.38618482971E+03 -0.28815915825E+03  0.55206927335E+03  0.25500000920E-02 0. -1.
</event>
<event>
 5   0  0.1597352E-03  0.1195178E+04  0.7818609E-02  0.9117087E-01
        2   -1    0    0  501    0  0.00000000000E+00  0.00000000000E+00  0.11265668209E+04  0.11265668209E+04  0.25500000920E-02 0. -1.
       -2   -1    0    0    0  501  0.00000000000E+00  0.00000000000E+00 -0.31699221359E+03  0.31699221360E+03  0.25500000920E-02 0.  1.
    10030    2    1    2    0    0  0.00000000000E+00  0.00000000000E+00  0.80957460730E+03  0.14435590345E+04  0.11951784977E+04 0.  0.
        1    1    3    3  502    0  0.57505449091E+02 -0.51497113978E+03  0.45249131905E+02  0.52014386034E+03  0.50400001928E-02 0.  1.
       -1    1    3    3    0  502 -0.57505449091E+02  0.51497113978E+03  0.76432547540E+03  0.92341517415E+03  0.50400001928E-02 0. -1.
</event>
<event>
 5   0  0.1597352E-03  0.1161479E+04  0.7818609E-02  0.9147258E-01
       -2   -1    0    0    0  501  0.00000000000E+00  0.00000000000E+00  0.19786881856E+03  0.19786881857E+03  0.25500000920E-02 0.  1.
        2   -1    0    0  501    0  0.00000000000E+00  0.00000000000E+00 -0.17044556365E+04  0.17044556365E+04  0.25500000920E-02 0. -1.
    10030    2    1    2    0    0  0.00000000000E+00  0.00000000000E+00 -0.15065868180E+04  0.19023244551E+04  0.11614794412E+04 0.  0.
        1    1    3    3  502    0 -0.19262078375E+03  0.41740131393E+02  0.14141678010E+03  0.24257722610E+03  0.50400001928E-02 0.  1.
       -1    1    3    3    0  502  0.19262078375E+03 -0.41740131393E+02 -0.16480035981E+04  0.16597472290E+04  0.50400001928E-02 0. -1.
</event>
<event>
 5   0  0.6137750E-04  0.1200100E+04  0.7818609E-02  0.9112769E-01
       -3   -1    0    0    0  501  0.00000000000E+00  0.00000000000E+00  0.26133556485E+03  0.26133558437E+03  0.10100000352E+00 0. -1.
        3   -1    0    0  501    0  0.00000000000E+00  0.00000000000E+00 -0.13777694571E+04  0.13777694608E+04  0.10100000352E+00 0.  1.
    10030    2    1    2    0    0  0.00000000000E+00  0.00000000000E+00 -0.11164338922E+04  0.16391050452E+04  0.12001002930E+04 0.  0.
        2    1    3    3  502    0 -0.32543522902E+03  0.19977554984E+03  0.73963952554E+02  0.38895889871E+03  0.25500000920E-02 0. -1.
       -2    1    3    3    0  502  0.32543522902E+03 -0.19977554984E+03 -0.11903978448E+04  0.12501461464E+04  0.25500000920E-02 0.  1.
</event>
<event>
 5   0  0.8908478E-04  0.1148469E+04  0.7818609E-02  0.9159198E-01
       -1   -1    0    0    0  501  0.00000000000E+00  0.00000000000E+00  0.19301114052E+03  0.19301114059E+03  0.50400001928E-02 0.  1.
        1   -1    0    0  501    0  0.00000000000E+00  0.00000000000E+00 -0.17084247378E+04  0.17084247378E+04  0.50400001928E-02 0. -1.
    10030    2    1    2    0    0  0.00000000000E+00  0.00000000000E+00 -0.15154135973E+04  0.19014358784E+04  0.11484685581E+04 0.  0.
        4    1    3    3  502    0  0.27184584019E+03 -0.43095388331E+03 -0.31928749090E+03  0.60130485206E+03  0.12699999809E+01 0. -1.
       -4    1    3    3    0  502 -0.27184584019E+03  0.43095388331E+03 -0.11961261064E+04  0.13001310263E+04  0.12699999809E+01 0.  1.
</event>
<event>
 5   0  0.1567019E-03  0.1197272E+04  0.7818609E-02  0.9115247E-01
       -2   -1    0    0    0  501  0.00000000000E+00  0.00000000000E+00  0.39995144725E+03  0.39995144726E+03  0.25500000920E-02 0. -1.
        2   -1    0    0  501    0  0.00000000000E+00  0.00000000000E+00 -0.89602185994E+03  0.89602185994E+03  0.25500000920E-02 0.  1.
    10030    2    1    2    0    0  0.00000000000E+00  0.00000000000E+00 -0.49607041268E+03  0.12959733072E+04  0.11972722993E+04 0.  0.
        5    1    3    3  502    0  0.51584829462E+03  0.68784619573E+02 -0.56824737115E+03  0.77055691015E+03  0.46999998093E+01 0.  1.
       -5    1    3    3    0  502 -0.51584829462E+03 -0.68784619573E+02  0.72176958469E+02  0.52541639705E+03  0.46999998093E+01 0. -1.
</event>
<event>
 5   0  0.9170776E-04  0.1200054E+04  0.7818609E-02  0.9112810E-01
       -1   -1    0    0    0  501  0.00000000000E+00  0.00000000000E+00  0.54477497540E+03  0.54477497542E+03  0.50400001928E-02 0. -1.
        1   -1    0    0  501    0  0.00000000000E+00  0.00000000000E+00 -0.66088223959E+03  0.66088223961E+03  0.50400001928E-02 0.  1.
    10030    2    1    2    0    0  0.00000000000E+00  0.00000000000E+00 -0.11610726419E+03  0.12056572150E+04  0.12000535085E+04 0.  0.
        5    1    3    3  502    0 -0.89564958544E+02  0.58854652076E+03 -0.13324378118E+03  0.61006957318E+03  0.46999998093E+01 0. -1.
       -5    1    3    3    0  502  0.89564958544E+02 -0.58854652076E+03  0.17136516991E+02  0.59558764184E+03  0.46999998093E+01 0.  1.
</event>
<event>
 5   0  0.9358428E-04  0.1161857E+04  0.7818609E-02  0.9146914E-01
       -1   -1    0    0    0  501  0.00000000000E+00  0.00000000000E+00  0.41274529484E+03  0.41274529487E+03  0.50400001928E-02 0.  1.
        1   -1    0    0  501    0  0.00000000000E+00  0.00000000000E+00 -0.81764243549E+03  0.81764243550E+03  0.50400001928E-02 0. -1.
    10030    2    1    2    0    0  0.00000000000E+00  0.00000000000E+00 -0.40489714065E+03  0.12303877304E+04  0.11618572514E+04 0.  0.
        2    1    3    3  502    0  0.13498925886E+03 -0.22531212606E+02 -0.80032738653E+03  0.81194438306E+03  0.25500000920E-02 0. -1.
       -2    1    3    3    0  502 -0.13498925886E+03  0.22531212606E+02  0.39543024588E+03  0.41844334732E+03  0.25500000920E-02 0.  1.
</event>
<event>
 5   0  0.1567019E-03  0.1202187E+04  0.7818609E-02  0.9110944E-01
       -2   -1    0    0    0  501  0.00000000000E+00  0.00000000000E+00  0.40576568942E+03  0.40576568943E+03  0.25500000920E-02 0. -1.
        2   -1    0    0  501    0  0.00000000000E+00  0.00000000000E+00 -0.89044825366E+03  0.89044825366E+03  0.25500000920E-02 0.  1.
    10030    2    1    2    0    0  0.00000000000E+00  0.00000000000E+00 -0.48468256424E+03  0.12962139431E+04  0.12021869231E+04 0.  0.
        5    1    3    3  502    0 -0.21298432482E+03  0.52167155621E+03 -0.16719577041E+02  0.56374211253E+03  0.46999998093E+01 0.  1.
       -5    1    3    3    0  502  0.21298432482E+03 -0.52167155621E+03 -0.46796298719E+03  0.73247183056E+03  0.46999998093E+01 0. -1.
</event>
<event>
 5   0  0.1597352E-03  0.1200014E+04  0.7818609E-02  0.9112845E-01
       -2   -1    0    0    0  501  0.00000000000E+00  0.00000000000E+00  0.11128105583E+04  0.11128105584E+04  0.25500000920E-02 0.  1.
        2   -1    0    0  501    0  0.00000000000E+00  0.00000000000E+00 -0.32351247833E+03  0.32351247834E+03  0.25500000920E-02 0. -1.
    10030    2    1    2    0    0  0.00000000000E+00  0.00000000000E+00  0.78929808001E+03  0.14363230367E+04  0.12000135027E+04 0.  0.
        1    1    3    3  502    0 -0.40171303552E+03  0.35219517937E+03  0.72154976755E+03  0.89780224680E+03  0.50400001928E-02 0.  1.
       -1    1    3    3    0  502  0.40171303552E+03 -0.35219517937E+03  0.67748312468E+02  0.53852078990E+03  0.50400001928E-02 0. -1.
</event>
<event>
 5   0  0.9358428E-04  0.1211003E+04  0.7818609E-02  0.9103280E-01
       -1   -1    0    0    0  501  0.00000000000E+00  0.00000000000E+00  0.58753230915E+03  0.58753230917E+03  0.50400001928E-02 0.  1.
        1   -1    0    0  501    0  0.00000000000E+00  0.00000000000E+00 -0.62402052735E+03  0.62402052737E+03  0.50400001928E-02 0. -1.
    10030    2    1    2    0    0  0.00000000000E+00  0.00000000000E+00 -0.36488218199E+02  0.12115528365E+04  0.12110032558E+04 0.  0.
        2    1    3    3  502    0 -0.25559482450E+03 -0.16461303573E+03  0.50564041431E+03  0.58999863935E+03  0.25500000920E-02 0.  1.
       -2    1    3    3    0  502  0.25559482450E+03  0.16461303573E+03 -0.54212863251E+03  0.62155419718E+03  0.25500000920E-02 0. -1.
</event>
<event>
 5   0  0.9170776E-04  0.1214698E+04  0.7818609E-02  0.9100088E-01
        1   -1    0    0  501    0  0.00000000000E+00  0.00000000000E+00  0.30123883633E+03  0.30123883638E+03  0.50400001928E-02 0. -1.
       -1   -1    0    0    0  501  0.00000000000E+00  0.00000000000E+00 -0.12245189977E+04  0.12245189977E+04  0.50400001928E-02 0.  1.
    10030    2    1    2    0    0  0.00000000000E+00  0.00000000000E+00 -0.92328016138E+03  0.15257578341E+04  0.12146977863E+04 0.  0.
        5    1    3    3  502    0 -0.41825076228E+03 -0.17056006828E+03 -0.97159340479E+03  0.10714664116E+04  0.46999998093E+01 0.  1.
       -5    1    3    3    0  502  0.41825076228E+03  0.17056006828E+03  0.48313243412E+02  0.45429142246E+03  0.46999998093E+01 0. -1.
</event>
<event>
 5   0  0.9208078E-04  0.1197930E+04  0.7818609E-02  0.9114671E-01
        1   -1    0    0  501    0  0.00000000000E+00  0.00000000000E+00  0.13100887935E+04  0.13100887935E+04  0.50400001928E-02 0. -1.
       -1   -1    0    0    0  501  0.00000000000E+00  0.00000000000E+00 -0.27384323275E+03  0.27384323280E+03  0.50400001928E-02 0.  1.
    10030    2    1    2    0    0  0.00000000000E+00  0.00000000000E+00  0.10362455607E+04  0.15839320263E+04  0.11979297984E+04 0.  0.
        3    1    3    3  502    0  0.52958340550E+03 -0.17893451769E+03  0.23366686982E+03  0.60586827055E+03  0.10100000352E+00 0.  1.
       -3    1    3    3    0  502 -0.52958340550E+03  0.17893451769E+03  0.80257869090E+03  0.97806375574E+03  0.10100000352E+00 0. -1.
</event>
<event>
 5   0  0.9208078E-04  0.1204842E+04  0.7818609E-02  0.9108629E-01
        1   -1    0    0  501    0  0.00000000000E+00  0.00000000000E+00  0.63531505780E+03  0.63531505782E+03  0.50400001928E-02 0.  1.
       -1   -1    0    0    0  501  0.00000000000E+00  0.00000000000E+00 -0.57123009750E+03  0.57123009752E+03  0.50400001928E-02 0. -1.
    10030    2    1    2    0    0  0.00000000000E+00  0.00000000000E+00  0.64084960304E+02  0.12065451553E+04  0.12048420352E+04 0.  0.
        3    1    3    3  502    0  0.21543018769E+03  0.49496144980E+03 -0.23575668315E+03  0.58904857729E+03  0.10100000352E+00 0. -1.
       -3    1    3    3    0  502 -0.21543018769E+03 -0.49496144980E+03  0.29984164345E+03  0.61749657805E+03  0.10100000352E+00 0.  1.
</event>
<event>
 5   0  0.9170776E-04  0.1213153E+04  0.7818609E-02  0.9101421E-01
        1   -1    0    0  501    0  0.00000000000E+00  0.00000000000E+00  0.14792712120E+04  0.14792712121E+04  0.50400001928E-02 0. -1.
       -1   -1    0    0    0  501  0.00000000000E+00  0.00000000000E+00 -0.24872714703E+03  0.24872714708E+03  0.50400001928E-02 0.  1.
    10030    2    1    2    0    0  0.00000000000E+00  0.00000000000E+00  0.12305440650E+04  0.17279983591E+04  0.12131527658E+04 0.  0.
        5    1    3    3  502    0  0.51159392433E+03  0.19558636729E+03  0.98651656979E+03  0.11283702420E+04  0.46999998093E+01 0. -1.
       -5    1    3    3    0  502 -0.51159392433E+03 -0.19558636729E+03  0.24402749522E+03  0.59962811717E+03  0.46999998093E+01 0.  1.
</event>
<event>
 5   0  0.8908478E-04  0.1208148E+04  0.7818609E-02  0.9105755E-01
        1   -1    0    0  501    0  0.00000000000E+00  0.00000000000E+00  0.50365179622E+03  0.50365179624E+03  0.50400001928E-02 0. -1.
       -1   -1    0    0    0  501  0.00000000000E+00  0.00000000000E+00 -0.72451861380E+03  0.72451861382E+03  0.50400001928E-02 0.  1.
    10030    2    1    2    0    0  0.00000000000E+00  0.00000000000E+00 -0.22086681758E+03  0.12281704101E+04  0.12081475096E+04 0.  0.
        4    1    3    3  502    0 -0.32765078808E+03  0.48127960242E+03  0.53226652053E+02  0.58465355897E+03  0.12699999809E+01 0. -1.
       -4    1    3    3    0  502  0.32765078808E+03 -0.48127960242E+03 -0.27409346964E+03  0.64351685108E+03  0.12699999809E+01 0.  1.
</event>
<event>
 5   0  0.9208078E-04  0.1193997E+04  0.7818609E-02  0.9118127E-01
       -1   -1    0    0    0  501  0.00000000000E+00  0.00000000000E+00  0.73841758495E+03  0.73841758497E+03  0.50400001928E-02 0. -1.
        1   -1    0    0  501    0  0.00000000000E+00  0.00000000000E+00 -0.48266327348E+03  0.48266327351E+03  0.50400001928E-02 0.  1.
    10030    2    1    2    0    0  0.00000000000E+00  0.00000000000E+00  0.25575431147E+03  0.12210808585E+04  0.11939967316E+04 0.  0.
        3    1    3    3  502    0  0.41553081407E+03  0.74523807453E+02 -0.30382056971E+03  0.52012172046E+03  0.10100000352E+00 0.  1.
       -3    1    3    3    0  502 -0.41553081407E+03 -0.74523807453E+02  0.55957488117E+03  0.70095913801E+03  0.10100000352E+00 0. -1.
</event>
<event>
 5   0  0.1551501E-03  0.1205899E+04  0.7818609E-02  0.9107709E-01
        2   -1    0    0  501    0  0.00000000000E+00  0.00000000000E+00  0.12278181526E+04  0.12278181526E+04  0.25500000920E-02 0. -1.
       -2   -1    0    0    0  501  0.00000000000E+00  0.00000000000E+00 -0.29609267700E+03  0.29609267702E+03  0.25500000920E-02 0.  1.
    10030    2    1    2    0    0  0.00000000000E+00  0.00000000000E+00  0.93172547564E+03  0.15239108297E+04  0.12058987747E+04 0.  0.
        4    1    3    3  502    0 -0.22165377407E+03 -0.28352349755E+03  0.10772055662E+04  0.11357329853E+04  0.12699999809E+01 0. -1.
       -4    1    3    3    0  502  0.22165377407E+03  0.28352349755E+03 -0.14548009052E+03  0.38817784437E+03  0.12699999809E+01 0.  1.
</event>
<event>
 5   0  0.9208078E-04  0.1060846E+04  0.7818609E-02  0.9244218E-01
       -1   -1    0    0    0  501  0.00000000000E+00  0.00000000000E+00  0.70997205727E+03  0.70997205729E+03  0.50400001928E-02 0. -1.
        1   -1    0    0  501    0  0.00000000000E+00  0.00000000000E+00 -0.39628080762E+03  0.39628080765E+03  0.50400001928E-02 0.  1.
    10030    2    1    2    0    0  0.00000000000E+00  0.00000000000E+00  0.31369124965E+03  0.11062528649E+04  0.10608455123E+04 0.  0.
        3    1    3    3  502    0  0.25750718864E+03  0.42848983669E+03 -0.28041896390E+02  0.50069936139E+03  0.10100000352E+00 0. -1.
       -3    1    3    3    0  502 -0.25750718864E+03 -0.42848983669E+03  0.34173314604E+03  0.60555350354E+03  0.10100000352E+00 0.  1.
</event>
<event>
 5   0  0.1647550E-03  0.1060768E+04  0.7818609E-02  0.9244297E-01
       -2   -1    0    0    0  501  0.00000000000E+00  0.00000000000E+00  0.31587685153E+03  0.31587685154E+03  0.25500000920E-02 0. -1.
        2   -1    0    0  501    0  0.00000000000E+00  0.00000000000E+00 -0.89056019007E+03  0.89056019007E+03  0.25500000920E-02 0.  1.
    10030    2    1    2    0    0  0.00000000000E+00  0.00000000000E+00 -0.57468333854E+03  0.12064370416E+04  0.10607683045E+04 0.  0.
        3    1    3    3  502    0 -0.40164912898E+03 -0.33334577762E+03 -0.39443088805E+03  0.65423020865E+03  0.10100000352E+00 0. -1.
       -3    1    3    3    0  502  0.40164912898E+03  0.33334577762E+03 -0.18025245049E+03  0.55220683296E+03  0.10100000352E+00 0.  1.
</event>
<event>
 5   0  0.1647550E-03  0.1198990E+04  0.7818609E-02  0.9113741E-01
        2   -1    0    0  501    0  0.00000000000E+00  0.00000000000E+00  0.74683307906E+03  0.74683307906E+03  0.25500000920E-02 0.  1.
       -2   -1    0    0    0  501  0.00000000000E+00  0.00000000000E+00 -0.48122456243E+03  0.48122456244E+03  0.25500000920E-02 0. -1.
    10030    2    1    2    0    0  0.00000000000E+00  0.00000000000E+00  0.26560851662E+03  0.12280576415E+04  0.11989902780E+04 0.  0.
        3    1    3    3  502    0  0.25343215747E+03 -0.72258038473E+02  0.68432410897E+03  0.73331342472E+03  0.10100000352E+00 0.  1.
       -3    1    3    3    0  502 -0.25343215747E+03  0.72258038473E+02 -0.41871559234E+03  0.49474421678E+03  0.10100000352E+00 0. -1.
</event>
<event>
 5   0  0.6137750E-04  0.1138214E+04  0.7818609E-02  0.9168726E-01
        4   -1    0    0  501    0  0.00000000000E+00  0.00000000000E+00  0.27356616294E+03  0.27356911084E+03  0.12699999809E+01 0. -1.
       -4   -1    0    0    0  501  0.00000000000E+00  0.00000000000E+00 -0.11839185696E+04  0.11839192507E+04  0.12699999809E+01 0.  1.
    10030    2    1    2    0    0  0.00000000000E+00  0.00000000000E+00 -0.91035240663E+03  0.14574883616E+04  0.11382138727E+04 0.  0.
        2    1    3    3  502    0  0.47955262412E+03  0.53223455964E+02 -0.68728311529E+02  0.48736745519E+03  0.25500000920E-02 0. -1.
       -2    1    3    3    0  502 -0.47955262412E+03 -0.53223455964E+02 -0.84162409511E+03  0.97012090640E+03  0.25500000920E-02 0.  1.
</event>
<event>
 5   0  0.1567019E-03  0.1202105E+04  0.7818609E-02  0.9111016E-01
       -2   -1    0    0    0  501  0.00000000000E+00  0.00000000000E+00  0.26645074723E+03  0.26645074725E+03  0.25500000920E-02 0.  1.
        2   -1    0    0  501    0  0.00000000000E+00  0.00000000000E+00 -0.13558382089E+04  0.13558382089E+04  0.25500000920E-02 0. -1.
    10030    2    1    2    0    0  0.00000000000E+00  0.00000000000E+00 -0.10893874617E+04  0.16222889561E+04  0.12021049936E+04 0.  0.
        5    1    3    3  502    0 -0.52397589966E+02 -0.57727556982E+03 -0.75913656535E+03  0.95514554168E+03  0.46999998093E+01 0. -1.
       -5    1    3    3    0  502  0.52397589966E+02  0.57727556982E+03 -0.33025089630E+03  0.66714341445E+03  0.46999998093E+01 0.  1.
</event>
<event>
 5   0  0.9170776E-04  0.1202987E+04  0.7818609E-02  0.9110246E-01
       -1   -1    0    0    0  501  0.00000000000E+00  0.00000000000E+00  0.78538873722E+03  0.78538873724E+03  0.50400001928E-02 0.  1.
        1   -1    0    0  501    0  0.00000000000E+00  0.00000000000E+00 -0.46065640000E+03  0.46065640003E+03  0.50400001928E-02 0. -1.
    10030    2    1    2    0    0  0.00000000000E+00  0.00000000000E+00  0.32473233723E+03  0.12460451373E+04  0.12029868633E+04 0.  0.
        5    1    3    3  502    0 -0.17539730971E+03  0.47362531210E+03  0.50068709143E+03  0.71119252389E+03  0.46999998093E+01 0.  1.
       -5    1    3    3    0  502  0.17539730971E+03 -0.47362531210E+03 -0.17595475420E+03  0.53485261338E+03  0.46999998093E+01 0. -1.
</event>
<event>
 5   0  0.9358428E-04  0.1205561E+04  0.7818609E-02  0.9108003E-01
        1   -1    0    0  501    0  0.00000000000E+00  0.00000000000E+00  0.65103746344E+03  0.65103746346E+03  0.50400001928E-02 0.  1.
       -1   -1    0    0    0  501  0.00000000000E+00  0.00000000000E+00 -0.55810076146E+03  0.55810076149E+03  0.50400001928E-02 0. -1.
    10030    2    1    2    0    0  0.00000000000E+00  0.00000000000E+00  0.92936701978E+02  0.12091382249E+04  0.12055612869E+04 0.  0.
        2    1    3    3  502    0 -0.78363284222E+02 -0.22676599276E+03  0.60108362223E+03  0.64719791463E+03  0.25500000920E-02 0.  1.
       -2    1    3    3    0  502  0.78363284222E+02  0.22676599276E+03 -0.50814692025E+03  0.56194031031E+03  0.25500000920E-02 0. -1.
</event>
<event>
 5   0  0.1567019E-03  0.1138736E+04  0.7818609E-02  0.9168238E-01
       -2   -1    0    0    0  501  0.00000000000E+00  0.00000000000E+00  0.15432962061E+03  0.15432962063E+03  0.25500000920E-02 0.  1.
        2   -1    0    0  501    0  0.00000000000E+00  0.00000000000E+00 -0.21005700178E+04  0.21005700178E+04  0.25500000920E-02 0. -1.
    10030    2    1    2    0    0  0.00000000000E+00  0.00000000000E+00 -0.19462403972E+04  0.22548996384E+04  0.11387364470E+04 0.  0.
        5    1    3    3  502    0  0.37582042025E+03 -0.38375334976E+03 -0.13470039385E+04  0.14501549303E+04  0.46999998093E+01 0. -1.
       -5    1    3    3    0  502 -0.37582042025E+03  0.38375334976E+03 -0.59923645869E+03  0.80474470806E+03  0.46999998093E+01 0.  1.
</event>
<event>
 5   0  0.1597352E-03  0.1203827E+04  0.7818609E-02  0.9109513E-01
        2   -1    0    0  501    0  0.00000000000E+00  0.00000000000E+00  0.14944703062E+04  0.14944703062E+04  0.25500000920E-02 0.  1.
       -2   -1    0    0    0  501  0.00000000000E+00  0.00000000000E+00 -0.24242690307E+03  0.24242690308E+03  0.25500000920E-02 0. -1.
    10030    2    1    2    0    0  0.00000000000E+00  0.00000000000E+00  0.12520434031E+04  0.17368972093E+04  0.12038269112E+04 0.  0.
        1    1    3    3  502    0 -0.43590525198E+03 -0.59095419409E+01  0.12248351864E+04  0.13001036671E+04  0.50400001928E-02 0.  1.
       -1    1    3    3    0  502  0.43590525198E+03  0.59095419409E+01  0.27208216733E+02  0.43679354216E+03  0.50400001928E-02 0. -1.
</event>
<event>
 5   0  0.9358428E-04  0.1200699E+04  0.7818609E-02  0.9112245E-01
        1   -1    0    0  501    0  0.00000000000E+00  0.00000000000E+00  0.79804242026E+03  0.79804242028E+03  0.50400001928E-02 0. -1.
       -1   -1    0    0    0  501  0.00000000000E+00  0.00000000000E+00 -0.45162921176E+03  0.45162921179E+03  0.50400001928E-02 0.  1.
    10030    2    1    2    0    0  0.00000000000E+00  0.00000000000E+00  0.34641320850E+03  0.12496716321E+04  0.12006985787E+04 0.  0.
        2    1    3    3  502    0  0.58977292562E+03  0.37448592453E+02  0.63134970672E+02  0.59432358644E+03  0.25500000920E-02 0.  1.
       -2    1    3    3    0  502 -0.58977292562E+03 -0.37448592453E+02  0.28327823783E+03  0.65534804562E+03  0.25500000920E-02 0. -1.
</event>
<event>
 5   0  0.1597352E-03  0.1200170E+04  0.7818609E-02  0.9112707E-01
        2   -1    0    0  501    0  0.00000000000E+00  0.00000000000E+00  0.99490128625E+03  0.99490128625E+03  0.25500000920E-02 0.  1.
       -2   -1    0    0    0  501  0.00000000000E+00  0.00000000000E+00 -0.36194774965E+03  0.36194774966E+03  0.25500000920E-02 0. -1.
    10030    2    1    2    0    0  0.00000000000E+00  0.00000000000E+00  0.63295353660E+03  0.13568490359E+04  0.12001704574E+04 0.  0.
        1    1    3    3  502    0 -0.44908902374E+03 -0.16852039375E+03  0.72413607864E+03  0.86859261727E+03  0.50400001928E-02 0.  1.
       -1    1    3    3    0  502  0.44908902374E+03  0.16852039375E+03 -0.91182542045E+02  0.48825641865E+03  0.50400001928E-02 0. -1.
</event>
<event>
 5   0  0.8908478E-04  0.1190576E+04  0.7818609E-02  0.9121146E-01
       -1   -1    0    0    0  501  0.00000000000E+00  0.00000000000E+00  0.39654000533E+03  0.39654000536E+03  0.50400001928E-02 0.  1.
        1   -1    0    0  501    0  0.00000000000E+00  0.00000000000E+00 -0.89364949343E+03  0.89364949345E+03  0.50400001928E-02 0. -1.
    10030    2    1    2    0    0  0.00000000000E+00  0.00000000000E+00 -0.49710948811E+03  0.12901894988E+04  0.11905759529E+04 0.  0.
        4    1    3    3  502    0  0.52329840484E+03 -0.28367599687E+03 -0.25643431067E+03  0.64813074321E+03  0.12699999809E+01 0. -1.
       -4    1    3    3    0  502 -0.52329840484E+03  0.28367599687E+03 -0.24067517743E+03  0.64205875560E+03  0.12699999809E+01 0.  1.
</event>
<event>
 5   0  0.6137750E-04  0.1197107E+04  0.7818609E-02  0.9115393E-01
        3   -1    0    0  501    0  0.00000000000E+00  0.00000000000E+00  0.76023228470E+03  0.76023229141E+03  0.10100000352E+00 0. -1.
       -3   -1    0    0    0  501  0.00000000000E+00  0.00000000000E+00 -0.47125868563E+03  0.47125869646E+03  0.10100000352E+00 0.  1.
    10030    2    1    2    0    0  0.00000000000E+00  0.00000000000E+00  0.28897359907E+03  0.12314909879E+04  0.11971066420E+04 0.  0.
        5    1    3    3  502    0  0.40373351153E+03 -0.25744189010E+03  0.51392138438E+03  0.70243459085E+03  0.46999998093E+01 0. -1.
       -5    1    3    3    0  502 -0.40373351153E+03  0.25744189010E+03 -0.22494778531E+03  0.52905639702E+03  0.46999998093E+01 0.  1.
</event>
<event>
 5   0  0.1647550E-03  0.1205090E+04  0.7818609E-02  0.9108413E-01
       -2   -1    0    0    0  501  0.00000000000E+00  0.00000000000E+00  0.21149147317E+03  0.21149147318E+03  0.25500000920E-02 0. -1.
        2   -1    0    0  501    0  0.00000000000E+00  0.00000000000E+00 -0.17166666362E+04  0.17166666362E+04  0.25500000920E-02 0.  1.
    10030    2    1    2    0    0  0.00000000000E+00  0.00000000000E+00 -0.15051751631E+04  0.19281581094E+04  0.12050897989E+04 0.  0.
        3    1    3    3  502    0  0.13846231908E+03  0.57788437807E+03 -0.59308173511E+03  0.83956424587E+03  0.10100000352E+00 0. -1.
       -3    1    3    3    0  502 -0.13846231908E+03 -0.57788437807E+03 -0.91209342797E+03  0.10885938636E+04  0.10100000352E+00 0.  1.
</event>
<event>
 5   0  0.8908478E-04  0.1211259E+04  0.7818609E-02  0.9103058E-01
        1   -1    0    0  501    0  0.00000000000E+00  0.00000000000E+00  0.97500209897E+03  0.97500209899E+03  0.50400001928E-02 0.  1.
       -1   -1    0    0    0  501  0.00000000000E+00  0.00000000000E+00 -0.37619128383E+03  0.37619128386E+03  0.50400001928E-02 0. -1.
    10030    2    1    2    0    0  0.00000000000E+00  0.00000000000E+00  0.59881081515E+03  0.13511933828E+04  0.12112593304E+04 0.  0.
        4    1    3    3  502    0  0.49150193440E+03 -0.10209713176E+03 -0.78539115535E+02  0.50810233359E+03  0.12699999809E+01 0. -1.
       -4    1    3    3    0  502 -0.49150193440E+03  0.10209713176E+03  0.67734993068E+03  0.84309104925E+03  0.12699999809E+01 0.  1.
</event>
<event>
 5   0  0.1647550E-03  0.1200209E+04  0.7818609E-02  0.9112674E-01
       -2   -1    0    0    0  501  0.00000000000E+00  0.00000000000E+00  0.36917254176E+03  0.36917254177E+03  0.25500000920E-02 0.  1.
        2   -1    0    0  501    0  0.00000000000E+00  0.00000000000E+00 -0.97549283055E+03  0.97549283055E+03  0.25500000920E-02 0. -1.
    10030    2    1    2    0    0  0.00000000000E+00  0.00000000000E+00 -0.60632028879E+03  0.13446653723E+04  0.12002085948E+04 0.  0.
        3    1    3    3  502    0  0.29612116366E+02  0.33055175303E+03  0.25700158938E+03  0.41975131448E+03  0.10100000352E+00 0.  1.
       -3    1    3    3    0  502 -0.29612116366E+02 -0.33055175303E+03 -0.86332187817E+03  0.92491405784E+03  0.10100000352E+00 0. -1.
</event>
<event>
 5   0  0.1551501E-03  0.1223039E+04  0.7818609E-02  0.9092927E-01
       -2   -1    0    0    0  501  0.00000000000E+00  0.00000000000E+00  0.60633500801E+03  0.60633500801E+03  0.25500000920E-02 0.  1.
        2   -1    0    0  501    0  0.00000000000E+00  0.00000000000E+00 -0.61674784971E+03  0.61674784972E+03  0.25500000920E-02 0. -1.
    10030    2    1    2    0    0  0.00000000000E+00  0.00000000000E+00 -0.10412841706E+02  0.12230828577E+04  0.12230385315E+04 0.  0.
        4    1    3    3  502    0 -0.12167143433E+03 -0.13505188663E+03 -0.58910363870E+03  0.61651249788E+03  0.12699999809E+01 0. -1.
       -4    1    3    3    0  502  0.12167143433E+03  0.13505188663E+03  0.57869079700E+03  0.60657035985E+03  0.12699999809E+01 0.  1.
</event>
<event>
 5   0  0.1537557E-03  0.1193840E+04  0.7818609E-02  0.9118265E-01
        2   -1    0    0  501    0  0.00000000000E+00  0.00000000000E+00  0.87204789517E+03  0.87204789517E+03  0.25500000920E-02 0.  1.
       -2   -1    0    0    0  501  0.00000000000E+00  0.00000000000E+00 -0.40859401063E+03  0.40859401064E+03  0.25500000920E-02 0. -1.
    10030    2    1    2    0    0  0.00000000000E+00  0.00000000000E+00  0.46345388454E+03  0.12806419058E+04  0.11938401015E+04 0.  0.
        2    1    3    3  502    0 -0.54089663477E+03 -0.19315034645E+03  0.57309357207E+02  0.57720064819E+03  0.25500000920E-02 0. -1.
       -2    1    3    3    0  502  0.54089663477E+03  0.19315034645E+03  0.40614452733E+03  0.70344125762E+03  0.25500000920E-02 0.  1.
</event>
<event>
 5   0  0.1537557E-03  0.1211424E+04  0.7818609E-02  0.9102916E-01
       -2   -1    0    0    0  501  0.00000000000E+00  0.00000000000E+00  0.68652537527E+03  0.68652537528E+03  0.25500000920E-02 0.  1.
        2   -1    0    0  501    0  0.00000000000E+00  0.00000000000E+00 -0.53441128471E+03  0.53441128471E+03  0.25500000920E-02 0. -1.
    10030    2    1    2    0    0  0.00000000000E+00  0.00000000000E+00  0.15211409056E+03  0.12209366600E+04  0.12114238033E+04 0.  0.
        2    1    3    3  502    0  0.19510472774E+03 -0.28758283558E+03  0.57605471902E+03  0.67276205408E+03  0.25500000920E-02 0.  1.
       -2    1    3    3    0  502 -0.19510472774E+03  0.28758283558E+03 -0.42394062845E+03  0.54817460591E+03  0.25500000920E-02 0. -1.
</event>
<event>
 5   0  0.9358428E-04  0.1204124E+04  0.7818609E-02  0.9109255E-01
       -1   -1    0    0    0  501  0.00000000000E+00  0.00000000000E+00  0.10748631615E+04  0.10748631615E+04  0.50400001928E-02 0. -1.
        1   -1    0    0  501    0  0.00000000000E+00  0.00000000000E+00 -0.33723226805E+03  0.33723226809E+03  0.50400001928E-02 0.  1.
    10030    2    1    2    0    0  0.00000000000E+00  0.00000000000E+00  0.73763089343E+03  0.14120954296E+04  0.12041238173E+04 0.  0.
        2    1    3    3  502    0 -0.23216577618E+03 -0.46096839628E+03  0.53004336595E+01  0.51615976655E+03  0.25500000920E-02 0.  1.
       -2    1    3    3    0  502  0.23216577618E+03  0.46096839628E+03  0.73233045977E+03  0.89593566304E+03  0.25500000920E-02 0. -1.
</event>
<event>
 5   0  0.1537557E-03  0.1230818E+04  0.7818609E-02  0.9086301E-01
       -2   -1    0    0    0  501  0.00000000000E+00  0.00000000000E+00  0.35317698641E+03  0.35317698642E+03  0.25500000920E-02 0. -1.
        2   -1    0    0  501    0  0.00000000000E+00  0.00000000000E+00 -0.10723465834E+04  0.10723465834E+04  0.25500000920E-02 0.  1.
    10030    2    1    2    0    0  0.00000000000E+00  0.00000000000E+00 -0.71916959699E+03  0.14255235698E+04  0.12308178333E+04 0.  0.
        2    1    3    3  502    0  0.32212190586E+02  0.46886546589E+03  0.10057718355E+03  0.48061233878E+03  0.25500000920E-02 0. -1.
       -2    1    3    3    0  502 -0.32212190586E+02 -0.46886546589E+03 -0.81974678053E+03  0.94491123103E+03  0.25500000920E-02 0.  1.
</event>
<event>
 5   0  0.1567019E-03  0.1212491E+04  0.7818609E-02  0.9101993E-01
       -2   -1    0    0    0  501  0.00000000000E+00  0.00000000000E+00  0.32103989012E+03  0.32103989013E+03  0.25500000920E-02 0.  1.
        2   -1    0    0  501    0  0.00000000000E+00  0.00000000000E+00 -0.11448227218E+04  0.11448227218E+04  0.25500000920E-02 0. -1.
    10030    2    1    2    0    0  0.00000000000E+00  0.00000000000E+00 -0.82378283163E+03  0.14658626119E+04  0.12124912549E+04 0.  0.
        5    1    3    3  502    0  0.31461512348E+03  0.50644445043E+03 -0.54456432125E+03  0.80749058649E+03  0.46999998093E+01 0. -1.
       -5    1    3    3    0  502 -0.31461512348E+03 -0.50644445043E+03 -0.27921851038E+03  0.65837202540E+03  0.46999998093E+01 0.  1.
</event>
<event>
 5   0  0.1567019E-03  0.1173785E+04  0.7818609E-02  0.9136117E-01
        2   -1    0    0  501    0  0.00000000000E+00  0.00000000000E+00  0.50346810336E+03  0.50346810337E+03  0.25500000920E-02 0.  1.
       -2   -1    0    0    0  501  0.00000000000E+00  0.00000000000E+00 -0.68414074274E+03  0.68414074274E+03  0.25500000920E-02 0. -1.
    10030    2    1    2    0    0  0.00000000000E+00  0.00000000000E+00 -0.18067263938E+03  0.11876088461E+04  0.11737854015E+04 0.  0.
        5    1    3    3  502    0 -0.42943315545E+03  0.15773641446E+02  0.31406988228E+03  0.53228152675E+03  0.46999998093E+01 0.  1.
       -5    1    3    3    0  502  0.42943315545E+03 -0.15773641446E+02 -0.49474252166E+03  0.65532731936E+03  0.46999998093E+01 0. -1.
</event>
<event>
 5   0  0.1647550E-03  0.1200340E+04  0.7818609E-02  0.9112559E-01
        2   -1    0    0  501    0  0.00000000000E+00  0.00000000000E+00  0.74507759506E+03  0.74507759506E+03  0.25500000920E-02 0. -1.
       -2   -1    0    0    0  501  0.00000000000E+00  0.00000000000E+00 -0.48344498029E+03  0.48344498030E+03  0.25500000920E-02 0.  1.
    10030    2    1    2    0    0  0.00000000000E+00  0.00000000000E+00  0.26163261477E+03  0.12285225754E+04  0.12003399906E+04 0.  0.
        3    1    3    3  502    0  0.74626604148E+02  0.87172614608E+02 -0.47211247554E+03  0.48585840998E+03  0.10100000352E+00 0.  1.
       -3    1    3    3    0  502 -0.74626604148E+02 -0.87172614608E+02  0.73374509031E+03  0.74266416538E+03  0.10100000352E+00 0. -1.
</event>
<event>
 5   0  0.9170776E-04  0.1184276E+04  0.7818609E-02  0.9126732E-01
       -1   -1    0    0    0  501  0.00000000000E+00  0.00000000000E+00  0.45833994101E+03  0.45833994104E+03  0.50400001928E-02 0.  1.
        1   -1    0    0  501    0  0.00000000000E+00  0.00000000000E+00 -0.76499376040E+03  0.76499376042E+03  0.50400001928E-02 0. -1.
    10030    2    1    2    0    0  0.00000000000E+00  0.00000000000E+00 -0.30665381939E+03  0.12233337015E+04  0.11842756352E+04 0.  0.
        5    1    3    3  502    0  0.41507631158E+03  0.41142999163E+03 -0.25155310931E+03  0.63628927325E+03  0.46999998093E+01 0. -1.
       -5    1    3    3    0  502 -0.41507631158E+03 -0.41142999163E+03 -0.55100710079E+02  0.58704442821E+03  0.46999998093E+01 0.  1.
</event>
<event>
 5   0  0.9169078E-04  0.1162277E+04  0.7818609E-02  0.9146532E-01
       -1   -1    0    0    0  501  0.00000000000E+00  0.00000000000E+00  0.39791894125E+03  0.39791894128E+03  0.50400001928E-02 0. -1.
        1   -1    0    0  501    0  0.00000000000E+00  0.00000000000E+00 -0.84872034970E+03  0.84872034972E+03  0.50400001928E-02 0.  1.
    10030    2    1    2    0    0  0.00000000000E+00  0.00000000000E+00 -0.45080140845E+03  0.12466392910E+04  0.11622769085E+04 0.  0.
        1    1    3    3  502    0  0.18561154955E+03  0.50820929832E+03  0.21123929085E+01  0.54104787261E+03  0.50400001928E-02 0. -1.
       -1    1    3    3    0  502 -0.18561154955E+03 -0.50820929832E+03 -0.45291380136E+03  0.70559141839E+03  0.50400001928E-02 0.  1.
</event>
<event>
 5   0  0.1647550E-03  0.1187135E+04  0.7818609E-02  0.9124192E-01
       -2   -1    0    0    0  501  0.00000000000E+00  0.00000000000E+00  0.42649070477E+03  0.42649070478E+03  0.25500000920E-02 0. -1.
        2   -1    0    0  501    0  0.00000000000E+00  0.00000000000E+00 -0.82609622504E+03  0.82609622505E+03  0.25500000920E-02 0.  1.
    10030    2    1    2    0    0  0.00000000000E+00  0.00000000000E+00 -0.39960552027E+03  0.12525869298E+04  0.11871349733E+04 0.  0.
        3    1    3    3  502    0 -0.37745947920E+03  0.19956920557E+03  0.23526437802E+03  0.48749652718E+03  0.10100000352E+00 0. -1.
       -3    1    3    3    0  502  0.37745947920E+03 -0.19956920557E+03 -0.63486989829E+03  0.76509040264E+03  0.10100000352E+00 0.  1.
</event>
<event>
 5   0  0.6137750E-04  0.1211087E+04  0.7818609E-02  0.9103207E-01
        4   -1    0    0  501    0  0.00000000000E+00  0.00000000000E+00  0.10928520658E+04  0.10928528037E+04  0.12699999809E+01 0.  1.
       -4   -1    0    0    0  501  0.00000000000E+00  0.00000000000E+00 -0.33552628429E+03  0.33552868782E+03  0.12699999809E+01 0. -1.
    10030    2    1    2    0    0  0.00000000000E+00  0.00000000000E+00  0.75732578151E+03  0.14283814916E+04  0.12110868450E+04 0.  0.
        1    1    3    3  502    0 -0.18141152414E+03  0.41260766998E+03 -0.98277899403E+02  0.46131743513E+03  0.50400001928E-02 0. -1.
       -1    1    3    3    0  502  0.18141152414E+03 -0.41260766998E+03  0.85560368091E+03  0.96706405643E+03  0.50400001928E-02 0.  1.
</event>
<event>
 5   0  0.1551501E-03  0.1188677E+04  0.7818609E-02  0.9122826E-01
        2   -1    0    0  501    0  0.00000000000E+00  0.00000000000E+00  0.97773739569E+03  0.97773739570E+03  0.25500000920E-02 0.  1.
       -2   -1    0    0    0  501  0.00000000000E+00  0.00000000000E+00 -0.36128115869E+03  0.36128115870E+03  0.25500000920E-02 0. -1.
    10030    2    1    2    0    0  0.00000000000E+00  0.00000000000E+00  0.61645623700E+03  0.13390185544E+04  0.11886767420E+04 0.  0.
        4    1    3    3  502    0  0.33134733608E+03  0.15218235621E+03  0.83693655258E+03  0.91291562185E+03  0.12699999809E+01 0.  1.
       -4    1    3    3    0  502 -0.33134733608E+03 -0.15218235621E+03 -0.22048031558E+03  0.42610293255E+03  0.12699999809E+01 0. -1.
</event>
<event>
 5   0  0.6137750E-04  0.1139614E+04  0.7818609E-02  0.9167419E-01
       -3   -1    0    0    0  501  0.00000000000E+00  0.00000000000E+00  0.66380585514E+03  0.66380586282E+03  0.10100000352E+00 0.  1.
        3   -1    0    0  501    0  0.00000000000E+00  0.00000000000E+00 -0.48911855694E+03  0.48911856737E+03  0.10100000352E+00 0. -1.
    10030    2    1    2    0    0  0.00000000000E+00  0.00000000000E+00  0.17468729820E+03  0.11529244302E+04  0.11396135703E+04 0.  0.
        1    1    3    3  502    0 -0.41787865203E+03  0.73145730961E+02 -0.29750313306E+03  0.51815150293E+03  0.50400001928E-02 0. -1.
       -1    1    3    3    0  502  0.41787865203E+03 -0.73145730961E+02  0.47219043126E+03  0.63477292726E+03  0.50400001928E-02 0.  1.
</event>
<event>
 5   0  0.8908478E-04  0.1198749E+04  0.7818609E-02  0.9113952E-01
        1   -1    0    0  501    0  0.00000000000E+00  0.00000000000E+00  0.38205925433E+03  0.38205925436E+03  0.50400001928E-02 0.  1.
       -1   -1    0    0    0  501  0.00000000000E+00  0.00000000000E+00 -0.94029867341E+03  0.94029867342E+03  0.50400001928E-02 0. -1.
    10030    2    1    2    0    0  0.00000000000E+00  0.00000000000E+00 -0.55823941908E+03  0.13223579278E+04  0.11987490313E+04 0.  0.
        4    1    3    3  502    0  0.38731171138E+03  0.22428278794E+03  0.16065537205E+03  0.47552591118E+03  0.12699999809E+01 0.  1.
       -4    1    3    3    0  502 -0.38731171138E+03 -0.22428278794E+03 -0.71889479113E+03  0.84683201660E+03  0.12699999809E+01 0. -1.
</event>
<event>
 5   0  0.1551501E-03  0.1201740E+04  0.7818609E-02  0.9111335E-01
        2   -1    0    0  501    0  0.00000000000E+00  0.00000000000E+00  0.86946954204E+03  0.86946954205E+03  0.25500000920E-02 0.  1.
       -2   -1    0    0    0  501  0.00000000000E+00  0.00000000000E+00 -0.41524704146E+03  0.41524704147E+03  0.25500000920E-02 0. -1.
    10030    2    1    2    0    0  0.00000000000E+00  0.00000000000E+00  0.45422250058E+03  0.12847165835E+04  0.12017398304E+04 0.  0.
        4    1    3    3  502    0 -0.58380244145E+03  0.13835505344E+03  0.26217258579E+03  0.65475452583E+03  0.12699999809E+01 0. -1.
       -4    1    3    3    0  502  0.58380244145E+03 -0.13835505344E+03  0.19204991480E+03  0.62996205769E+03  0.12699999809E+01 0.  1.
</event>
<event>
 5   0  0.1597352E-03  0.1206747E+04  0.7818609E-02  0.9106972E-01
        2   -1    0    0  501    0  0.00000000000E+00  0.00000000000E+00  0.69549301222E+03  0.69549301223E+03  0.25500000920E-02 0.  1.
       -2   -1    0    0    0  501  0.00000000000E+00  0.00000000000E+00 -0.52345509268E+03  0.52345509269E+03  0.25500000920E-02 0. -1.
    10030    2    1    2    0    0  0.00000000000E+00  0.00000000000E+00  0.17203791954E+03  0.12189481049E+04  0.12067466332E+04 0.  0.
        1    1    3    3  502    0 -0.38637148816E+03  0.46229065117E+03  0.11896447331E+03  0.61412386288E+03  0.50400001928E-02 0. -1.
       -1    1    3    3    0  502  0.38637148816E+03 -0.46229065117E+03  0.53073446227E+02  0.60482424203E+03  0.50400001928E-02 0.  1.
</event>
<event>
 5   0  0.1537557E-03  0.1195488E+04  0.7818609E-02  0.9116815E-01
       -2   -1    0    0    0  501  0.00000000000E+00  0.00000000000E+00  0.20080054127E+03  0.20080054129E+03  0.25500000920E-02 0.  1.
        2   -1    0    0  501    0  0.00000000000E+00  0.00000000000E+00 -0.17793661530E+04  0.17793661530E+04  0.25500000920E-02 0. -1.
    10030    2    1    2    0    0  0.00000000000E+00  0.00000000000E+00 -0.15785656117E+04  0.19801666943E+04  0.11954876606E+04 0.  0.
        2    1    3    3  502    0 -0.12476919492E+03  0.38247544470E+03 -0.57020686619E+02  0.40633259346E+03  0.25500000920E-02 0.  1.
       -2    1    3    3    0  502  0.12476919492E+03 -0.38247544470E+03 -0.15215449251E+04  0.15738341008E+04  0.25500000920E-02 0. -1.
</event>
<event>
 5   0  0.9208078E-04  0.1187723E+04  0.7818609E-02  0.9123671E-01
        1   -1    0    0  501    0  0.00000000000E+00  0.00000000000E+00  0.52587234893E+03  0.52587234895E+03  0.50400001928E-02 0.  1.
       -1   -1    0    0    0  501  0.00000000000E+00  0.00000000000E+00 -0.67064076123E+03  0.67064076125E+03  0.50400001928E-02 0. -1.
    10030    2    1    2    0    0  0.00000000000E+00  0.00000000000E+00 -0.14476841231E+03  0.11965131102E+04  0.11877229179E+04 0.  0.
        3    1    3    3  502    0  0.46545149321E+03  0.27424081826E+03  0.17605462368E+03  0.56819746537E+03  0.10100000352E+00 0.  1.
       -3    1    3    3    0  502 -0.46545149321E+03 -0.27424081826E+03 -0.32082303599E+03  0.62831564484E+03  0.10100000352E+00 0. -1.
</event>
<event>
 5   0  0.6137750E-04  0.1209425E+04  0.7818609E-02  0.9104647E-01
        3   -1    0    0  501    0  0.00000000000E+00  0.00000000000E+00  0.13819890397E+03  0.13819894087E+03  0.10100000352E+00 0. -1.
       -3   -1    0    0    0  501  0.00000000000E+00  0.00000000000E+00 -0.26460207738E+04  0.26460207757E+04  0.10100000352E+00 0.  1.
    10030    2    1    2    0    0  0.00000000000E+00  0.00000000000E+00 -0.25078218698E+04  0.27842197166E+04  0.12094250285E+04 0.  0.
        1    1    3    3  502    0 -0.43884358464E+03  0.21642692751E+03 -0.20718957944E+04  0.21288909060E+04  0.50400001928E-02 0. -1.
       -1    1    3    3    0  502  0.43884358464E+03 -0.21642692751E+03 -0.43592607540E+03  0.65532881058E+03  0.50400001928E-02 0.  1.
</event>
<event>
 5   0  0.8908478E-04  0.1200083E+04  0.7818609E-02  0.9112784E-01
       -1   -1    0    0    0  501  0.00000000000E+00  0.00000000000E+00  0.31195542406E+03  0.31195542410E+03  0.50400001928E-02 0. -1.
        1   -1    0    0  501    0  0.00000000000E+00  0.00000000000E+00 -0.11541697777E+04  0.11541697777E+04  0.50400001928E-02 0.  1.
    10030    2    1    2    0    0  0.00000000000E+00  0.00000000000E+00 -0.84221435364E+03  0.14661252018E+04  0.12000825346E+04 0.  0.
        4    1    3    3  502    0 -0.30251730540E+03 -0.34778671390E+03  0.48210821331E+02  0.46346328293E+03  0.12699999809E+01 0. -1.
       -4    1    3    3    0  502  0.30251730540E+03  0.34778671390E+03 -0.89042517497E+03  0.10026619189E+04  0.12699999809E+01 0.  1.
</event>
<event>
 5   0  0.9358428E-04  0.1188982E+04  0.7818609E-02  0.9122555E-01
        1   -1    0    0  501    0  0.00000000000E+00  0.00000000000E+00  0.22491335819E+04  0.22491335819E+04  0.50400001928E-02 0. -1.
       -1   -1    0    0    0  501  0.00000000000E+00  0.00000000000E+00 -0.15713594342E+03  0.15713594350E+03  0.50400001928E-02 0.  1.
    10030    2    1    2    0    0  0.00000000000E+00  0.00000000000E+00  0.20919976385E+04  0.24062695254E+04  0.11889822999E+04 0.  0.
        2    1    3    3  502    0 -0.14847716059E+03  0.37376908438E+03  0.19320259255E+04  0.19734419101E+04  0.25500000920E-02 0. -1.
       -2    1    3    3    0  502  0.14847716059E+03 -0.37376908438E+03  0.15997171302E+03  0.43282761537E+03  0.25500000920E-02 0.  1.
</event>
<event>
 5   0  0.1537557E-03  0.1196869E+04  0.7818609E-02  0.9115601E-01
       -2   -1    0    0    0  501  0.00000000000E+00  0.00000000000E+00  0.48404069476E+03  0.48404069477E+03  0.25500000920E-02 0. -1.
        2   -1    0    0  501    0  0.00000000000E+00  0.00000000000E+00 -0.73986316881E+03  0.73986316881E+03  0.25500000920E-02 0.  1.
    10030    2    1    2    0    0  0.00000000000E+00  0.00000000000E+00 -0.25582247405E+03  0.12239038636E+04  0.11968690526E+04 0.  0.
        2    1    3    3  502    0 -0.21396887636E+03  0.33574297658E+03 -0.58478935841E+03  0.70744937634E+03  0.25500000920E-02 0.  1.
       -2    1    3    3    0  502  0.21396887636E+03 -0.33574297658E+03  0.32896688436E+03  0.51645448723E+03  0.25500000920E-02 0. -1.
</event>
<event>
 5   0  0.1567019E-03  0.1198401E+04  0.7818609E-02  0.9114258E-01
       -2   -1    0    0    0  501  0.00000000000E+00  0.00000000000E+00  0.46008315960E+03  0.46008315960E+03  0.25500000920E-02 0.  1.
        2   -1    0    0  501    0  0.00000000000E+00  0.00000000000E+00 -0.78038300435E+03  0.78038300435E+03  0.25500000920E-02 0. -1.
    10030    2    1    2    0    0  0.00000000000E+00  0.00000000000E+00 -0.32029984475E+03  0.12404661640E+04  0.11984007315E+04 0.  0.
        5    1    3    3  502    0 -0.37665379476E+03  0.46441383902E+03 -0.12045418053E+03  0.60998327402E+03  0.46999998093E+01 0.  1.
       -5    1    3    3    0  502  0.37665379476E+03 -0.46441383902E+03 -0.19984566423E+03  0.63048288993E+03  0.46999998093E+01 0. -1.
</event>
<event>
 5   0  0.9169078E-04  0.1198975E+04  0.7818609E-02  0.9113754E-01
        1   -1    0    0  501    0  0.00000000000E+00  0.00000000000E+00  0.72753936808E+03  0.72753936809E+03  0.50400001928E-02 0. -1.
       -1   -1    0    0    0  501  0.00000000000E+00  0.00000000000E+00 -0.49397341822E+03  0.49397341824E+03  0.50400001928E-02 0.  1.
    10030    2    1    2    0    0  0.00000000000E+00  0.00000000000E+00  0.23356594986E+03  0.12215127863E+04  0.11989747430E+04 0.  0.
        1    1    3    3  502    0  0.46136790188E+03  0.25665641294E+03  0.40611481941E+03  0.66607965121E+03  0.50400001928E-02 0. -1.
       -1    1    3    3    0  502 -0.46136790188E+03 -0.25665641294E+03 -0.17254886955E+03  0.55543313512E+03  0.50400001928E-02 0.  1.
</event>
<event>
 5   0  0.1597352E-03  0.1193135E+04  0.7818609E-02  0.9118887E-01
       -2   -1    0    0    0  501  0.00000000000E+00  0.00000000000E+00  0.19661631744E+03  0.19661631746E+03  0.25500000920E-02 0. -1.
        2   -1    0    0  501    0  0.00000000000E+00  0.00000000000E+00 -0.18100875681E+04  0.18100875681E+04  0.25500000920E-02 0.  1.
    10030    2    1    2    0    0  0.00000000000E+00  0.00000000000E+00 -0.16134712507E+04  0.20067038856E+04  0.11931349495E+04 0.  0.
        1    1    3    3  502    0  0.33257477670E+03  0.49419202811E+02  0.22079887554E+02  0.33695068061E+03  0.50400001928E-02 0. -1.
       -1    1    3    3    0  502 -0.33257477670E+03 -0.49419202811E+02 -0.16355511382E+04  0.16697532049E+04  0.50400001928E-02 0.  1.
</event>
<event>
 5   0  0.8908478E-04  0.1198180E+04  0.7818609E-02  0.9114451E-01
        1   -1    0    0  501    0  0.00000000000E+00  0.00000000000E+00  0.13098601062E+04  0.13098601062E+04  0.50400001928E-02 0. -1.
       -1   -1    0    0    0  501  0.00000000000E+00  0.00000000000E+00 -0.27400559524E+03  0.27400559528E+03  0.50400001928E-02 0.  1.
    10030    2    1    2    0    0  0.00000000000E+00  0.00000000000E+00  0.10358545110E+04  0.15838657015E+04  0.11981802838E+04 0.  0.
        4    1    3    3  502    0  0.56127039084E+03  0.11087673621E+03  0.28298232992E+03  0.63827792866E+03  0.12699999809E+01 0.  1.
       -4    1    3    3    0  502 -0.56127039084E+03 -0.11087673621E+03  0.75287218107E+03  0.94558777286E+03  0.12699999809E+01 0. -1.
</event>
<event>
 5   0  0.1567019E-03  0.1193414E+04  0.7818609E-02  0.9118641E-01
       -2   -1    0    0    0  501  0.00000000000E+00  0.00000000000E+00  0.15853334110E+03  0.15853334113E+03  0.25500000920E-02 0.  1.
        2   -1    0    0  501    0  0.00000000000E+00  0.00000000000E+00 -0.22459592449E+04  0.22459592449E+04  0.25500000920E-02 0. -1.
    10030    2    1    2    0    0  0.00000000000E+00  0.00000000000E+00 -0.20874259038E+04  0.24044925861E+04  0.11934143004E+04 0.  0.
        5    1    3    3  502    0 -0.30618842009E+03 -0.50290792308E+03 -0.12387391056E+04  0.13715554635E+04  0.46999998093E+01 0. -1.
       -5    1    3    3    0  502  0.30618842009E+03  0.50290792308E+03 -0.84868679826E+03  0.10329371226E+04  0.46999998093E+01 0.  1.
</event>
<event>
 5   0  0.1551501E-03  0.1199721E+04  0.7818609E-02  0.9113101E-01
        2   -1    0    0  501    0  0.00000000000E+00  0.00000000000E+00  0.13986002774E+04  0.13986002774E+04  0.25500000920E-02 0. -1.
       -2   -1    0    0    0  501  0.00000000000E+00  0.00000000000E+00 -0.25728037887E+03  0.25728037888E+03  0.25500000920E-02 0.  1.
    10030    2    1    2    0    0  0.00000000000E+00  0.00000000000E+00  0.11413198986E+04  0.16558806563E+04  0.11997206496E+04 0.  0.
        4    1    3    3  502    0 -0.14363214986E+03 -0.56432590142E+03  0.76941610785E+03  0.96493350932E+03  0.12699999809E+01 0. -1.
       -4    1    3    3    0  502  0.14363214986E+03  0.56432590142E+03  0.37190379071E+03  0.69094714699E+03  0.12699999809E+01 0.  1.
</event>
<event>
 5   0  0.1567019E-03  0.1213409E+04  0.7818609E-02  0.9101200E-01
       -2   -1    0    0    0  501  0.00000000000E+00  0.00000000000E+00  0.45252401558E+03  0.45252401558E+03  0.25500000920E-02 0.  1.
        2   -1    0    0  501    0  0.00000000000E+00  0.00000000000E+00 -0.81341639518E+03  0.81341639518E+03  0.25500000920E-02 0. -1.
    10030    2    1    2    0    0  0.00000000000E+00  0.00000000000E+00 -0.36089237960E+03  0.12659404108E+04  0.12134091700E+04 0.  0.
        5    1    3    3  502    0  0.73939070864E+02  0.47559461382E+03  0.20488211413E+03  0.52312139469E+03  0.46999998093E+01 0.  1.
       -5    1    3    3    0  502 -0.73939070864E+02 -0.47559461382E+03 -0.56577449373E+03  0.74281901608E+03  0.46999998093E+01 0. -1.
</event>
<event>
 5   0  0.1567019E-03  0.1199561E+04  0.7818609E-02  0.9113241E-01
        2   -1    0    0  501    0  0.00000000000E+00  0.00000000000E+00  0.36640166972E+03  0.36640166972E+03  0.25500000920E-02 0. -1.
       -2   -1    0    0    0  501  0.00000000000E+00  0.00000000000E+00 -0.98180971846E+03  0.98180971846E+03  0.25500000920E-02 0.  1.
    10030    2    1    2    0    0  0.00000000000E+00  0.00000000000E+00 -0.61540804874E+03  0.13482113882E+04  0.11995611201E+04 0.  0.
        5    1    3    3  502    0  0.39315241208E+03 -0.49672865534E+01 -0.81673102317E+03  0.90645747129E+03  0.46999998093E+01 0.  1.
       -5    1    3    3    0  502 -0.39315241208E+03  0.49672865534E+01  0.20132297443E+03  0.44175391689E+03  0.46999998093E+01 0. -1.
</event>
<event>
 5   0  0.6137750E-04  0.1198841E+04  0.7818609E-02  0.9113871E-01
       -4   -1    0    0    0  501  0.00000000000E+00  0.00000000000E+00  0.14294320857E+04  0.14294326499E+04  0.12699999809E+01 0. -1.
        4   -1    0    0  501    0  0.00000000000E+00  0.00000000000E+00 -0.25135997948E+03  0.25136318781E+03  0.12699999809E+01 0.  1.
    10030    2    1    2    0    0  0.00000000000E+00  0.00000000000E+00  0.11780721062E+04  0.16807958377E+04  0.11988414243E+04 0.  0.
        2    1    3    3  502    0 -0.47919811478E+03  0.68190735931E+02  0.93299915812E+02  0.49293578078E+03  0.25500000920E-02 0.  1.
       -2    1    3    3    0  502  0.47919811478E+03 -0.68190735931E+02  0.10847721904E+04  0.11878600569E+04  0.25500000920E-02 0. -1.
</event>
<event>
 5   0  0.1597352E-03  0.1204143E+04  0.7818609E-02  0.9109238E-01
       -2   -1    0    0    0  501  0.00000000000E+00  0.00000000000E+00  0.60981588962E+03  0.60981588962E+03  0.25500000920E-02 0. -1.
        2   -1    0    0  501    0  0.00000000000E+00  0.00000000000E+00 -0.59442581131E+03  0.59442581131E+03  0.25500000920E-02 0.  1.
    10030    2    1    2    0    0  0.00000000000E+00  0.00000000000E+00  0.15390078312E+02  0.12042417009E+04  0.12041433552E+04 0.  0.
        1    1    3    3  502    0 -0.46924748809E+03  0.30651779050E+03 -0.21219548143E+03  0.59931067347E+03  0.50400001928E-02 0.  1.
       -1    1    3    3    0  502  0.46924748809E+03 -0.30651779050E+03  0.22758555974E+03  0.60493102747E+03  0.50400001928E-02 0. -1.
</event>
<event>
 5   0  0.9358428E-04  0.1204057E+04  0.7818609E-02  0.9109313E-01
        1   -1    0    0  501    0  0.00000000000E+00  0.00000000000E+00  0.13478391976E+04  0.13478391976E+04  0.50400001928E-02 0. -1.
       -1   -1    0    0    0  501  0.00000000000E+00  0.00000000000E+00 -0.26890321490E+03  0.26890321495E+03  0.50400001928E-02 0.  1.
    10030    2    1    2    0    0  0.00000000000E+00  0.00000000000E+00  0.10789359827E+04  0.16167424126E+04  0.12040569645E+04 0.  0.
        2    1    3    3  502    0  0.21031530040E+03 -0.37726098801E+03  0.11025892471E+04  0.11841711981E+04  0.25500000920E-02 0. -1.
       -2    1    3    3    0  502 -0.21031530040E+03  0.37726098801E+03 -0.23653264374E+02  0.43257121445E+03  0.25500000920E-02 0.  1.
</event>
<event>
 5   0  0.1551501E-03  0.1198869E+04  0.7818609E-02  0.9113847E-01
       -2   -1    0    0    0  501  0.00000000000E+00  0.00000000000E+00  0.70756879203E+03  0.70756879204E+03  0.25500000920E-02 0.  1.
        2   -1    0    0  501    0  0.00000000000E+00  0.00000000000E+00 -0.50782565060E+03  0.50782565060E+03  0.25500000920E-02 0. -1.
    10030    2    1    2    0    0  0.00000000000E+00  0.00000000000E+00  0.19974314144E+03  0.12153944426E+04  0.11988687704E+04 0.  0.
        4    1    3    3  502    0  0.81277736006E+02 -0.54433850631E+03 -0.14090913520E+03  0.56812628623E+03  0.12699999809E+01 0. -1.
       -4    1    3    3    0  502 -0.81277736006E+02  0.54433850631E+03  0.34065227664E+03  0.64726815641E+03  0.12699999809E+01 0.  1.
</event>
<event>
 5   0  0.9208078E-04  0.1203276E+04  0.7818609E-02  0.9109993E-01
       -1   -1    0    0    0  501  0.00000000000E+00  0.00000000000E+00  0.38820718910E+03  0.38820718914E+03  0.50400001928E-02 0. -1.
        1   -1    0    0  501    0  0.00000000000E+00  0.00000000000E+00 -0.93241078618E+03  0.93241078619E+03  0.50400001928E-02 0.  1.
    10030    2    1    2    0    0  0.00000000000E+00  0.00000000000E+00 -0.54420359707E+03  0.13206179753E+04  0.12032764777E+04 0.  0.
        3    1    3    3  502    0  0.49540288941E+03 -0.81885139918E+02  0.91637962111E+02  0.51041818666E+03  0.10100000352E+00 0. -1.
       -3    1    3    3    0  502 -0.49540288941E+03  0.81885139918E+02 -0.63584155918E+03  0.81019978867E+03  0.10100000352E+00 0.  1.
</event>
<event>
 5   0  0.1647550E-03  0.1203721E+04  0.7818609E-02  0.9109606E-01
       -2   -1    0    0    0  501  0.00000000000E+00  0.00000000000E+00  0.18733468897E+03  0.18733468899E+03  0.25500000920E-02 0.  1.
        2   -1    0    0  501    0  0.00000000000E+00  0.00000000000E+00 -0.19336297563E+04  0.19336297563E+04  0.25500000920E-02 0. -1.
    10030    2    1    2    0    0  0.00000000000E+00  0.00000000000E+00 -0.17462950673E+04  0.21209644453E+04  0.12037207799E+04 0.  0.
        3    1    3    3  502    0 -0.36410517539E+03  0.38854175805E+02 -0.17147778716E+04  0.17534381611E+04  0.10100000352E+00 0. -1.
       -3    1    3    3    0  502  0.36410517539E+03 -0.38854175805E+02 -0.31517195714E+02  0.36752628416E+03  0.10100000352E+00 0.  1.
</event>
<event>
 5   0  0.8908478E-04  0.1201168E+04  0.7818609E-02  0.9111835E-01
       -1   -1    0    0    0  501  0.00000000000E+00  0.00000000000E+00  0.27422394039E+03  0.27422394044E+03  0.50400001928E-02 0. -1.
        1   -1    0    0  501    0  0.00000000000E+00  0.00000000000E+00 -0.13153523471E+04  0.13153523471E+04  0.50400001928E-02 0.  1.
    10030    2    1    2    0    0  0.00000000000E+00  0.00000000000E+00 -0.10411284067E+04  0.15895762876E+04  0.12011679378E+04 0.  0.
        4    1    3    3  502    0  0.23980608077E+03  0.41750446094E+03 -0.99565292481E+03  0.11059580873E+04  0.12699999809E+01 0.  1.
       -4    1    3    3    0  502 -0.23980608077E+03 -0.41750446094E+03 -0.45475481919E+02  0.48361820027E+03  0.12699999809E+01 0. -1.
</event>
<event>
 5   0  0.1597352E-03  0.1193496E+04  0.7818609E-02  0.9118568E-01
        2   -1    0    0  501    0  0.00000000000E+00  0.00000000000E+00  0.11548637572E+04  0.11548637572E+04  0.25500000920E-02 0. -1.
       -2   -1    0    0    0  501  0.00000000000E+00  0.00000000000E+00 -0.30835530376E+03  0.30835530377E+03  0.25500000920E-02 0.  1.
    10030    2    1    2    0    0  0.00000000000E+00  0.00000000000E+00  0.84650845346E+03  0.14632190610E+04  0.11934963170E+04 0.  0.
        1    1    3    3  502    0 -0.47686959936E+01 -0.58612969187E+03  0.28597790979E+03  0.65219178243E+03  0.50400001928E-02 0.  1.
       -1    1    3    3    0  502  0.47686959936E+01  0.58612969187E+03  0.56053054367E+03  0.81102727856E+03  0.50400001928E-02 0. -1.
</event>
<event>
 5   0  0.9170776E-04  0.1204039E+04  0.7818609E-02  0.9109329E-01
        1   -1    0    0  501    0  0.00000000000E+00  0.00000000000E+00  0.94302491159E+03  0.94302491160E+03  0.50400001928E-02 0. -1.
       -1   -1    0    0    0  501  0.00000000000E+00  0.00000000000E+00 -0.38432424795E+03  0.38432424798E+03  0.50400001928E-02 0.  1.
    10030    2    1    2    0    0  0.00000000000E+00  0.00000000000E+00  0.55870066364E+03  0.13273491596E+04  0.12040387701E+04 0.  0.
        5    1    3    3  502    0  0.12927935397E+03  0.14176640505E+03  0.90839742685E+03  0.92844969711E+03  0.46999998093E+01 0. -1.
       -5    1    3    3    0  502 -0.12927935397E+03 -0.14176640505E+03 -0.34969676321E+03  0.39889946247E+03  0.46999998093E+01 0.  1.
</event>
<event>
 5   0  0.8908478E-04  0.1204536E+04  0.7818609E-02  0.9108895E-01
       -1   -1    0    0    0  501  0.00000000000E+00  0.00000000000E+00  0.63414078226E+03  0.63414078228E+03  0.50400001928E-02 0.  1.
        1   -1    0    0  501    0  0.00000000000E+00  0.00000000000E+00 -0.57199742124E+03  0.57199742127E+03  0.50400001928E-02 0. -1.
    10030    2    1    2    0    0  0.00000000000E+00  0.00000000000E+00  0.62143361018E+02  0.12061382035E+04  0.12045362463E+04 0.  0.
        4    1    3    3  502    0 -0.46878759439E+03  0.25257363644E+03  0.31281757865E+03  0.61758537944E+03  0.12699999809E+01 0.  1.
       -4    1    3    3    0  502  0.46878759439E+03 -0.25257363644E+03 -0.25067421763E+03  0.58855282411E+03  0.12699999809E+01 0. -1.
</event>
<event>
 5   0  0.1647550E-03  0.1189188E+04  0.7818609E-02  0.9122374E-01
        2   -1    0    0  501    0  0.00000000000E+00  0.00000000000E+00  0.37129053248E+03  0.37129053249E+03  0.25500000920E-02 0.  1.
       -2   -1    0    0    0  501  0.00000000000E+00  0.00000000000E+00 -0.95219729741E+03  0.95219729742E+03  0.25500000920E-02 0. -1.
    10030    2    1    2    0    0  0.00000000000E+00  0.00000000000E+00 -0.58090676493E+03  0.13234878299E+04  0.11891876918E+04 0.  0.
        3    1    3    3  502    0  0.14682165106E+03 -0.11495151987E+03  0.33790759897E+03  0.38594300717E+03  0.10100000352E+00 0.  1.
       -3    1    3    3    0  502 -0.14682165106E+03  0.11495151987E+03 -0.91881436390E+03  0.93754482274E+03  0.10100000352E+00 0. -1.
</event>
<event>
 5   0  0.9170776E-04  0.1145385E+04  0.7818609E-02  0.9162052E-01
        1   -1    0    0  501    0  0.00000000000E+00  0.00000000000E+00  0.43779418712E+03  0.43779418715E+03  0.50400001928E-02 0. -1.
       -1   -1    0    0    0  501  0.00000000000E+00  0.00000000000E+00 -0.74915686458E+03  0.74915686459E+03  0.50400001928E-02 0.  1.
    10030    2    1    2    0    0  0.00000000000E+00  0.00000000000E+00 -0.31136267746E+03  0.11869510517E+04  0.11453846875E+04 0.  0.
        5    1    3    3  502    0 -0.28281831155E+03  0.48909527993E+03 -0.25263979889E+03  0.61890980618E+03  0.46999998093E+01 0.  1.
       -5    1    3    3    0  502  0.28281831155E+03 -0.48909527993E+03 -0.58722878568E+02  0.56804124557E+03  0.46999998093E+01 0. -1.
</event>
<event>
 5   0  0.9208078E-04  0.1193768E+04  0.7818609E-02  0.9118329E-01
        1   -1    0    0  501    0  0.00000000000E+00  0.00000000000E+00  0.12314329755E+04  0.12314329755E+04  0.50400001928E-02 0.  1.
       -1   -1    0    0    0  501  0.00000000000E+00  0.00000000000E+00 -0.28931355820E+03  0.28931355824E+03  0.50400001928E-02 0. -1.
    10030    2    1    2    0    0  0.00000000000E+00  0.00000000000E+00  0.94211941726E+03  0.15207465337E+04  0.11937675751E+04 0.  0.
        3    1    3    3  502    0  0.79149480778E+02  0.60377663631E+02  0.12207830152E+04  0.12248352065E+04  0.10100000352E+00 0.  1.
       -3    1    3    3    0  502 -0.79149480778E+02 -0.60377663631E+02 -0.27866359795E+03  0.29591132725E+03  0.10100000352E+00 0. -1.
</event>
<event>
 5   0  0.9358428E-04  0.1198391E+04  0.7818609E-02  0.9114266E-01
       -1   -1    0    0    0  501  0.00000000000E+00  0.00000000000E+00  0.56637582018E+03  0.56637582020E+03  0.50400001928E-02 0. -1.
        1   -1    0    0  501    0  0.00000000000E+00  0.00000000000E+00 -0.63391673294E+03  0.63391673296E+03  0.50400001928E-02 0.  1.
    10030    2    1    2    0    0  0.00000000000E+00  0.00000000000E+00 -0.67540912759E+02  0.12002925532E+04  0.11983907703E+04 0.  0.
        2    1    3    3  502    0 -0.32494432709E+03  0.25819146582E+03  0.39909991938E+03  0.57578849797E+03  0.25500000920E-02 0. -1.
       -2    1    3    3    0  502  0.32494432709E+03 -0.25819146582E+03 -0.46664083214E+03  0.62450405520E+03  0.25500000920E-02 0.  1.
</event>
<event>
 5   0  0.1537557E-03  0.1201580E+04  0.7818609E-02  0.9111475E-01
       -2   -1    0    0    0  501  0.00000000000E+00  0.00000000000E+00  0.33944213717E+03  0.33944213718E+03  0.25500000920E-02 0.  1.
        2   -1    0    0  501    0  0.00000000000E+00  0.00000000000E+00 -0.10633579789E+04  0.10633579789E+04  0.25500000920E-02 0. -1.
    10030    2    1    2    0    0  0.00000000000E+00  0.00000000000E+00 -0.72391584168E+03  0.14028001160E+04  0.12015798016E+04 0.  0.
        2    1    3    3  502    0  0.33630833450E+02 -0.58884800134E+03 -0.49545518972E+03  0.77029140373E+03  0.25500000920E-02 0. -1.
       -2    1    3    3    0  502 -0.33630833450E+02  0.58884800134E+03 -0.22846065197E+03  0.63250871230E+03  0.25500000920E-02 0.  1.
</event>
<event>
 5   0  0.9358428E-04  0.1201140E+04  0.7818609E-02  0.9111859E-01
       -1   -1    0    0    0  501  0.00000000000E+00  0.00000000000E+00  0.18501814371E+04  0.18501814372E+04  0.50400001928E-02 0.  1.
        1   -1    0    0  501    0  0.00000000000E+00  0.00000000000E+00 -0.19494536560E+03  0.19494536566E+03  0.50400001928E-02 0. -1.
    10030    2    1    2    0    0  0.00000000000E+00  0.00000000000E+00  0.16552360716E+04  0.20451268028E+04  0.12011399531E+04 0.  0.
        2    1    3    3  502    0 -0.58409632783E+03  0.49069737095E+02  0.10503207215E+04  0.12028092024E+04  0.25500000920E-02 0.  1.
       -2    1    3    3    0  502  0.58409632783E+03 -0.49069737095E+02  0.60491535004E+03  0.84231760044E+03  0.25500000920E-02 0. -1.
</event>
<event>
 5   0  0.9358428E-04  0.1193158E+04  0.7818609E-02  0.9118867E-01
        1   -1    0    0  501    0  0.00000000000E+00  0.00000000000E+00  0.37645910808E+03  0.37645910811E+03  0.50400001928E-02 0. -1.
       -1   -1    0    0    0  501  0.00000000000E+00  0.00000000000E+00 -0.94540489292E+03  0.94540489293E+03  0.50400001928E-02 0.  1.
    10030    2    1    2    0    0  0.00000000000E+00  0.00000000000E+00 -0.56894578485E+03  0.13218640010E+04  0.11931576305E+04 0.  0.
        2    1    3    3  502    0  0.48896135820E+03 -0.21610036880E+03  0.89009405672E+01  0.53466045857E+03  0.25500000920E-02 0. -1.
       -2    1    3    3    0  502 -0.48896135820E+03  0.21610036880E+03 -0.57784672541E+03  0.78720354247E+03  0.25500000920E-02 0.  1.
</event>
<event>
 5   0  0.9208078E-04  0.1200982E+04  0.7818609E-02  0.9111997E-01
       -1   -1    0    0    0  501  0.00000000000E+00  0.00000000000E+00  0.10853995722E+04  0.10853995722E+04  0.50400001928E-02 0. -1.
        1   -1    0    0  501    0  0.00000000000E+00  0.00000000000E+00 -0.33221826544E+03  0.33221826548E+03  0.50400001928E-02 0.  1.
    10030    2    1    2    0    0  0.00000000000E+00  0.00000000000E+00  0.75318130679E+03  0.14176178377E+04  0.12009822034E+04 0.  0.
        3    1    3    3  502    0  0.39766618803E+03 -0.44935004725E+03  0.40391059436E+03  0.72332402180E+03  0.10100000352E+00 0. -1.
       -3    1    3    3    0  502 -0.39766618803E+03  0.44935004725E+03  0.34927071243E+03  0.69429381592E+03  0.10100000352E+00 0.  1.
</event>
<event>
 5   0  0.1597352E-03  0.1203999E+04  0.7818609E-02  0.9109364E-01
        2   -1    0    0  501    0  0.00000000000E+00  0.00000000000E+00  0.55979217379E+03  0.55979217379E+03  0.25500000920E-02 0. -1.
       -2   -1    0    0    0  501  0.00000000000E+00  0.00000000000E+00 -0.64738879523E+03  0.64738879524E+03  0.25500000920E-02 0.  1.
    10030    2    1    2    0    0  0.00000000000E+00  0.00000000000E+00 -0.87596621446E+02  0.12071809690E+04  0.12039986395E+04 0.  0.
        1    1    3    3  502    0 -0.24302780347E+03  0.54956553874E+03 -0.73927496008E+01  0.60094878933E+03  0.50400001928E-02 0.  1.
       -1    1    3    3    0  502  0.24302780347E+03 -0.54956553874E+03 -0.80203871845E+02  0.60623217970E+03  0.50400001928E-02 0. -1.
</event>
<event>
 5   0  0.1551501E-03  0.1199886E+04  0.7818609E-02  0.9112957E-01
        2   -1    0    0  501    0  0.00000000000E+00  0.00000000000E+00  0.67720992280E+03  0.67720992280E+03  0.25500000920E-02 0.  1.
       -2   -1    0    0    0  501  0.00000000000E+00  0.00000000000E+00 -0.53149169106E+03  0.53149169107E+03  0.25500000920E-02 0. -1.
    10030    2    1    2    0    0  0.00000000000E+00  0.00000000000E+00  0.14571823173E+03  0.12087016139E+04  0.11998857397E+04 0.  0.
        4    1    3    3  502    0  0.14570619239E+03  0.58158463976E+03  0.94437201164E+02  0.60695221029E+03  0.12699999809E+01 0.  1.
       -4    1    3    3    0  502 -0.14570619239E+03 -0.58158463976E+03  0.51281030570E+02  0.60174940358E+03  0.12699999809E+01 0. -1.
</event>
<event>
 5   0  0.9169078E-04  0.1196049E+04  0.7818609E-02  0.9116322E-01
        1   -1    0    0  501    0  0.00000000000E+00  0.00000000000E+00  0.11579838867E+04  0.11579838867E+04  0.50400001928E-02 0.  1.
       -1   -1    0    0    0  501  0.00000000000E+00  0.00000000000E+00 -0.30884145232E+03  0.30884145236E+03  0.50400001928E-02 0. -1.
    10030    2    1    2    0    0  0.00000000000E+00  0.00000000000E+00  0.84914243440E+03  0.14668253391E+04  0.11960492053E+04 0.  0.
        1    1    3    3  502    0 -0.92094470934E+02  0.55290017170E+02 -0.29691335595E+03  0.31574660496E+03  0.50400001928E-02 0. -1.
       -1    1    3    3    0  502  0.92094470934E+02 -0.55290017170E+02  0.11460557903E+04  0.11510787341E+04  0.50400001928E-02 0.  1.
</event>
<event>
 5   0  0.1597352E-03  0.1163532E+04  0.7818609E-02  0.9145390E-01
        2   -1    0    0  501    0  0.00000000000E+00  0.00000000000E+00  0.11377879860E+04  0.11377879860E+04  0.25500000920E-02 0. -1.
       -2   -1    0    0    0  501  0.00000000000E+00  0.00000000000E+00 -0.29746441399E+03  0.29746441400E+03  0.25500000920E-02 0.  1.
    10030    2    1    2    0    0  0.00000000000E+00  0.00000000000E+00  0.84032357197E+03  0.14352524000E+04  0.11635315836E+04 0.  0.
        1    1    3    3  502    0  0.54190281359E+03 -0.46215797980E+02  0.16539392889E+03  0.56846258549E+03  0.50400001928E-02 0.  1.
       -1    1    3    3    0  502 -0.54190281359E+03  0.46215797980E+02  0.67492964308E+03  0.86678981448E+03  0.50400001928E-02 0. -1.
</event>
<event>
 5   0  0.1551501E-03  0.1199993E+04  0.7818609E-02  0.9112863E-01
       -2   -1    0    0    0  501  0.00000000000E+00  0.00000000000E+00  0.66644534953E+03  0.66644534954E+03  0.25500000920E-02 0.  1.
        2   -1    0    0  501    0  0.00000000000E+00  0.00000000000E+00 -0.54017301708E+03  0.54017301709E+03  0.25500000920E-02 0. -1.
    10030    2    1    2    0    0  0.00000000000E+00  0.00000000000E+00  0.12627233245E+03  0.12066183666E+04  0.11999929920E+04 0.  0.
        4    1    3    3  502    0  0.48613253155E+03 -0.27853923414E+03 -0.15272381972E+03  0.58071948581E+03  0.12699999809E+01 0. -1.
       -4    1    3    3    0  502 -0.48613253155E+03  0.27853923414E+03  0.27899615217E+03  0.62589888082E+03  0.12699999809E+01 0.  1.
</event>
<event>
 5   0  0.1567019E-03  0.1193199E+04  0.7818609E-02  0.9118830E-01
        2   -1    0    0  501    0  0.00000000000E+00  0.00000000000E+00  0.65175301015E+03  0.65175301015E+03  0.25500000920E-02 0.  1.
       -2   -1    0    0    0  501  0.00000000000E+00  0.00000000000E+00 -0.54611352946E+03  0.54611352946E+03  0.25500000920E-02 0. -1.
    10030    2    1    2    0    0  0.00000000000E+00  0.00000000000E+00  0.10563948069E+03  0.11978665396E+04  0.11931992905E+04 0.  0.
        5    1    3    3  502    0 -0.48529831961E+03  0.30620679343E+03 -0.11101169467E+03  0.58448502608E+03  0.46999998093E+01 0.  1.
       -5    1    3    3    0  502  0.48529831961E+03 -0.30620679343E+03  0.21665117536E+03  0.61338151353E+03  0.46999998093E+01 0. -1.
</event>
<event>
 5   0  0.1597352E-03  0.1202881E+04  0.7818609E-02  0.9110338E-01
       -2   -1    0    0    0  501  0.00000000000E+00  0.00000000000E+00  0.82215779498E+03  0.82215779498E+03  0.25500000920E-02 0.  1.
        2   -1    0    0  501    0  0.00000000000E+00  0.00000000000E+00 -0.43997729303E+03  0.43997729303E+03  0.25500000920E-02 0. -1.
    10030    2    1    2    0    0  0.00000000000E+00  0.00000000000E+00  0.38218050195E+03  0.12621350880E+04  0.12028811431E+04 0.  0.
        1    1    3    3  502    0 -0.40680066716E+03 -0.28615366418E+03  0.54592023251E+03  0.73851174847E+03  0.50400001928E-02 0.  1.
       -1    1    3    3    0  502  0.40680066716E+03  0.28615366418E+03 -0.16373973057E+03  0.52362333955E+03  0.50400001928E-02 0. -1.
</event>
<event>
 5   0  0.1567019E-03  0.1198680E+04  0.7818609E-02  0.9114013E-01
       -2   -1    0    0    0  501  0.00000000000E+00  0.00000000000E+00  0.51407761220E+03  0.51407761221E+03  0.25500000920E-02 0. -1.
        2   -1    0    0  501    0  0.00000000000E+00  0.00000000000E+00 -0.69874368799E+03  0.69874368799E+03  0.25500000920E-02 0.  1.
    10030    2    1    2    0    0  0.00000000000E+00  0.00000000000E+00 -0.18466607579E+03  0.12128213002E+04  0.11986800852E+04 0.  0.
        5    1    3    3  502    0 -0.17990786996E+03 -0.12565653084E+03 -0.65661304052E+03  0.69232880945E+03  0.46999998093E+01 0.  1.
       -5    1    3    3    0  502  0.17990786996E+03  0.12565653084E+03  0.47194696473E+03  0.52049249075E+03  0.46999998093E+01 0. -1.
</event>
<event>
 5   0  0.1597352E-03  0.1196274E+04  0.7818609E-02  0.9116124E-01
        2   -1    0    0  501    0  0.00000000000E+00  0.00000000000E+00  0.36651826723E+03  0.36651826724E+03  0.25500000920E-02 0. -1.
       -2   -1    0    0    0  501  0.00000000000E+00  0.00000000000E+00 -0.97612544102E+03  0.97612544103E+03  0.25500000920E-02 0.  1.
    10030    2    1    2    0    0  0.00000000000E+00  0.00000000000E+00 -0.60960717379E+03  0.13426437083E+04  0.11962738905E+04 0.  0.
        1    1    3    3  502    0  0.25871092721E+03 -0.77459538150E+02  0.29419798639E+03  0.39935420260E+03  0.50400001928E-02 0. -1.
       -1    1    3    3    0  502 -0.25871092721E+03  0.77459538150E+02 -0.90380516018E+03  0.94328950567E+03  0.50400001928E-02 0.  1.
</event>
<event>
 5   0  0.8908478E-04  0.1199574E+04  0.7818609E-02  0.9113230E-01
       -1   -1    0    0    0  501  0.00000000000E+00  0.00000000000E+00  0.20594986308E+03  0.20594986314E+03  0.50400001928E-02 0. -1.
        1   -1    0    0  501    0  0.00000000000E+00  0.00000000000E+00 -0.17467561424E+04  0.17467561424E+04  0.50400001928E-02 0.  1.
    10030    2    1    2    0    0  0.00000000000E+00  0.00000000000E+00 -0.15408062793E+04  0.19527060055E+04  0.11995735716E+04 0.  0.
        4    1    3    3  502    0 -0.11974306169E+03  0.75196641094E+01 -0.17270203996E+04  0.17311834160E+04  0.12699999809E+01 0.  1.
       -4    1    3    3    0  502  0.11974306169E+03 -0.75196641094E+01  0.18621412032E+03  0.22152258954E+03  0.12699999809E+01 0. -1.
</event>
<event>
 5   0  0.9208078E-04  0.1203025E+04  0.7818609E-02  0.9110213E-01
       -1   -1    0    0    0  501  0.00000000000E+00  0.00000000000E+00  0.51166681480E+03  0.51166681482E+03  0.50400001928E-02 0.  1.
        1   -1    0    0  501    0  0.00000000000E+00  0.00000000000E+00 -0.70713490577E+03  0.70713490579E+03  0.50400001928E-02 0. -1.
    10030    2    1    2    0    0  0.00000000000E+00  0.00000000000E+00 -0.19546809097E+03  0.12188017206E+04  0.12030252947E+04 0.  0.
        3    1    3    3  502    0 -0.20788935403E+03  0.51889060154E+03  0.12733239559E+03  0.57330531922E+03  0.10100000352E+00 0. -1.
       -3    1    3    3    0  502  0.20788935403E+03 -0.51889060154E+03 -0.32280048657E+03  0.64549640139E+03  0.10100000352E+00 0.  1.
</event>
<event>
 5   0  0.1597352E-03  0.1185333E+04  0.7818609E-02  0.9125792E-01
        2   -1    0    0  501    0  0.00000000000E+00  0.00000000000E+00  0.12760122665E+04  0.12760122665E+04  0.25500000920E-02 0.  1.
       -2   -1    0    0    0  501  0.00000000000E+00  0.00000000000E+00 -0.27527450082E+03  0.27527450083E+03  0.25500000920E-02 0. -1.
    10030    2    1    2    0    0  0.00000000000E+00  0.00000000000E+00  0.10007377657E+04  0.15512867674E+04  0.11853331004E+04 0.  0.
        1    1    3    3  502    0  0.10732165445E+02  0.16074844686E+03  0.12468049868E+04  0.12571706001E+04  0.50400001928E-02 0.  1.
       -1    1    3    3    0  502 -0.10732165445E+02 -0.16074844686E+03 -0.24606722109E+03  0.29411616730E+03  0.50400001928E-02 0. -1.
</event>
<event>
 5   0  0.9358428E-04  0.1202762E+04  0.7818609E-02  0.9110442E-01
       -1   -1    0    0    0  501  0.00000000000E+00  0.00000000000E+00  0.82337206154E+03  0.82337206156E+03  0.50400001928E-02 0. -1.
        1   -1    0    0  501    0  0.00000000000E+00  0.00000000000E+00 -0.43924151629E+03  0.43924151632E+03  0.50400001928E-02 0.  1.
    10030    2    1    2    0    0  0.00000000000E+00  0.00000000000E+00  0.38413054525E+03  0.12626135779E+04  0.12027621424E+04 0.  0.
        2    1    3    3  502    0 -0.13488568257E+02  0.59934092347E+03  0.24205541194E+03  0.64651551139E+03  0.25500000920E-02 0. -1.
       -2    1    3    3    0  502  0.13488568257E+02 -0.59934092347E+03  0.14207513331E+03  0.61609806649E+03  0.25500000920E-02 0.  1.
</event>
<event>
 5   0  0.1537557E-03  0.1199037E+04  0.7818609E-02  0.9113700E-01
       -2   -1    0    0    0  501  0.00000000000E+00  0.00000000000E+00  0.20120282932E+03  0.20120282933E+03  0.25500000920E-02 0.  1.
        2   -1    0    0  501    0  0.00000000000E+00  0.00000000000E+00 -0.17863688469E+04  0.17863688469E+04  0.25500000920E-02 0. -1.
    10030    2    1    2    0    0  0.00000000000E+00  0.00000000000E+00 -0.15851660175E+04  0.19875716762E+04  0.11990370573E+04 0.  0.
        2    1    3    3  502    0  0.42084072842E+03 -0.40004366915E+03 -0.10400137948E+04  0.11911215510E+04  0.25500000920E-02 0. -1.
       -2    1    3    3    0  502 -0.42084072842E+03  0.40004366915E+03 -0.54515222278E+03  0.79645012520E+03  0.25500000920E-02 0.  1.
</event>
<event>
 5   0  0.8908478E-04  0.1202947E+04  0.7818609E-02  0.9110281E-01
       -1   -1    0    0    0  501  0.00000000000E+00  0.00000000000E+00  0.24591580673E+03  0.24591580678E+03  0.50400001928E-02 0. -1.
        1   -1    0    0  501    0  0.00000000000E+00  0.00000000000E+00 -0.14711137595E+04  0.14711137595E+04  0.50400001928E-02 0.  1.
    10030    2    1    2    0    0  0.00000000000E+00  0.00000000000E+00 -0.12251979528E+04  0.17170295663E+04  0.12029465940E+04 0.  0.
        4    1    3    3  502    0  0.17442196250E+03  0.41454014108E+03 -0.11826509387E+04  0.12652791807E+04  0.12699999809E+01 0.  1.
       -4    1    3    3    0  502 -0.17442196250E+03 -0.41454014108E+03 -0.42547014140E+02  0.45175038559E+03  0.12699999809E+01 0. -1.
</event>
<event>
 5   0  0.1567019E-03  0.1189258E+04  0.7818609E-02  0.9122311E-01
       -2   -1    0    0    0  501  0.00000000000E+00  0.00000000000E+00  0.23413381843E+03  0.23413381844E+03  0.25500000920E-02 0. -1.
        2   -1    0    0  501    0  0.00000000000E+00  0.00000000000E+00 -0.15101786208E+04  0.15101786208E+04  0.25500000920E-02 0.  1.
    10030    2    1    2    0    0  0.00000000000E+00  0.00000000000E+00 -0.12760448024E+04  0.17443124392E+04  0.11892584025E+04 0.  0.
        5    1    3    3  502    0 -0.56580565701E+03  0.14394441297E+03 -0.47269364499E+03  0.75121062795E+03  0.46999998093E+01 0. -1.
       -5    1    3    3    0  502  0.56580565701E+03 -0.14394441297E+03 -0.80335115736E+03  0.99310181127E+03  0.46999998093E+01 0.  1.
</event>
<event>
 5   0  0.8908478E-04  0.1139473E+04  0.7818609E-02  0.9167551E-01
       -1   -1    0    0    0  501  0.00000000000E+00  0.00000000000E+00  0.66935957526E+03  0.66935957528E+03  0.50400001928E-02 0.  1.
        1   -1    0    0  501    0  0.00000000000E+00  0.00000000000E+00 -0.48494053274E+03  0.48494053277E+03  0.50400001928E-02 0. -1.
    10030    2    1    2    0    0  0.00000000000E+00  0.00000000000E+00  0.18441904252E+03  0.11543001080E+04  0.11394728414E+04 0.  0.
        4    1    3    3  502    0 -0.19103453523E+03  0.20475813862E+02  0.63555118379E+03  0.66395811067E+03  0.12699999809E+01 0.  1.
       -4    1    3    3    0  502  0.19103453523E+03 -0.20475813862E+02 -0.45113214127E+03  0.49034199738E+03  0.12699999809E+01 0. -1.
</event>
<event>
 5   0  0.1597352E-03  0.1197243E+04  0.7818609E-02  0.9115273E-01
       -2   -1    0    0    0  501  0.00000000000E+00  0.00000000000E+00  0.40232682020E+03  0.40232682021E+03  0.25500000920E-02 0.  1.
        2   -1    0    0  501    0  0.00000000000E+00  0.00000000000E+00 -0.89068880866E+03  0.89068880866E+03  0.25500000920E-02 0. -1.
    10030    2    1    2    0    0  0.00000000000E+00  0.00000000000E+00 -0.48836198846E+03  0.12930156289E+04  0.11972434943E+04 0.  0.
        1    1    3    3  502    0  0.42893422619E+03  0.11641108336E+03  0.18891120402E+03  0.48293224551E+03  0.50400001928E-02 0.  1.
       -1    1    3    3    0  502 -0.42893422619E+03 -0.11641108336E+03 -0.67727319248E+03  0.81008338336E+03  0.50400001928E-02 0. -1.
</event>
<event>
 5   0  0.9358428E-04  0.1204099E+04  0.7818609E-02  0.9109276E-01
       -1   -1    0    0    0  501  0.00000000000E+00  0.00000000000E+00  0.10343821220E+04  0.10343821220E+04  0.50400001928E-02 0. -1.
        1   -1    0    0  501    0  0.00000000000E+00  0.00000000000E+00 -0.35041558788E+03  0.35041558792E+03  0.50400001928E-02 0.  1.
    10030    2    1    2    0    0  0.00000000000E+00  0.00000000000E+00  0.68396653412E+03  0.13847977099E+04  0.12040990315E+04 0.  0.
        2    1    3    3  502    0 -0.19808532449E+03 -0.56294639151E+03  0.25057491274E+03  0.64725128226E+03  0.25500000920E-02 0.  1.
       -2    1    3    3    0  502  0.19808532449E+03  0.56294639151E+03  0.43339162138E+03  0.73754642768E+03  0.25500000920E-02 0. -1.
</event>
<event>
 5   0  0.9358428E-04  0.1189056E+04  0.7818609E-02  0.9122490E-01
       -1   -1    0    0    0  501  0.00000000000E+00  0.00000000000E+00  0.38052668912E+03  0.38052668915E+03  0.50400001928E-02 0. -1.
        1   -1    0    0  501    0  0.00000000000E+00  0.00000000000E+00 -0.92887955855E+03  0.92887955856E+03  0.50400001928E-02 0.  1.
    10030    2    1    2    0    0  0.00000000000E+00  0.00000000000E+00 -0.54835286943E+03  0.13094062477E+04  0.11890558659E+04 0.  0.
        2    1    3    3  502    0  0.16282071304E+03 -0.98738879457E+02 -0.89438983121E+03  0.91443595790E+03  0.25500000920E-02 0.  1.
       -2    1    3    3    0  502 -0.16282071304E+03  0.98738879457E+02  0.34603696178E+03  0.39497028981E+03  0.25500000920E-02 0. -1.
</event>
<event>
 5   0  0.9208078E-04  0.1213196E+04  0.7818609E-02  0.9101384E-01
        1   -1    0    0  501    0  0.00000000000E+00  0.00000000000E+00  0.67542511702E+03  0.67542511704E+03  0.50400001928E-02 0. -1.
       -1   -1    0    0    0  501  0.00000000000E+00  0.00000000000E+00 -0.54478439127E+03  0.54478439129E+03  0.50400001928E-02 0.  1.
    10030    2    1    2    0    0  0.00000000000E+00  0.00000000000E+00  0.13064072575E+03  0.12202095083E+04  0.12131958807E+04 0.  0.
        3    1    3    3  502    0 -0.44904483534E+03 -0.18184616635E+03 -0.30182661071E+03  0.57079646591E+03  0.10100000352E+00 0.  1.
       -3    1    3    3    0  502  0.44904483534E+03  0.18184616635E+03  0.43246733646E+03  0.64941304242E+03  0.10100000352E+00 0. -1.
</event>
<event>
 5   0  0.9170776E-04  0.1267929E+04  0.7818609E-02  0.9055392E-01
       -1   -1    0    0    0  501  0.00000000000E+00  0.00000000000E+00  0.17832817246E+03  0.17832817253E+03  0.50400001928E-02 0.  1.
        1   -1    0    0  501    0  0.00000000000E+00  0.00000000000E+00 -0.22537708634E+04  0.22537708634E+04  0.50400001928E-02 0. -1.
    10030    2    1    2    0    0  0.00000000000E+00  0.00000000000E+00 -0.20754426910E+04  0.24320990360E+04  0.12679287666E+04 0.  0.
        5    1    3    3  502    0 -0.47776642642E+03  0.11392238226E+03 -0.18065442893E+04  0.18721280476E+04  0.46999998093E+01 0. -1.
       -5    1    3    3    0  502  0.47776642642E+03 -0.11392238226E+03 -0.26889840169E+03  0.55997098838E+03  0.46999998093E+01 0.  1.
</event>
<event>
 5   0  0.8908478E-04  0.1202794E+04  0.7818609E-02  0.9110414E-01
        1   -1    0    0  501    0  0.00000000000E+00  0.00000000000E+00  0.55286445061E+03  0.55286445064E+03  0.50400001928E-02 0.  1.
       -1   -1    0    0    0  501  0.00000000000E+00  0.00000000000E+00 -0.65419000281E+03  0.65419000283E+03  0.50400001928E-02 0. -1.
    10030    2    1    2    0    0  0.00000000000E+00  0.00000000000E+00 -0.10132555220E+03  0.12070544535E+04  0.12027940747E+04 0.  0.
        4    1    3    3  502    0 -0.44543547596E+03 -0.19444063723E+03 -0.40611627027E+03  0.63336558363E+03  0.12699999809E+01 0. -1.
       -4    1    3    3    0  502  0.44543547596E+03  0.19444063723E+03  0.30479071808E+03  0.57368886984E+03  0.12699999809E+01 0.  1.
</event>
<event>
 5   0  0.1551501E-03  0.1192917E+04  0.7818609E-02  0.9119079E-01
        2   -1    0    0  501    0  0.00000000000E+00  0.00000000000E+00  0.14214365229E+04  0.14214365229E+04  0.25500000920E-02 0.  1.
       -2   -1    0    0    0  501  0.00000000000E+00  0.00000000000E+00 -0.25028379101E+03  0.25028379102E+03  0.25500000920E-02 0. -1.
    10030    2    1    2    0    0  0.00000000000E+00  0.00000000000E+00  0.11711527319E+04  0.16717203139E+04  0.11929166302E+04 0.  0.
        4    1    3    3  502    0 -0.24058636899E+02  0.36565861911E+03  0.12450792971E+04  0.12978864020E+04  0.12699999809E+01 0.  1.
       -4    1    3    3    0  502  0.24058636899E+02 -0.36565861911E+03 -0.73926565163E+02  0.37383391188E+03  0.12699999809E+01 0. -1.
</event>
<event>
 5   0  0.1597352E-03  0.1203059E+04  0.7818609E-02  0.9110183E-01
        2   -1    0    0  501    0  0.00000000000E+00  0.00000000000E+00  0.11227540190E+04  0.11227540190E+04  0.25500000920E-02 0. -1.
       -2   -1    0    0    0  501  0.00000000000E+00  0.00000000000E+00 -0.32227704134E+03  0.32227704135E+03  0.25500000920E-02 0.  1.
    10030    2    1    2    0    0  0.00000000000E+00  0.00000000000E+00  0.80047697768E+03  0.14450310604E+04  0.12030591730E+04 0.  0.
        1    1    3    3  502    0  0.94186095290E+02  0.55949208176E+03  0.64027062702E+03  0.85548166897E+03  0.50400001928E-02 0. -1.
       -1    1    3    3    0  502 -0.94186095290E+02 -0.55949208176E+03  0.16020635066E+03  0.58954939141E+03  0.50400001928E-02 0.  1.
</event>
<event>
 5   0  0.1567019E-03  0.1198885E+04  0.7818609E-02  0.9113833E-01
        2   -1    0    0  501    0  0.00000000000E+00  0.00000000000E+00  0.11825438553E+04  0.11825438553E+04  0.25500000920E-02 0.  1.
       -2   -1    0    0    0  501  0.00000000000E+00  0.00000000000E+00 -0.30386321260E+03  0.30386321261E+03  0.25500000920E-02 0. -1.
    10030    2    1    2    0    0  0.00000000000E+00  0.00000000000E+00  0.87868064271E+03  0.14864070679E+04  0.11988854406E+04 0.  0.
        5    1    3    3  502    0 -0.46055323639E+03  0.30995286150E+03  0.71968707413E+03  0.90892883911E+03  0.46999998093E+01 0.  1.
       -5    1    3    3    0  502  0.46055323639E+03 -0.30995286150E+03  0.15899356858E+03  0.57747822881E+03  0.46999998093E+01 0. -1.
</event>
<event>
 5   0  0.1537557E-03  0.1203169E+04  0.7818609E-02  0.9110087E-01
       -2   -1    0    0    0  501  0.00000000000E+00  0.00000000000E+00  0.57560686776E+03  0.57560686777E+03  0.25500000920E-02 0. -1.
        2   -1    0    0  501    0  0.00000000000E+00  0.00000000000E+00 -0.62873455183E+03  0.62873455184E+03  0.25500000920E-02 0.  1.
    10030    2    1    2    0    0  0.00000000000E+00  0.00000000000E+00 -0.53127684069E+02  0.12043414196E+04  0.12031690256E+04 0.  0.
        2    1    3    3  502    0 -0.28373909839E+03  0.14233586826E+03  0.48494931799E+03  0.57960608724E+03  0.25500000920E-02 0. -1.
       -2    1    3    3    0  502  0.28373909839E+03 -0.14233586826E+03 -0.53807700206E+03  0.62473533236E+03  0.25500000920E-02 0.  1.
</event>
<event>
 5   0  0.9358428E-04  0.1200728E+04  0.7818609E-02  0.9112220E-01
       -1   -1    0    0    0  501  0.00000000000E+00  0.00000000000E+00  0.28733834906E+03  0.28733834910E+03  0.50400001928E-02 0. -1.
        1   -1    0    0  501    0  0.00000000000E+00  0.00000000000E+00 -0.12543980408E+04  0.12543980408E+04  0.50400001928E-02 0.  1.
    10030    2    1    2    0    0  0.00000000000E+00  0.00000000000E+00 -0.96705969174E+03  0.15417363899E+04  0.12007275497E+04 0.  0.
        2    1    3    3  502    0 -0.42241404931E+03 -0.42540560238E+03 -0.44225949097E+03  0.74498121651E+03  0.25500000920E-02 0.  1.
       -2    1    3    3    0  502  0.42241404931E+03  0.42540560238E+03 -0.52480020077E+03  0.79675517339E+03  0.25500000920E-02 0. -1.
</event>
<event>
 5   0  0.9169078E-04  0.1272236E+04  0.7818609E-02  0.9051877E-01
        1   -1    0    0  501    0  0.00000000000E+00  0.00000000000E+00  0.13266602469E+04  0.13266602469E+04  0.50400001928E-02 0. -1.
       -1   -1    0    0    0  501  0.00000000000E+00  0.00000000000E+00 -0.30501089291E+03  0.30501089295E+03  0.50400001928E-02 0.  1.
    10030    2    1    2    0    0  0.00000000000E+00  0.00000000000E+00  0.10216493540E+04  0.16316711399E+04  0.12722355545E+04 0.  0.
        1    1    3    3  502    0  0.44310918853E+03  0.30029118829E+03  0.70029817317E+02  0.53983768492E+03  0.50400001928E-02 0.  1.
       -1    1    3    3    0  502 -0.44310918853E+03 -0.30029118829E+03  0.95161953670E+03  0.10918334550E+04  0.50400001928E-02 0. -1.
</event>
<event>
 5   0  0.1567019E-03  0.1200832E+04  0.7818609E-02  0.9112129E-01
       -2   -1    0    0    0  501  0.00000000000E+00  0.00000000000E+00  0.26608589336E+03  0.26608589337E+03  0.25500000920E-02 0. -1.
        2   -1    0    0  501    0  0.00000000000E+00  0.00000000000E+00 -0.13548230693E+04  0.13548230693E+04  0.25500000920E-02 0.  1.
    10030    2    1    2    0    0  0.00000000000E+00  0.00000000000E+00 -0.10887371760E+04  0.16209089627E+04  0.12008318896E+04 0.  0.
        5    1    3    3  502    0  0.39550336164E+03  0.15625600744E+03 -0.11164738750E+04  0.11947279408E+04  0.46999998093E+01 0. -1.
       -5    1    3    3    0  502 -0.39550336164E+03 -0.15625600744E+03  0.27736699072E+02  0.42618102188E+03  0.46999998093E+01 0.  1.
</event>
<event>
 5   0  0.1597352E-03  0.1205643E+04  0.7818609E-02  0.9107932E-01
       -2   -1    0    0    0  501  0.00000000000E+00  0.00000000000E+00  0.49663822659E+03  0.49663822660E+03  0.25500000920E-02 0.  1.
        2   -1    0    0  501    0  0.00000000000E+00  0.00000000000E+00 -0.73170677885E+03  0.73170677885E+03  0.25500000920E-02 0. -1.
    10030    2    1    2    0    0  0.00000000000E+00  0.00000000000E+00 -0.23506855226E+03  0.12283450054E+04  0.12056426619E+04 0.  0.
        1    1    3    3  502    0 -0.49235580003E+03 -0.25975132135E+03  0.11814068643E+03  0.56907135280E+03  0.50400001928E-02 0.  1.
       -1    1    3    3    0  502  0.49235580003E+03  0.25975132135E+03 -0.35320923869E+03  0.65927365265E+03  0.50400001928E-02 0. -1.
</event>
<event>
 5   0  0.9170776E-04  0.1204318E+04  0.7818609E-02  0.9109085E-01
        1   -1    0    0  501    0  0.00000000000E+00  0.00000000000E+00  0.62996653127E+03  0.62996653129E+03  0.50400001928E-02 0. -1.
       -1   -1    0    0    0  501  0.00000000000E+00  0.00000000000E+00 -0.57557925643E+03  0.57557925645E+03  0.50400001928E-02 0.  1.
    10030    2    1    2    0    0  0.00000000000E+00  0.00000000000E+00  0.54387274845E+02  0.12055457877E+04  0.12043183427E+04 0.  0.
        5    1    3    3  502    0  0.44410071591E+03 -0.28299280980E+03 -0.26510260102E+03  0.58958617295E+03  0.46999998093E+01 0.  1.
       -5    1    3    3    0  502 -0.44410071591E+03  0.28299280980E+03  0.31948987586E+03  0.61595961479E+03  0.46999998093E+01 0. -1.
</event>
<event>
 5   0  0.9208078E-04  0.1198801E+04  0.7818609E-02  0.9113907E-01
       -1   -1    0    0    0  501  0.00000000000E+00  0.00000000000E+00  0.75926694101E+03  0.75926694103E+03  0.50400001928E-02 0. -1.
        1   -1    0    0  501    0  0.00000000000E+00  0.00000000000E+00 -0.47319454804E+03  0.47319454807E+03  0.50400001928E-02 0.  1.
    10030    2    1    2    0    0  0.00000000000E+00  0.00000000000E+00  0.28607239297E+03  0.12324614891E+04  0.11988010294E+04 0.  0.
        3    1    3    3  502    0 -0.39383199066E+03  0.39283228653E+03  0.37259974553E+03  0.66951581219E+03  0.10100000352E+00 0.  1.
       -3    1    3    3    0  502  0.39383199066E+03 -0.39283228653E+03 -0.86527352562E+02  0.56294567691E+03  0.10100000352E+00 0. -1.
</event>
<event>
 5   0  0.1567019E-03  0.1195553E+04  0.7818609E-02  0.9116758E-01
        2   -1    0    0  501    0  0.00000000000E+00  0.00000000000E+00  0.63143085015E+03  0.63143085015E+03  0.25500000920E-02 0.  1.
       -2   -1    0    0    0  501  0.00000000000E+00  0.00000000000E+00 -0.56591614070E+03  0.56591614070E+03  0.25500000920E-02 0. -1.
    10030    2    1    2    0    0  0.00000000000E+00  0.00000000000E+00  0.65514709451E+02  0.11973469909E+04  0.11955532775E+04 0.  0.
        5    1    3    3  502    0 -0.57781722874E+02  0.22488052116E+03 -0.51889102571E+03  0.56848919326E+03  0.46999998093E+01 0. -1.
       -5    1    3    3    0  502  0.57781722874E+02 -0.22488052116E+03  0.58440573516E+03  0.62885779759E+03  0.46999998093E+01 0.  1.
</event>
<event>
 5   0  0.9208078E-04  0.1197223E+04  0.7818609E-02  0.9115291E-01
       -1   -1    0    0    0  501  0.00000000000E+00  0.00000000000E+00  0.23012058653E+03  0.23012058658E+03  0.50400001928E-02 0. -1.
        1   -1    0    0  501    0  0.00000000000E+00  0.00000000000E+00 -0.15571645075E+04  0.15571645075E+04  0.50400001928E-02 0.  1.
    10030    2    1    2    0    0  0.00000000000E+00  0.00000000000E+00 -0.13270439209E+04  0.17872850940E+04  0.11972228027E+04 0.  0.
        3    1    3    3  502    0 -0.14014619573E+03  0.16530418516E+03 -0.14965443183E+04  0.15121545346E+04  0.10100000352E+00 0.  1.
       -3    1    3    3    0  502  0.14014619573E+03 -0.16530418516E+03  0.16950039737E+03  0.27513055941E+03  0.10100000352E+00 0. -1.
</event>
<event>
 5   0  0.1647550E-03  0.1202716E+04  0.7818609E-02  0.9110482E-01
       -2   -1    0    0    0  501  0.00000000000E+00  0.00000000000E+00  0.16536764280E+03  0.16536764282E+03  0.25500000920E-02 0. -1.
        2   -1    0    0  501    0  0.00000000000E+00  0.00000000000E+00 -0.21868346104E+04  0.21868346104E+04  0.25500000920E-02 0.  1.
    10030    2    1    2    0    0  0.00000000000E+00  0.00000000000E+00 -0.20214669676E+04  0.23522022532E+04  0.12027164000E+04 0.  0.
        3    1    3    3  502    0 -0.41132838476E+03  0.34459951787E+03 -0.47982333073E+03  0.71984047312E+03  0.10100000352E+00 0. -1.
       -3    1    3    3    0  502  0.41132838476E+03 -0.34459951787E+03 -0.15416436369E+04  0.16323617801E+04  0.10100000352E+00 0.  1.
</event>
<event>
 5   0  0.9358428E-04  0.1199270E+04  0.7818609E-02  0.9113496E-01
        1   -1    0    0  501    0  0.00000000000E+00  0.00000000000E+00  0.13376558627E+04  0.13376558627E+04  0.50400001928E-02 0. -1.
       -1   -1    0    0    0  501  0.00000000000E+00  0.00000000000E+00 -0.26880005904E+03  0.26880005909E+03  0.50400001928E-02 0.  1.
    10030    2    1    2    0    0  0.00000000000E+00  0.00000000000E+00  0.10688558036E+04  0.16064559218E+04  0.11992697360E+04 0.  0.
        2    1    3    3  502    0 -0.11679798947E+03  0.41831123850E+03 -0.19392048933E+02  0.43474373390E+03  0.25500000920E-02 0.  1.
       -2    1    3    3    0  502  0.11679798947E+03 -0.41831123850E+03  0.10882478526E+04  0.11717121879E+04  0.25500000920E-02 0. -1.
</event>
<event>
 5   0  0.1597352E-03  0.1205380E+04  0.7818609E-02  0.9108161E-01
       -2   -1    0    0    0  501  0.00000000000E+00  0.00000000000E+00  0.67278483291E+03  0.67278483291E+03  0.25500000920E-02 0.  1.
        2   -1    0    0  501    0  0.00000000000E+00  0.00000000000E+00 -0.53989792780E+03  0.53989792781E+03  0.25500000920E-02 0. -1.
    10030    2    1    2    0    0  0.00000000000E+00  0.00000000000E+00  0.13288690511E+03  0.12126827607E+04  0.12053798358E+04 0.  0.
        1    1    3    3  502    0  0.50608020927E+03  0.21825094696E+03 -0.17892861793E+03  0.57945328060E+03  0.50400001928E-02 0. -1.
       -1    1    3    3    0  502 -0.50608020927E+03 -0.21825094696E+03  0.31181552303E+03  0.63322948012E+03  0.50400001928E-02 0.  1.
</event>
<event>
 5   0  0.9358428E-04  0.1190780E+04  0.7818609E-02  0.9120966E-01
       -1   -1    0    0    0  501  0.00000000000E+00  0.00000000000E+00  0.38829623986E+03  0.38829623989E+03  0.50400001928E-02 0.  1.
        1   -1    0    0  501    0  0.00000000000E+00  0.00000000000E+00 -0.91293443369E+03  0.91293443370E+03  0.50400001928E-02 0. -1.
    10030    2    1    2    0    0  0.00000000000E+00  0.00000000000E+00 -0.52463819382E+03  0.13012306736E+04  0.11907795898E+04 0.  0.
        2    1    3    3  502    0 -0.15760795952E+03  0.56223525452E+03 -0.38947495484E+03  0.70188281841E+03  0.25500000920E-02 0.  1.
       -2    1    3    3    0  502  0.15760795952E+03 -0.56223525452E+03 -0.13516323898E+03  0.59934785518E+03  0.25500000920E-02 0. -1.
</event>
<event>
 5   0  0.1551501E-03  0.1211899E+04  0.7818609E-02  0.9102505E-01
       -2   -1    0    0    0  501  0.00000000000E+00  0.00000000000E+00  0.35247167278E+03  0.35247167279E+03  0.25500000920E-02 0. -1.
        2   -1    0    0  501    0  0.00000000000E+00  0.00000000000E+00 -0.10417144447E+04  0.10417144447E+04  0.25500000920E-02 0.  1.
    10030    2    1    2    0    0  0.00000000000E+00  0.00000000000E+00 -0.68924277192E+03  0.13941861175E+04  0.12118990600E+04 0.  0.
        4    1    3    3  502    0  0.27265472880E+03  0.22787885637E+03 -0.90926727663E+03  0.97623663503E+03  0.12699999809E+01 0.  1.
       -4    1    3    3    0  502 -0.27265472880E+03 -0.22787885637E+03  0.22002450471E+03  0.41794948246E+03  0.12699999809E+01 0. -1.
</event>
<event>
 5   0  0.8908478E-04  0.1202555E+04  0.7818609E-02  0.9110623E-01
       -1   -1    0    0    0  501  0.00000000000E+00  0.00000000000E+00  0.34382561104E+03  0.34382561108E+03  0.50400001928E-02 0.  1.
        1   -1    0    0  501    0  0.00000000000E+00  0.00000000000E+00 -0.10515063932E+04  0.10515063933E+04  0.50400001928E-02 0. -1.
    10030    2    1    2    0    0  0.00000000000E+00  0.00000000000E+00 -0.70768078221E+03  0.13953320043E+04  0.12025553263E+04 0.  0.
        4    1    3    3  502    0 -0.35670431274E+03 -0.23508462750E+03 -0.84478891778E+03  0.94666397276E+03  0.12699999809E+01 0. -1.
       -4    1    3    3    0  502  0.35670431274E+03  0.23508462750E+03  0.13710813558E+03  0.44866803157E+03  0.12699999809E+01 0.  1.
</event>
<event>
 5   0  0.6137750E-04  0.1202659E+04  0.7818609E-02  0.9110532E-01
        4   -1    0    0  501    0  0.00000000000E+00  0.00000000000E+00  0.32076295873E+03  0.32076547289E+03  0.12699999809E+01 0. -1.
       -4   -1    0    0    0  501  0.00000000000E+00  0.00000000000E+00 -0.11272968382E+04  0.11272975536E+04  0.12699999809E+01 0.  1.
    10030    2    1    2    0    0  0.00000000000E+00  0.00000000000E+00 -0.80653387950E+03  0.14480630265E+04  0.12026593990E+04 0.  0.
        4    1    3    3  502    0 -0.35206848599E+03 -0.45735899761E+03 -0.60641398129E+03  0.83717919296E+03  0.12699999809E+01 0.  1.
       -4    1    3    3    0  502  0.35206848599E+03  0.45735899761E+03 -0.20011989820E+03  0.61088383354E+03  0.12699999809E+01 0. -1.
</event>
<event>
 5   0  0.9208078E-04  0.1201469E+04  0.7818609E-02  0.9111572E-01
        1   -1    0    0  501    0  0.00000000000E+00  0.00000000000E+00  0.52434530630E+03  0.52434530632E+03  0.50400001928E-02 0. -1.
       -1   -1    0    0    0  501  0.00000000000E+00  0.00000000000E+00 -0.68825265836E+03  0.68825265838E+03  0.50400001928E-02 0.  1.
    10030    2    1    2    0    0  0.00000000000E+00  0.00000000000E+00 -0.16390735206E+03  0.12125979647E+04  0.12014691856E+04 0.  0.
        3    1    3    3  502    0 -0.12742080039E+03 -0.25876939335E+03 -0.61379236205E+03  0.67818783034E+03  0.10100000352E+00 0.  1.
       -3    1    3    3    0  502  0.12742080039E+03  0.25876939335E+03  0.44988500998E+03  0.53441013437E+03  0.10100000352E+00 0. -1.
</event>
<event>
 5   0  0.9358428E-04  0.1210023E+04  0.7818609E-02  0.9104129E-01
        1   -1    0    0  501    0  0.00000000000E+00  0.00000000000E+00  0.30265493692E+03  0.30265493696E+03  0.50400001928E-02 0. -1.
       -1   -1    0    0    0  501  0.00000000000E+00  0.00000000000E+00 -0.12094260146E+04  0.12094260146E+04  0.50400001928E-02 0.  1.
    10030    2    1    2    0    0  0.00000000000E+00  0.00000000000E+00 -0.90677107765E+03  0.15120809515E+04  0.12100227340E+04 0.  0.
        2    1    3    3  502    0  0.49578113984E+03  0.34357974699E+03 -0.39486903749E+03  0.72094905363E+03  0.25500000920E-02 0. -1.
       -2    1    3    3    0  502 -0.49578113984E+03 -0.34357974699E+03 -0.51190204016E+03  0.79113189790E+03  0.25500000920E-02 0.  1.
</event>
<event>
 5   0  0.9208078E-04  0.1200447E+04  0.7818609E-02  0.9112465E-01
        1   -1    0    0  501    0  0.00000000000E+00  0.00000000000E+00  0.12604728127E+04  0.12604728127E+04  0.50400001928E-02 0.  1.
       -1   -1    0    0    0  501  0.00000000000E+00  0.00000000000E+00 -0.28581987497E+03  0.28581987501E+03  0.50400001928E-02 0. -1.
    10030    2    1    2    0    0  0.00000000000E+00  0.00000000000E+00  0.97465293772E+03  0.15462926877E+04  0.12004468864E+04 0.  0.
        3    1    3    3  502    0  0.49709242902E+03 -0.33610353168E+03  0.50562038233E+03  0.78467728923E+03  0.10100000352E+00 0.  1.
       -3    1    3    3    0  502 -0.49709242902E+03  0.33610353168E+03  0.46903255539E+03  0.76161539849E+03  0.10100000352E+00 0. -1.
</event>
<event>
 5   0  0.9170776E-04  0.1204631E+04  0.7818609E-02  0.9108813E-01
        1   -1    0    0  501    0  0.00000000000E+00  0.00000000000E+00  0.10599993475E+04  0.10599993475E+04  0.50400001928E-02 0.  1.
       -1   -1    0    0    0  501  0.00000000000E+00  0.00000000000E+00 -0.34224897495E+03  0.34224897498E+03  0.50400001928E-02 0. -1.
    10030    2    1    2    0    0  0.00000000000E+00  0.00000000000E+00  0.71775037255E+03  0.14022483225E+04  0.12046305494E+04 0.  0.
        5    1    3    3  502    0  0.34364943407E+03 -0.22396656350E+03 -0.15450270475E+03  0.43834818453E+03  0.46999998093E+01 0. -1.
       -5    1    3    3    0  502 -0.34364943407E+03  0.22396656350E+03  0.87225307730E+03  0.96390013796E+03  0.46999998093E+01 0.  1.
</event>
<event>
 5   0  0.9170776E-04  0.1202100E+04  0.7818609E-02  0.9111020E-01
        1   -1    0    0  501    0  0.00000000000E+00  0.00000000000E+00  0.10822208551E+04  0.10822208551E+04  0.50400001928E-02 0. -1.
       -1   -1    0    0    0  501  0.00000000000E+00  0.00000000000E+00 -0.33381452817E+03  0.33381452820E+03  0.50400001928E-02 0.  1.
    10030    2    1    2    0    0  0.00000000000E+00  0.00000000000E+00  0.74840632689E+03  0.14160353833E+04  0.12020999029E+04 0.  0.
        5    1    3    3  502    0  0.38547247124E+03 -0.29275809104E+03 -0.45495210081E+02  0.48619772736E+03  0.46999998093E+01 0.  1.
       -5    1    3    3    0  502 -0.38547247124E+03  0.29275809104E+03  0.79390153697E+03  0.92983765592E+03  0.46999998093E+01 0. -1.
</event>
<event>
 5   0  0.9170776E-04  0.1216950E+04  0.7818609E-02  0.9098148E-01
        1   -1    0    0  501    0  0.00000000000E+00  0.00000000000E+00  0.12448026466E+04  0.12448026466E+04  0.50400001928E-02 0.  1.
       -1   -1    0    0    0  501  0.00000000000E+00  0.00000000000E+00 -0.29743022533E+03  0.29743022537E+03  0.50400001928E-02 0. -1.
    10030    2    1    2    0    0  0.00000000000E+00  0.00000000000E+00  0.94737242129E+03  0.15422328720E+04  0.12169501743E+04 0.  0.
        5    1    3    3  502    0  0.22376328972E+02  0.46999112357E+03 -0.15212318144E+02  0.47079280045E+03  0.46999998093E+01 0. -1.
       -5    1    3    3    0  502 -0.22376328972E+02 -0.46999112357E+03  0.96258473943E+03  0.10714400715E+04  0.46999998093E+01 0.  1.
</event>
<event>
 5   0  0.1551501E-03  0.1180499E+04  0.7818609E-02  0.9130099E-01
       -2   -1    0    0    0  501  0.00000000000E+00  0.00000000000E+00  0.45105012553E+03  0.45105012554E+03  0.25500000920E-02 0.  1.
        2   -1    0    0  501    0  0.00000000000E+00  0.00000000000E+00 -0.77240803563E+03  0.77240803563E+03  0.25500000920E-02 0. -1.
    10030    2    1    2    0    0  0.00000000000E+00  0.00000000000E+00 -0.32135791010E+03  0.12234581612E+04  0.11804994561E+04 0.  0.
        4    1    3    3  502    0 -0.58180413497E+03 -0.55296003923E+02 -0.74968607853E+02  0.58921609328E+03  0.12699999809E+01 0.  1.
       -4    1    3    3    0  502  0.58180413497E+03  0.55296003923E+02 -0.24638930224E+03  0.63424206789E+03  0.12699999809E+01 0. -1.
</event>
<event>
 5   0  0.8908478E-04  0.1201878E+04  0.7818609E-02  0.9111214E-01
        1   -1    0    0  501    0  0.00000000000E+00  0.00000000000E+00  0.40973186028E+03  0.40973186031E+03  0.50400001928E-02 0.  1.
       -1   -1    0    0    0  501  0.00000000000E+00  0.00000000000E+00 -0.88137545618E+03  0.88137545619E+03  0.50400001928E-02 0. -1.
    10030    2    1    2    0    0  0.00000000000E+00  0.00000000000E+00 -0.47164359590E+03  0.12911073165E+04  0.12018778728E+04 0.  0.
        4    1    3    3  502    0 -0.59018819072E+03 -0.69023696957E+02 -0.13950106130E+03  0.61036753699E+03  0.12699999809E+01 0.  1.
       -4    1    3    3    0  502  0.59018819072E+03  0.69023696957E+02 -0.33214253461E+03  0.68073977951E+03  0.12699999809E+01 0. -1.
</event>
<event>
 5   0  0.1647550E-03  0.1207300E+04  0.7818609E-02  0.9106491E-01
       -2   -1    0    0    0  501  0.00000000000E+00  0.00000000000E+00  0.26718991407E+03  0.26718991409E+03  0.25500000920E-02 0.  1.
        2   -1    0    0  501    0  0.00000000000E+00  0.00000000000E+00 -0.13637984148E+04  0.13637984148E+04  0.25500000920E-02 0. -1.
    10030    2    1    2    0    0  0.00000000000E+00  0.00000000000E+00 -0.10966085007E+04  0.16309883289E+04  0.12072997661E+04 0.  0.
        3    1    3    3  502    0 -0.14639922603E+03 -0.24593827565E+03 -0.12663061504E+04  0.12982486840E+04  0.10100000352E+00 0. -1.
       -3    1    3    3    0  502  0.14639922603E+03  0.24593827565E+03  0.16969764962E+03  0.33273964492E+03  0.10100000352E+00 0.  1.
</event>
<event>
 5   0  0.1597352E-03  0.1187210E+04  0.7818609E-02  0.9124126E-01
       -2   -1    0    0    0  501  0.00000000000E+00  0.00000000000E+00  0.27637650593E+03  0.27637650594E+03  0.25500000920E-02 0. -1.
        2   -1    0    0  501    0  0.00000000000E+00  0.00000000000E+00 -0.12749527151E+04  0.12749527151E+04  0.25500000920E-02 0.  1.
    10030    2    1    2    0    0  0.00000000000E+00  0.00000000000E+00 -0.99857620921E+03  0.15513292211E+04  0.11872101358E+04 0.  0.
        1    1    3    3  502    0  0.37695140734E+03 -0.45852388629E+03 -0.50649972685E+03  0.78030666479E+03  0.50400001928E-02 0. -1.
       -1    1    3    3    0  502 -0.37695140734E+03  0.45852388629E+03 -0.49207648236E+03  0.77102255629E+03  0.50400001928E-02 0.  1.
</event>
<event>
 5   0  0.8908478E-04  0.1203406E+04  0.7818609E-02  0.9109881E-01
       -1   -1    0    0    0  501  0.00000000000E+00  0.00000000000E+00  0.86272975121E+03  0.86272975122E+03  0.50400001928E-02 0.  1.
        1   -1    0    0  501    0  0.00000000000E+00  0.00000000000E+00 -0.41965198472E+03  0.41965198475E+03  0.50400001928E-02 0. -1.
    10030    2    1    2    0    0  0.00000000000E+00  0.00000000000E+00  0.44307776648E+03  0.12823817360E+04  0.12034055882E+04 0.  0.
        4    1    3    3  502    0  0.24134960579E+03  0.50366057222E+03 -0.17030834496E+02  0.55876226290E+03  0.12699999809E+01 0. -1.
       -4    1    3    3    0  502 -0.24134960579E+03 -0.50366057222E+03  0.46010860098E+03  0.72361947307E+03  0.12699999809E+01 0.  1.
</event>
<event>
 5   0  0.1597352E-03  0.1201150E+04  0.7818609E-02  0.9111851E-01
        2   -1    0    0  501    0  0.00000000000E+00  0.00000000000E+00  0.12800187118E+04  0.12800187118E+04  0.25500000920E-02 0. -1.
       -2   -1    0    0    0  501  0.00000000000E+00  0.00000000000E+00 -0.28178512780E+03  0.28178512781E+03  0.25500000920E-02 0.  1.
    10030    2    1    2    0    0  0.00000000000E+00  0.00000000000E+00  0.99823358395E+03  0.15618038396E+04  0.12011498429E+04 0.  0.
        1    1    3    3  502    0  0.51814508730E+03 -0.21554179759E+03  0.77725528525E+03  0.95867532381E+03  0.50400001928E-02 0. -1.
       -1    1    3    3    0  502 -0.51814508730E+03  0.21554179759E+03  0.22097829870E+03  0.60312851576E+03  0.50400001928E-02 0.  1.
</event>
<event>
 5   0  0.1597352E-03  0.1160339E+04  0.7818609E-02  0.9148298E-01
       -2   -1    0    0    0  501  0.00000000000E+00  0.00000000000E+00  0.11028669665E+04  0.11028669665E+04  0.25500000920E-02 0. -1.
        2   -1    0    0  501    0  0.00000000000E+00  0.00000000000E+00 -0.30520127521E+03  0.30520127523E+03  0.25500000920E-02 0.  1.
    10030    2    1    2    0    0  0.00000000000E+00  0.00000000000E+00  0.79766569132E+03  0.14080682418E+04  0.11603385792E+04 0.  0.
        1    1    3    3  502    0 -0.43145448902E+03 -0.31828303687E+03  0.12983201742E+03  0.55164610071E+03  0.50400001928E-02 0.  1.
       -1    1    3    3    0  502  0.43145448902E+03  0.31828303687E+03  0.66783367390E+03  0.85642214105E+03  0.50400001928E-02 0. -1.
</event>
<event>
 5   0  0.9358428E-04  0.1181799E+04  0.7818609E-02  0.9128938E-01
       -1   -1    0    0    0  501  0.00000000000E+00  0.00000000000E+00  0.31877084180E+03  0.31877084184E+03  0.50400001928E-02 0. -1.
        1   -1    0    0  501    0  0.00000000000E+00  0.00000000000E+00 -0.10953396660E+04  0.10953396661E+04  0.50400001928E-02 0.  1.
    10030    2    1    2    0    0  0.00000000000E+00  0.00000000000E+00 -0.77656882425E+03  0.14141105079E+04  0.11817992172E+04 0.  0.
        2    1    3    3  502    0 -0.23228032599E+03  0.49646346455E+03 -0.12413613885E+03  0.56199635448E+03  0.25500000920E-02 0. -1.
       -2    1    3    3    0  502  0.23228032599E+03 -0.49646346455E+03 -0.65243268540E+03  0.85211415342E+03  0.25500000920E-02 0.  1.
</event>
<event>
 5   0  0.1597352E-03  0.1207444E+04  0.7818609E-02  0.9106365E-01
        2   -1    0    0  501    0  0.00000000000E+00  0.00000000000E+00  0.10065252900E+04  0.10065252900E+04  0.25500000920E-02 0.  1.
       -2   -1    0    0    0  501  0.00000000000E+00  0.00000000000E+00 -0.36211759482E+03  0.36211759483E+03  0.25500000920E-02 0. -1.
    10030    2    1    2    0    0  0.00000000000E+00  0.00000000000E+00  0.64440769518E+03  0.13686428848E+04  0.12074444371E+04 0.  0.
        1    1    3    3  502    0  0.54269758939E+03  0.23245178077E+03  0.46525011327E+03  0.75167291546E+03  0.50400001928E-02 0.  1.
       -1    1    3    3    0  502 -0.54269758939E+03 -0.23245178077E+03  0.17915758191E+03  0.61696996937E+03  0.50400001928E-02 0. -1.
</event>
<event>
 5   0  0.8908478E-04  0.1206150E+04  0.7818609E-02  0.9107490E-01
       -1   -1    0    0    0  501  0.00000000000E+00  0.00000000000E+00  0.87942099303E+03  0.87942099304E+03  0.50400001928E-02 0.  1.
        1   -1    0    0  501    0  0.00000000000E+00  0.00000000000E+00 -0.41356704087E+03  0.41356704090E+03  0.50400001928E-02 0. -1.
    10030    2    1    2    0    0  0.00000000000E+00  0.00000000000E+00  0.46585395216E+03  0.12929880339E+04  0.12061501362E+04 0.  0.
        4    1    3    3  502    0  0.14305038057E+03 -0.48610087939E+03  0.58348840962E+03  0.77279868879E+03  0.12699999809E+01 0.  1.
       -4    1    3    3    0  502 -0.14305038057E+03  0.48610087939E+03 -0.11763445746E+03  0.52018934515E+03  0.12699999809E+01 0. -1.
</event>
<event>
 5   0  0.6137750E-04  0.1201448E+04  0.7818609E-02  0.9111590E-01
       -4   -1    0    0    0  501  0.00000000000E+00  0.00000000000E+00  0.48210343310E+03  0.48210510588E+03  0.12699999809E+01 0.  1.
        4   -1    0    0  501    0  0.00000000000E+00  0.00000000000E+00 -0.74852767777E+03  0.74852875515E+03  0.12699999809E+01 0. -1.
    10030    2    1    2    0    0  0.00000000000E+00  0.00000000000E+00 -0.26642424466E+03  0.12306338610E+04  0.12014482185E+04 0.  0.
        1    1    3    3  502    0 -0.15683497405E+03  0.44802057235E+03 -0.51032665100E+03  0.69695977867E+03  0.50400001928E-02 0. -1.
       -1    1    3    3    0  502  0.15683497405E+03 -0.44802057235E+03  0.24390240634E+03  0.53367408236E+03  0.50400001928E-02 0.  1.
</event>
<event>
 5   0  0.8908478E-04  0.1179597E+04  0.7818609E-02  0.9130905E-01
        1   -1    0    0  501    0  0.00000000000E+00  0.00000000000E+00  0.15587210626E+04  0.15587210626E+04  0.50400001928E-02 0.  1.
       -1   -1    0    0    0  501  0.00000000000E+00  0.00000000000E+00 -0.22317174101E+03  0.22317174106E+03  0.50400001928E-02 0. -1.
    10030    2    1    2    0    0  0.00000000000E+00  0.00000000000E+00  0.13355493216E+04  0.17818928037E+04  0.11795973777E+04 0.  0.
        4    1    3    3  502    0 -0.25731955180E+03  0.37797008442E+02 -0.13186900047E+03  0.29160420397E+03  0.12699999809E+01 0. -1.
       -4    1    3    3    0  502  0.25731955180E+03 -0.37797008442E+02  0.14674183221E+04  0.14902885997E+04  0.12699999809E+01 0.  1.
</event>
<event>
 5   0  0.1597352E-03  0.1205587E+04  0.7818609E-02  0.9107980E-01
       -2   -1    0    0    0  501  0.00000000000E+00  0.00000000000E+00  0.17482134318E+03  0.17482134320E+03  0.25500000920E-02 0. -1.
        2   -1    0    0  501    0  0.00000000000E+00  0.00000000000E+00 -0.20784640810E+04  0.20784640810E+04  0.25500000920E-02 0.  1.
    10030    2    1    2    0    0  0.00000000000E+00  0.00000000000E+00 -0.19036427378E+04  0.22532854242E+04  0.12055867989E+04 0.  0.
        1    1    3    3  502    0 -0.39650348470E+03  0.18013853143E+03 -0.17286818789E+03  0.46855983001E+03  0.50400001928E-02 0. -1.
       -1    1    3    3    0  502  0.39650348470E+03 -0.18013853143E+03 -0.17307745499E+04  0.17847255942E+04  0.50400001928E-02 0.  1.
</event>
<event>
 5   0  0.9169078E-04  0.1206916E+04  0.7818609E-02  0.9106824E-01
        1   -1    0    0  501    0  0.00000000000E+00  0.00000000000E+00  0.14076809818E+04  0.14076809818E+04  0.50400001928E-02 0. -1.
       -1   -1    0    0    0  501  0.00000000000E+00  0.00000000000E+00 -0.25869608732E+03  0.25869608737E+03  0.50400001928E-02 0.  1.
    10030    2    1    2    0    0  0.00000000000E+00  0.00000000000E+00  0.11489848944E+04  0.16663770691E+04  0.12069160074E+04 0.  0.
        1    1    3    3  502    0  0.12415247334E+03 -0.30679293668E+02 -0.23977127169E+03  0.27174495110E+03  0.50400001928E-02 0.  1.
       -1    1    3    3    0  502 -0.12415247334E+03  0.30679293668E+02  0.13887561661E+04  0.13946321180E+04  0.50400001928E-02 0. -1.
</event>
<event>
 5   0  0.9358428E-04  0.1197898E+04  0.7818609E-02  0.9114698E-01
       -1   -1    0    0    0  501  0.00000000000E+00  0.00000000000E+00  0.39192108170E+03  0.39192108173E+03  0.50400001928E-02 0. -1.
        1   -1    0    0  501    0  0.00000000000E+00  0.00000000000E+00 -0.91533746908E+03  0.91533746910E+03  0.50400001928E-02 0.  1.
    10030    2    1    2    0    0  0.00000000000E+00  0.00000000000E+00 -0.52341638739E+03  0.13072585508E+04  0.11978982445E+04 0.  0.
        2    1    3    3  502    0  0.23408920947E+03 -0.55113814673E+03 -0.27671243748E+03  0.65963686058E+03  0.25500000920E-02 0. -1.
       -2    1    3    3    0  502 -0.23408920947E+03  0.55113814673E+03 -0.24670394991E+03  0.64762169025E+03  0.25500000920E-02 0.  1.
</event>
<event>
 5   0  0.1537557E-03  0.1050766E+04  0.7818609E-02  0.9254554E-01
        2   -1    0    0  501    0  0.00000000000E+00  0.00000000000E+00  0.13221306055E+04  0.13221306055E+04  0.25500000920E-02 0.  1.
       -2   -1    0    0    0  501  0.00000000000E+00  0.00000000000E+00 -0.20877448746E+03  0.20877448747E+03  0.25500000920E-02 0. -1.
    10030    2    1    2    0    0  0.00000000000E+00  0.00000000000E+00  0.11133561181E+04  0.15309050930E+04  0.10507657009E+04 0.  0.
        2    1    3    3  502    0 -0.27306359200E+03 -0.34736265506E+03  0.14253055550E+03  0.46426231665E+03  0.25500000920E-02 0. -1.
       -2    1    3    3    0  502  0.27306359200E+03  0.34736265506E+03  0.97082556258E+03  0.10666427764E+04  0.25500000920E-02 0.  1.
</event>
<event>
 5   0  0.1537557E-03  0.1117565E+04  0.7818609E-02  0.9188238E-01
       -2   -1    0    0    0  501  0.00000000000E+00  0.00000000000E+00  0.25657237359E+03  0.25657237360E+03  0.25500000920E-02 0.  1.
        2   -1    0    0  501    0  0.00000000000E+00  0.00000000000E+00 -0.12169593926E+04  0.12169593926E+04  0.25500000920E-02 0. -1.
    10030    2    1    2    0    0  0.00000000000E+00  0.00000000000E+00 -0.96038701904E+03  0.14735317662E+04  0.11175654969E+04 0.  0.
        2    1    3    3  502    0 -0.51483765101E+03  0.49221732087E+02 -0.75913928426E+03  0.91857119415E+03  0.25500000920E-02 0. -1.
       -2    1    3    3    0  502  0.51483765101E+03 -0.49221732087E+02 -0.20124773479E+03  0.55496057209E+03  0.25500000920E-02 0.  1.
</event>
<event>
 5   0  0.1567019E-03  0.1196624E+04  0.7818609E-02  0.9115816E-01
        2   -1    0    0  501    0  0.00000000000E+00  0.00000000000E+00  0.26186189793E+04  0.26186189793E+04  0.25500000920E-02 0.  1.
       -2   -1    0    0    0  501  0.00000000000E+00  0.00000000000E+00 -0.13670467502E+03  0.13670467504E+03  0.25500000920E-02 0. -1.
    10030    2    1    2    0    0  0.00000000000E+00  0.00000000000E+00  0.24819143043E+04  0.27553236543E+04  0.11966243464E+04 0.  0.
        5    1    3    3  502    0 -0.51177921983E+03 -0.27397587219E+03  0.15744310286E+04  0.16780452622E+04  0.46999998093E+01 0.  1.
       -5    1    3    3    0  502  0.51177921983E+03  0.27397587219E+03  0.90748327571E+03  0.10772783921E+04  0.46999998093E+01 0. -1.
</event>
<event>
 5   0  0.1597352E-03  0.1220354E+04  0.7818609E-02  0.9095225E-01
        2   -1    0    0  501    0  0.00000000000E+00  0.00000000000E+00  0.12312216006E+04  0.12312216006E+04  0.25500000920E-02 0. -1.
       -2   -1    0    0    0  501  0.00000000000E+00  0.00000000000E+00 -0.30239547405E+03  0.30239547406E+03  0.25500000920E-02 0.  1.
    10030    2    1    2    0    0  0.00000000000E+00  0.00000000000E+00  0.92882612660E+03  0.15336170747E+04  0.12203537841E+04 0.  0.
        1    1    3    3  502    0 -0.55982030304E+03  0.20573032401E+03  0.30253727998E+03  0.66876942493E+03  0.50400001928E-02 0.  1.
       -1    1    3    3    0  502  0.55982030304E+03 -0.20573032401E+03  0.62628884662E+03  0.86484764978E+03  0.50400001928E-02 0. -1.
</event>
<event>
 5   0  0.9208078E-04  0.1233635E+04  0.7818609E-02  0.9083915E-01
       -1   -1    0    0    0  501  0.00000000000E+00  0.00000000000E+00  0.90228903658E+03  0.90228903660E+03  0.50400001928E-02 0. -1.
        1   -1    0    0  501    0  0.00000000000E+00  0.00000000000E+00 -0.42166525836E+03  0.42166525839E+03  0.50400001928E-02 0.  1.
    10030    2    1    2    0    0  0.00000000000E+00  0.00000000000E+00  0.48062377823E+03  0.13239542950E+04  0.12336351807E+04 0.  0.
        3    1    3    3  502    0 -0.11907140784E+03  0.26539560415E+03  0.82405644453E+03  0.87388892935E+03  0.10100000352E+00 0. -1.
       -3    1    3    3    0  502  0.11907140784E+03 -0.26539560415E+03 -0.34343266630E+03  0.45006536564E+03  0.10100000352E+00 0.  1.
</event>
<event>
 5   0  0.1551501E-03  0.1194078E+04  0.7818609E-02  0.9118056E-01
       -2   -1    0    0    0  501  0.00000000000E+00  0.00000000000E+00  0.42910208608E+03  0.42910208609E+03  0.25500000920E-02 0. -1.
        2   -1    0    0  501    0  0.00000000000E+00  0.00000000000E+00 -0.83070075579E+03  0.83070075579E+03  0.25500000920E-02 0.  1.
    10030    2    1    2    0    0  0.00000000000E+00  0.00000000000E+00 -0.40159866970E+03  0.12598028419E+04  0.11940777650E+04 0.  0.
        4    1    3    3  502    0  0.23584663766E+03 -0.23844445718E+03 -0.72192458696E+03  0.79602519923E+03  0.12699999809E+01 0.  1.
       -4    1    3    3    0  502 -0.23584663766E+03  0.23844445718E+03  0.32032591726E+03  0.46377764265E+03  0.12699999809E+01 0. -1.
</event>
<event>
 5   0  0.1567019E-03  0.1197562E+04  0.7818609E-02  0.9114993E-01
       -2   -1    0    0    0  501  0.00000000000E+00  0.00000000000E+00  0.70956365719E+03  0.70956365720E+03  0.25500000920E-02 0.  1.
        2   -1    0    0  501    0  0.00000000000E+00  0.00000000000E+00 -0.50529479430E+03  0.50529479431E+03  0.25500000920E-02 0. -1.
    10030    2    1    2    0    0  0.00000000000E+00  0.00000000000E+00  0.20426886289E+03  0.12148584515E+04  0.11975622275E+04 0.  0.
        5    1    3    3  502    0  0.15648943738E+03 -0.57703606507E+03  0.13511814541E+03  0.61297517700E+03  0.46999998093E+01 0. -1.
       -5    1    3    3    0  502 -0.15648943738E+03  0.57703606507E+03  0.69150717483E+02  0.60188327450E+03  0.46999998093E+01 0.  1.
</event>
<event>
 5   0  0.1597352E-03  0.1221315E+04  0.7818609E-02  0.9094401E-01
        2   -1    0    0  501    0  0.00000000000E+00  0.00000000000E+00  0.92466949651E+03  0.92466949651E+03  0.25500000920E-02 0.  1.
       -2   -1    0    0    0  501  0.00000000000E+00  0.00000000000E+00 -0.40328226217E+03  0.40328226218E+03  0.25500000920E-02 0. -1.
    10030    2    1    2    0    0  0.00000000000E+00  0.00000000000E+00  0.52138723434E+03  0.13279517587E+04  0.12213153668E+04 0.  0.
        1    1    3    3  502    0  0.25365645141E+03 -0.51460372789E+03  0.48810635496E+03  0.75326383550E+03  0.50400001928E-02 0.  1.
       -1    1    3    3    0  502 -0.25365645141E+03  0.51460372789E+03  0.33280879382E+02  0.57468792319E+03  0.50400001928E-02 0. -1.
</event>
<event>
 5   0  0.9169078E-04  0.1210871E+04  0.7818609E-02  0.9103394E-01
       -1   -1    0    0    0  501  0.00000000000E+00  0.00000000000E+00  0.12871961021E+03  0.12871961031E+03  0.50400001928E-02 0. -1.
        1   -1    0    0  501    0  0.00000000000E+00  0.00000000000E+00 -0.28476781703E+04  0.28476781703E+04  0.50400001928E-02 0.  1.
    10030    2    1    2    0    0  0.00000000000E+00  0.00000000000E+00 -0.27189585601E+04  0.29763977806E+04  0.12108708011E+04 0.  0.
        1    1    3    3  502    0  0.23871349090E+03  0.40813496822E+03 -0.42997438824E+03  0.63909017954E+03  0.50400001928E-02 0. -1.
       -1    1    3    3    0  502 -0.23871349090E+03 -0.40813496822E+03 -0.22889841719E+04  0.23373076011E+04  0.50400001928E-02 0.  1.
</event>
<event>
 5   0  0.6137750E-04  0.1196584E+04  0.7818609E-02  0.9115852E-01
        4   -1    0    0  501    0  0.00000000000E+00  0.00000000000E+00  0.58926865202E+03  0.58927002058E+03  0.12699999809E+01 0. -1.
       -4   -1    0    0    0  501  0.00000000000E+00  0.00000000000E+00 -0.60745099878E+03  0.60745232637E+03  0.12699999809E+01 0.  1.
    10030    2    1    2    0    0  0.00000000000E+00  0.00000000000E+00 -0.18182346758E+02  0.11967223469E+04  0.11965842126E+04 0.  0.
        4    1    3    3  502    0 -0.20958028617E+03 -0.48364806246E+03  0.27398299435E+03  0.59406029893E+03  0.12699999809E+01 0. -1.
       -4    1    3    3    0  502  0.20958028617E+03  0.48364806246E+03 -0.29216534111E+03  0.60266204802E+03  0.12699999809E+01 0.  1.
</event>
<event>
 5   0  0.9358428E-04  0.1243012E+04  0.7818609E-02  0.9076020E-01
       -1   -1    0    0    0  501  0.00000000000E+00  0.00000000000E+00  0.34766991366E+03  0.34766991370E+03  0.50400001928E-02 0.  1.
        1   -1    0    0  501    0  0.00000000000E+00  0.00000000000E+00 -0.11110237248E+04  0.11110237248E+04  0.50400001928E-02 0. -1.
    10030    2    1    2    0    0  0.00000000000E+00  0.00000000000E+00 -0.76335381117E+03  0.14586936385E+04  0.12430117015E+04 0.  0.
        2    1    3    3  502    0 -0.55364892690E+03 -0.17481647429E+03 -0.12142725914E+03  0.59315471271E+03  0.25500000920E-02 0.  1.
       -2    1    3    3    0  502  0.55364892690E+03  0.17481647429E+03 -0.64192655203E+03  0.86553892584E+03  0.25500000920E-02 0. -1.
</event>
<event>
 5   0  0.1537557E-03  0.1186104E+04  0.7818609E-02  0.9125108E-01
       -2   -1    0    0    0  501  0.00000000000E+00  0.00000000000E+00  0.20494558146E+03  0.20494558148E+03  0.25500000920E-02 0. -1.
        2   -1    0    0  501    0  0.00000000000E+00  0.00000000000E+00 -0.17161163517E+04  0.17161163517E+04  0.25500000920E-02 0.  1.
    10030    2    1    2    0    0  0.00000000000E+00  0.00000000000E+00 -0.15111707702E+04  0.19210619332E+04  0.11861036440E+04 0.  0.
        2    1    3    3  502    0 -0.81023312320E+02  0.54483111924E+03 -0.39961522716E+03  0.68051308247E+03  0.25500000920E-02 0. -1.
       -2    1    3    3    0  502  0.81023312320E+02 -0.54483111924E+03 -0.11115555431E+04  0.12405488507E+04  0.25500000920E-02 0.  1.
</event>
<event>
 5   0  0.1551501E-03  0.1200485E+04  0.7818609E-02  0.9112432E-01
        2   -1    0    0  501    0  0.00000000000E+00  0.00000000000E+00  0.30935619947E+03  0.30935619948E+03  0.25500000920E-02 0. -1.
       -2   -1    0    0    0  501  0.00000000000E+00  0.00000000000E+00 -0.11646483154E+04  0.11646483154E+04  0.25500000920E-02 0.  1.
    10030    2    1    2    0    0  0.00000000000E+00  0.00000000000E+00 -0.85529211596E+03  0.14740045149E+04  0.12004851962E+04 0.  0.
        4    1    3    3  502    0 -0.59803017652E+03 -0.36687418820E+02 -0.47197612101E+03  0.76272480649E+03  0.12699999809E+01 0.  1.
       -4    1    3    3    0  502  0.59803017652E+03  0.36687418820E+02 -0.38331599496E+03  0.71127970843E+03  0.12699999809E+01 0. -1.
</event>
<event>
 5   0  0.1567019E-03  0.1198872E+04  0.7818609E-02  0.9113845E-01
       -2   -1    0    0    0  501  0.00000000000E+00  0.00000000000E+00  0.66159956716E+03  0.66159956716E+03  0.25500000920E-02 0. -1.
        2   -1    0    0  501    0  0.00000000000E+00  0.00000000000E+00 -0.54311300399E+03  0.54311300400E+03  0.25500000920E-02 0.  1.
    10030    2    1    2    0    0  0.00000000000E+00  0.00000000000E+00  0.11848656317E+03  0.12047125712E+04  0.11988716835E+04 0.  0.
        5    1    3    3  502    0  0.22112516467E+03 -0.28620003062E+03 -0.42109650446E+03  0.55511363886E+03  0.46999998093E+01 0.  1.
       -5    1    3    3    0  502 -0.22112516467E+03  0.28620003062E+03  0.53958306763E+03  0.64959893230E+03  0.46999998093E+01 0. -1.
</event>
<event>
 5   0  0.8908478E-04  0.1184484E+04  0.7818609E-02  0.9126547E-01
        1   -1    0    0  501    0  0.00000000000E+00  0.00000000000E+00  0.10742836248E+04  0.10742836248E+04  0.50400001928E-02 0.  1.
       -1   -1    0    0    0  501  0.00000000000E+00  0.00000000000E+00 -0.32649733688E+03  0.32649733692E+03  0.50400001928E-02 0. -1.
    10030    2    1    2    0    0  0.00000000000E+00  0.00000000000E+00  0.74778628789E+03  0.14007809617E+04  0.11844842634E+04 0.  0.
        4    1    3    3  502    0  0.19333596952E+02  0.39903235228E+03  0.89093584203E+03  0.97640611102E+03  0.12699999809E+01 0.  1.
       -4    1    3    3    0  502 -0.19333596952E+02 -0.39903235228E+03 -0.14314955414E+03  0.42437485067E+03  0.12699999809E+01 0. -1.
</event>
<event>
 5   0  0.8908478E-04  0.1250946E+04  0.7818609E-02  0.9069396E-01
        1   -1    0    0  501    0  0.00000000000E+00  0.00000000000E+00  0.68023731361E+03  0.68023731363E+03  0.50400001928E-02 0. -1.
       -1   -1    0    0    0  501  0.00000000000E+00  0.00000000000E+00 -0.57511761007E+03  0.57511761010E+03  0.50400001928E-02 0.  1.
    10030    2    1    2    0    0  0.00000000000E+00  0.00000000000E+00  0.10511970354E+03  0.12553549237E+04  0.12509459750E+04 0.  0.
        4    1    3    3  502    0  0.34725272811E+03  0.20277933269E+03 -0.42820162755E+03  0.58741991938E+03  0.12699999809E+01 0.  1.
       -4    1    3    3    0  502 -0.34725272811E+03 -0.20277933269E+03  0.53332133109E+03  0.66793500435E+03  0.12699999809E+01 0. -1.
</event>
<event>
 5   0  0.1537557E-03  0.1238307E+04  0.7818609E-02  0.9079971E-01
       -2   -1    0    0    0  501  0.00000000000E+00  0.00000000000E+00  0.28371833487E+03  0.28371833488E+03  0.25500000920E-02 0.  1.
        2   -1    0    0  501    0  0.00000000000E+00  0.00000000000E+00 -0.13511688051E+04  0.13511688051E+04  0.25500000920E-02 0. -1.
    10030    2    1    2    0    0  0.00000000000E+00  0.00000000000E+00 -0.10674504702E+04  0.16348871400E+04  0.12383074958E+04 0.  0.
        2    1    3    3  502    0 -0.41463250960E+03  0.34423876439E+03 -0.13124978860E+03  0.55465931160E+03  0.25500000920E-02 0.  1.
       -2    1    3    3    0  502  0.41463250960E+03 -0.34423876439E+03 -0.93620068164E+03  0.10802278284E+04  0.25500000920E-02 0. -1.
</event>
<event>
 5   0  0.1597352E-03  0.1185457E+04  0.7818609E-02  0.9125682E-01
        2   -1    0    0  501    0  0.00000000000E+00  0.00000000000E+00  0.20929142378E+04  0.20929142378E+04  0.25500000920E-02 0.  1.
       -2   -1    0    0    0  501  0.00000000000E+00  0.00000000000E+00 -0.16786508333E+03  0.16786508335E+03  0.25500000920E-02 0. -1.
    10030    2    1    2    0    0  0.00000000000E+00  0.00000000000E+00  0.19250491545E+04  0.22607793212E+04  0.11854572501E+04 0.  0.
        1    1    3    3  502    0 -0.17786525682E+02  0.58965860010E+03  0.10723043099E+04  0.12238668874E+04  0.50400001928E-02 0.  1.
       -1    1    3    3    0  502  0.17786525682E+02 -0.58965860010E+03  0.85274484460E+03  0.10369124337E+04  0.50400001928E-02 0. -1.
</event>
<event>
 5   0  0.1551501E-03  0.1194543E+04  0.7818609E-02  0.9117646E-01
        2   -1    0    0  501    0  0.00000000000E+00  0.00000000000E+00  0.24090409037E+04  0.24090409037E+04  0.25500000920E-02 0.  1.
       -2   -1    0    0    0  501  0.00000000000E+00  0.00000000000E+00 -0.14808108226E+03  0.14808108228E+03  0.25500000920E-02 0. -1.
    10030    2    1    2    0    0  0.00000000000E+00  0.00000000000E+00  0.22609598214E+04  0.25571219859E+04  0.11945432336E+04 0.  0.
        4    1    3    3  502    0  0.33922404005E+03  0.34373067125E+03  0.37816927441E+03  0.61338188489E+03  0.12699999809E+01 0. -1.
       -4    1    3    3    0  502 -0.33922404005E+03 -0.34373067125E+03  0.18827905470E+04  0.19437401011E+04  0.12699999809E+01 0.  1.
</event>
<event>
 5   0  0.9358428E-04  0.1183800E+04  0.7818609E-02  0.9127156E-01
        1   -1    0    0  501    0  0.00000000000E+00  0.00000000000E+00  0.11177083508E+04  0.11177083508E+04  0.50400001928E-02 0.  1.
       -1   -1    0    0    0  501  0.00000000000E+00  0.00000000000E+00 -0.31344994194E+03  0.31344994198E+03  0.50400001928E-02 0. -1.
    10030    2    1    2    0    0  0.00000000000E+00  0.00000000000E+00  0.80425840884E+03  0.14311582928E+04  0.11838000130E+04 0.  0.
        2    1    3    3  502    0  0.17508774220E+03 -0.10060505923E+03  0.10747770074E+04  0.10935825122E+04  0.25500000920E-02 0.  1.
       -2    1    3    3    0  502 -0.17508774220E+03  0.10060505923E+03 -0.27051859858E+03  0.33757578052E+03  0.25500000920E-02 0. -1.
</event>
<event>
 5   0  0.1567019E-03  0.1160687E+04  0.7818609E-02  0.9147980E-01
       -2   -1    0    0    0  501  0.00000000000E+00  0.00000000000E+00  0.40123122655E+03  0.40123122656E+03  0.25500000920E-02 0.  1.
        2   -1    0    0  501    0  0.00000000000E+00  0.00000000000E+00 -0.83941300963E+03  0.83941300964E+03  0.25500000920E-02 0. -1.
    10030    2    1    2    0    0  0.00000000000E+00  0.00000000000E+00 -0.43818178308E+03  0.12406442362E+04  0.11606872300E+04 0.  0.
        5    1    3    3  502    0 -0.39217473273E+03  0.10818445427E+02 -0.67616824665E+03  0.78175677005E+03  0.46999998093E+01 0. -1.
       -5    1    3    3    0  502  0.39217473273E+03 -0.10818445427E+02  0.23798646356E+03  0.45888746615E+03  0.46999998093E+01 0.  1.
</event>
<event>
 5   0  0.8908478E-04  0.1188464E+04  0.7818609E-02  0.9123014E-01
       -1   -1    0    0    0  501  0.00000000000E+00  0.00000000000E+00  0.31726138037E+03  0.31726138041E+03  0.50400001928E-02 0. -1.
        1   -1    0    0  501    0  0.00000000000E+00  0.00000000000E+00 -0.11129988666E+04  0.11129988666E+04  0.50400001928E-02 0.  1.
    10030    2    1    2    0    0  0.00000000000E+00  0.00000000000E+00 -0.79573748619E+03  0.14302602470E+04  0.11884638098E+04 0.  0.
        4    1    3    3  502    0  0.29202756117E+03  0.24953225290E+03 -0.94350360486E+03  0.10186987322E+04  0.12699999809E+01 0.  1.
       -4    1    3    3    0  502 -0.29202756117E+03 -0.24953225290E+03  0.14776611867E+03  0.41156151478E+03  0.12699999809E+01 0. -1.
</event>
<event>
 5   0  0.9169078E-04  0.1194969E+04  0.7818609E-02  0.9117271E-01
        1   -1    0    0  501    0  0.00000000000E+00  0.00000000000E+00  0.23434284450E+04  0.23434284450E+04  0.50400001928E-02 0. -1.
       -1   -1    0    0    0  501  0.00000000000E+00  0.00000000000E+00 -0.15233574856E+03  0.15233574864E+03  0.50400001928E-02 0.  1.
    10030    2    1    2    0    0  0.00000000000E+00  0.00000000000E+00  0.21910926964E+04  0.24957641936E+04  0.11949693326E+04 0.  0.
        1    1    3    3  502    0  0.75346134989E+02  0.58217840328E+03  0.13279232511E+04  0.14518914885E+04  0.50400001928E-02 0. -1.
       -1    1    3    3    0  502 -0.75346134989E+02 -0.58217840328E+03  0.86316944527E+03  0.10438727052E+04  0.50400001928E-02 0.  1.
</event>
<event>
 5   0  0.9169078E-04  0.1205575E+04  0.7818609E-02  0.9107991E-01
       -1   -1    0    0    0  501  0.00000000000E+00  0.00000000000E+00  0.22255681034E+03  0.22255681040E+03  0.50400001928E-02 0.  1.
        1   -1    0    0  501    0  0.00000000000E+00  0.00000000000E+00 -0.16326296238E+04  0.16326296238E+04  0.50400001928E-02 0. -1.
    10030    2    1    2    0    0  0.00000000000E+00  0.00000000000E+00 -0.14100728134E+04  0.18551864342E+04  0.12055751185E+04 0.  0.
        1    1    3    3  502    0  0.12260398030E+03  0.58609489463E+03 -0.81180435975E+03  0.10087444077E+04  0.50400001928E-02 0. -1.
       -1    1    3    3    0  502 -0.12260398030E+03 -0.58609489463E+03 -0.59826845366E+03  0.84644202647E+03  0.50400001928E-02 0.  1.
</event>
<event>
 5   0  0.6137750E-04  0.1193063E+04  0.7818609E-02  0.9118950E-01
       -4   -1    0    0    0  501  0.00000000000E+00  0.00000000000E+00  0.34171263674E+03  0.34171499675E+03  0.12699999809E+01 0.  1.
        4   -1    0    0  501    0  0.00000000000E+00  0.00000000000E+00 -0.10413659358E+04  0.10413667102E+04  0.12699999809E+01 0. -1.
    10030    2    1    2    0    0  0.00000000000E+00  0.00000000000E+00 -0.69965329909E+03  0.13830817070E+04  0.11930633970E+04 0.  0.
        5    1    3    3  502    0 -0.43770736345E+03 -0.38795525453E+03 -0.48566887715E+03  0.76025874790E+03  0.46999998093E+01 0.  1.
       -5    1    3    3    0  502  0.43770736345E+03  0.38795525453E+03 -0.21398442194E+03  0.62282295909E+03  0.46999998093E+01 0. -1.
</event>
<event>
 5   0  0.6137750E-04  0.1233158E+04  0.7818609E-02  0.9084318E-01
       -3   -1    0    0    0  501  0.00000000000E+00  0.00000000000E+00  0.37390183643E+03  0.37390185007E+03  0.10100000352E+00 0. -1.
        3   -1    0    0  501    0  0.00000000000E+00  0.00000000000E+00 -0.10167631889E+04  0.10167631939E+04  0.10100000352E+00 0.  1.
    10030    2    1    2    0    0  0.00000000000E+00  0.00000000000E+00 -0.64286135247E+03  0.13906650440E+04  0.12331579567E+04 0.  0.
        5    1    3    3  502    0  0.51804290924E+03 -0.33262431811E+03 -0.35950967591E+03  0.71293526346E+03  0.46999998093E+01 0. -1.
       -5    1    3    3    0  502 -0.51804290924E+03  0.33262431811E+03 -0.28335167656E+03  0.67772978053E+03  0.46999998093E+01 0.  1.
</event>
<event>
 5   0  0.9169078E-04  0.1199992E+04  0.7818609E-02  0.9112864E-01
        1   -1    0    0  501    0  0.00000000000E+00  0.00000000000E+00  0.17886129945E+04  0.17886129945E+04  0.50400001928E-02 0.  1.
       -1   -1    0    0    0  501  0.00000000000E+00  0.00000000000E+00 -0.20127051238E+03  0.20127051245E+03  0.50400001928E-02 0. -1.
    10030    2    1    2    0    0  0.00000000000E+00  0.00000000000E+00  0.15873424821E+04  0.19898835069E+04  0.11999917565E+04 0.  0.
        1    1    3    3  502    0 -0.18193338102E+03 -0.28493502284E+03  0.16156459355E+04  0.16506360930E+04  0.50400001928E-02 0.  1.
       -1    1    3    3    0  502  0.18193338102E+03  0.28493502284E+03 -0.28303453450E+02  0.33924741395E+03  0.50400001928E-02 0. -1.
</event>
<event>
 5   0  0.1597352E-03  0.1213248E+04  0.7818609E-02  0.9101339E-01
        2   -1    0    0  501    0  0.00000000000E+00  0.00000000000E+00  0.11689567410E+04  0.11689567410E+04  0.25500000920E-02 0.  1.
       -2   -1    0    0    0  501  0.00000000000E+00  0.00000000000E+00 -0.31480458979E+03  0.31480458980E+03  0.25500000920E-02 0. -1.
    10030    2    1    2    0    0  0.00000000000E+00  0.00000000000E+00  0.85415215122E+03  0.14837613308E+04  0.12132484450E+04 0.  0.
        1    1    3    3  502    0 -0.28854415919E+03  0.33385750124E+03  0.93615074442E+03  0.10349380557E+04  0.50400001928E-02 0.  1.
       -1    1    3    3    0  502  0.28854415919E+03 -0.33385750124E+03 -0.81998593198E+02  0.44882327507E+03  0.50400001928E-02 0. -1.
</event>
<event>
 5   0  0.9169078E-04  0.1212861E+04  0.7818609E-02  0.9101673E-01
        1   -1    0    0  501    0  0.00000000000E+00  0.00000000000E+00  0.47591918825E+03  0.47591918828E+03  0.50400001928E-02 0.  1.
       -1   -1    0    0    0  501  0.00000000000E+00  0.00000000000E+00 -0.77273187328E+03  0.77273187330E+03  0.50400001928E-02 0. -1.
    10030    2    1    2    0    0  0.00000000000E+00  0.00000000000E+00 -0.29681268503E+03  0.12486510616E+04  0.12128609581E+04 0.  0.
        1    1    3    3  502    0 -0.43649717705E+02  0.17118989394E+03 -0.74565159909E+03  0.76629471152E+03  0.50400001928E-02 0. -1.
       -1    1    3    3    0  502  0.43649717705E+02 -0.17118989394E+03  0.44883891406E+03  0.48235635006E+03  0.50400001928E-02 0.  1.
</event>
<event>
 5   0  0.1551501E-03  0.1200636E+04  0.7818609E-02  0.9112300E-01
        2   -1    0    0  501    0  0.00000000000E+00  0.00000000000E+00  0.16608228888E+04  0.16608228888E+04  0.25500000920E-02 0.  1.
       -2   -1    0    0    0  501  0.00000000000E+00  0.00000000000E+00 -0.21698970178E+03  0.21698970180E+03  0.25500000920E-02 0. -1.
    10030    2    1    2    0    0  0.00000000000E+00  0.00000000000E+00  0.14438331871E+04  0.18778125906E+04  0.12006356040E+04 0.  0.
        4    1    3    3  502    0 -0.25096905681E+03  0.45976867144E+03  0.11805950175E+04  0.12915800041E+04  0.12699999809E+01 0. -1.
       -4    1    3    3    0  502  0.25096905681E+03 -0.45976867144E+03  0.26323816955E+03  0.58623258654E+03  0.12699999809E+01 0.  1.
</event>
<event>
 5   0  0.1647550E-03  0.1199239E+04  0.7818609E-02  0.9113523E-01
       -2   -1    0    0    0  501  0.00000000000E+00  0.00000000000E+00  0.74623274784E+03  0.74623274784E+03  0.25500000920E-02 0. -1.
        2   -1    0    0  501    0  0.00000000000E+00  0.00000000000E+00 -0.48181151599E+03  0.48181151600E+03  0.25500000920E-02 0.  1.
    10030    2    1    2    0    0  0.00000000000E+00  0.00000000000E+00  0.26442123185E+03  0.12280442638E+04  0.11992389779E+04 0.  0.
        3    1    3    3  502    0  0.39361074601E+03  0.34568623494E+03 -0.16654196506E+03  0.54969503248E+03  0.10100000352E+00 0.  1.
       -3    1    3    3    0  502 -0.39361074601E+03 -0.34568623494E+03  0.43096319691E+03  0.67834923137E+03  0.10100000352E+00 0. -1.
</event>
<event>
 5   0  0.1537557E-03  0.1203984E+04  0.7818609E-02  0.9109376E-01
       -2   -1    0    0    0  501  0.00000000000E+00  0.00000000000E+00  0.35560137931E+03  0.35560137932E+03  0.25500000920E-02 0. -1.
        2   -1    0    0  501    0  0.00000000000E+00  0.00000000000E+00 -0.10191035201E+04  0.10191035201E+04  0.25500000920E-02 0.  1.
    10030    2    1    2    0    0  0.00000000000E+00  0.00000000000E+00 -0.66350214079E+03  0.13747048994E+04  0.12039844142E+04 0.  0.
        2    1    3    3  502    0  0.14829076278E+03 -0.22321950677E+03 -0.94723911449E+03  0.98441812181E+03  0.25500000920E-02 0.  1.
       -2    1    3    3    0  502 -0.14829076278E+03  0.22321950677E+03  0.28373697370E+03  0.39028677761E+03  0.25500000920E-02 0. -1.
</event>
<event>
 5   0  0.9170776E-04  0.1194571E+04  0.7818609E-02  0.9117622E-01
        1   -1    0    0  501    0  0.00000000000E+00  0.00000000000E+00  0.13460381374E+04  0.13460381374E+04  0.50400001928E-02 0. -1.
       -1   -1    0    0    0  501  0.00000000000E+00  0.00000000000E+00 -0.26503706242E+03  0.26503706246E+03  0.50400001928E-02 0.  1.
    10030    2    1    2    0    0  0.00000000000E+00  0.00000000000E+00  0.10810010750E+04  0.16110751999E+04  0.11945710425E+04 0.  0.
        5    1    3    3  502    0  0.44294830933E+01 -0.46683081493E+03  0.10429160098E+04  0.11426489065E+04  0.46999998093E+01 0. -1.
       -5    1    3    3    0  502 -0.44294830933E+01  0.46683081493E+03  0.38085065161E+02  0.46842629332E+03  0.46999998093E+01 0.  1.
</event>
<event>
 5   0  0.9169078E-04  0.1189687E+04  0.7818609E-02  0.9121931E-01
        1   -1    0    0  501    0  0.00000000000E+00  0.00000000000E+00  0.29854032933E+03  0.29854032937E+03  0.50400001928E-02 0. -1.
       -1   -1    0    0    0  501  0.00000000000E+00  0.00000000000E+00 -0.11852299128E+04  0.11852299128E+04  0.50400001928E-02 0.  1.
    10030    2    1    2    0    0  0.00000000000E+00  0.00000000000E+00 -0.88668958348E+03  0.14837702422E+04  0.11896872338E+04 0.  0.
        1    1    3    3  502    0 -0.17812027420E+03 -0.56735392740E+03 -0.42477804210E+03  0.73078977558E+03  0.50400001928E-02 0. -1.
       -1    1    3    3    0  502  0.17812027420E+03  0.56735392740E+03 -0.46191154138E+03  0.75298046661E+03  0.50400001928E-02 0.  1.
</event>
<event>
 5   0  0.1551501E-03  0.1204962E+04  0.7818609E-02  0.9108524E-01
        2   -1    0    0  501    0  0.00000000000E+00  0.00000000000E+00  0.33587409555E+03  0.33587409556E+03  0.25500000920E-02 0.  1.
       -2   -1    0    0    0  501  0.00000000000E+00  0.00000000000E+00 -0.10807129951E+04  0.10807129951E+04  0.25500000920E-02 0. -1.
    10030    2    1    2    0    0  0.00000000000E+00  0.00000000000E+00 -0.74483889954E+03  0.14165870907E+04  0.12049622397E+04 0.  0.
        4    1    3    3  502    0  0.57907957054E+03 -0.82935721996E+02 -0.54185023090E+03  0.79737993994E+03  0.12699999809E+01 0. -1.
       -4    1    3    3    0  502 -0.57907957054E+03  0.82935721996E+02 -0.20298866864E+03  0.61920715071E+03  0.12699999809E+01 0.  1.
</event>
<event>
 5   0  0.1551501E-03  0.1196134E+04  0.7818609E-02  0.9116248E-01
       -2   -1    0    0    0  501  0.00000000000E+00  0.00000000000E+00  0.45009694943E+03  0.45009694944E+03  0.25500000920E-02 0.  1.
        2   -1    0    0  501    0  0.00000000000E+00  0.00000000000E+00 -0.79468184049E+03  0.79468184049E+03  0.25500000920E-02 0. -1.
    10030    2    1    2    0    0  0.00000000000E+00  0.00000000000E+00 -0.34458489106E+03  0.12447787899E+04  0.11961335581E+04 0.  0.
        4    1    3    3  502    0  0.23645034869E+03  0.23161235265E+03 -0.69067628162E+03  0.76589058500E+03  0.12699999809E+01 0. -1.
       -4    1    3    3    0  502 -0.23645034869E+03 -0.23161235265E+03  0.34609139056E+03  0.47888820493E+03  0.12699999809E+01 0.  1.
</event>
<event>
 5   0  0.1567019E-03  0.1207538E+04  0.7818609E-02  0.9106284E-01
        2   -1    0    0  501    0  0.00000000000E+00  0.00000000000E+00  0.15851085104E+04  0.15851085104E+04  0.25500000920E-02 0.  1.
       -2   -1    0    0    0  501  0.00000000000E+00  0.00000000000E+00 -0.22997619425E+03  0.22997619426E+03  0.25500000920E-02 0. -1.
    10030    2    1    2    0    0  0.00000000000E+00  0.00000000000E+00  0.13551323161E+04  0.18150847046E+04  0.12075383600E+04 0.  0.
        5    1    3    3  502    0 -0.56603315029E+03 -0.17420399325E+02  0.36291965712E+03  0.67262899511E+03  0.46999998093E+01 0. -1.
       -5    1    3    3    0  502  0.56603315029E+03  0.17420399325E+02  0.99221265898E+03  0.11424557095E+04  0.46999998093E+01 0.  1.
</event>
<event>
 5   0  0.1647550E-03  0.1197461E+04  0.7818609E-02  0.9115081E-01
       -2   -1    0    0    0  501  0.00000000000E+00  0.00000000000E+00  0.56689057411E+03  0.56689057411E+03  0.25500000920E-02 0. -1.
        2   -1    0    0  501    0  0.00000000000E+00  0.00000000000E+00 -0.63235916656E+03  0.63235916656E+03  0.25500000920E-02 0.  1.
    10030    2    1    2    0    0  0.00000000000E+00  0.00000000000E+00 -0.65468592452E+02  0.11992497407E+04  0.11974613998E+04 0.  0.
        3    1    3    3  502    0 -0.37934013168E+03 -0.35299537401E+03  0.26766995369E+03  0.58322541429E+03  0.10100000352E+00 0. -1.
       -3    1    3    3    0  502  0.37934013168E+03  0.35299537401E+03 -0.33313854614E+03  0.61602432638E+03  0.10100000352E+00 0.  1.
</event>
<event>
 5   0  0.1551501E-03  0.1193328E+04  0.7818609E-02  0.9118717E-01
       -2   -1    0    0    0  501  0.00000000000E+00  0.00000000000E+00  0.26527103869E+03  0.26527103871E+03  0.25500000920E-02 0.  1.
        2   -1    0    0  501    0  0.00000000000E+00  0.00000000000E+00 -0.13420528433E+04  0.13420528433E+04  0.25500000920E-02 0. -1.
    10030    2    1    2    0    0  0.00000000000E+00  0.00000000000E+00 -0.10767818046E+04  0.16073238820E+04  0.11933277031E+04 0.  0.
        4    1    3    3  502    0  0.14159648704E+03 -0.56407036376E+02  0.23860531282E+03  0.28313499802E+03  0.12699999809E+01 0.  1.
       -4    1    3    3    0  502 -0.14159648704E+03  0.56407036376E+02 -0.13153871175E+04  0.13241888840E+04  0.12699999809E+01 0. -1.
</event>
<event>
 5   0  0.9170776E-04  0.1200956E+04  0.7818609E-02  0.9112021E-01
        1   -1    0    0  501    0  0.00000000000E+00  0.00000000000E+00  0.90147099060E+03  0.90147099061E+03  0.50400001928E-02 0.  1.
       -1   -1    0    0    0  501  0.00000000000E+00  0.00000000000E+00 -0.39998352756E+03  0.39998352759E+03  0.50400001928E-02 0. -1.
    10030    2    1    2    0    0  0.00000000000E+00  0.00000000000E+00  0.50148746303E+03  0.13014545182E+04  0.12009555310E+04 0.  0.
        5    1    3    3  502    0  0.24628460045E+03 -0.13152227787E+03 -0.32534055447E+03  0.42874558934E+03  0.46999998093E+01 0. -1.
       -5    1    3    3    0  502 -0.24628460045E+03  0.13152227787E+03  0.82682801750E+03  0.87270892887E+03  0.46999998093E+01 0.  1.
</event>
<event>
 5   0  0.9358428E-04  0.1197920E+04  0.7818609E-02  0.9114679E-01
       -1   -1    0    0    0  501  0.00000000000E+00  0.00000000000E+00  0.76677285417E+03  0.76677285419E+03  0.50400001928E-02 0. -1.
        1   -1    0    0  501    0  0.00000000000E+00  0.00000000000E+00 -0.46787398818E+03  0.46787398821E+03  0.50400001928E-02 0.  1.
    10030    2    1    2    0    0  0.00000000000E+00  0.00000000000E+00  0.29889886599E+03  0.12346468424E+04  0.11979199862E+04 0.  0.
        2    1    3    3  502    0 -0.18899408123E+03  0.49812447049E+03  0.43153065559E+03  0.68561319821E+03  0.25500000920E-02 0. -1.
       -2    1    3    3    0  502  0.18899408123E+03 -0.49812447049E+03 -0.13263178960E+03  0.54903364419E+03  0.25500000920E-02 0.  1.
</event>
<event>
 5   0  0.6137750E-04  0.1201517E+04  0.7818609E-02  0.9111530E-01
       -3   -1    0    0    0  501  0.00000000000E+00  0.00000000000E+00  0.24571444916E+03  0.24571446992E+03  0.10100000352E+00 0.  1.
        3   -1    0    0  501    0  0.00000000000E+00  0.00000000000E+00 -0.14688219090E+04  0.14688219125E+04  0.10100000352E+00 0. -1.
    10030    2    1    2    0    0  0.00000000000E+00  0.00000000000E+00 -0.12231074599E+04  0.17145363824E+04  0.12015170195E+04 0.  0.
        3    1    3    3  502    0  0.17465456086E+03 -0.39096940568E+03 -0.10274105979E+02  0.42833031560E+03  0.10100000352E+00 0.  1.
       -3    1    3    3    0  502 -0.17465456086E+03  0.39096940568E+03 -0.12128333539E+04  0.12862060668E+04  0.10100000352E+00 0. -1.
</event>
<event>
 5   0  0.1551501E-03  0.1201078E+04  0.7818609E-02  0.9111914E-01
        2   -1    0    0  501    0  0.00000000000E+00  0.00000000000E+00  0.14554030817E+04  0.14554030817E+04  0.25500000920E-02 0.  1.
       -2   -1    0    0    0  501  0.00000000000E+00  0.00000000000E+00 -0.24779861655E+03  0.24779861657E+03  0.25500000920E-02 0. -1.
    10030    2    1    2    0    0  0.00000000000E+00  0.00000000000E+00  0.12076044652E+04  0.17032016983E+04  0.12010776331E+04 0.  0.
        4    1    3    3  502    0  0.37028186674E+02  0.42759419239E+03  0.11994510704E+04  0.12739279270E+04  0.12699999809E+01 0.  1.
       -4    1    3    3    0  502 -0.37028186674E+02 -0.42759419239E+03  0.81533947506E+01  0.42927377129E+03  0.12699999809E+01 0. -1.
</event>
<event>
 5   0  0.1647550E-03  0.1191004E+04  0.7818609E-02  0.9120768E-01
        2   -1    0    0  501    0  0.00000000000E+00  0.00000000000E+00  0.82142384739E+03  0.82142384739E+03  0.25500000920E-02 0.  1.
       -2   -1    0    0    0  501  0.00000000000E+00  0.00000000000E+00 -0.43171673118E+03  0.43171673119E+03  0.25500000920E-02 0. -1.
    10030    2    1    2    0    0  0.00000000000E+00  0.00000000000E+00  0.38970711620E+03  0.12531405786E+04  0.11910036412E+04 0.  0.
        3    1    3    3  502    0 -0.45460520886E+03  0.31141154275E+03 -0.42712235141E+02  0.55269104400E+03  0.10100000352E+00 0. -1.
       -3    1    3    3    0  502  0.45460520886E+03 -0.31141154275E+03  0.43241935134E+03  0.70044953459E+03  0.10100000352E+00 0.  1.
</event>
<event>
 5   0  0.9170776E-04  0.1212761E+04  0.7818609E-02  0.9101759E-01
        1   -1    0    0  501    0  0.00000000000E+00  0.00000000000E+00  0.71570892841E+03  0.71570892843E+03  0.50400001928E-02 0.  1.
       -1   -1    0    0    0  501  0.00000000000E+00  0.00000000000E+00 -0.51375297819E+03  0.51375297821E+03  0.50400001928E-02 0. -1.
    10030    2    1    2    0    0  0.00000000000E+00  0.00000000000E+00  0.20195595023E+03  0.12294619066E+04  0.12127614663E+04 0.  0.
        5    1    3    3  502    0  0.28778352096E+03  0.13004601567E+03  0.62573934100E+03  0.70093019196E+03  0.46999998093E+01 0.  1.
       -5    1    3    3    0  502 -0.28778352096E+03 -0.13004601567E+03 -0.42378339077E+03  0.52853171468E+03  0.46999998093E+01 0. -1.
</event>
<event>
 5   0  0.1537557E-03  0.1206307E+04  0.7818609E-02  0.9107354E-01
       -2   -1    0    0    0  501  0.00000000000E+00  0.00000000000E+00  0.31868000163E+03  0.31868000164E+03  0.25500000920E-02 0. -1.
        2   -1    0    0  501    0  0.00000000000E+00  0.00000000000E+00 -0.11415647326E+04  0.11415647326E+04  0.25500000920E-02 0.  1.
    10030    2    1    2    0    0  0.00000000000E+00  0.00000000000E+00 -0.82288473097E+03  0.14602447343E+04  0.12063065131E+04 0.  0.
        2    1    3    3  502    0  0.21620058990E+03  0.52488778386E+03 -0.16471235633E+03  0.59108378514E+03  0.25500000920E-02 0. -1.
       -2    1    3    3    0  502 -0.21620058990E+03 -0.52488778386E+03 -0.65817237464E+03  0.86916094911E+03  0.25500000920E-02 0.  1.
</event>
<event>
 5   0  0.1551501E-03  0.1201048E+04  0.7818609E-02  0.9111940E-01
       -2   -1    0    0    0  501  0.00000000000E+00  0.00000000000E+00  0.19090886414E+04  0.19090886414E+04  0.25500000920E-02 0.  1.
        2   -1    0    0  501    0  0.00000000000E+00  0.00000000000E+00 -0.18890119294E+03  0.18890119295E+03  0.25500000920E-02 0. -1.
    10030    2    1    2    0    0  0.00000000000E+00  0.00000000000E+00  0.17201874484E+04  0.20979898343E+04  0.12010480786E+04 0.  0.
        4    1    3    3  502    0  0.41088765915E+03  0.96697878505E+02  0.16062210910E+04  0.16607609564E+04  0.12699999809E+01 0.  1.
       -4    1    3    3    0  502 -0.41088765915E+03 -0.96697878505E+02  0.11396635738E+03  0.43722887790E+03  0.12699999809E+01 0. -1.
</event>
<event>
 5   0  0.9169078E-04  0.1223371E+04  0.7818609E-02  0.9092642E-01
       -1   -1    0    0    0  501  0.00000000000E+00  0.00000000000E+00  0.62904985924E+03  0.62904985926E+03  0.50400001928E-02 0.  1.
        1   -1    0    0  501    0  0.00000000000E+00  0.00000000000E+00 -0.59480057739E+03  0.59480057741E+03  0.50400001928E-02 0. -1.
    10030    2    1    2    0    0  0.00000000000E+00  0.00000000000E+00  0.34249281849E+02  0.12238504367E+04  0.12233711122E+04 0.  0.
        1    1    3    3  502    0 -0.76179556931E+02  0.70485960113E+02  0.62017723808E+03  0.62880156021E+03  0.50400001928E-02 0.  1.
       -1    1    3    3    0  502  0.76179556931E+02 -0.70485960113E+02 -0.58592795623E+03  0.59504887647E+03  0.50400001928E-02 0. -1.
</event>
<event>
 5   0  0.1537557E-03  0.1177463E+04  0.7818609E-02  0.9132815E-01
       -2   -1    0    0    0  501  0.00000000000E+00  0.00000000000E+00  0.23332766229E+03  0.23332766230E+03  0.25500000920E-02 0.  1.
        2   -1    0    0  501    0  0.00000000000E+00  0.00000000000E+00 -0.14854861342E+04  0.14854861342E+04  0.25500000920E-02 0. -1.
    10030    2    1    2    0    0  0.00000000000E+00  0.00000000000E+00 -0.12521584719E+04  0.17188137965E+04  0.11774633872E+04 0.  0.
        2    1    3    3  502    0 -0.36795874373E+03 -0.14006949765E+01 -0.12969487376E+04  0.13481363533E+04  0.25500000920E-02 0. -1.
       -2    1    3    3    0  502  0.36795874373E+03  0.14006949765E+01  0.44790265671E+02  0.37067744325E+03  0.25500000920E-02 0.  1.
</event>
<event>
 5   0  0.9170776E-04  0.1200178E+04  0.7818609E-02  0.9112701E-01
        1   -1    0    0  501    0  0.00000000000E+00  0.00000000000E+00  0.15175207038E+04  0.15175207039E+04  0.50400001928E-02 0. -1.
       -1   -1    0    0    0  501  0.00000000000E+00  0.00000000000E+00 -0.23729952147E+03  0.23729952152E+03  0.50400001928E-02 0.  1.
    10030    2    1    2    0    0  0.00000000000E+00  0.00000000000E+00  0.12802211824E+04  0.17548202254E+04  0.12001782149E+04 0.  0.
        5    1    3    3  502    0  0.42370959407E+02  0.37663856631E+03  0.13203292965E+04  0.13736606018E+04  0.46999998093E+01 0. -1.
       -5    1    3    3    0  502 -0.42370959407E+02 -0.37663856631E+03 -0.40108114092E+02  0.38115962357E+03  0.46999998093E+01 0.  1.
</event>
<event>
 5   0  0.6137750E-04  0.1200547E+04  0.7818609E-02  0.9112378E-01
       -3   -1    0    0    0  501  0.00000000000E+00  0.00000000000E+00  0.27492360324E+03  0.27492362179E+03  0.10100000352E+00 0. -1.
        3   -1    0    0  501    0  0.00000000000E+00  0.00000000000E+00 -0.13106495592E+04  0.13106495631E+04  0.10100000352E+00 0.  1.
    10030    2    1    2    0    0  0.00000000000E+00  0.00000000000E+00 -0.10357259559E+04  0.15855731849E+04  0.12005474038E+04 0.  0.
        1    1    3    3  502    0 -0.21790278905E+03 -0.38130549375E+03 -0.10583104149E+04  0.11458169310E+04  0.50400001928E-02 0.  1.
       -1    1    3    3    0  502  0.21790278905E+03  0.38130549375E+03  0.22584458926E+02  0.43975625390E+03  0.50400001928E-02 0. -1.
</event>
<event>
 5   0  0.9169078E-04  0.1211476E+04  0.7818609E-02  0.9102871E-01
        1   -1    0    0  501    0  0.00000000000E+00  0.00000000000E+00  0.13460331617E+04  0.13460331617E+04  0.50400001928E-02 0.  1.
       -1   -1    0    0    0  501  0.00000000000E+00  0.00000000000E+00 -0.27259226810E+03  0.27259226814E+03  0.50400001928E-02 0. -1.
    10030    2    1    2    0    0  0.00000000000E+00  0.00000000000E+00  0.10734408936E+04  0.16186254299E+04  0.12114755178E+04 0.  0.
        1    1    3    3  502    0 -0.59771859686E+03 -0.22995963243E+02  0.40911350438E+03  0.72468627340E+03  0.50400001928E-02 0.  1.
       -1    1    3    3    0  502  0.59771859686E+03  0.22995963243E+02  0.66432738926E+03  0.89393915649E+03  0.50400001928E-02 0. -1.
</event>
<event>
 5   0  0.1567019E-03  0.1157969E+04  0.7818609E-02  0.9150463E-01
       -2   -1    0    0    0  501  0.00000000000E+00  0.00000000000E+00  0.77969219545E+03  0.77969219545E+03  0.25500000920E-02 0. -1.
        2   -1    0    0  501    0  0.00000000000E+00  0.00000000000E+00 -0.42994250133E+03  0.42994250134E+03  0.25500000920E-02 0.  1.
    10030    2    1    2    0    0  0.00000000000E+00  0.00000000000E+00  0.34974969412E+03  0.12096346968E+04  0.11579685881E+04 0.  0.
        5    1    3    3  502    0  0.25454805679E+03 -0.27230393066E+03  0.63764950552E+03  0.73862245143E+03  0.46999998093E+01 0. -1.
       -5    1    3    3    0  502 -0.25454805679E+03  0.27230393066E+03 -0.28789981140E+03  0.47101224535E+03  0.46999998093E+01 0.  1.
</event>
<event>
 5   0  0.9170776E-04  0.1192390E+04  0.7818609E-02  0.9119544E-01
        1   -1    0    0  501    0  0.00000000000E+00  0.00000000000E+00  0.69439561243E+03  0.69439561245E+03  0.50400001928E-02 0.  1.
       -1   -1    0    0    0  501  0.00000000000E+00  0.00000000000E+00 -0.51188202168E+03  0.51188202171E+03  0.50400001928E-02 0. -1.
    10030    2    1    2    0    0  0.00000000000E+00  0.00000000000E+00  0.18251359074E+03  0.12062776342E+04  0.11923902548E+04 0.  0.
        5    1    3    3  502    0  0.39913257651E+03 -0.41625478786E+03 -0.61671520099E+02  0.58000028313E+03  0.46999998093E+01 0. -1.
       -5    1    3    3    0  502 -0.39913257651E+03  0.41625478786E+03  0.24418511084E+03  0.62627735102E+03  0.46999998093E+01 0.  1.
</event>
<event>
 5   0  0.1647550E-03  0.1198922E+04  0.7818609E-02  0.9113801E-01
       -2   -1    0    0    0  501  0.00000000000E+00  0.00000000000E+00  0.21504390113E+03  0.21504390114E+03  0.25500000920E-02 0. -1.
        2   -1    0    0  501    0  0.00000000000E+00  0.00000000000E+00 -0.16710691024E+04  0.16710691024E+04  0.25500000920E-02 0.  1.
    10030    2    1    2    0    0  0.00000000000E+00  0.00000000000E+00 -0.14560252013E+04  0.18861130036E+04  0.11989215468E+04 0.  0.
        3    1    3    3  502    0  0.47326762445E+03 -0.14399484453E+03 -0.12606581548E+04  0.13542436092E+04  0.10100000352E+00 0.  1.
       -3    1    3    3    0  502 -0.47326762445E+03  0.14399484453E+03 -0.19536704649E+03  0.53186939436E+03  0.10100000352E+00 0. -1.
</event>
<event>
 5   0  0.9169078E-04  0.1213807E+04  0.7818609E-02  0.9100856E-01
       -1   -1    0    0    0  501  0.00000000000E+00  0.00000000000E+00  0.60306665154E+03  0.60306665157E+03  0.50400001928E-02 0. -1.
        1   -1    0    0  501    0  0.00000000000E+00  0.00000000000E+00 -0.61076505070E+03  0.61076505072E+03  0.50400001928E-02 0.  1.
    10030    2    1    2    0    0  0.00000000000E+00  0.00000000000E+00 -0.76983991572E+01  0.12138317023E+04  0.12138072895E+04 0.  0.
        1    1    3    3  502    0  0.59785303105E+03 -0.58912114589E+02  0.82368252440E+02  0.60636904028E+03  0.50400001928E-02 0.  1.
       -1    1    3    3    0  502 -0.59785303105E+03  0.58912114589E+02 -0.90066651598E+02  0.60746266201E+03  0.50400001928E-02 0. -1.
</event>
<event>
 5   0  0.9208078E-04  0.1195688E+04  0.7818609E-02  0.9116639E-01
        1   -1    0    0  501    0  0.00000000000E+00  0.00000000000E+00  0.83185971345E+03  0.83185971347E+03  0.50400001928E-02 0. -1.
       -1   -1    0    0    0  501  0.00000000000E+00  0.00000000000E+00 -0.42966079283E+03  0.42966079286E+03  0.50400001928E-02 0.  1.
    10030    2    1    2    0    0  0.00000000000E+00  0.00000000000E+00  0.40219892062E+03  0.12615205063E+04  0.11956880932E+04 0.  0.
        3    1    3    3  502    0  0.29729292208E+02  0.30116252551E+02  0.83027752645E+03  0.83135527941E+03  0.10100000352E+00 0. -1.
       -3    1    3    3    0  502 -0.29729292208E+02 -0.30116252551E+02 -0.42807860583E+03  0.43016522692E+03  0.10100000352E+00 0.  1.
</event>
<event>
 5   0  0.1647550E-03  0.1189621E+04  0.7818609E-02  0.9121990E-01
        2   -1    0    0  501    0  0.00000000000E+00  0.00000000000E+00  0.98491397156E+03  0.98491397156E+03  0.25500000920E-02 0. -1.
       -2   -1    0    0    0  501  0.00000000000E+00  0.00000000000E+00 -0.35921862567E+03  0.35921862568E+03  0.25500000920E-02 0.  1.
    10030    2    1    2    0    0  0.00000000000E+00  0.00000000000E+00  0.62569534589E+03  0.13441325972E+04  0.11896208527E+04 0.  0.
        3    1    3    3  502    0 -0.41894377854E+03  0.27800838296E+03 -0.46229278599E+02  0.50491554440E+03  0.10100000352E+00 0.  1.
       -3    1    3    3    0  502  0.41894377854E+03 -0.27800838296E+03  0.67192462449E+03  0.83921705284E+03  0.10100000352E+00 0. -1.
</event>
<event>
 5   0  0.1567019E-03  0.1200079E+04  0.7818609E-02  0.9112788E-01
        2   -1    0    0  501    0  0.00000000000E+00  0.00000000000E+00  0.94221675472E+03  0.94221675473E+03  0.25500000920E-02 0.  1.
       -2   -1    0    0    0  501  0.00000000000E+00  0.00000000000E+00 -0.38212772261E+03  0.38212772262E+03  0.25500000920E-02 0. -1.
    10030    2    1    2    0    0  0.00000000000E+00  0.00000000000E+00  0.56008903211E+03  0.13243444773E+04  0.12000785686E+04 0.  0.
        5    1    3    3  502    0  0.18627679119E+03  0.14587017819E+03  0.88854690769E+03  0.91951881383E+03  0.46999998093E+01 0.  1.
       -5    1    3    3    0  502 -0.18627679119E+03 -0.14587017819E+03 -0.32845787557E+03  0.40482566352E+03  0.46999998093E+01 0. -1.
</event>
<event>
 5   0  0.1567019E-03  0.1204740E+04  0.7818609E-02  0.9108717E-01
       -2   -1    0    0    0  501  0.00000000000E+00  0.00000000000E+00  0.18637821363E+03  0.18637821364E+03  0.25500000920E-02 0. -1.
        2   -1    0    0  501    0  0.00000000000E+00  0.00000000000E+00 -0.19468469758E+04  0.19468469758E+04  0.25500000920E-02 0.  1.
    10030    2    1    2    0    0  0.00000000000E+00  0.00000000000E+00 -0.17604687622E+04  0.21332251895E+04  0.12047404062E+04 0.  0.
        5    1    3    3  502    0  0.29717114470E+03  0.54043093818E+02 -0.18030294228E+04  0.18281598767E+04  0.46999998093E+01 0.  1.
       -5    1    3    3    0  502 -0.29717114470E+03 -0.54043093818E+02  0.42560660611E+02  0.30506531278E+03  0.46999998093E+01 0. -1.
</event>
<event>
 5   0  0.8908478E-04  0.1165238E+04  0.7818609E-02  0.9143840E-01
       -1   -1    0    0    0  501  0.00000000000E+00  0.00000000000E+00  0.83268655446E+03  0.83268655448E+03  0.50400001928E-02 0. -1.
        1   -1    0    0  501    0  0.00000000000E+00  0.00000000000E+00 -0.40765033400E+03  0.40765033403E+03  0.50400001928E-02 0.  1.
    10030    2    1    2    0    0  0.00000000000E+00  0.00000000000E+00  0.42503622046E+03  0.12403368885E+04  0.11652380908E+04 0.  0.
        4    1    3    3  502    0 -0.19028969729E+03 -0.26633582600E+03 -0.30051818954E+03  0.44436216788E+03  0.12699999809E+01 0.  1.
       -4    1    3    3    0  502  0.19028969729E+03  0.26633582600E+03  0.72555441000E+03  0.79597472063E+03  0.12699999809E+01 0. -1.
</event>
<event>
 5   0  0.9170776E-04  0.1160023E+04  0.7818609E-02  0.9148587E-01
       -1   -1    0    0    0  501  0.00000000000E+00  0.00000000000E+00  0.26837423902E+03  0.26837423907E+03  0.50400001928E-02 0.  1.
        1   -1    0    0  501    0  0.00000000000E+00  0.00000000000E+00 -0.12535228266E+04  0.12535228266E+04  0.50400001928E-02 0. -1.
    10030    2    1    2    0    0  0.00000000000E+00  0.00000000000E+00 -0.98514858762E+03  0.15218970657E+04  0.11600228183E+04 0.  0.
        5    1    3    3  502    0 -0.33921249163E+03  0.46653750801E+01  0.12460825695E+03  0.36143628470E+03  0.46999998093E+01 0.  1.
       -5    1    3    3    0  502  0.33921249163E+03 -0.46653750801E+01 -0.11097568446E+04  0.11604607810E+04  0.46999998093E+01 0. -1.
</event>
<event>
 5   0  0.9358428E-04  0.1195676E+04  0.7818609E-02  0.9116650E-01
       -1   -1    0    0    0  501  0.00000000000E+00  0.00000000000E+00  0.45334662540E+03  0.45334662542E+03  0.50400001928E-02 0.  1.
        1   -1    0    0  501    0  0.00000000000E+00  0.00000000000E+00 -0.78838216285E+03  0.78838216287E+03  0.50400001928E-02 0. -1.
    10030    2    1    2    0    0  0.00000000000E+00  0.00000000000E+00 -0.33503553746E+03  0.12417287883E+04  0.11956761988E+04 0.  0.
        2    1    3    3  502    0  0.27506080756E+03 -0.13196583573E+02 -0.71859487326E+03  0.76955259050E+03  0.25500000920E-02 0. -1.
       -2    1    3    3    0  502 -0.27506080756E+03  0.13196583573E+02  0.38355933580E+03  0.47217619779E+03  0.25500000920E-02 0.  1.
</event>
<event>
 5   0  0.9169078E-04  0.1198919E+04  0.7818609E-02  0.9113804E-01
       -1   -1    0    0    0  501  0.00000000000E+00  0.00000000000E+00  0.14494746385E+03  0.14494746394E+03  0.50400001928E-02 0. -1.
        1   -1    0    0  501    0  0.00000000000E+00  0.00000000000E+00 -0.24791839603E+04  0.24791839603E+04  0.50400001928E-02 0.  1.
    10030    2    1    2    0    0  0.00000000000E+00  0.00000000000E+00 -0.23342364965E+04  0.26241314243E+04  0.11989185587E+04 0.  0.
        1    1    3    3  502    0  0.10562536846E+03  0.35918790151E+03 -0.14242203239E+03  0.40057047119E+03  0.50400001928E-02 0. -1.
       -1    1    3    3    0  502 -0.10562536846E+03 -0.35918790151E+03 -0.21918144641E+04  0.22235609531E+04  0.50400001928E-02 0.  1.
</event>
<event>
 5   0  0.6137750E-04  0.1202753E+04  0.7818609E-02  0.9110450E-01
        3   -1    0    0  501    0  0.00000000000E+00  0.00000000000E+00  0.49724484350E+03  0.49724485376E+03  0.10100000352E+00 0.  1.
       -3   -1    0    0    0  501  0.00000000000E+00  0.00000000000E+00 -0.72731508782E+03  0.72731509483E+03  0.10100000352E+00 0. -1.
    10030    2    1    2    0    0  0.00000000000E+00  0.00000000000E+00 -0.23007024432E+03  0.12245599486E+04  0.12027529881E+04 0.  0.
        5    1    3    3  502    0  0.49457199528E+03  0.13502121880E+03  0.20498757491E+03  0.55215413057E+03  0.46999998093E+01 0.  1.
       -5    1    3    3    0  502 -0.49457199528E+03 -0.13502121880E+03 -0.43505781923E+03  0.67240581802E+03  0.46999998093E+01 0. -1.
</event>
<event>
 5   0  0.8908478E-04  0.1203146E+04  0.7818609E-02  0.9110108E-01
        1   -1    0    0  501    0  0.00000000000E+00  0.00000000000E+00  0.12980441486E+04  0.12980441486E+04  0.50400001928E-02 0. -1.
       -1   -1    0    0    0  501  0.00000000000E+00  0.00000000000E+00 -0.27879623470E+03  0.27879623475E+03  0.50400001928E-02 0.  1.
    10030    2    1    2    0    0  0.00000000000E+00  0.00000000000E+00  0.10192479139E+04  0.15768403833E+04  0.12031455791E+04 0.  0.
        4    1    3    3  502    0 -0.11864643212E+03 -0.39944371958E+03  0.10782724685E+04  0.11559867604E+04  0.12699999809E+01 0. -1.
       -4    1    3    3    0  502  0.11864643212E+03  0.39944371958E+03 -0.59024554656E+02  0.42085362292E+03  0.12699999809E+01 0.  1.
</event>
<event>
 5   0  0.1647550E-03  0.1191936E+04  0.7818609E-02  0.9119944E-01
       -2   -1    0    0    0  501  0.00000000000E+00  0.00000000000E+00  0.27593562936E+03  0.27593562937E+03  0.25500000920E-02 0. -1.
        2   -1    0    0  501    0  0.00000000000E+00  0.00000000000E+00 -0.12871769314E+04  0.12871769314E+04  0.25500000920E-02 0.  1.
    10030    2    1    2    0    0  0.00000000000E+00  0.00000000000E+00 -0.10112413021E+04  0.15631125608E+04  0.11919362008E+04 0.  0.
        3    1    3    3  502    0  0.31777592037E+03  0.31782654895E+03 -0.10188862122E+04  0.11136087169E+04  0.10100000352E+00 0.  1.
       -3    1    3    3    0  502 -0.31777592037E+03 -0.31782654895E+03  0.76449101582E+01  0.44950384385E+03  0.10100000352E+00 0. -1.
</event>
<event>
 5   0  0.1567019E-03  0.1210055E+04  0.7818609E-02  0.9104100E-01
        2   -1    0    0  501    0  0.00000000000E+00  0.00000000000E+00  0.92717539032E+03  0.92717539032E+03  0.25500000920E-02 0.  1.
       -2   -1    0    0    0  501  0.00000000000E+00  0.00000000000E+00 -0.39481044166E+03  0.39481044167E+03  0.25500000920E-02 0. -1.
    10030    2    1    2    0    0  0.00000000000E+00  0.00000000000E+00  0.53236494866E+03  0.13219858320E+04  0.12100554125E+04 0.  0.
        5    1    3    3  502    0 -0.44101981425E+02  0.20945135805E+02  0.92499975382E+03  0.92629925944E+03  0.46999998093E+01 0.  1.
       -5    1    3    3    0  502  0.44101981425E+02 -0.20945135805E+02 -0.39263480516E+03  0.39568657255E+03  0.46999998093E+01 0. -1.
</event>
<event>
 5   0  0.1567019E-03  0.1193550E+04  0.7818609E-02  0.9118521E-01
        2   -1    0    0  501    0  0.00000000000E+00  0.00000000000E+00  0.98828533217E+03  0.98828533217E+03  0.25500000920E-02 0.  1.
       -2   -1    0    0    0  501  0.00000000000E+00  0.00000000000E+00 -0.36036196415E+03  0.36036196415E+03  0.25500000920E-02 0. -1.
    10030    2    1    2    0    0  0.00000000000E+00  0.00000000000E+00  0.62792336802E+03  0.13486472963E+04  0.11935500717E+04 0.  0.
        5    1    3    3  502    0  0.21396437774E+03 -0.21877580457E+03 -0.26493559037E+03  0.40479200171E+03  0.46999998093E+01 0. -1.
       -5    1    3    3    0  502 -0.21396437774E+03  0.21877580457E+03  0.89285895839E+03  0.94385529462E+03  0.46999998093E+01 0.  1.
</event>
<event>
 5   0  0.9169078E-04  0.1225876E+04  0.7818609E-02  0.9090504E-01
        1   -1    0    0  501    0  0.00000000000E+00  0.00000000000E+00  0.89683198962E+03  0.89683198964E+03  0.50400001928E-02 0. -1.
       -1   -1    0    0    0  501  0.00000000000E+00  0.00000000000E+00 -0.41891140444E+03  0.41891140447E+03  0.50400001928E-02 0.  1.
    10030    2    1    2    0    0  0.00000000000E+00  0.00000000000E+00  0.47792058518E+03  0.13157433941E+04  0.12258762553E+04 0.  0.
        1    1    3    3  502    0  0.45390596109E+03 -0.14807366866E+03 -0.17358229179E+03  0.50802287834E+03  0.50400001928E-02 0.  1.
       -1    1    3    3    0  502 -0.45390596109E+03  0.14807366866E+03  0.65150287697E+03  0.80772051577E+03  0.50400001928E-02 0. -1.
</event>
<event>
 5   0  0.1597352E-03  0.1192545E+04  0.7818609E-02  0.9119407E-01
       -2   -1    0    0    0  501  0.00000000000E+00  0.00000000000E+00  0.45376819766E+03  0.45376819767E+03  0.25500000920E-02 0. -1.
        2   -1    0    0  501    0  0.00000000000E+00  0.00000000000E+00 -0.78352995287E+03  0.78352995288E+03  0.25500000920E-02 0.  1.
    10030    2    1    2    0    0  0.00000000000E+00  0.00000000000E+00 -0.32976175521E+03  0.12372981505E+04  0.11925451346E+04 0.  0.
        1    1    3    3  502    0 -0.15400253407E+02  0.59173202394E+03 -0.90373567308E+02  0.59879156445E+03  0.50400001928E-02 0. -1.
       -1    1    3    3    0  502  0.15400253407E+02 -0.59173202394E+03 -0.23938818790E+03  0.63850658610E+03  0.50400001928E-02 0.  1.
</event>
<event>
 5   0  0.1597352E-03  0.1203106E+04  0.7818609E-02  0.9110143E-01
        2   -1    0    0  501    0  0.00000000000E+00  0.00000000000E+00  0.14087957688E+04  0.14087957688E+04  0.25500000920E-02 0. -1.
       -2   -1    0    0    0  501  0.00000000000E+00  0.00000000000E+00 -0.25686178954E+03  0.25686178955E+03  0.25500000920E-02 0.  1.
    10030    2    1    2    0    0  0.00000000000E+00  0.00000000000E+00  0.11519339793E+04  0.16656575584E+04  0.12031056517E+04 0.  0.
        1    1    3    3  502    0  0.13368925987E+02  0.35382920607E+02  0.14071477948E+04  0.14076560644E+04  0.50400001928E-02 0. -1.
       -1    1    3    3    0  502 -0.13368925987E+02 -0.35382920607E+02 -0.25521381550E+03  0.25800149399E+03  0.50400001928E-02 0.  1.
</event>
<event>
 5   0  0.9169078E-04  0.1218302E+04  0.7818609E-02  0.9096986E-01
        1   -1    0    0  501    0  0.00000000000E+00  0.00000000000E+00  0.24407778746E+04  0.24407778746E+04  0.50400001928E-02 0. -1.
       -1   -1    0    0    0  501  0.00000000000E+00  0.00000000000E+00 -0.15202733490E+03  0.15202733498E+03  0.50400001928E-02 0.  1.
    10030    2    1    2    0    0  0.00000000000E+00  0.00000000000E+00  0.22887505397E+04  0.25928052096E+04  0.12183020241E+04 0.  0.
        1    1    3    3  502    0 -0.53252447685E+03  0.26992306104E+03  0.14017409653E+04  0.15235873822E+04  0.50400001928E-02 0. -1.
       -1    1    3    3    0  502  0.53252447685E+03 -0.26992306104E+03  0.88700957440E+03  0.10692178274E+04  0.50400001928E-02 0.  1.
</event>
<event>
 5   0  0.1551501E-03  0.1184902E+04  0.7818609E-02  0.9126175E-01
       -2   -1    0    0    0  501  0.00000000000E+00  0.00000000000E+00  0.18655588886E+04  0.18655588886E+04  0.25500000920E-02 0. -1.
        2   -1    0    0  501    0  0.00000000000E+00  0.00000000000E+00 -0.18814640794E+03  0.18814640796E+03  0.25500000920E-02 0.  1.
    10030    2    1    2    0    0  0.00000000000E+00  0.00000000000E+00  0.16774124807E+04  0.20537052966E+04  0.11849020275E+04 0.  0.
        4    1    3    3  502    0  0.27657522617E+03 -0.23293118764E+03  0.25296263019E+02  0.36248076877E+03  0.12699999809E+01 0.  1.
       -4    1    3    3    0  502 -0.27657522617E+03  0.23293118764E+03  0.16521162177E+04  0.16912245278E+04  0.12699999809E+01 0. -1.
</event>
<event>
 5   0  0.9358428E-04  0.1194876E+04  0.7818609E-02  0.9117354E-01
       -1   -1    0    0    0  501  0.00000000000E+00  0.00000000000E+00  0.20234161707E+03  0.20234161713E+03  0.50400001928E-02 0. -1.
        1   -1    0    0  501    0  0.00000000000E+00  0.00000000000E+00 -0.17640071380E+04  0.17640071380E+04  0.50400001928E-02 0.  1.
    10030    2    1    2    0    0  0.00000000000E+00  0.00000000000E+00 -0.15616655209E+04  0.19663487551E+04  0.11948758210E+04 0.  0.
        2    1    3    3  502    0  0.30342822688E+03 -0.12719200019E+03 -0.16014923743E+04  0.16349386285E+04  0.25500000920E-02 0.  1.
       -2    1    3    3    0  502 -0.30342822688E+03  0.12719200019E+03  0.39826853429E+02  0.33141012665E+03  0.25500000920E-02 0. -1.
</event>
<event>
 5   0  0.1537557E-03  0.1204097E+04  0.7818609E-02  0.9109278E-01
        2   -1    0    0  501    0  0.00000000000E+00  0.00000000000E+00  0.15399750222E+04  0.15399750222E+04  0.25500000920E-02 0.  1.
       -2   -1    0    0    0  501  0.00000000000E+00  0.00000000000E+00 -0.23536909037E+03  0.23536909038E+03  0.25500000920E-02 0. -1.
    10030    2    1    2    0    0  0.00000000000E+00  0.00000000000E+00  0.13046059318E+04  0.17753441126E+04  0.12040972057E+04 0.  0.
        2    1    3    3  502    0  0.10452027136E+03 -0.33200935191E+03  0.13765833059E+04  0.14199071431E+04  0.25500000920E-02 0.  1.
       -2    1    3    3    0  502 -0.10452027136E+03  0.33200935191E+03 -0.71977374096E+02  0.35543696947E+03  0.25500000920E-02 0. -1.
</event>
<event>
 5   0  0.9169078E-04  0.1203738E+04  0.7818609E-02  0.9109591E-01
       -1   -1    0    0    0  501  0.00000000000E+00  0.00000000000E+00  0.36396374262E+03  0.36396374266E+03  0.50400001928E-02 0. -1.
        1   -1    0    0  501    0  0.00000000000E+00  0.00000000000E+00 -0.99528102720E+03  0.99528102721E+03  0.50400001928E-02 0.  1.
    10030    2    1    2    0    0  0.00000000000E+00  0.00000000000E+00 -0.63131728457E+03  0.13592447699E+04  0.12037378579E+04 0.  0.
        1    1    3    3  502    0  0.26162609282E+03  0.51962318703E+03 -0.14149376147E+03  0.59872944934E+03  0.50400001928E-02 0. -1.
       -1    1    3    3    0  502 -0.26162609282E+03 -0.51962318703E+03 -0.48982352311E+03  0.76051532053E+03  0.50400001928E-02 0.  1.
</event>
<event>
 5   0  0.1537557E-03  0.1200503E+04  0.7818609E-02  0.9112416E-01
        2   -1    0    0  501    0  0.00000000000E+00  0.00000000000E+00  0.22019792269E+04  0.22019792269E+04  0.25500000920E-02 0. -1.
       -2   -1    0    0    0  501  0.00000000000E+00  0.00000000000E+00 -0.16362639598E+03  0.16362639600E+03  0.25500000920E-02 0.  1.
    10030    2    1    2    0    0  0.00000000000E+00  0.00000000000E+00  0.20383528310E+04  0.23656056229E+04  0.12005031028E+04 0.  0.
        2    1    3    3  502    0  0.39000171675E+03 -0.36127098249E+03  0.15683940382E+04  0.16560428500E+04  0.25500000920E-02 0. -1.
       -2    1    3    3    0  502 -0.39000171675E+03  0.36127098249E+03  0.46995879271E+03  0.70956277292E+03  0.25500000920E-02 0.  1.
</event>
<event>
 5   0  0.1567019E-03  0.1202420E+04  0.7818609E-02  0.9110741E-01
        2   -1    0    0  501    0  0.00000000000E+00  0.00000000000E+00  0.85935329496E+03  0.85935329497E+03  0.25500000920E-02 0.  1.
       -2   -1    0    0    0  501  0.00000000000E+00  0.00000000000E+00 -0.42061071728E+03  0.42061071729E+03  0.25500000920E-02 0. -1.
    10030    2    1    2    0    0  0.00000000000E+00  0.00000000000E+00  0.43874257768E+03  0.12799640123E+04  0.12024195704E+04 0.  0.
        5    1    3    3  502    0  0.26485055973E+03  0.58382404901E+02 -0.35177196298E+03  0.44420707798E+03  0.46999998093E+01 0. -1.
       -5    1    3    3    0  502 -0.26485055973E+03 -0.58382404901E+02  0.79051454066E+03  0.83575693427E+03  0.46999998093E+01 0.  1.
</event>
<event>
 5   0  0.1567019E-03  0.1203345E+04  0.7818609E-02  0.9109933E-01
        2   -1    0    0  501    0  0.00000000000E+00  0.00000000000E+00  0.15892548902E+04  0.15892548902E+04  0.25500000920E-02 0.  1.
       -2   -1    0    0    0  501  0.00000000000E+00  0.00000000000E+00 -0.22778603661E+03  0.22778603663E+03  0.25500000920E-02 0. -1.
    10030    2    1    2    0    0  0.00000000000E+00  0.00000000000E+00  0.13614688535E+04  0.18170409268E+04  0.12033454577E+04 0.  0.
        5    1    3    3  502    0  0.43442910961E+03  0.11234322837E+03  0.75534346097E+02  0.45505733669E+03  0.46999998093E+01 0. -1.
       -5    1    3    3    0  502 -0.43442910961E+03 -0.11234322837E+03  0.12859345074E+04  0.13619835901E+04  0.46999998093E+01 0.  1.
</event>
<event>
 5   0  0.1567019E-03  0.1199591E+04  0.7818609E-02  0.9113214E-01
        2   -1    0    0  501    0  0.00000000000E+00  0.00000000000E+00  0.81146889812E+03  0.81146889812E+03  0.25500000920E-02 0.  1.
       -2   -1    0    0    0  501  0.00000000000E+00  0.00000000000E+00 -0.44333765060E+03  0.44333765061E+03  0.25500000920E-02 0. -1.
    10030    2    1    2    0    0  0.00000000000E+00  0.00000000000E+00  0.36813124752E+03  0.12548065487E+04  0.11995911217E+04 0.  0.
        5    1    3    3  502    0 -0.30221340004E+03  0.65100938861E+02  0.72168924110E+03  0.78512962122E+03  0.46999998093E+01 0.  1.
       -5    1    3    3    0  502  0.30221340004E+03 -0.65100938861E+02 -0.35355799358E+03  0.46967692750E+03  0.46999998093E+01 0. -1.
</event>
<event>
 5   0  0.9169078E-04  0.1148462E+04  0.7818609E-02  0.9159203E-01
        1   -1    0    0  501    0  0.00000000000E+00  0.00000000000E+00  0.14930317012E+04  0.14930317012E+04  0.50400001928E-02 0. -1.
       -1   -1    0    0    0  501  0.00000000000E+00  0.00000000000E+00 -0.22085355920E+03  0.22085355926E+03  0.50400001928E-02 0.  1.
    10030    2    1    2    0    0  0.00000000000E+00  0.00000000000E+00  0.12721781420E+04  0.17138852605E+04  0.11484622158E+04 0.  0.
        1    1    3    3  502    0  0.43272762978E+03 -0.37330356134E+03  0.71961446386E+03  0.91894163422E+03  0.50400001928E-02 0.  1.
       -1    1    3    3    0  502 -0.43272762978E+03  0.37330356134E+03  0.55256367814E+03  0.79494362625E+03  0.50400001928E-02 0. -1.
</event>
<event>
 5   0  0.9169078E-04  0.1201197E+04  0.7818609E-02  0.9111810E-01
        1   -1    0    0  501    0  0.00000000000E+00  0.00000000000E+00  0.11956781749E+04  0.11956781749E+04  0.50400001928E-02 0.  1.
       -1   -1    0    0    0  501  0.00000000000E+00  0.00000000000E+00 -0.30168528762E+03  0.30168528766E+03  0.50400001928E-02 0. -1.
    10030    2    1    2    0    0  0.00000000000E+00  0.00000000000E+00  0.89399288726E+03  0.14973634625E+04  0.12011969266E+04 0.  0.
        1    1    3    3  502    0 -0.36764519932E+03 -0.17761182514E+03  0.99606248697E+03  0.10764986907E+04  0.50400001928E-02 0.  1.
       -1    1    3    3    0  502  0.36764519932E+03  0.17761182514E+03 -0.10206959971E+03  0.42086477189E+03  0.50400001928E-02 0. -1.
</event>
<event>
 5   0  0.9208078E-04  0.1205108E+04  0.7818609E-02  0.9108397E-01
        1   -1    0    0  501    0  0.00000000000E+00  0.00000000000E+00  0.16996443906E+04  0.16996443906E+04  0.50400001928E-02 0. -1.
       -1   -1    0    0    0  501  0.00000000000E+00  0.00000000000E+00 -0.21361616186E+03  0.21361616192E+03  0.50400001928E-02 0.  1.
    10030    2    1    2    0    0  0.00000000000E+00  0.00000000000E+00  0.14860282287E+04  0.19132605525E+04  0.12051083126E+04 0.  0.
        3    1    3    3  502    0  0.39867845944E+03 -0.31394030201E+03  0.12588542819E+04  0.13572829994E+04  0.10100000352E+00 0. -1.
       -3    1    3    3    0  502 -0.39867845944E+03  0.31394030201E+03  0.22717394687E+03  0.55597755313E+03  0.10100000352E+00 0.  1.
</event>
<event>
 5   0  0.1597352E-03  0.1232714E+04  0.7818609E-02  0.9084694E-01
        2   -1    0    0  501    0  0.00000000000E+00  0.00000000000E+00  0.32955514919E+03  0.32955514919E+03  0.25500000920E-02 0.  1.
       -2   -1    0    0    0  501  0.00000000000E+00  0.00000000000E+00 -0.11527536155E+04  0.11527536155E+04  0.25500000920E-02 0. -1.
    10030    2    1    2    0    0  0.00000000000E+00  0.00000000000E+00 -0.82319846629E+03  0.14823087647E+04  0.12327138999E+04 0.  0.
        1    1    3    3  502    0 -0.16018585436E+03  0.38658500666E+03 -0.95576231624E+03  0.10433547242E+04  0.50400001928E-02 0. -1.
       -1    1    3    3    0  502  0.16018585436E+03 -0.38658500666E+03  0.13256384996E+03  0.43895404048E+03  0.50400001928E-02 0.  1.
</event>
<event>
 5   0  0.9170776E-04  0.1200969E+04  0.7818609E-02  0.9112009E-01
       -1   -1    0    0    0  501  0.00000000000E+00  0.00000000000E+00  0.28539452438E+03  0.28539452442E+03  0.50400001928E-02 0.  1.
        1   -1    0    0  501    0  0.00000000000E+00  0.00000000000E+00 -0.12634490932E+04  0.12634490932E+04  0.50400001928E-02 0. -1.
    10030    2    1    2    0    0  0.00000000000E+00  0.00000000000E+00 -0.97805456884E+03  0.15488436177E+04  0.12009686975E+04 0.  0.
        5    1    3    3  502    0 -0.43925209381E+03  0.37417982754E+03 -0.27474764298E+03  0.63910977349E+03  0.46999998093E+01 0.  1.
       -5    1    3    3    0  502  0.43925209381E+03 -0.37417982754E+03 -0.70330692585E+03  0.90973384416E+03  0.46999998093E+01 0. -1.
</event>
<event>
 5   0  0.1597352E-03  0.1218654E+04  0.7818609E-02  0.9096684E-01
        2   -1    0    0  501    0  0.00000000000E+00  0.00000000000E+00  0.21547764217E+04  0.21547764217E+04  0.25500000920E-02 0. -1.
       -2   -1    0    0    0  501  0.00000000000E+00  0.00000000000E+00 -0.17230526885E+03  0.17230526887E+03  0.25500000920E-02 0.  1.
    10030    2    1    2    0    0  0.00000000000E+00  0.00000000000E+00  0.19824711529E+04  0.23270816906E+04  0.12186538978E+04 0.  0.
        1    1    3    3  502    0 -0.29420311068E+03 -0.53351531933E+03  0.10088681228E+04  0.11785622408E+04  0.50400001928E-02 0.  1.
       -1    1    3    3    0  502  0.29420311068E+03  0.53351531933E+03  0.97360303011E+03  0.11485194498E+04  0.50400001928E-02 0. -1.
</event>
<event>
 5   0  0.1647550E-03  0.1195980E+04  0.7818609E-02  0.9116383E-01
       -2   -1    0    0    0  501  0.00000000000E+00  0.00000000000E+00  0.53467447705E+03  0.53467447706E+03  0.25500000920E-02 0.  1.
        2   -1    0    0  501    0  0.00000000000E+00  0.00000000000E+00 -0.66880288847E+03  0.66880288848E+03  0.25500000920E-02 0. -1.
    10030    2    1    2    0    0  0.00000000000E+00  0.00000000000E+00 -0.13412841142E+03  0.12034773655E+04  0.11959796564E+04 0.  0.
        3    1    3    3  502    0  0.55514922926E+03  0.12360230960E+02  0.15624679587E+03  0.57685051224E+03  0.10100000352E+00 0.  1.
       -3    1    3    3    0  502 -0.55514922926E+03 -0.12360230960E+02 -0.29037520729E+03  0.62662685329E+03  0.10100000352E+00 0. -1.
</event>
<event>
 5   0  0.1537557E-03  0.1260699E+04  0.7818609E-02  0.9061325E-01
       -2   -1    0    0    0  501  0.00000000000E+00  0.00000000000E+00  0.68114570439E+03  0.68114570439E+03  0.25500000920E-02 0. -1.
        2   -1    0    0  501    0  0.00000000000E+00  0.00000000000E+00 -0.58334179781E+03  0.58334179781E+03  0.25500000920E-02 0.  1.
    10030    2    1    2    0    0  0.00000000000E+00  0.00000000000E+00  0.97803906579E+02  0.12644875022E+04  0.12606994246E+04 0.  0.
        2    1    3    3  502    0  0.18348923139E+03 -0.59981446870E+03 -0.13696028912E+02  0.62740200518E+03  0.25500000920E-02 0.  1.
       -2    1    3    3    0  502 -0.18348923139E+03  0.59981446870E+03  0.11149993549E+03  0.63708549702E+03  0.25500000920E-02 0. -1.
</event>
<event>
 5   0  0.9358428E-04  0.1205733E+04  0.7818609E-02  0.9107853E-01
       -1   -1    0    0    0  501  0.00000000000E+00  0.00000000000E+00  0.25471221207E+03  0.25471221212E+03  0.50400001928E-02 0.  1.
        1   -1    0    0  501    0  0.00000000000E+00  0.00000000000E+00 -0.14268968603E+04  0.14268968603E+04  0.50400001928E-02 0. -1.
    10030    2    1    2    0    0  0.00000000000E+00  0.00000000000E+00 -0.11721846482E+04  0.16816090724E+04  0.12057330645E+04 0.  0.
        2    1    3    3  502    0  0.30523876074E+03 -0.14322265143E+03  0.11091820167E+03  0.35494545555E+03  0.25500000920E-02 0.  1.
       -2    1    3    3    0  502 -0.30523876074E+03  0.14322265143E+03 -0.12831028498E+04  0.13266636168E+04  0.25500000920E-02 0. -1.
</event>
<event>
 5   0  0.1567019E-03  0.1203812E+04  0.7818609E-02  0.9109526E-01
        2   -1    0    0  501    0  0.00000000000E+00  0.00000000000E+00  0.81079859551E+03  0.81079859552E+03  0.25500000920E-02 0. -1.
       -2   -1    0    0    0  501  0.00000000000E+00  0.00000000000E+00 -0.44683218118E+03  0.44683218119E+03  0.25500000920E-02 0.  1.
    10030    2    1    2    0    0  0.00000000000E+00  0.00000000000E+00  0.36396641433E+03  0.12576307767E+04  0.12038121198E+04 0.  0.
        5    1    3    3  502    0  0.58572859077E+03 -0.13828885168E+03  0.19053618578E+03  0.63129067523E+03  0.46999998093E+01 0. -1.
       -5    1    3    3    0  502 -0.58572859077E+03  0.13828885168E+03  0.17343022856E+03  0.62634010148E+03  0.46999998093E+01 0.  1.
</event>
<event>
 5   0  0.6137750E-04  0.1189505E+04  0.7818609E-02  0.9122092E-01
        3   -1    0    0  501    0  0.00000000000E+00  0.00000000000E+00  0.93154762501E+03  0.93154763049E+03  0.10100000352E+00 0.  1.
       -3   -1    0    0    0  501  0.00000000000E+00  0.00000000000E+00 -0.37972372775E+03  0.37972374119E+03  0.10100000352E+00 0. -1.
    10030    2    1    2    0    0  0.00000000000E+00  0.00000000000E+00  0.55182389726E+03  0.13112713717E+04  0.11895053579E+04 0.  0.
        2    1    3    3  502    0  0.44343934987E+03  0.97567482723E+02 -0.14756468414E+03  0.47742350875E+03  0.25500000920E-02 0. -1.
       -2    1    3    3    0  502 -0.44343934987E+03 -0.97567482723E+02  0.69938858140E+03  0.83384786292E+03  0.25500000920E-02 0.  1.
</event>
<event>
 5   0  0.1567019E-03  0.1198486E+04  0.7818609E-02  0.9114183E-01
        2   -1    0    0  501    0  0.00000000000E+00  0.00000000000E+00  0.96875298374E+03  0.96875298375E+03  0.25500000920E-02 0.  1.
       -2   -1    0    0    0  501  0.00000000000E+00  0.00000000000E+00 -0.37067470716E+03  0.37067470717E+03  0.25500000920E-02 0. -1.
    10030    2    1    2    0    0  0.00000000000E+00  0.00000000000E+00  0.59807827658E+03  0.13394276909E+04  0.11984860927E+04 0.  0.
        5    1    3    3  502    0  0.50513623581E+03  0.30558688670E+03  0.18438748118E+03  0.61851984226E+03  0.46999998093E+01 0.  1.
       -5    1    3    3    0  502 -0.50513623581E+03 -0.30558688670E+03  0.41369079540E+03  0.72090784866E+03  0.46999998093E+01 0. -1.
</event>
<event>
 5   0  0.1597352E-03  0.1196614E+04  0.7818609E-02  0.9115825E-01
       -2   -1    0    0    0  501  0.00000000000E+00  0.00000000000E+00  0.25519615507E+03  0.25519615509E+03  0.25500000920E-02 0.  1.
        2   -1    0    0  501    0  0.00000000000E+00  0.00000000000E+00 -0.14027304524E+04  0.14027304524E+04  0.25500000920E-02 0. -1.
    10030    2    1    2    0    0  0.00000000000E+00  0.00000000000E+00 -0.11475342973E+04  0.16579266074E+04  0.11966142537E+04 0.  0.
        1    1    3    3  502    0 -0.14706398883E+03 -0.18035661844E+03  0.18992056051E+03  0.30037667346E+03  0.50400001928E-02 0.  1.
       -1    1    3    3    0  502  0.14706398883E+03  0.18035661844E+03 -0.13374548578E+04  0.13575499340E+04  0.50400001928E-02 0. -1.
</event>
<event>
 5   0  0.1551501E-03  0.1205022E+04  0.7818609E-02  0.9108472E-01
       -2   -1    0    0    0  501  0.00000000000E+00  0.00000000000E+00  0.38051784859E+03  0.38051784860E+03  0.25500000920E-02 0.  1.
        2   -1    0    0  501    0  0.00000000000E+00  0.00000000000E+00 -0.95401495220E+03  0.95401495220E+03  0.25500000920E-02 0. -1.
    10030    2    1    2    0    0  0.00000000000E+00  0.00000000000E+00 -0.57349710361E+03  0.13345328008E+04  0.12050223519E+04 0.  0.
        4    1    3    3  502    0  0.27693143431E+03 -0.47669975441E+03 -0.17551269235E+02  0.55158257325E+03  0.12699999809E+01 0. -1.
       -4    1    3    3    0  502 -0.27693143431E+03  0.47669975441E+03 -0.55594583437E+03  0.78295022755E+03  0.12699999809E+01 0.  1.
</event>
<event>
 5   0  0.9358428E-04  0.1192836E+04  0.7818609E-02  0.9119150E-01
        1   -1    0    0  501    0  0.00000000000E+00  0.00000000000E+00  0.50945614366E+03  0.50945614368E+03  0.50400001928E-02 0. -1.
       -1   -1    0    0    0  501  0.00000000000E+00  0.00000000000E+00 -0.69822378721E+03  0.69822378723E+03  0.50400001928E-02 0.  1.
    10030    2    1    2    0    0  0.00000000000E+00  0.00000000000E+00 -0.18876764355E+03  0.12076799309E+04  0.11928359452E+04 0.  0.
        2    1    3    3  502    0 -0.38048564981E+03  0.14914969811E+03  0.34541740096E+03  0.53509638669E+03  0.25500000920E-02 0. -1.
       -2    1    3    3    0  502  0.38048564981E+03 -0.14914969811E+03 -0.53418504452E+03  0.67258354422E+03  0.25500000920E-02 0.  1.
</event>
<event>
 5   0  0.9358428E-04  0.1203173E+04  0.7818609E-02  0.9110084E-01
        1   -1    0    0  501    0  0.00000000000E+00  0.00000000000E+00  0.11076991317E+04  0.11076991317E+04  0.50400001928E-02 0.  1.
       -1   -1    0    0    0  501  0.00000000000E+00  0.00000000000E+00 -0.32671893926E+03  0.32671893930E+03  0.50400001928E-02 0. -1.
    10030    2    1    2    0    0  0.00000000000E+00  0.00000000000E+00  0.78098019248E+03  0.14344180710E+04  0.12031729475E+04 0.  0.
        2    1    3    3  502    0  0.13901652733E+03 -0.57618678487E+03  0.51317326788E+03  0.78400485254E+03  0.25500000920E-02 0. -1.
       -2    1    3    3    0  502 -0.13901652733E+03  0.57618678487E+03  0.26780692460E+03  0.65041321851E+03  0.25500000920E-02 0.  1.
</event>
<event>
 5   0  0.1567019E-03  0.1207240E+04  0.7818609E-02  0.9106543E-01
        2   -1    0    0  501    0  0.00000000000E+00  0.00000000000E+00  0.41533330414E+03  0.41533330415E+03  0.25500000920E-02 0.  1.
       -2   -1    0    0    0  501  0.00000000000E+00  0.00000000000E+00 -0.87726374817E+03  0.87726374818E+03  0.25500000920E-02 0. -1.
    10030    2    1    2    0    0  0.00000000000E+00  0.00000000000E+00 -0.46193044403E+03  0.12925970523E+04  0.12072395804E+04 0.  0.
        5    1    3    3  502    0 -0.12130275521E+03 -0.55436749955E+03 -0.45116905759E+03  0.72499192513E+03  0.46999998093E+01 0.  1.
       -5    1    3    3    0  502  0.12130275521E+03  0.55436749955E+03 -0.10761386444E+02  0.56760512719E+03  0.46999998093E+01 0. -1.
</event>
<event>
 5   0  0.1647550E-03  0.1178866E+04  0.7818609E-02  0.9131559E-01
        2   -1    0    0  501    0  0.00000000000E+00  0.00000000000E+00  0.16873724327E+04  0.16873724327E+04  0.25500000920E-02 0.  1.
       -2   -1    0    0    0  501  0.00000000000E+00  0.00000000000E+00 -0.20590071755E+03  0.20590071756E+03  0.25500000920E-02 0. -1.
    10030    2    1    2    0    0  0.00000000000E+00  0.00000000000E+00  0.14814717151E+04  0.18932731503E+04  0.11788658867E+04 0.  0.
        3    1    3    3  502    0 -0.30326815553E+03  0.41840273507E+02  0.15496767946E+04  0.15796266523E+04  0.10100000352E+00 0.  1.
       -3    1    3    3    0  502  0.30326815553E+03 -0.41840273507E+02 -0.68205079437E+02  0.31364649800E+03  0.10100000352E+00 0. -1.
</event>
<event>
 5   0  0.9358428E-04  0.1187984E+04  0.7818609E-02  0.9123440E-01
       -1   -1    0    0    0  501  0.00000000000E+00  0.00000000000E+00  0.22989487712E+03  0.22989487718E+03  0.50400001928E-02 0.  1.
        1   -1    0    0  501    0  0.00000000000E+00  0.00000000000E+00 -0.15347298995E+04  0.15347298995E+04  0.50400001928E-02 0. -1.
    10030    2    1    2    0    0  0.00000000000E+00  0.00000000000E+00 -0.13048350224E+04  0.17646247767E+04  0.11879840769E+04 0.  0.
        2    1    3    3  502    0  0.49418542452E+03  0.60985919246E+02 -0.17135146178E+03  0.52659266954E+03  0.25500000920E-02 0.  1.
       -2    1    3    3    0  502 -0.49418542452E+03 -0.60985919246E+02 -0.11334835606E+04  0.12380321071E+04  0.25500000920E-02 0. -1.
</event>
<event>
 5   0  0.1537557E-03  0.1197996E+04  0.7818609E-02  0.9114612E-01
        2   -1    0    0  501    0  0.00000000000E+00  0.00000000000E+00  0.16332249642E+04  0.16332249642E+04  0.25500000920E-02 0.  1.
       -2   -1    0    0    0  501  0.00000000000E+00  0.00000000000E+00 -0.21968721877E+03  0.21968721879E+03  0.25500000920E-02 0. -1.
    10030    2    1    2    0    0  0.00000000000E+00  0.00000000000E+00  0.14135377454E+04  0.18529121830E+04  0.11979960768E+04 0.  0.
        2    1    3    3  502    0 -0.19818533352E+02  0.16049841762E+03 -0.18528417437E+03  0.24593239234E+03  0.25500000920E-02 0. -1.
       -2    1    3    3    0  502  0.19818533352E+02 -0.16049841762E+03  0.15988219198E+04  0.16069797906E+04  0.25500000920E-02 0.  1.
</event>
<event>
 5   0  0.9358428E-04  0.1193839E+04  0.7818609E-02  0.9118267E-01
       -1   -1    0    0    0  501  0.00000000000E+00  0.00000000000E+00  0.38715807010E+03  0.38715807014E+03  0.50400001928E-02 0.  1.
        1   -1    0    0  501    0  0.00000000000E+00  0.00000000000E+00 -0.92032858052E+03  0.92032858053E+03  0.50400001928E-02 0. -1.
    10030    2    1    2    0    0  0.00000000000E+00  0.00000000000E+00 -0.53317051041E+03  0.13074866507E+04  0.11938385772E+04 0.  0.
        2    1    3    3  502    0 -0.56497891951E+03  0.16581488719E+03 -0.15918414469E+03  0.60994700444E+03  0.25500000920E-02 0.  1.
       -2    1    3    3    0  502  0.56497891951E+03 -0.16581488719E+03 -0.37398636573E+03  0.69753964623E+03  0.25500000920E-02 0. -1.
</event>
<event>
 5   0  0.9208078E-04  0.1218577E+04  0.7818609E-02  0.9096749E-01
        1   -1    0    0  501    0  0.00000000000E+00  0.00000000000E+00  0.16241025265E+04  0.16241025265E+04  0.50400001928E-02 0. -1.
       -1   -1    0    0    0  501  0.00000000000E+00  0.00000000000E+00 -0.22857715616E+03  0.22857715622E+03  0.50400001928E-02 0.  1.
    10030    2    1    2    0    0  0.00000000000E+00  0.00000000000E+00  0.13955253704E+04  0.18526796827E+04  0.12185774278E+04 0.  0.
        3    1    3    3  502    0  0.56816659411E+03 -0.15288979739E+03  0.93836534612E+03  0.11075730684E+04  0.10100000352E+00 0. -1.
       -3    1    3    3    0  502 -0.56816659411E+03  0.15288979739E+03  0.45716002425E+03  0.74510661437E+03  0.10100000352E+00 0.  1.
</event>
<event>
 5   0  0.1597352E-03  0.1104475E+04  0.7818609E-02  0.9200841E-01
       -2   -1    0    0    0  501  0.00000000000E+00  0.00000000000E+00  0.12340058192E+03  0.12340058195E+03  0.25500000920E-02 0.  1.
        2   -1    0    0  501    0  0.00000000000E+00  0.00000000000E+00 -0.24713509023E+04  0.24713509023E+04  0.25500000920E-02 0. -1.
    10030    2    1    2    0    0  0.00000000000E+00  0.00000000000E+00 -0.23479503204E+04  0.25947514843E+04  0.11044747883E+04 0.  0.
        1    1    3    3  502    0  0.25708596391E+03 -0.59098547414E+02 -0.23137656422E+04  0.23287544478E+04  0.50400001928E-02 0. -1.
       -1    1    3    3    0  502 -0.25708596391E+03  0.59098547414E+02 -0.34184678174E+02  0.26599703644E+03  0.50400001928E-02 0.  1.
</event>
<event>
 5   0  0.9358428E-04  0.1200973E+04  0.7818609E-02  0.9112005E-01
        1   -1    0    0  501    0  0.00000000000E+00  0.00000000000E+00  0.32314006683E+03  0.32314006687E+03  0.50400001928E-02 0.  1.
       -1   -1    0    0    0  501  0.00000000000E+00  0.00000000000E+00 -0.11158752356E+04  0.11158752356E+04  0.50400001928E-02 0. -1.
    10030    2    1    2    0    0  0.00000000000E+00  0.00000000000E+00 -0.79273516876E+03  0.14390153025E+04  0.12009729360E+04 0.  0.
        2    1    3    3  502    0 -0.34580725939E+03 -0.47027863666E+03 -0.56513780497E+03  0.81248101231E+03  0.25500000920E-02 0. -1.
       -2    1    3    3    0  502  0.34580725939E+03  0.47027863666E+03 -0.22759736380E+03  0.62653429017E+03  0.25500000920E-02 0.  1.
</event>
<event>
 5   0  0.1597352E-03  0.1195321E+04  0.7818609E-02  0.9116962E-01
       -2   -1    0    0    0  501  0.00000000000E+00  0.00000000000E+00  0.17727278367E+03  0.17727278369E+03  0.25500000920E-02 0. -1.
        2   -1    0    0  501    0  0.00000000000E+00  0.00000000000E+00 -0.20149639084E+04  0.20149639084E+04  0.25500000920E-02 0.  1.
    10030    2    1    2    0    0  0.00000000000E+00  0.00000000000E+00 -0.18376911248E+04  0.21922366921E+04  0.11953213142E+04 0.  0.
        1    1    3    3  502    0 -0.33898980903E+03 -0.48955037410E+03 -0.10128037164E+04  0.11748808567E+04  0.50400001928E-02 0.  1.
       -1    1    3    3    0  502  0.33898980903E+03  0.48955037410E+03 -0.82488740837E+03  0.10173558355E+04  0.50400001928E-02 0. -1.
</event>
<event>
 5   0  0.1647550E-03  0.1204824E+04  0.7818609E-02  0.9108644E-01
       -2   -1    0    0    0  501  0.00000000000E+00  0.00000000000E+00  0.54869448158E+03  0.54869448159E+03  0.25500000920E-02 0.  1.
        2   -1    0    0  501    0  0.00000000000E+00  0.00000000000E+00 -0.66138879031E+03  0.66138879032E+03  0.25500000920E-02 0. -1.
    10030    2    1    2    0    0  0.00000000000E+00  0.00000000000E+00 -0.11269430873E+03  0.12100832719E+04  0.12048242684E+04 0.  0.
        3    1    3    3  502    0  0.24351126479E+03 -0.54260957263E+03  0.39870194926E+02  0.59608097356E+03  0.10100000352E+00 0.  1.
       -3    1    3    3    0  502 -0.24351126479E+03  0.54260957263E+03 -0.15256450366E+03  0.61400229834E+03  0.10100000352E+00 0. -1.
</event>
<event>
 5   0  0.9169078E-04  0.1168834E+04  0.7818609E-02  0.9140582E-01
       -1   -1    0    0    0  501  0.00000000000E+00  0.00000000000E+00  0.47910409812E+03  0.47910409815E+03  0.50400001928E-02 0. -1.
        1   -1    0    0  501    0  0.00000000000E+00  0.00000000000E+00 -0.71287935545E+03  0.71287935547E+03  0.50400001928E-02 0.  1.
    10030    2    1    2    0    0  0.00000000000E+00  0.00000000000E+00 -0.23377525732E+03  0.11919834536E+04  0.11688343265E+04 0.  0.
        1    1    3    3  502    0  0.86750212653E+02  0.19712775778E+03 -0.67093244166E+03  0.70465260489E+03  0.50400001928E-02 0.  1.
       -1    1    3    3    0  502 -0.86750212653E+02 -0.19712775778E+03  0.43715718434E+03  0.48733084873E+03  0.50400001928E-02 0. -1.
</event>
<event>
 5   0  0.9169078E-04  0.1200274E+04  0.7818609E-02  0.9112616E-01
       -1   -1    0    0    0  501  0.00000000000E+00  0.00000000000E+00  0.28356970382E+03  0.28356970386E+03  0.50400001928E-02 0.  1.
        1   -1    0    0  501    0  0.00000000000E+00  0.00000000000E+00 -0.12701098470E+04  0.12701098470E+04  0.50400001928E-02 0. -1.
    10030    2    1    2    0    0  0.00000000000E+00  0.00000000000E+00 -0.98654014321E+03  0.15536795509E+04  0.12002744239E+04 0.  0.
        1    1    3    3  502    0 -0.51393409217E+02 -0.43342065312E+03 -0.10264617167E+04  0.11154005563E+04  0.50400001928E-02 0. -1.
       -1    1    3    3    0  502  0.51393409217E+02  0.43342065312E+03  0.39921573513E+02  0.43827899461E+03  0.50400001928E-02 0.  1.
</event>
<event>
 5   0  0.1597352E-03  0.1320969E+04  0.7818609E-02  0.9013100E-01
        2   -1    0    0  501    0  0.00000000000E+00  0.00000000000E+00  0.59938548851E+03  0.59938548851E+03  0.25500000920E-02 0.  1.
       -2   -1    0    0    0  501  0.00000000000E+00  0.00000000000E+00 -0.72781164089E+03  0.72781164090E+03  0.25500000920E-02 0. -1.
    10030    2    1    2    0    0  0.00000000000E+00  0.00000000000E+00 -0.12842615238E+03  0.13271971294E+04  0.13209689412E+04 0.  0.
        1    1    3    3  502    0  0.12696344703E+03  0.15862750856E+03 -0.69563247105E+03  0.72469782541E+03  0.50400001928E-02 0. -1.
       -1    1    3    3    0  502 -0.12696344703E+03 -0.15862750856E+03  0.56720631867E+03  0.60249930400E+03  0.50400001928E-02 0.  1.
</event>
<event>
 5   0  0.9358428E-04  0.1203319E+04  0.7818609E-02  0.9109956E-01
       -1   -1    0    0    0  501  0.00000000000E+00  0.00000000000E+00  0.23703961307E+03  0.23703961312E+03  0.50400001928E-02 0.  1.
        1   -1    0    0  501    0  0.00000000000E+00  0.00000000000E+00 -0.15271473819E+04  0.15271473819E+04  0.50400001928E-02 0. -1.
    10030    2    1    2    0    0  0.00000000000E+00  0.00000000000E+00 -0.12901077688E+04  0.17641869950E+04  0.12033194498E+04 0.  0.
        2    1    3    3  502    0 -0.53169139602E+03  0.20708265565E+03 -0.36528039071E+03  0.67750183078E+03  0.25500000920E-02 0.  1.
       -2    1    3    3    0  502  0.53169139602E+03 -0.20708265565E+03 -0.92482737809E+03  0.10866851642E+04  0.25500000920E-02 0. -1.
</event>
<event>
 5   0  0.9169078E-04  0.1208540E+04  0.7818609E-02  0.9105414E-01
       -1   -1    0    0    0  501  0.00000000000E+00  0.00000000000E+00  0.23584468722E+03  0.23584468728E+03  0.50400001928E-02 0. -1.
        1   -1    0    0  501    0  0.00000000000E+00  0.00000000000E+00 -0.15482318360E+04  0.15482318360E+04  0.50400001928E-02 0.  1.
    10030    2    1    2    0    0  0.00000000000E+00  0.00000000000E+00 -0.13123871488E+04  0.17840765233E+04  0.12085400335E+04 0.  0.
        1    1    3    3  502    0  0.10615079825E+03  0.57815447995E+03 -0.44946067378E+03  0.73996316932E+03  0.50400001928E-02 0. -1.
       -1    1    3    3    0  502 -0.10615079825E+03 -0.57815447995E+03 -0.86292647499E+03  0.10441133540E+04  0.50400001928E-02 0.  1.
</event>
<event>
 5   0  0.1647550E-03  0.1195266E+04  0.7818609E-02  0.9117010E-01
       -2   -1    0    0    0  501  0.00000000000E+00  0.00000000000E+00  0.20805521825E+03  0.20805521826E+03  0.25500000920E-02 0. -1.
        2   -1    0    0  501    0  0.00000000000E+00  0.00000000000E+00 -0.17166858663E+04  0.17166858663E+04  0.25500000920E-02 0.  1.
    10030    2    1    2    0    0  0.00000000000E+00  0.00000000000E+00 -0.15086306480E+04  0.19247410846E+04  0.11952664182E+04 0.  0.
        3    1    3    3  502    0  0.53851823681E+03 -0.29775774186E+02 -0.11688767314E+04  0.12873077765E+04  0.10100000352E+00 0.  1.
       -3    1    3    3    0  502 -0.53851823681E+03  0.29775774186E+02 -0.33975391665E+03  0.63743330803E+03  0.10100000352E+00 0. -1.
</event>
<event>
 5   0  0.8908478E-04  0.1188797E+04  0.7818609E-02  0.9122719E-01
       -1   -1    0    0    0  501  0.00000000000E+00  0.00000000000E+00  0.21091269014E+03  0.21091269020E+03  0.50400001928E-02 0.  1.
        1   -1    0    0  501    0  0.00000000000E+00  0.00000000000E+00 -0.16751471502E+04  0.16751471502E+04  0.50400001928E-02 0. -1.
    10030    2    1    2    0    0  0.00000000000E+00  0.00000000000E+00 -0.14642344601E+04  0.18860598404E+04  0.11887973619E+04 0.  0.
        4    1    3    3  502    0  0.56170781350E+03 -0.16153179970E+03 -0.56050811150E+03  0.80980191777E+03  0.12699999809E+01 0. -1.
       -4    1    3    3    0  502 -0.56170781350E+03  0.16153179970E+03 -0.90372634857E+03  0.10762579227E+04  0.12699999809E+01 0.  1.
</event>
<event>
 5   0  0.8908478E-04  0.1195552E+04  0.7818609E-02  0.9116759E-01
       -1   -1    0    0    0  501  0.00000000000E+00  0.00000000000E+00  0.70167530651E+03  0.70167530653E+03  0.50400001928E-02 0.  1.
        1   -1    0    0  501    0  0.00000000000E+00  0.00000000000E+00 -0.50926109881E+03  0.50926109883E+03  0.50400001928E-02 0. -1.
    10030    2    1    2    0    0  0.00000000000E+00  0.00000000000E+00  0.19241420770E+03  0.12109364054E+04  0.11955516511E+04 0.  0.
        4    1    3    3  502    0 -0.38661838870E+03  0.99109684437E+02  0.54694809695E+03  0.67708961127E+03  0.12699999809E+01 0.  1.
       -4    1    3    3    0  502  0.38661838870E+03 -0.99109684437E+02 -0.35453388925E+03  0.53384679409E+03  0.12699999809E+01 0. -1.
</event>
<event>
 5   0  0.8908478E-04  0.1192975E+04  0.7818609E-02  0.9119028E-01
        1   -1    0    0  501    0  0.00000000000E+00  0.00000000000E+00  0.10042184263E+04  0.10042184263E+04  0.50400001928E-02 0. -1.
       -1   -1    0    0    0  501  0.00000000000E+00  0.00000000000E+00 -0.35430267221E+03  0.35430267225E+03  0.50400001928E-02 0.  1.
    10030    2    1    2    0    0  0.00000000000E+00  0.00000000000E+00  0.64991575404E+03  0.13585210985E+04  0.11929748898E+04 0.  0.
        4    1    3    3  502    0  0.28960625108E+03 -0.32493645639E+03 -0.13948645325E+03  0.45707063447E+03  0.12699999809E+01 0.  1.
       -4    1    3    3    0  502 -0.28960625108E+03  0.32493645639E+03  0.78940220729E+03  0.90145046405E+03  0.12699999809E+01 0. -1.
</event>
<event>
 5   0  0.1537557E-03  0.1198260E+04  0.7818609E-02  0.9114381E-01
       -2   -1    0    0    0  501  0.00000000000E+00  0.00000000000E+00  0.10443049194E+04  0.10443049194E+04  0.25500000920E-02 0.  1.
        2   -1    0    0  501    0  0.00000000000E+00  0.00000000000E+00 -0.34372764902E+03  0.34372764903E+03  0.25500000920E-02 0. -1.
    10030    2    1    2    0    0  0.00000000000E+00  0.00000000000E+00  0.70057727039E+03  0.13880325684E+04  0.11982595292E+04 0.  0.
        2    1    3    3  502    0  0.44243598405E+03  0.37653767675E+03  0.51984803770E+03  0.77959746299E+03  0.25500000920E-02 0.  1.
       -2    1    3    3    0  502 -0.44243598405E+03 -0.37653767675E+03  0.18072923269E+03  0.60843510545E+03  0.25500000920E-02 0. -1.
</event>
<event>
 5   0  0.1551501E-03  0.1197176E+04  0.7818609E-02  0.9115332E-01
        2   -1    0    0  501    0  0.00000000000E+00  0.00000000000E+00  0.17406282126E+03  0.17406282128E+03  0.25500000920E-02 0. -1.
       -2   -1    0    0    0  501  0.00000000000E+00  0.00000000000E+00 -0.20584948531E+04  0.20584948531E+04  0.25500000920E-02 0.  1.
    10030    2    1    2    0    0  0.00000000000E+00  0.00000000000E+00 -0.18844320318E+04  0.22325576743E+04  0.11971757126E+04 0.  0.
        4    1    3    3  502    0  0.57814285707E+03  0.11741873249E+03 -0.11311974592E+04  0.12757921564E+04  0.12699999809E+01 0. -1.
       -4    1    3    3    0  502 -0.57814285707E+03 -0.11741873249E+03 -0.75323457265E+03  0.95676551790E+03  0.12699999809E+01 0.  1.
</event>
<event>
 5   0  0.1647550E-03  0.1199707E+04  0.7818609E-02  0.9113113E-01
       -2   -1    0    0    0  501  0.00000000000E+00  0.00000000000E+00  0.30756636928E+03  0.30756636929E+03  0.25500000920E-02 0. -1.
        2   -1    0    0  501    0  0.00000000000E+00  0.00000000000E+00 -0.11699081096E+04  0.11699081096E+04  0.25500000920E-02 0.  1.
    10030    2    1    2    0    0  0.00000000000E+00  0.00000000000E+00 -0.86234174036E+03  0.14774744789E+04  0.11997072804E+04 0.  0.
        3    1    3    3  502    0 -0.63421129573E+02  0.58627546878E+03 -0.56654508047E+03  0.81774965813E+03  0.10100000352E+00 0.  1.
       -3    1    3    3    0  502  0.63421129573E+02 -0.58627546878E+03 -0.29579665989E+03  0.65972482080E+03  0.10100000352E+00 0. -1.
</event>
<event>
 5   0  0.9208078E-04  0.1227115E+04  0.7818609E-02  0.9089448E-01
        1   -1    0    0  501    0  0.00000000000E+00  0.00000000000E+00  0.79477452774E+03  0.79477452776E+03  0.50400001928E-02 0.  1.
       -1   -1    0    0    0  501  0.00000000000E+00  0.00000000000E+00 -0.47366003468E+03  0.47366003471E+03  0.50400001928E-02 0. -1.
    10030    2    1    2    0    0  0.00000000000E+00  0.00000000000E+00  0.32111449306E+03  0.12684345625E+04  0.12271152031E+04 0.  0.
        3    1    3    3  502    0  0.15253861134E+03  0.30243867870E+03  0.68936480007E+03  0.76808920061E+03  0.10100000352E+00 0.  1.
       -3    1    3    3    0  502 -0.15253861134E+03 -0.30243867870E+03 -0.36825030701E+03  0.50034536186E+03  0.10100000352E+00 0. -1.
</event>
<event>
 5   0  0.1647550E-03  0.1207845E+04  0.7818609E-02  0.9106018E-01
        2   -1    0    0  501    0  0.00000000000E+00  0.00000000000E+00  0.55117214382E+03  0.55117214382E+03  0.25500000920E-02 0. -1.
       -2   -1    0    0    0  501  0.00000000000E+00  0.00000000000E+00 -0.66172102491E+03  0.66172102491E+03  0.25500000920E-02 0.  1.
    10030    2    1    2    0    0  0.00000000000E+00  0.00000000000E+00 -0.11054888109E+03  0.12128931687E+04  0.12078446852E+04 0.  0.
        3    1    3    3  502    0 -0.46851951934E+03  0.11636311134E+03 -0.41965648895E+03  0.63965810602E+03  0.10100000352E+00 0.  1.
       -3    1    3    3    0  502  0.46851951934E+03 -0.11636311134E+03  0.30910760786E+03  0.57323506271E+03  0.10100000352E+00 0. -1.
</event>
<event>
 5   0  0.6137750E-04  0.1199647E+04  0.7818609E-02  0.9113165E-01
       -3   -1    0    0    0  501  0.00000000000E+00  0.00000000000E+00  0.99768842749E+03  0.99768843260E+03  0.10100000352E+00 0. -1.
        3   -1    0    0  501    0  0.00000000000E+00  0.00000000000E+00 -0.36062208684E+03  0.36062210098E+03  0.10100000352E+00 0.  1.
    10030    2    1    2    0    0  0.00000000000E+00  0.00000000000E+00  0.63706634065E+03  0.13583105336E+04  0.11996474412E+04 0.  0.
        5    1    3    3  502    0 -0.68624375029E+02  0.48106867485E+03 -0.79580807281E+02  0.49243433030E+03  0.46999998093E+01 0.  1.
       -5    1    3    3    0  502  0.68624375029E+02 -0.48106867485E+03  0.71664714793E+03  0.86587620328E+03  0.46999998093E+01 0. -1.
</event>
<event>
 5   0  0.1537557E-03  0.1198538E+04  0.7818609E-02  0.9114137E-01
        2   -1    0    0  501    0  0.00000000000E+00  0.00000000000E+00  0.11936730265E+04  0.11936730265E+04  0.25500000920E-02 0.  1.
       -2   -1    0    0    0  501  0.00000000000E+00  0.00000000000E+00 -0.30085558860E+03  0.30085558861E+03  0.25500000920E-02 0. -1.
    10030    2    1    2    0    0  0.00000000000E+00  0.00000000000E+00  0.89281743785E+03  0.14945286151E+04  0.11985377774E+04 0.  0.
        2    1    3    3  502    0 -0.59610674135E+03 -0.31154393691E+02  0.51250180377E+03  0.78674769920E+03  0.25500000920E-02 0.  1.
       -2    1    3    3    0  502  0.59610674135E+03  0.31154393691E+02  0.38031563408E+03  0.70778091586E+03  0.25500000920E-02 0. -1.
</event>
<event>
 5   0  0.9208078E-04  0.1199533E+04  0.7818609E-02  0.9113266E-01
        1   -1    0    0  501    0  0.00000000000E+00  0.00000000000E+00  0.56451086392E+03  0.56451086394E+03  0.50400001928E-02 0.  1.
       -1   -1    0    0    0  501  0.00000000000E+00  0.00000000000E+00 -0.63722369446E+03  0.63722369448E+03  0.50400001928E-02 0. -1.
    10030    2    1    2    0    0  0.00000000000E+00  0.00000000000E+00 -0.72712830549E+02  0.12017345584E+04  0.11995327395E+04 0.  0.
        3    1    3    3  502    0  0.27023544618E+03 -0.52090181631E+03  0.87781439316E+02  0.59335612400E+03  0.10100000352E+00 0.  1.
       -3    1    3    3    0  502 -0.27023544618E+03  0.52090181631E+03 -0.16049426986E+03  0.60837843442E+03  0.10100000352E+00 0. -1.
</event>
<event>
 5   0  0.1567019E-03  0.1195439E+04  0.7818609E-02  0.9116858E-01
       -2   -1    0    0    0  501  0.00000000000E+00  0.00000000000E+00  0.19406178093E+03  0.19406178095E+03  0.25500000920E-02 0. -1.
        2   -1    0    0  501    0  0.00000000000E+00  0.00000000000E+00 -0.18410042198E+04  0.18410042198E+04  0.25500000920E-02 0.  1.
    10030    2    1    2    0    0  0.00000000000E+00  0.00000000000E+00 -0.16469424389E+04  0.20350660008E+04  0.11954389280E+04 0.  0.
        5    1    3    3  502    0 -0.72772565379E+02 -0.38089666897E+03 -0.15977513754E+04  0.16441440528E+04  0.46999998093E+01 0.  1.
       -5    1    3    3    0  502  0.72772565379E+02  0.38089666897E+03 -0.49191063513E+02  0.39092194801E+03  0.46999998093E+01 0. -1.
</event>
<event>
 5   0  0.9170776E-04  0.1196980E+04  0.7818609E-02  0.9115504E-01
       -1   -1    0    0    0  501  0.00000000000E+00  0.00000000000E+00  0.22231356272E+03  0.22231356278E+03  0.50400001928E-02 0.  1.
        1   -1    0    0  501    0  0.00000000000E+00  0.00000000000E+00 -0.16111933899E+04  0.16111933899E+04  0.50400001928E-02 0. -1.
    10030    2    1    2    0    0  0.00000000000E+00  0.00000000000E+00 -0.13888798272E+04  0.18335069527E+04  0.11969797706E+04 0.  0.
        5    1    3    3  502    0  0.30354907727E+03  0.20539666819E+03 -0.14191476064E+04  0.14657188859E+04  0.46999998093E+01 0. -1.
       -5    1    3    3    0  502 -0.30354907727E+03 -0.20539666819E+03  0.30267779261E+02  0.36778806679E+03  0.46999998093E+01 0.  1.
</event>
<event>
 5   0  0.1567019E-03  0.1192979E+04  0.7818609E-02  0.9119024E-01
       -2   -1    0    0    0  501  0.00000000000E+00  0.00000000000E+00  0.27782144234E+03  0.27782144235E+03  0.25500000920E-02 0. -1.
        2   -1    0    0  501    0  0.00000000000E+00  0.00000000000E+00 -0.12806772946E+04  0.12806772946E+04  0.25500000920E-02 0.  1.
    10030    2    1    2    0    0  0.00000000000E+00  0.00000000000E+00 -0.10028558523E+04  0.15584987370E+04  0.11929788149E+04 0.  0.
        5    1    3    3  502    0 -0.47681781873E+03 -0.50335482671E+02 -0.37909527962E+02  0.48098660624E+03  0.46999998093E+01 0. -1.
       -5    1    3    3    0  502  0.47681781873E+03  0.50335482671E+02 -0.96494632433E+03  0.10775121307E+04  0.46999998093E+01 0.  1.
</event>
<event>
 5   0  0.1597352E-03  0.1198794E+04  0.7818609E-02  0.9113913E-01
       -2   -1    0    0    0  501  0.00000000000E+00  0.00000000000E+00  0.71544361412E+03  0.71544361412E+03  0.25500000920E-02 0.  1.
        2   -1    0    0  501    0  0.00000000000E+00  0.00000000000E+00 -0.50217324888E+03  0.50217324889E+03  0.25500000920E-02 0. -1.
    10030    2    1    2    0    0  0.00000000000E+00  0.00000000000E+00  0.21327036523E+03  0.12176168630E+04  0.11987938006E+04 0.  0.
        1    1    3    3  502    0 -0.47211665227E+03 -0.34953438427E+03  0.22770505305E+03  0.63001429377E+03  0.50400001928E-02 0.  1.
       -1    1    3    3    0  502  0.47211665227E+03  0.34953438427E+03 -0.14434687816E+02  0.58760256924E+03  0.50400001928E-02 0. -1.
</event>
<event>
 5   0  0.1551501E-03  0.1205800E+04  0.7818609E-02  0.9107795E-01
        2   -1    0    0  501    0  0.00000000000E+00  0.00000000000E+00  0.60126129612E+03  0.60126129612E+03  0.25500000920E-02 0. -1.
       -2   -1    0    0    0  501  0.00000000000E+00  0.00000000000E+00 -0.60454290792E+03  0.60454290792E+03  0.25500000920E-02 0.  1.
    10030    2    1    2    0    0  0.00000000000E+00  0.00000000000E+00 -0.32816117995E+01  0.12058042040E+04  0.12057997386E+04 0.  0.
        4    1    3    3  502    0 -0.13970455740E+03 -0.82809600475E+02 -0.58225629232E+03  0.60448225461E+03  0.12699999809E+01 0.  1.
       -4    1    3    3    0  502  0.13970455740E+03  0.82809600475E+02  0.57897468052E+03  0.60132194944E+03  0.12699999809E+01 0. -1.
</event>
<event>
 5   0  0.9208078E-04  0.1200037E+04  0.7818609E-02  0.9112824E-01
        1   -1    0    0  501    0  0.00000000000E+00  0.00000000000E+00  0.99727000028E+03  0.99727000030E+03  0.50400001928E-02 0. -1.
       -1   -1    0    0    0  501  0.00000000000E+00  0.00000000000E+00 -0.36100754744E+03  0.36100754748E+03  0.50400001928E-02 0.  1.
    10030    2    1    2    0    0  0.00000000000E+00  0.00000000000E+00  0.63626245284E+03  0.13582775478E+04  0.12000366611E+04 0.  0.
        3    1    3    3  502    0 -0.45919666246E+03  0.11532827466E+03 -0.99064158038E+02  0.48371055742E+03  0.10100000352E+00 0.  1.
       -3    1    3    3    0  502  0.45919666246E+03 -0.11532827466E+03  0.73532661088E+03  0.87456699035E+03  0.10100000352E+00 0. -1.
</event>
<event>
 5   0  0.8908478E-04  0.1202304E+04  0.7818609E-02  0.9110842E-01
       -1   -1    0    0    0  501  0.00000000000E+00  0.00000000000E+00  0.69227751522E+03  0.69227751524E+03  0.50400001928E-02 0.  1.
        1   -1    0    0  501    0  0.00000000000E+00  0.00000000000E+00 -0.52202140795E+03  0.52202140798E+03  0.50400001928E-02 0. -1.
    10030    2    1    2    0    0  0.00000000000E+00  0.00000000000E+00  0.17025610727E+03  0.12142989232E+04  0.12023039270E+04 0.  0.
        4    1    3    3  502    0 -0.13955056740E+03  0.52044515457E+03  0.35432909144E+03  0.64489397401E+03  0.12699999809E+01 0.  1.
       -4    1    3    3    0  502  0.13955056740E+03 -0.52044515457E+03 -0.18407298417E+03  0.56940494921E+03  0.12699999809E+01 0. -1.
</event>
<event>
 5   0  0.1597352E-03  0.1201907E+04  0.7818609E-02  0.9111189E-01
        2   -1    0    0  501    0  0.00000000000E+00  0.00000000000E+00  0.23501904975E+04  0.23501904975E+04  0.25500000920E-02 0. -1.
       -2   -1    0    0    0  501  0.00000000000E+00  0.00000000000E+00 -0.15366628751E+03  0.15366628753E+03  0.25500000920E-02 0.  1.
    10030    2    1    2    0    0  0.00000000000E+00  0.00000000000E+00  0.21965242100E+04  0.25038567851E+04  0.12019068994E+04 0.  0.
        1    1    3    3  502    0 -0.50749586047E+02 -0.16635570837E+03  0.22966128768E+04  0.23031891907E+04  0.50400001928E-02 0. -1.
       -1    1    3    3    0  502  0.50749586047E+02  0.16635570837E+03 -0.10008866678E+03  0.20066759438E+03  0.50400001928E-02 0.  1.
</event>
<event>
 5   0  0.8908478E-04  0.1200989E+04  0.7818609E-02  0.9111991E-01
        1   -1    0    0  501    0  0.00000000000E+00  0.00000000000E+00  0.46984484706E+03  0.46984484708E+03  0.50400001928E-02 0.  1.
       -1   -1    0    0    0  501  0.00000000000E+00  0.00000000000E+00 -0.76747375524E+03  0.76747375526E+03  0.50400001928E-02 0. -1.
    10030    2    1    2    0    0  0.00000000000E+00  0.00000000000E+00 -0.29762890819E+03  0.12373186023E+04  0.12009889078E+04 0.  0.
        4    1    3    3  502    0  0.37678958045E+03 -0.42922408685E+03  0.42235844215E+02  0.57270339977E+03  0.12699999809E+01 0.  1.
       -4    1    3    3    0  502 -0.37678958045E+03  0.42922408685E+03 -0.33986475240E+03  0.66461520258E+03  0.12699999809E+01 0. -1.
</event>
<event>
 5   0  0.1551501E-03  0.1190620E+04  0.7818609E-02  0.9121107E-01
       -2   -1    0    0    0  501  0.00000000000E+00  0.00000000000E+00  0.52130458603E+03  0.52130458603E+03  0.25500000920E-02 0. -1.
        2   -1    0    0  501    0  0.00000000000E+00  0.00000000000E+00 -0.67982108456E+03  0.67982108456E+03  0.25500000920E-02 0.  1.
    10030    2    1    2    0    0  0.00000000000E+00  0.00000000000E+00 -0.15851649853E+03  0.12011256706E+04  0.11906197530E+04 0.  0.
        4    1    3    3  502    0  0.21999883355E+03 -0.48620730732E+03 -0.34539510437E+03  0.63568578990E+03  0.12699999809E+01 0.  1.
       -4    1    3    3    0  502 -0.21999883355E+03  0.48620730732E+03  0.18687860585E+03  0.56543988069E+03  0.12699999809E+01 0. -1.
</event>
<event>
 5   0  0.1567019E-03  0.1199571E+04  0.7818609E-02  0.9113232E-01
        2   -1    0    0  501    0  0.00000000000E+00  0.00000000000E+00  0.47466790078E+03  0.47466790079E+03  0.25500000920E-02 0.  1.
       -2   -1    0    0    0  501  0.00000000000E+00  0.00000000000E+00 -0.75788339917E+03  0.75788339917E+03  0.25500000920E-02 0. -1.
    10030    2    1    2    0    0  0.00000000000E+00  0.00000000000E+00 -0.28321549838E+03  0.12325513000E+04  0.11995714604E+04 0.  0.
        5    1    3    3  502    0  0.36472972343E+03  0.22524427040E+03 -0.57261391808E+03  0.71531219875E+03  0.46999998093E+01 0. -1.
       -5    1    3    3    0  502 -0.36472972343E+03 -0.22524427040E+03  0.28939841970E+03  0.51723910121E+03  0.46999998093E+01 0.  1.
</event>
<event>
 5   0  0.1567019E-03  0.1176075E+04  0.7818609E-02  0.9134059E-01
       -2   -1    0    0    0  501  0.00000000000E+00  0.00000000000E+00  0.18553547903E+03  0.18553547905E+03  0.25500000920E-02 0.  1.
        2   -1    0    0  501    0  0.00000000000E+00  0.00000000000E+00 -0.18637315412E+04  0.18637315412E+04  0.25500000920E-02 0. -1.
    10030    2    1    2    0    0  0.00000000000E+00  0.00000000000E+00 -0.16781960621E+04  0.20492670202E+04  0.11760753790E+04 0.  0.
        5    1    3    3  502    0  0.25298191466E+03  0.31074190589E+03 -0.15889762625E+04  0.16387275655E+04  0.46999998093E+01 0. -1.
       -5    1    3    3    0  502 -0.25298191466E+03 -0.31074190589E+03 -0.89219799640E+02  0.41053945470E+03  0.46999998093E+01 0.  1.
</event>
<event>
 5   0  0.8908478E-04  0.1206605E+04  0.7818609E-02  0.9107095E-01
        1   -1    0    0  501    0  0.00000000000E+00  0.00000000000E+00  0.78138015514E+03  0.78138015516E+03  0.50400001928E-02 0. -1.
       -1   -1    0    0    0  501  0.00000000000E+00  0.00000000000E+00 -0.46580874045E+03  0.46580874047E+03  0.50400001928E-02 0.  1.
    10030    2    1    2    0    0  0.00000000000E+00  0.00000000000E+00  0.31557141470E+03  0.12471888956E+04  0.12066046675E+04 0.  0.
        4    1    3    3  502    0 -0.24966243544E+03 -0.29692537679E+03 -0.31978958056E+03  0.50275540751E+03  0.12699999809E+01 0.  1.
       -4    1    3    3    0  502  0.24966243544E+03  0.29692537679E+03  0.63536099525E+03  0.74443348812E+03  0.12699999809E+01 0. -1.
</event>
<event>
 5   0  0.8908478E-04  0.1186286E+04  0.7818609E-02  0.9124946E-01
       -1   -1    0    0    0  501  0.00000000000E+00  0.00000000000E+00  0.18296464807E+03  0.18296464814E+03  0.50400001928E-02 0.  1.
        1   -1    0    0  501    0  0.00000000000E+00  0.00000000000E+00 -0.19228777989E+04  0.19228777989E+04  0.50400001928E-02 0. -1.
    10030    2    1    2    0    0  0.00000000000E+00  0.00000000000E+00 -0.17399131509E+04  0.21058424471E+04  0.11862860698E+04 0.  0.
        4    1    3    3  502    0 -0.38535553372E+03  0.38818617414E+03 -0.46271538217E+03  0.71644576275E+03  0.12699999809E+01 0.  1.
       -4    1    3    3    0  502  0.38535553372E+03 -0.38818617414E+03 -0.12771977687E+04  0.13893966843E+04  0.12699999809E+01 0. -1.
</event>
<event>
 5   0  0.6137750E-04  0.1211956E+04  0.7818609E-02  0.9102455E-01
       -3   -1    0    0    0  501  0.00000000000E+00  0.00000000000E+00  0.13069919499E+04  0.13069919539E+04  0.10100000352E+00 0.  1.
        3   -1    0    0  501    0  0.00000000000E+00  0.00000000000E+00 -0.28095759803E+03  0.28095761619E+03  0.10100000352E+00 0. -1.
    10030    2    1    2    0    0  0.00000000000E+00  0.00000000000E+00  0.10260343519E+04  0.15879495700E+04  0.12119559999E+04 0.  0.
        3    1    3    3  502    0  0.85870652742E+02 -0.35148739318E+03 -0.12388761827E+03  0.38244647826E+03  0.10100000352E+00 0. -1.
       -3    1    3    3    0  502 -0.85870652742E+02  0.35148739318E+03  0.11499219702E+04  0.12055030918E+04  0.10100000352E+00 0.  1.
</event>
<event>
 5   0  0.9169078E-04  0.1196532E+04  0.7818609E-02  0.9115898E-01
       -1   -1    0    0    0  501  0.00000000000E+00  0.00000000000E+00  0.29078863412E+03  0.29078863416E+03  0.50400001928E-02 0. -1.
        1   -1    0    0  501    0  0.00000000000E+00  0.00000000000E+00 -0.12308663935E+04  0.12308663935E+04  0.50400001928E-02 0.  1.
    10030    2    1    2    0    0  0.00000000000E+00  0.00000000000E+00 -0.94007775936E+03  0.15216550276E+04  0.11965315832E+04 0.  0.
        1    1    3    3  502    0  0.20154484403E+02 -0.39031570424E+03 -0.10460731718E+04  0.11167012282E+04  0.50400001928E-02 0.  1.
       -1    1    3    3    0  502 -0.20154484403E+02  0.39031570424E+03  0.10599541245E+03  0.40495379947E+03  0.50400001928E-02 0. -1.
</event>
<event>
 5   0  0.1567019E-03  0.1195677E+04  0.7818609E-02  0.9116649E-01
       -2   -1    0    0    0  501  0.00000000000E+00  0.00000000000E+00  0.40898728805E+03  0.40898728806E+03  0.25500000920E-02 0. -1.
        2   -1    0    0  501    0  0.00000000000E+00  0.00000000000E+00 -0.87389211413E+03  0.87389211413E+03  0.25500000920E-02 0.  1.
    10030    2    1    2    0    0  0.00000000000E+00  0.00000000000E+00 -0.46490482608E+03  0.12828794022E+04  0.11956768222E+04 0.  0.
        5    1    3    3  502    0  0.59597116283E+02 -0.10272300067E+03  0.39618371544E+03  0.41362719629E+03  0.46999998093E+01 0. -1.
       -5    1    3    3    0  502 -0.59597116283E+02  0.10272300067E+03 -0.86108854152E+03  0.86925220590E+03  0.46999998093E+01 0.  1.
</event>
<event>
 5   0  0.1551501E-03  0.1188151E+04  0.7818609E-02  0.9123292E-01
       -2   -1    0    0    0  501  0.00000000000E+00  0.00000000000E+00  0.59889364184E+03  0.59889364184E+03  0.25500000920E-02 0. -1.
        2   -1    0    0  501    0  0.00000000000E+00  0.00000000000E+00 -0.58929576589E+03  0.58929576590E+03  0.25500000920E-02 0.  1.
    10030    2    1    2    0    0  0.00000000000E+00  0.00000000000E+00  0.95978759436E+01  0.11881894077E+04  0.11881506426E+04 0.  0.
        4    1    3    3  502    0 -0.50712846794E+03  0.12237190704E+03  0.28900832975E+03  0.59639047125E+03  0.12699999809E+01 0. -1.
       -4    1    3    3    0  502  0.50712846794E+03 -0.12237190704E+03 -0.27941045381E+03  0.59179893649E+03  0.12699999809E+01 0.  1.
</event>
<event>
 5   0  0.1597352E-03  0.1200123E+04  0.7818609E-02  0.9112749E-01
        2   -1    0    0  501    0  0.00000000000E+00  0.00000000000E+00  0.10375018071E+04  0.10375018071E+04  0.25500000920E-02 0.  1.
       -2   -1    0    0    0  501  0.00000000000E+00  0.00000000000E+00 -0.34705844173E+03  0.34705844173E+03  0.25500000920E-02 0. -1.
    10030    2    1    2    0    0  0.00000000000E+00  0.00000000000E+00  0.69044336541E+03  0.13845602489E+04  0.12001229278E+04 0.  0.
        1    1    3    3  502    0  0.23774882764E+02  0.16361029806E+03 -0.32026405638E+03  0.36042008895E+03  0.50400001928E-02 0. -1.
       -1    1    3    3    0  502 -0.23774882764E+02 -0.16361029806E+03  0.10107074218E+04  0.10241401599E+04  0.50400001928E-02 0.  1.
</event>
<event>
 5   0  0.1597352E-03  0.1203983E+04  0.7818609E-02  0.9109377E-01
        2   -1    0    0  501    0  0.00000000000E+00  0.00000000000E+00  0.71797021416E+03  0.71797021416E+03  0.25500000920E-02 0. -1.
       -2   -1    0    0    0  501  0.00000000000E+00  0.00000000000E+00 -0.50474785875E+03  0.50474785875E+03  0.25500000920E-02 0.  1.
    10030    2    1    2    0    0  0.00000000000E+00  0.00000000000E+00  0.21322235541E+03  0.12227180729E+04  0.12039832694E+04 0.  0.
        1    1    3    3  502    0 -0.50686781964E+03 -0.25820121033E+03 -0.93459629659E+02  0.57646990728E+03  0.50400001928E-02 0.  1.
       -1    1    3    3    0  502  0.50686781964E+03  0.25820121033E+03  0.30668198507E+03  0.64624816564E+03  0.50400001928E-02 0. -1.
</event>
<event>
 5   0  0.9358428E-04  0.1202187E+04  0.7818609E-02  0.9110945E-01
       -1   -1    0    0    0  501  0.00000000000E+00  0.00000000000E+00  0.73235335225E+03  0.73235335227E+03  0.50400001928E-02 0. -1.
        1   -1    0    0  501    0  0.00000000000E+00  0.00000000000E+00 -0.49335899758E+03  0.49335899761E+03  0.50400001928E-02 0.  1.
    10030    2    1    2    0    0  0.00000000000E+00  0.00000000000E+00  0.23899435467E+03  0.12257123499E+04  0.12021865342E+04 0.  0.
        2    1    3    3  502    0 -0.29279898696E+03 -0.18529971800E+03  0.62027681153E+03  0.71050021477E+03  0.25500000920E-02 0. -1.
       -2    1    3    3    0  502  0.29279898696E+03  0.18529971800E+03 -0.38128245686E+03  0.51521213511E+03  0.25500000920E-02 0.  1.
</event>
<event>
 5   0  0.9170776E-04  0.1211519E+04  0.7818609E-02  0.9102833E-01
       -1   -1    0    0    0  501  0.00000000000E+00  0.00000000000E+00  0.42249431820E+03  0.42249431823E+03  0.50400001928E-02 0. -1.
        1   -1    0    0  501    0  0.00000000000E+00  0.00000000000E+00 -0.86852015341E+03  0.86852015342E+03  0.50400001928E-02 0.  1.
    10030    2    1    2    0    0  0.00000000000E+00  0.00000000000E+00 -0.44602583521E+03  0.12910144716E+04  0.12115194263E+04 0.  0.
        5    1    3    3  502    0 -0.36801734810E+03  0.47886496850E+03 -0.27270209564E+03  0.66267408997E+03  0.46999998093E+01 0.  1.
       -5    1    3    3    0  502  0.36801734810E+03 -0.47886496850E+03 -0.17332373957E+03  0.62834038168E+03  0.46999998093E+01 0. -1.
</event>
<event>
 5   0  0.1567019E-03  0.1181086E+04  0.7818609E-02  0.9129575E-01
        2   -1    0    0  501    0  0.00000000000E+00  0.00000000000E+00  0.11374776209E+04  0.11374776209E+04  0.25500000920E-02 0. -1.
       -2   -1    0    0    0  501  0.00000000000E+00  0.00000000000E+00 -0.30659169351E+03  0.30659169352E+03  0.25500000920E-02 0.  1.
    10030    2    1    2    0    0  0.00000000000E+00  0.00000000000E+00  0.83088592741E+03  0.14440693144E+04  0.11810862630E+04 0.  0.
        5    1    3    3  502    0  0.71954532350E+01  0.15703085285E+03  0.11114036613E+04  0.11224752344E+04  0.46999998093E+01 0. -1.
       -5    1    3    3    0  502 -0.71954532350E+01 -0.15703085285E+03 -0.28051773394E+03  0.32159408008E+03  0.46999998093E+01 0.  1.
</event>
<event>
 5   0  0.8908478E-04  0.1215041E+04  0.7818609E-02  0.9099792E-01
       -1   -1    0    0    0  501  0.00000000000E+00  0.00000000000E+00  0.27863032867E+03  0.27863032872E+03  0.50400001928E-02 0. -1.
        1   -1    0    0  501    0  0.00000000000E+00  0.00000000000E+00 -0.13246274077E+04  0.13246274077E+04  0.50400001928E-02 0.  1.
    10030    2    1    2    0    0  0.00000000000E+00  0.00000000000E+00 -0.10459970790E+04  0.16032577364E+04  0.12150413491E+04 0.  0.
        4    1    3    3  502    0  0.19206745458E+03 -0.42787734042E+03 -0.13471914568E+02  0.46920361351E+03  0.12699999809E+01 0. -1.
       -4    1    3    3    0  502 -0.19206745458E+03  0.42787734042E+03 -0.10325251645E+04  0.11340541229E+04  0.12699999809E+01 0.  1.
</event>
<event>
 5   0  0.1537557E-03  0.1193740E+04  0.7818609E-02  0.9118354E-01
       -2   -1    0    0    0  501  0.00000000000E+00  0.00000000000E+00  0.54793936582E+03  0.54793936583E+03  0.25500000920E-02 0.  1.
        2   -1    0    0  501    0  0.00000000000E+00  0.00000000000E+00 -0.65016960748E+03  0.65016960748E+03  0.25500000920E-02 0. -1.
    10030    2    1    2    0    0  0.00000000000E+00  0.00000000000E+00 -0.10223024166E+03  0.11981089733E+04  0.11937395401E+04 0.  0.
        2    1    3    3  502    0 -0.53810686276E+03  0.83270897944E+02 -0.29646948964E+03  0.61998967450E+03  0.25500000920E-02 0. -1.
       -2    1    3    3    0  502  0.53810686276E+03 -0.83270897944E+02  0.19423924799E+03  0.57811929881E+03  0.25500000920E-02 0.  1.
</event>
<event>
 5   0  0.9169078E-04  0.1185384E+04  0.7818609E-02  0.9125747E-01
       -1   -1    0    0    0  501  0.00000000000E+00  0.00000000000E+00  0.53291887060E+03  0.53291887062E+03  0.50400001928E-02 0.  1.
        1   -1    0    0  501    0  0.00000000000E+00  0.00000000000E+00 -0.65916956983E+03  0.65916956985E+03  0.50400001928E-02 0. -1.
    10030    2    1    2    0    0  0.00000000000E+00  0.00000000000E+00 -0.12625069923E+03  0.11920884405E+04  0.11853841617E+04 0.  0.
        1    1    3    3  502    0 -0.36691360095E+03  0.30408192998E+03  0.29127735476E+03  0.55851043690E+03  0.50400001928E-02 0.  1.
       -1    1    3    3    0  502  0.36691360095E+03 -0.30408192998E+03 -0.41752805400E+03  0.63357800357E+03  0.50400001928E-02 0. -1.
</event>
<event>
 5   0  0.1647550E-03  0.1190372E+04  0.7818609E-02  0.9121326E-01
        2   -1    0    0  501    0  0.00000000000E+00  0.00000000000E+00  0.28138403202E+04  0.28138403202E+04  0.25500000920E-02 0.  1.
       -2   -1    0    0    0  501  0.00000000000E+00  0.00000000000E+00 -0.12589425374E+03  0.12589425376E+03  0.25500000920E-02 0. -1.
    10030    2    1    2    0    0  0.00000000000E+00  0.00000000000E+00  0.26879460664E+04  0.29397345739E+04  0.11903719205E+04 0.  0.
        3    1    3    3  502    0  0.57526633555E+03 -0.11986119396E+02  0.17198974916E+04  0.18135937847E+04  0.10100000352E+00 0. -1.
       -3    1    3    3    0  502 -0.57526633555E+03  0.11986119396E+02  0.96804857479E+03  0.11261407893E+04  0.10100000352E+00 0.  1.
</event>
<event>
 5   0  0.1567019E-03  0.1196446E+04  0.7818609E-02  0.9115973E-01
        2   -1    0    0  501    0  0.00000000000E+00  0.00000000000E+00  0.59546906208E+03  0.59546906209E+03  0.25500000920E-02 0. -1.
       -2   -1    0    0    0  501  0.00000000000E+00  0.00000000000E+00 -0.60098983121E+03  0.60098983121E+03  0.25500000920E-02 0.  1.
    10030    2    1    2    0    0  0.00000000000E+00  0.00000000000E+00 -0.55207691254E+01  0.11964588933E+04  0.11964461561E+04 0.  0.
        5    1    3    3  502    0  0.26005112608E+02  0.41350329011E+03 -0.43425950227E+03  0.60022049458E+03  0.46999998093E+01 0.  1.
       -5    1    3    3    0  502 -0.26005112608E+02 -0.41350329011E+03  0.42873873314E+03  0.59623839872E+03  0.46999998093E+01 0. -1.
</event>
<event>
 5   0  0.9169078E-04  0.1190030E+04  0.7818609E-02  0.9121628E-01
        1   -1    0    0  501    0  0.00000000000E+00  0.00000000000E+00  0.17095801776E+04  0.17095801776E+04  0.50400001928E-02 0. -1.
       -1   -1    0    0    0  501  0.00000000000E+00  0.00000000000E+00 -0.20709359026E+03  0.20709359032E+03  0.50400001928E-02 0.  1.
    10030    2    1    2    0    0  0.00000000000E+00  0.00000000000E+00  0.15024865873E+04  0.19166737679E+04  0.11900304145E+04 0.  0.
        1    1    3    3  502    0 -0.24588509195E+03  0.51560112243E+03  0.48299539501E+03  0.74805651358E+03  0.50400001928E-02 0.  1.
       -1    1    3    3    0  502  0.24588509195E+03 -0.51560112243E+03  0.10194911923E+04  0.11686172543E+04  0.50400001928E-02 0. -1.
</event>
<event>
 5   0  0.8908478E-04  0.1187516E+04  0.7818609E-02  0.9123855E-01
        1   -1    0    0  501    0  0.00000000000E+00  0.00000000000E+00  0.65705882062E+03  0.65705882064E+03  0.50400001928E-02 0.  1.
       -1   -1    0    0    0  501  0.00000000000E+00  0.00000000000E+00 -0.53655531785E+03  0.53655531787E+03  0.50400001928E-02 0. -1.
    10030    2    1    2    0    0  0.00000000000E+00  0.00000000000E+00  0.12050350277E+03  0.11936141385E+04  0.11875157336E+04 0.  0.
        4    1    3    3  502    0  0.10683591726E+03  0.48633419351E+03 -0.26484691678E+03  0.56398613744E+03  0.12699999809E+01 0.  1.
       -4    1    3    3    0  502 -0.10683591726E+03 -0.48633419351E+03  0.38535041955E+03  0.62962800108E+03  0.12699999809E+01 0. -1.
</event>
<event>
 5   0  0.9170776E-04  0.1199778E+04  0.7818609E-02  0.9113051E-01
        1   -1    0    0  501    0  0.00000000000E+00  0.00000000000E+00  0.62940739928E+03  0.62940739930E+03  0.50400001928E-02 0. -1.
       -1   -1    0    0    0  501  0.00000000000E+00  0.00000000000E+00 -0.57175468779E+03  0.57175468781E+03  0.50400001928E-02 0.  1.
    10030    2    1    2    0    0  0.00000000000E+00  0.00000000000E+00  0.57652711488E+02  0.12011620871E+04  0.11997776979E+04 0.  0.
        5    1    3    3  502    0 -0.52278675524E+02 -0.54771541952E+03  0.26809857125E+03  0.61206549862E+03  0.46999998093E+01 0.  1.
       -5    1    3    3    0  502  0.52278675524E+02  0.54771541952E+03 -0.21044585976E+03  0.58909658850E+03  0.46999998093E+01 0. -1.
</event>
<event>
 5   0  0.9170776E-04  0.1203155E+04  0.7818609E-02  0.9110100E-01
        1   -1    0    0  501    0  0.00000000000E+00  0.00000000000E+00  0.21212300713E+04  0.21212300713E+04  0.50400001928E-02 0. -1.
       -1   -1    0    0    0  501  0.00000000000E+00  0.00000000000E+00 -0.17060631580E+03  0.17060631588E+03  0.50400001928E-02 0.  1.
    10030    2    1    2    0    0  0.00000000000E+00  0.00000000000E+00  0.19506237555E+04  0.22918363872E+04  0.12031545994E+04 0.  0.
        5    1    3    3  502    0  0.16589740261E+03 -0.39751587817E+03  0.17542576808E+03  0.46512053458E+03  0.46999998093E+01 0.  1.
       -5    1    3    3    0  502 -0.16589740261E+03  0.39751587817E+03  0.17751979874E+04  0.18267158526E+04  0.46999998093E+01 0. -1.
</event>
<event>
 5   0  0.1567019E-03  0.1191808E+04  0.7818609E-02  0.9120058E-01
        2   -1    0    0  501    0  0.00000000000E+00  0.00000000000E+00  0.83639871651E+03  0.83639871651E+03  0.25500000920E-02 0. -1.
       -2   -1    0    0    0  501  0.00000000000E+00  0.00000000000E+00 -0.42455993111E+03  0.42455993112E+03  0.25500000920E-02 0.  1.
    10030    2    1    2    0    0  0.00000000000E+00  0.00000000000E+00  0.41183878540E+03  0.12609586476E+04  0.11918076715E+04 0.  0.
        5    1    3    3  502    0 -0.43707842121E+03 -0.30534178901E+03 -0.75618108700E+02  0.53852701211E+03  0.46999998093E+01 0. -1.
       -5    1    3    3    0  502  0.43707842121E+03  0.30534178901E+03  0.48745689410E+03  0.72243163553E+03  0.46999998093E+01 0.  1.
</event>
<event>
 5   0  0.1567019E-03  0.1194693E+04  0.7818609E-02  0.9117515E-01
       -2   -1    0    0    0  501  0.00000000000E+00  0.00000000000E+00  0.17455370077E+03  0.17455370078E+03  0.25500000920E-02 0.  1.
        2   -1    0    0  501    0  0.00000000000E+00  0.00000000000E+00 -0.20441995510E+04  0.20441995510E+04  0.25500000920E-02 0. -1.
    10030    2    1    2    0    0  0.00000000000E+00  0.00000000000E+00 -0.18696458502E+04  0.22187532518E+04  0.11946925910E+04 0.  0.
        5    1    3    3  502    0  0.86254192577E+02  0.13341608830E+03  0.13456301714E+03  0.20825209227E+03  0.46999998093E+01 0.  1.
       -5    1    3    3    0  502 -0.86254192577E+02 -0.13341608830E+03 -0.20042088674E+04  0.20105011595E+04  0.46999998093E+01 0. -1.
</event>
<event>
 5   0  0.1647550E-03  0.1195324E+04  0.7818609E-02  0.9116959E-01
       -2   -1    0    0    0  501  0.00000000000E+00  0.00000000000E+00  0.51134670837E+03  0.51134670837E+03  0.25500000920E-02 0. -1.
        2   -1    0    0  501    0  0.00000000000E+00  0.00000000000E+00 -0.69854763643E+03  0.69854763644E+03  0.25500000920E-02 0.  1.
    10030    2    1    2    0    0  0.00000000000E+00  0.00000000000E+00 -0.18720092806E+03  0.12098943448E+04  0.11953242816E+04 0.  0.
        3    1    3    3  502    0 -0.15377894030E+02 -0.54855915191E+03  0.14602643744E+03  0.56787089501E+03  0.10100000352E+00 0. -1.
       -3    1    3    3    0  502  0.15377894030E+02  0.54855915191E+03 -0.33322736550E+03  0.64202344980E+03  0.10100000352E+00 0.  1.
</event>
<event>
 5   0  0.1567019E-03  0.1184558E+04  0.7818609E-02  0.9126482E-01
        2   -1    0    0  501    0  0.00000000000E+00  0.00000000000E+00  0.11237302755E+04  0.11237302755E+04  0.25500000920E-02 0. -1.
       -2   -1    0    0    0  501  0.00000000000E+00  0.00000000000E+00 -0.31216942894E+03  0.31216942895E+03  0.25500000920E-02 0.  1.
    10030    2    1    2    0    0  0.00000000000E+00  0.00000000000E+00  0.81156084652E+03  0.14358997044E+04  0.11845577037E+04 0.  0.
        5    1    3    3  502    0 -0.34473641827E+03 -0.47476556622E+03  0.50370949321E+03  0.77329870328E+03  0.46999998093E+01 0. -1.
       -5    1    3    3    0  502  0.34473641827E+03  0.47476556622E+03  0.30785135331E+03  0.66260100112E+03  0.46999998093E+01 0.  1.
</event>
<event>
 5   0  0.9358428E-04  0.1201600E+04  0.7818609E-02  0.9111458E-01
        1   -1    0    0  501    0  0.00000000000E+00  0.00000000000E+00  0.45603942619E+03  0.45603942622E+03  0.50400001928E-02 0.  1.
       -1   -1    0    0    0  501  0.00000000000E+00  0.00000000000E+00 -0.79151147156E+03  0.79151147157E+03  0.50400001928E-02 0. -1.
    10030    2    1    2    0    0  0.00000000000E+00  0.00000000000E+00 -0.33547204536E+03  0.12475508978E+04  0.12015996627E+04 0.  0.
        2    1    3    3  502    0  0.77957956473E+02  0.11259227759E+03  0.43961849799E+03  0.46045508764E+03  0.25500000920E-02 0.  1.
       -2    1    3    3    0  502 -0.77957956473E+02 -0.11259227759E+03 -0.77509054336E+03  0.78709581015E+03  0.25500000920E-02 0. -1.
</event>
<event>
 5   0  0.1647550E-03  0.1202177E+04  0.7818609E-02  0.9110953E-01
       -2   -1    0    0    0  501  0.00000000000E+00  0.00000000000E+00  0.14562276571E+03  0.14562276574E+03  0.25500000920E-02 0. -1.
        2   -1    0    0  501    0  0.00000000000E+00  0.00000000000E+00 -0.24811188622E+04  0.24811188622E+04  0.25500000920E-02 0.  1.
    10030    2    1    2    0    0  0.00000000000E+00  0.00000000000E+00 -0.23354960964E+04  0.26267416279E+04  0.12021770099E+04 0.  0.
        3    1    3    3  502    0 -0.30003285342E+03 -0.51997974158E+03 -0.12336150297E+04  0.13719346546E+04  0.10100000352E+00 0.  1.
       -3    1    3    3    0  502  0.30003285342E+03  0.51997974158E+03 -0.11018810668E+04  0.12548069733E+04  0.10100000352E+00 0. -1.
</event>
<event>
 5   0  0.1537557E-03  0.1215855E+04  0.7818609E-02  0.9099091E-01
       -2   -1    0    0    0  501  0.00000000000E+00  0.00000000000E+00  0.24495375001E+03  0.24495375003E+03  0.25500000920E-02 0.  1.
        2   -1    0    0  501    0  0.00000000000E+00  0.00000000000E+00 -0.15087577444E+04  0.15087577444E+04  0.25500000920E-02 0. -1.
    10030    2    1    2    0    0  0.00000000000E+00  0.00000000000E+00 -0.12638039944E+04  0.17537114944E+04  0.12158550364E+04 0.  0.
        2    1    3    3  502    0  0.44604503504E+03 -0.29047152424E+01 -0.12276741384E+04  0.13061961571E+04  0.25500000920E-02 0. -1.
       -2    1    3    3    0  502 -0.44604503504E+03  0.29047152424E+01 -0.36129855968E+02  0.44751533734E+03  0.25500000920E-02 0.  1.
</event>
<event>
 5   0  0.1647550E-03  0.1205135E+04  0.7818609E-02  0.9108374E-01
       -2   -1    0    0    0  501  0.00000000000E+00  0.00000000000E+00  0.69566288148E+03  0.69566288148E+03  0.25500000920E-02 0. -1.
        2   -1    0    0  501    0  0.00000000000E+00  0.00000000000E+00 -0.52193042489E+03  0.52193042490E+03  0.25500000920E-02 0.  1.
    10030    2    1    2    0    0  0.00000000000E+00  0.00000000000E+00  0.17373245659E+03  0.12175933064E+04  0.12051350519E+04 0.  0.
        3    1    3    3  502    0 -0.40144056917E+03 -0.37844871346E+03 -0.15793934084E+03  0.57386653926E+03  0.10100000352E+00 0.  1.
       -3    1    3    3    0  502  0.40144056917E+03  0.37844871346E+03  0.33167179742E+03  0.64372676712E+03  0.10100000352E+00 0. -1.
</event>
<event>
 5   0  0.6137750E-04  0.1194239E+04  0.7818609E-02  0.9117914E-01
       -4   -1    0    0    0  501  0.00000000000E+00  0.00000000000E+00  0.12520971705E+04  0.12520978146E+04  0.12699999809E+01 0. -1.
        4   -1    0    0  501    0  0.00000000000E+00  0.00000000000E+00 -0.28476144865E+03  0.28476428066E+03  0.12699999809E+01 0.  1.
    10030    2    1    2    0    0  0.00000000000E+00  0.00000000000E+00  0.96733572185E+03  0.15368620952E+04  0.11942389631E+04 0.  0.
        5    1    3    3  502    0 -0.48552255616E+03  0.45732337387E+02  0.40283905926E+02  0.48935516989E+03  0.46999998093E+01 0.  1.
       -5    1    3    3    0  502  0.48552255616E+03 -0.45732337387E+02  0.92705181592E+03  0.10475069253E+04  0.46999998093E+01 0. -1.
</event>
<event>
 5   0  0.1537557E-03  0.1200696E+04  0.7818609E-02  0.9112247E-01
        2   -1    0    0  501    0  0.00000000000E+00  0.00000000000E+00  0.24260101679E+04  0.24260101679E+04  0.25500000920E-02 0.  1.
       -2   -1    0    0    0  501  0.00000000000E+00  0.00000000000E+00 -0.14856399445E+03  0.14856399448E+03  0.25500000920E-02 0. -1.
    10030    2    1    2    0    0  0.00000000000E+00  0.00000000000E+00  0.22774461734E+04  0.25745741624E+04  0.12006960667E+04 0.  0.
        2    1    3    3  502    0  0.32420158640E+03 -0.14484786300E+03  0.10074917049E+03  0.36910427713E+03  0.25500000920E-02 0. -1.
       -2    1    3    3    0  502 -0.32420158640E+03  0.14484786300E+03  0.21766970029E+04  0.22054698852E+04  0.25500000920E-02 0.  1.
</event>
<event>
 5   0  0.8908478E-04  0.1200834E+04  0.7818609E-02  0.9112127E-01
       -1   -1    0    0    0  501  0.00000000000E+00  0.00000000000E+00  0.94213720339E+03  0.94213720341E+03  0.50400001928E-02 0.  1.
        1   -1    0    0  501    0  0.00000000000E+00  0.00000000000E+00 -0.38264120900E+03  0.38264120903E+03  0.50400001928E-02 0. -1.
    10030    2    1    2    0    0  0.00000000000E+00  0.00000000000E+00  0.55949599439E+03  0.13247784124E+04  0.12008339079E+04 0.  0.
        4    1    3    3  502    0 -0.13019049217E+03 -0.35991849458E+03  0.79010646291E+03  0.87792979368E+03  0.12699999809E+01 0.  1.
       -4    1    3    3    0  502  0.13019049217E+03  0.35991849458E+03 -0.23061046852E+03  0.44684861876E+03  0.12699999809E+01 0. -1.
</event>
<event>
 5   0  0.8908478E-04  0.1203529E+04  0.7818609E-02  0.9109773E-01
       -1   -1    0    0    0  501  0.00000000000E+00  0.00000000000E+00  0.32432245891E+03  0.32432245895E+03  0.50400001928E-02 0.  1.
        1   -1    0    0  501    0  0.00000000000E+00  0.00000000000E+00 -0.11165454257E+04  0.11165454257E+04  0.50400001928E-02 0. -1.
    10030    2    1    2    0    0  0.00000000000E+00  0.00000000000E+00 -0.79222296677E+03  0.14408678846E+04  0.12035294063E+04 0.  0.
        4    1    3    3  502    0 -0.37546168313E+02 -0.59848907937E+03 -0.33600940974E+03  0.68738841219E+03  0.12699999809E+01 0. -1.
       -4    1    3    3    0  502  0.37546168313E+02  0.59848907937E+03 -0.45621355704E+03  0.75347947245E+03  0.12699999809E+01 0.  1.
</event>
<event>
 5   0  0.1551501E-03  0.1202129E+04  0.7818609E-02  0.9110995E-01
        2   -1    0    0  501    0  0.00000000000E+00  0.00000000000E+00  0.14943954606E+04  0.14943954606E+04  0.25500000920E-02 0.  1.
       -2   -1    0    0    0  501  0.00000000000E+00  0.00000000000E+00 -0.24175555630E+03  0.24175555631E+03  0.25500000920E-02 0. -1.
    10030    2    1    2    0    0  0.00000000000E+00  0.00000000000E+00  0.12526399043E+04  0.17361510169E+04  0.12021287883E+04 0.  0.
        4    1    3    3  502    0  0.25565242453E+03  0.31954279943E+03  0.12621275983E+04  0.13268132687E+04  0.12699999809E+01 0.  1.
       -4    1    3    3    0  502 -0.25565242453E+03 -0.31954279943E+03 -0.94876939987E+01  0.40933774817E+03  0.12699999809E+01 0. -1.
</event>
<event>
 5   0  0.9208078E-04  0.1272090E+04  0.7818609E-02  0.9051995E-01
        1   -1    0    0  501    0  0.00000000000E+00  0.00000000000E+00  0.75680425045E+03  0.75680425047E+03  0.50400001928E-02 0. -1.
       -1   -1    0    0    0  501  0.00000000000E+00  0.00000000000E+00 -0.53455492782E+03  0.53455492784E+03  0.50400001928E-02 0.  1.
    10030    2    1    2    0    0  0.00000000000E+00  0.00000000000E+00  0.22224932264E+03  0.12913591783E+04  0.12720903136E+04 0.  0.
        3    1    3    3  502    0 -0.37554126145E+03  0.32808118394E+03  0.51192785433E+03  0.71465980756E+03  0.10100000352E+00 0. -1.
       -3    1    3    3    0  502  0.37554126145E+03 -0.32808118394E+03 -0.28967853169E+03  0.57669937075E+03  0.10100000352E+00 0.  1.
</event>
<event>
 5   0  0.6137750E-04  0.1187950E+04  0.7818609E-02  0.9123469E-01
       -4   -1    0    0    0  501  0.00000000000E+00  0.00000000000E+00  0.36666562759E+03  0.36666782700E+03  0.12699999809E+01 0. -1.
        4   -1    0    0  501    0  0.00000000000E+00  0.00000000000E+00 -0.96219678979E+03  0.96219762792E+03  0.12699999809E+01 0.  1.
    10030    2    1    2    0    0  0.00000000000E+00  0.00000000000E+00 -0.59553116219E+03  0.13288654549E+04  0.11879503492E+04 0.  0.
        4    1    3    3  502    0 -0.26279840157E+03 -0.18743017278E+03 -0.85552076254E+03  0.91439075759E+03  0.12699999809E+01 0.  1.
       -4    1    3    3    0  502  0.26279840157E+03  0.18743017278E+03  0.25998960035E+03  0.41447469733E+03  0.12699999809E+01 0. -1.
</event>
<event>
 5   0  0.1597352E-03  0.1147506E+04  0.7818609E-02  0.9160087E-01
        2   -1    0    0  501    0  0.00000000000E+00  0.00000000000E+00  0.20353985342E+04  0.20353985342E+04  0.25500000920E-02 0. -1.
       -2   -1    0    0    0  501  0.00000000000E+00  0.00000000000E+00 -0.16173368167E+03  0.16173368169E+03  0.25500000920E-02 0.  1.
    10030    2    1    2    0    0  0.00000000000E+00  0.00000000000E+00  0.18736648525E+04  0.21971322159E+04  0.11475059889E+04 0.  0.
        1    1    3    3  502    0 -0.34476324813E+03 -0.21116778121E+03  0.17163278115E+04  0.17633022105E+04  0.50400001928E-02 0. -1.
       -1    1    3    3    0  502  0.34476324813E+03  0.21116778121E+03  0.15733704107E+03  0.43383000542E+03  0.50400001928E-02 0.  1.
</event>
<event>
 5   0  0.1647550E-03  0.1201605E+04  0.7818609E-02  0.9111453E-01
        2   -1    0    0  501    0  0.00000000000E+00  0.00000000000E+00  0.62452832292E+03  0.62452832292E+03  0.25500000920E-02 0. -1.
       -2   -1    0    0    0  501  0.00000000000E+00  0.00000000000E+00 -0.57797771683E+03  0.57797771683E+03  0.25500000920E-02 0.  1.
    10030    2    1    2    0    0  0.00000000000E+00  0.00000000000E+00  0.46550606093E+02  0.12025060398E+04  0.12016046840E+04 0.  0.
        3    1    3    3  502    0  0.24879076509E+03 -0.36159981676E+03 -0.38729110730E+03  0.58535944878E+03  0.10100000352E+00 0.  1.
       -3    1    3    3    0  502 -0.24879076509E+03  0.36159981676E+03  0.43384171340E+03  0.61714659098E+03  0.10100000352E+00 0. -1.
</event>
<event>
 5   0  0.1537557E-03  0.1199133E+04  0.7818609E-02  0.9113616E-01
        2   -1    0    0  501    0  0.00000000000E+00  0.00000000000E+00  0.99158791523E+03  0.99158791523E+03  0.25500000920E-02 0.  1.
       -2   -1    0    0    0  501  0.00000000000E+00  0.00000000000E+00 -0.36252949072E+03  0.36252949073E+03  0.25500000920E-02 0. -1.
    10030    2    1    2    0    0  0.00000000000E+00  0.00000000000E+00  0.62905842451E+03  0.13541174060E+04  0.11991327898E+04 0.  0.
        2    1    3    3  502    0  0.21734818955E+03 -0.43764477395E+03 -0.77803654052E+02  0.49479954755E+03  0.25500000920E-02 0. -1.
       -2    1    3    3    0  502 -0.21734818955E+03  0.43764477395E+03  0.70686207856E+03  0.85931785841E+03  0.25500000920E-02 0.  1.
</event>
<event>
 5   0  0.9169078E-04  0.1189122E+04  0.7818609E-02  0.9122431E-01
        1   -1    0    0  501    0  0.00000000000E+00  0.00000000000E+00  0.15181267622E+04  0.15181267622E+04  0.50400001928E-02 0.  1.
       -1   -1    0    0    0  501  0.00000000000E+00  0.00000000000E+00 -0.23285474422E+03  0.23285474428E+03  0.50400001928E-02 0. -1.
    10030    2    1    2    0    0  0.00000000000E+00  0.00000000000E+00  0.12852720180E+04  0.17509815065E+04  0.11891223974E+04 0.  0.
        1    1    3    3  502    0 -0.50713653423E+02 -0.46977900441E+03  0.11123148763E+03  0.48542417687E+03  0.50400001928E-02 0. -1.
       -1    1    3    3    0  502  0.50713653423E+02  0.46977900441E+03  0.11740405304E+04  0.12655573296E+04  0.50400001928E-02 0.  1.
</event>
<event>
 5   0  0.1551501E-03  0.1195576E+04  0.7818609E-02  0.9116738E-01
       -2   -1    0    0    0  501  0.00000000000E+00  0.00000000000E+00  0.34351343040E+03  0.34351343041E+03  0.25500000920E-02 0. -1.
        2   -1    0    0  501    0  0.00000000000E+00  0.00000000000E+00 -0.10402811241E+04  0.10402811241E+04  0.25500000920E-02 0.  1.
    10030    2    1    2    0    0  0.00000000000E+00  0.00000000000E+00 -0.69676769370E+03  0.13837945545E+04  0.11955760746E+04 0.  0.
        4    1    3    3  502    0  0.59586870239E+03 -0.16354641548E+02 -0.40042878739E+03  0.71810292539E+03  0.12699999809E+01 0.  1.
       -4    1    3    3    0  502 -0.59586870239E+03  0.16354641548E+02 -0.29633890631E+03  0.66569162912E+03  0.12699999809E+01 0. -1.
</event>
<event>
 5   0  0.9208078E-04  0.1198265E+04  0.7818609E-02  0.9114376E-01
       -1   -1    0    0    0  501  0.00000000000E+00  0.00000000000E+00  0.75464699680E+03  0.75464699682E+03  0.50400001928E-02 0. -1.
        1   -1    0    0  501    0  0.00000000000E+00  0.00000000000E+00 -0.47566591524E+03  0.47566591526E+03  0.50400001928E-02 0.  1.
    10030    2    1    2    0    0  0.00000000000E+00  0.00000000000E+00  0.27898108156E+03  0.12303129121E+04  0.11982651701E+04 0.  0.
        3    1    3    3  502    0 -0.53190256627E+03  0.74062905527E+00  0.42261716966E+03  0.67935717471E+03  0.10100000352E+00 0. -1.
       -3    1    3    3    0  502  0.53190256627E+03 -0.74062905527E+00 -0.14363608810E+03  0.55095573737E+03  0.10100000352E+00 0.  1.
</event>
<event>
 5   0  0.1647550E-03  0.1179777E+04  0.7818609E-02  0.9130744E-01
        2   -1    0    0  501    0  0.00000000000E+00  0.00000000000E+00  0.58556706251E+03  0.58556706252E+03  0.25500000920E-02 0.  1.
       -2   -1    0    0    0  501  0.00000000000E+00  0.00000000000E+00 -0.59424154362E+03  0.59424154362E+03  0.25500000920E-02 0. -1.
    10030    2    1    2    0    0  0.00000000000E+00  0.00000000000E+00 -0.86744811026E+01  0.11798086061E+04  0.11797767164E+04 0.  0.
        3    1    3    3  502    0  0.75414286507E+02  0.47123967246E+03  0.34239121279E+03  0.58735500024E+03  0.10100000352E+00 0.  1.
       -3    1    3    3    0  502 -0.75414286507E+02 -0.47123967246E+03 -0.35106569389E+03  0.59245360590E+03  0.10100000352E+00 0. -1.
</event>
<event>
 5   0  0.1647550E-03  0.1193354E+04  0.7818609E-02  0.9118694E-01
       -2   -1    0    0    0  501  0.00000000000E+00  0.00000000000E+00  0.54494965705E+03  0.54494965706E+03  0.25500000920E-02 0. -1.
        2   -1    0    0  501    0  0.00000000000E+00  0.00000000000E+00 -0.65331430033E+03  0.65331430034E+03  0.25500000920E-02 0.  1.
    10030    2    1    2    0    0  0.00000000000E+00  0.00000000000E+00 -0.10836464328E+03  0.11982639574E+04  0.11933539356E+04 0.  0.
        3    1    3    3  502    0  0.23400562044E+03 -0.51748689785E+03 -0.23788882770E+03  0.61574542173E+03  0.10100000352E+00 0.  1.
       -3    1    3    3    0  502 -0.23400562044E+03  0.51748689785E+03  0.12952418442E+03  0.58251853566E+03  0.10100000352E+00 0. -1.
</event>
<event>
 5   0  0.8908478E-04  0.1199478E+04  0.7818609E-02  0.9113313E-01
        1   -1    0    0  501    0  0.00000000000E+00  0.00000000000E+00  0.92739630741E+03  0.92739630742E+03  0.50400001928E-02 0.  1.
       -1   -1    0    0    0  501  0.00000000000E+00  0.00000000000E+00 -0.38784606513E+03  0.38784606517E+03  0.50400001928E-02 0. -1.
    10030    2    1    2    0    0  0.00000000000E+00  0.00000000000E+00  0.53955024228E+03  0.13152423726E+04  0.11994782344E+04 0.  0.
        4    1    3    3  502    0 -0.19591447247E+03 -0.78854392563E+01  0.89125736590E+03  0.91257107440E+03  0.12699999809E+01 0.  1.
       -4    1    3    3    0  502  0.19591447247E+03  0.78854392563E+01 -0.35170712362E+03  0.40267129818E+03  0.12699999809E+01 0. -1.
</event>
<event>
 5   0  0.9169078E-04  0.1206495E+04  0.7818609E-02  0.9107191E-01
        1   -1    0    0  501    0  0.00000000000E+00  0.00000000000E+00  0.54277289977E+03  0.54277289979E+03  0.50400001928E-02 0.  1.
       -1   -1    0    0    0  501  0.00000000000E+00  0.00000000000E+00 -0.67045973462E+03  0.67045973464E+03  0.50400001928E-02 0. -1.
    10030    2    1    2    0    0  0.00000000000E+00  0.00000000000E+00 -0.12768683485E+03  0.12132326344E+04  0.12064947151E+04 0.  0.
        1    1    3    3  502    0  0.42266286940E+03  0.43019856581E+03 -0.77801394910E+02  0.60808532647E+03  0.50400001928E-02 0. -1.
       -1    1    3    3    0  502 -0.42266286940E+03 -0.43019856581E+03 -0.49885439938E+02  0.60514730796E+03  0.50400001928E-02 0.  1.
</event>
<event>
 5   0  0.1597352E-03  0.1341579E+04  0.7818609E-02  0.8997227E-01
       -2   -1    0    0    0  501  0.00000000000E+00  0.00000000000E+00  0.32444978365E+03  0.32444978366E+03  0.25500000920E-02 0. -1.
        2   -1    0    0  501    0  0.00000000000E+00  0.00000000000E+00 -0.13868359733E+04  0.13868359733E+04  0.25500000920E-02 0.  1.
    10030    2    1    2    0    0  0.00000000000E+00  0.00000000000E+00 -0.10623861896E+04  0.17112857569E+04  0.13415791166E+04 0.  0.
        1    1    3    3  502    0 -0.23855168338E+03  0.50713976494E+03 -0.61024490766E+02  0.56375671644E+03  0.50400001928E-02 0. -1.
       -1    1    3    3    0  502  0.23855168338E+03 -0.50713976494E+03 -0.10013616988E+04  0.11475290405E+04  0.50400001928E-02 0.  1.
</event>
<event>
 5   0  0.8908478E-04  0.1192658E+04  0.7818609E-02  0.9119307E-01
       -1   -1    0    0    0  501  0.00000000000E+00  0.00000000000E+00  0.37341756578E+03  0.37341756581E+03  0.50400001928E-02 0. -1.
        1   -1    0    0  501    0  0.00000000000E+00  0.00000000000E+00 -0.95230710023E+03  0.95230710024E+03  0.50400001928E-02 0.  1.
    10030    2    1    2    0    0  0.00000000000E+00  0.00000000000E+00 -0.57888953445E+03  0.13257246661E+04  0.11926578709E+04 0.  0.
        4    1    3    3  502    0 -0.38120681795E+03  0.38055287908E+03 -0.57385825344E+03  0.78705402595E+03  0.12699999809E+01 0.  1.
       -4    1    3    3    0  502  0.38120681795E+03 -0.38055287908E+03 -0.50312810141E+01  0.53867064011E+03  0.12699999809E+01 0. -1.
</event>
<event>
 5   0  0.1567019E-03  0.1196444E+04  0.7818609E-02  0.9115975E-01
        2   -1    0    0  501    0  0.00000000000E+00  0.00000000000E+00  0.13371554894E+04  0.13371554894E+04  0.25500000920E-02 0.  1.
       -2   -1    0    0    0  501  0.00000000000E+00  0.00000000000E+00 -0.26763494820E+03  0.26763494821E+03  0.25500000920E-02 0. -1.
    10030    2    1    2    0    0  0.00000000000E+00  0.00000000000E+00  0.10695205412E+04  0.16047904376E+04  0.11964439647E+04 0.  0.
        5    1    3    3  502    0 -0.21576047044E+03 -0.88007988294E+02  0.12737539084E+04  0.12949011915E+04  0.46999998093E+01 0.  1.
       -5    1    3    3    0  502  0.21576047044E+03  0.88007988294E+02 -0.20423336716E+03  0.30988924614E+03  0.46999998093E+01 0. -1.
</event>
<event>
 5   0  0.9358428E-04  0.1204697E+04  0.7818609E-02  0.9108755E-01
       -1   -1    0    0    0  501  0.00000000000E+00  0.00000000000E+00  0.46007762836E+03  0.46007762839E+03  0.50400001928E-02 0.  1.
        1   -1    0    0  501    0  0.00000000000E+00  0.00000000000E+00 -0.78861476468E+03  0.78861476469E+03  0.50400001928E-02 0. -1.
    10030    2    1    2    0    0  0.00000000000E+00  0.00000000000E+00 -0.32853713632E+03  0.12486923931E+04  0.12046974901E+04 0.  0.
        2    1    3    3  502    0  0.26051960088E+03 -0.98217491756E+02 -0.71791636634E+03  0.77001366689E+03  0.25500000920E-02 0. -1.
       -2    1    3    3    0  502 -0.26051960088E+03  0.98217491756E+02  0.38937923002E+03  0.47867872619E+03  0.25500000920E-02 0.  1.
</event>
<event>
 5   0  0.9170776E-04  0.1209201E+04  0.7818609E-02  0.9104841E-01
        1   -1    0    0  501    0  0.00000000000E+00  0.00000000000E+00  0.75591717794E+03  0.75591717796E+03  0.50400001928E-02 0.  1.
       -1   -1    0    0    0  501  0.00000000000E+00  0.00000000000E+00 -0.48357384006E+03  0.48357384009E+03  0.50400001928E-02 0. -1.
    10030    2    1    2    0    0  0.00000000000E+00  0.00000000000E+00  0.27234333788E+03  0.12394910180E+04  0.12092010131E+04 0.  0.
        5    1    3    3  502    0 -0.20111679278E+03 -0.22739765070E+03 -0.39976561925E+03  0.50198834271E+03  0.46999998093E+01 0. -1.
       -5    1    3    3    0  502  0.20111679278E+03  0.22739765070E+03  0.67210895713E+03  0.73750267534E+03  0.46999998093E+01 0.  1.
</event>
<event>
 5   0  0.9169078E-04  0.1204655E+04  0.7818609E-02  0.9108792E-01
        1   -1    0    0  501    0  0.00000000000E+00  0.00000000000E+00  0.10508149418E+04  0.10508149418E+04  0.50400001928E-02 0.  1.
       -1   -1    0    0    0  501  0.00000000000E+00  0.00000000000E+00 -0.34525427242E+03  0.34525427246E+03  0.50400001928E-02 0. -1.
    10030    2    1    2    0    0  0.00000000000E+00  0.00000000000E+00  0.70556066939E+03  0.13960692143E+04  0.12046548854E+04 0.  0.
        1    1    3    3  502    0  0.18290609786E+03  0.35912563429E+02  0.10165493409E+04  0.10334974191E+04  0.50400001928E-02 0.  1.
       -1    1    3    3    0  502 -0.18290609786E+03 -0.35912563429E+02 -0.31098867147E+03  0.36257179518E+03  0.50400001928E-02 0. -1.
</event>
<event>
 5   0  0.1567019E-03  0.1195840E+04  0.7818609E-02  0.9116505E-01
        2   -1    0    0  501    0  0.00000000000E+00  0.00000000000E+00  0.29621028436E+03  0.29621028437E+03  0.25500000920E-02 0. -1.
       -2   -1    0    0    0  501  0.00000000000E+00  0.00000000000E+00 -0.12069417703E+04  0.12069417703E+04  0.25500000920E-02 0.  1.
    10030    2    1    2    0    0  0.00000000000E+00  0.00000000000E+00 -0.91073148590E+03  0.15031520546E+04  0.11958403990E+04 0.  0.
        5    1    3    3  502    0 -0.14369160908E+03  0.43189812541E+03 -0.94268527161E+03  0.10468337407E+04  0.46999998093E+01 0.  1.
       -5    1    3    3    0  502  0.14369160908E+03 -0.43189812541E+03  0.31953785718E+02  0.45631831397E+03  0.46999998093E+01 0. -1.
</event>
<event>
 5   0  0.9358428E-04  0.1195496E+04  0.7818609E-02  0.9116808E-01
       -1   -1    0    0    0  501  0.00000000000E+00  0.00000000000E+00  0.64849482343E+03  0.64849482345E+03  0.50400001928E-02 0. -1.
        1   -1    0    0  501    0  0.00000000000E+00  0.00000000000E+00 -0.55097196500E+03  0.55097196503E+03  0.50400001928E-02 0.  1.
    10030    2    1    2    0    0  0.00000000000E+00  0.00000000000E+00  0.97522858426E+02  0.11994667885E+04  0.11954956582E+04 0.  0.
        2    1    3    3  502    0  0.40909047605E+03  0.27470009710E+03 -0.29072224416E+03  0.57213161440E+03  0.25500000920E-02 0.  1.
       -2    1    3    3    0  502 -0.40909047605E+03 -0.27470009710E+03  0.38824510259E+03  0.62733517407E+03  0.25500000920E-02 0. -1.
</event>
<event>
 5   0  0.9208078E-04  0.1200253E+04  0.7818609E-02  0.9112635E-01
        1   -1    0    0  501    0  0.00000000000E+00  0.00000000000E+00  0.84389941130E+03  0.84389941132E+03  0.50400001928E-02 0.  1.
       -1   -1    0    0    0  501  0.00000000000E+00  0.00000000000E+00 -0.42677116999E+03  0.42677117002E+03  0.50400001928E-02 0. -1.
    10030    2    1    2    0    0  0.00000000000E+00  0.00000000000E+00  0.41712824131E+03  0.12706705813E+04  0.12002532052E+04 0.  0.
        3    1    3    3  502    0 -0.58074990834E+03  0.41388721270E+02  0.54534375767E+02  0.58477131482E+03  0.10100000352E+00 0.  1.
       -3    1    3    3    0  502  0.58074990834E+03 -0.41388721270E+02  0.36259386554E+03  0.68589926653E+03  0.10100000352E+00 0. -1.
</event>
<event>
 5   0  0.1647550E-03  0.1192479E+04  0.7818609E-02  0.9119465E-01
       -2   -1    0    0    0  501  0.00000000000E+00  0.00000000000E+00  0.47125597771E+03  0.47125597771E+03  0.25500000920E-02 0. -1.
        2   -1    0    0  501    0  0.00000000000E+00  0.00000000000E+00 -0.75437056106E+03  0.75437056106E+03  0.25500000920E-02 0.  1.
    10030    2    1    2    0    0  0.00000000000E+00  0.00000000000E+00 -0.28311458335E+03  0.12256265388E+04  0.11924791593E+04 0.  0.
        3    1    3    3  502    0  0.35387211264E+03  0.40363572942E+03  0.12518396291E+03  0.55119715978E+03  0.10100000352E+00 0. -1.
       -3    1    3    3    0  502 -0.35387211264E+03 -0.40363572942E+03 -0.40829854627E+03  0.67442937900E+03  0.10100000352E+00 0.  1.
</event>
<event>
 5   0  0.1567019E-03  0.1190597E+04  0.7818609E-02  0.9121127E-01
        2   -1    0    0  501    0  0.00000000000E+00  0.00000000000E+00  0.82394031498E+03  0.82394031499E+03  0.25500000920E-02 0.  1.
       -2   -1    0    0    0  501  0.00000000000E+00  0.00000000000E+00 -0.43010424743E+03  0.43010424744E+03  0.25500000920E-02 0. -1.
    10030    2    1    2    0    0  0.00000000000E+00  0.00000000000E+00  0.39383606755E+03  0.12540445624E+04  0.11905968740E+04 0.  0.
        5    1    3    3  502    0 -0.26522760480E+03  0.44351299104E+03  0.50814480799E+03  0.72476388669E+03  0.46999998093E+01 0.  1.
       -5    1    3    3    0  502  0.26522760480E+03 -0.44351299104E+03 -0.11430874043E+03  0.52928067573E+03  0.46999998093E+01 0. -1.
</event>
<event>
 5   0  0.1597352E-03  0.1205570E+04  0.7818609E-02  0.9107995E-01
        2   -1    0    0  501    0  0.00000000000E+00  0.00000000000E+00  0.54279621215E+03  0.54279621215E+03  0.25500000920E-02 0.  1.
       -2   -1    0    0    0  501  0.00000000000E+00  0.00000000000E+00 -0.66940360580E+03  0.66940360581E+03  0.25500000920E-02 0. -1.
    10030    2    1    2    0    0  0.00000000000E+00  0.00000000000E+00 -0.12660739366E+03  0.12121998180E+04  0.12055699758E+04 0.  0.
        1    1    3    3  502    0  0.46631960150E+03  0.20884200121E+03  0.25826874730E+03  0.57251349161E+03  0.50400001928E-02 0. -1.
       -1    1    3    3    0  502 -0.46631960150E+03 -0.20884200121E+03 -0.38487614096E+03  0.63968632635E+03  0.50400001928E-02 0.  1.
</event>
<event>
 5   0  0.8908478E-04  0.1209285E+04  0.7818609E-02  0.9104768E-01
        1   -1    0    0  501    0  0.00000000000E+00  0.00000000000E+00  0.58910421764E+03  0.58910421766E+03  0.50400001928E-02 0.  1.
       -1   -1    0    0    0  501  0.00000000000E+00  0.00000000000E+00 -0.62059107547E+03  0.62059107549E+03  0.50400001928E-02 0. -1.
    10030    2    1    2    0    0  0.00000000000E+00  0.00000000000E+00 -0.31486857829E+02  0.12096952932E+04  0.12092854419E+04 0.  0.
        4    1    3    3  502    0 -0.14166448678E+03  0.54201149707E+03  0.21181095747E+03  0.59892469006E+03  0.12699999809E+01 0.  1.
       -4    1    3    3    0  502  0.14166448678E+03 -0.54201149707E+03 -0.24329781530E+03  0.61077060309E+03  0.12699999809E+01 0. -1.
</event>
<event>
 5   0  0.9208078E-04  0.1208560E+04  0.7818609E-02  0.9105396E-01
       -1   -1    0    0    0  501  0.00000000000E+00  0.00000000000E+00  0.14946830240E+03  0.14946830248E+03  0.50400001928E-02 0. -1.
        1   -1    0    0  501    0  0.00000000000E+00  0.00000000000E+00 -0.24430234278E+04  0.24430234278E+04  0.50400001928E-02 0.  1.
    10030    2    1    2    0    0  0.00000000000E+00  0.00000000000E+00 -0.22935551254E+04  0.25924917303E+04  0.12085604074E+04 0.  0.
        3    1    3    3  502    0  0.25031997927E+03  0.21858838445E+03 -0.64160001483E+02  0.33846342466E+03  0.10100000352E+00 0. -1.
       -3    1    3    3    0  502 -0.25031997927E+03 -0.21858838445E+03 -0.22293951239E+04  0.22540283056E+04  0.10100000352E+00 0.  1.
</event>
<event>
 5   0  0.9169078E-04  0.1186967E+04  0.7818609E-02  0.9124341E-01
        1   -1    0    0  501    0  0.00000000000E+00  0.00000000000E+00  0.76557214855E+03  0.76557214857E+03  0.50400001928E-02 0.  1.
       -1   -1    0    0    0  501  0.00000000000E+00  0.00000000000E+00 -0.46007784270E+03  0.46007784273E+03  0.50400001928E-02 0. -1.
    10030    2    1    2    0    0  0.00000000000E+00  0.00000000000E+00  0.30549430585E+03  0.12256499913E+04  0.11869671985E+04 0.  0.
        1    1    3    3  502    0  0.16426469630E+03  0.18789469800E+03  0.70875180707E+03  0.75140962998E+03  0.50400001928E-02 0.  1.
       -1    1    3    3    0  502 -0.16426469630E+03 -0.18789469800E+03 -0.40325750121E+03  0.47424036131E+03  0.50400001928E-02 0. -1.
</event>
<event>
 5   0  0.1537557E-03  0.1201213E+04  0.7818609E-02  0.9111795E-01
        2   -1    0    0  501    0  0.00000000000E+00  0.00000000000E+00  0.14274685019E+04  0.14274685019E+04  0.25500000920E-02 0.  1.
       -2   -1    0    0    0  501  0.00000000000E+00  0.00000000000E+00 -0.25270498589E+03  0.25270498591E+03  0.25500000920E-02 0. -1.
    10030    2    1    2    0    0  0.00000000000E+00  0.00000000000E+00  0.11747635160E+04  0.16801734878E+04  0.12012133993E+04 0.  0.
        2    1    3    3  502    0  0.47152125838E+03  0.36477826077E+03  0.48523679805E+03  0.76866782606E+03  0.25500000920E-02 0. -1.
       -2    1    3    3    0  502 -0.47152125838E+03 -0.36477826077E+03  0.68952671797E+03  0.91150566177E+03  0.25500000920E-02 0.  1.
</event>
<event>
 5   0  0.9169078E-04  0.1194914E+04  0.7818609E-02  0.9117320E-01
        1   -1    0    0  501    0  0.00000000000E+00  0.00000000000E+00  0.12848683458E+04  0.12848683458E+04  0.50400001928E-02 0. -1.
       -1   -1    0    0    0  501  0.00000000000E+00  0.00000000000E+00 -0.27781419611E+03  0.27781419616E+03  0.50400001928E-02 0.  1.
    10030    2    1    2    0    0  0.00000000000E+00  0.00000000000E+00  0.10070541497E+04  0.15626825420E+04  0.11949136649E+04 0.  0.
        1    1    3    3  502    0 -0.24213039287E+03  0.18446407974E+02 -0.21036586665E+03  0.32128055497E+03  0.50400001928E-02 0.  1.
       -1    1    3    3    0  502  0.24213039287E+03 -0.18446407974E+02  0.12174200164E+04  0.12414019870E+04  0.50400001928E-02 0. -1.
</event>
<event>
 5   0  0.6137750E-04  0.1201049E+04  0.7818609E-02  0.9111939E-01
       -4   -1    0    0    0  501  0.00000000000E+00  0.00000000000E+00  0.76702454444E+03  0.76702559584E+03  0.12699999809E+01 0.  1.
        4   -1    0    0  501    0  0.00000000000E+00  0.00000000000E+00 -0.47016477343E+03  0.47016648868E+03  0.12699999809E+01 0. -1.
    10030    2    1    2    0    0  0.00000000000E+00  0.00000000000E+00  0.29685977101E+03  0.12371920845E+04  0.12010489292E+04 0.  0.
        2    1    3    3  502    0  0.49807088703E+03 -0.40917748752E+02  0.49143810972E+03  0.70089962646E+03  0.25500000920E-02 0.  1.
       -2    1    3    3    0  502 -0.49807088703E+03  0.40917748752E+02 -0.19457833871E+03  0.53629245806E+03  0.25500000920E-02 0. -1.
</event>
<event>
 5   0  0.8908478E-04  0.1202000E+04  0.7818609E-02  0.9111108E-01
       -1   -1    0    0    0  501  0.00000000000E+00  0.00000000000E+00  0.35571814921E+03  0.35571814925E+03  0.50400001928E-02 0. -1.
        1   -1    0    0  501    0  0.00000000000E+00  0.00000000000E+00 -0.10154129130E+04  0.10154129130E+04  0.50400001928E-02 0.  1.
    10030    2    1    2    0    0  0.00000000000E+00  0.00000000000E+00 -0.65969476378E+03  0.13711310622E+04  0.12019996708E+04 0.  0.
        4    1    3    3  502    0 -0.19365419626E+03  0.51492527282E+03 -0.53830832767E+02  0.55276519045E+03  0.12699999809E+01 0. -1.
       -4    1    3    3    0  502  0.19365419626E+03 -0.51492527282E+03 -0.60586393101E+03  0.81836587180E+03  0.12699999809E+01 0.  1.
</event>
<event>
 5   0  0.1597352E-03  0.1199985E+04  0.7818609E-02  0.9112870E-01
       -2   -1    0    0    0  501  0.00000000000E+00  0.00000000000E+00  0.18723018580E+03  0.18723018581E+03  0.25500000920E-02 0. -1.
        2   -1    0    0  501    0  0.00000000000E+00  0.00000000000E+00 -0.19227179722E+04  0.19227179722E+04  0.25500000920E-02 0.  1.
    10030    2    1    2    0    0  0.00000000000E+00  0.00000000000E+00 -0.17354877864E+04  0.21099481580E+04  0.11999847385E+04 0.  0.
        1    1    3    3  502    0  0.19757809151E+03 -0.30678417459E+02  0.12692740110E+03  0.23683081033E+03  0.50400001928E-02 0. -1.
       -1    1    3    3    0  502 -0.19757809151E+03  0.30678417459E+02 -0.18624151875E+04  0.18731173477E+04  0.50400001928E-02 0.  1.
</event>
<event>
 5   0  0.1647550E-03  0.1196806E+04  0.7818609E-02  0.9115656E-01
        2   -1    0    0  501    0  0.00000000000E+00  0.00000000000E+00  0.14435651435E+04  0.14435651435E+04  0.25500000920E-02 0. -1.
       -2   -1    0    0    0  501  0.00000000000E+00  0.00000000000E+00 -0.24805698644E+03  0.24805698645E+03  0.25500000920E-02 0.  1.
    10030    2    1    2    0    0  0.00000000000E+00  0.00000000000E+00  0.11955081570E+04  0.16916221299E+04  0.11968064492E+04 0.  0.
        3    1    3    3  502    0  0.45767321231E+03  0.12581357731E+03  0.11128241876E+04  0.12098229243E+04  0.10100000352E+00 0. -1.
       -3    1    3    3    0  502 -0.45767321231E+03 -0.12581357731E+03  0.82683969410E+02  0.48179920559E+03  0.10100000352E+00 0.  1.
</event>
<event>
 5   0  0.9358428E-04  0.1218152E+04  0.7818609E-02  0.9097114E-01
       -1   -1    0    0    0  501  0.00000000000E+00  0.00000000000E+00  0.22152790738E+03  0.22152790744E+03  0.50400001928E-02 0. -1.
        1   -1    0    0  501    0  0.00000000000E+00  0.00000000000E+00 -0.16746146336E+04  0.16746146336E+04  0.50400001928E-02 0.  1.
    10030    2    1    2    0    0  0.00000000000E+00  0.00000000000E+00 -0.14530867262E+04  0.18961425411E+04  0.12181524954E+04 0.  0.
        2    1    3    3  502    0  0.33486046054E+03  0.91637762577E+02 -0.15055217195E+04  0.15450322506E+04  0.25500000920E-02 0.  1.
       -2    1    3    3    0  502 -0.33486046054E+03 -0.91637762577E+02  0.52434993224E+02  0.35111029049E+03  0.25500000920E-02 0. -1.
</event>
<event>
 5   0  0.6137750E-04  0.1178031E+04  0.7818609E-02  0.9132307E-01
        3   -1    0    0  501    0  0.00000000000E+00  0.00000000000E+00  0.61377558116E+03  0.61377558947E+03  0.10100000352E+00 0. -1.
       -3   -1    0    0    0  501  0.00000000000E+00  0.00000000000E+00 -0.56525392707E+03  0.56525393609E+03  0.10100000352E+00 0.  1.
    10030    2    1    2    0    0  0.00000000000E+00  0.00000000000E+00  0.48521654098E+02  0.11790295256E+04  0.11780306750E+04 0.  0.
        4    1    3    3  502    0  0.29050094727E+03 -0.25305654905E+03  0.47018213324E+03  0.60786616019E+03  0.12699999809E+01 0. -1.
       -4    1    3    3    0  502 -0.29050094727E+03  0.25305654905E+03 -0.42166047914E+03  0.57116336538E+03  0.12699999809E+01 0.  1.
</event>
<event>
 5   0  0.9170776E-04  0.1213168E+04  0.7818609E-02  0.9101408E-01
       -1   -1    0    0    0  501  0.00000000000E+00  0.00000000000E+00  0.95284642304E+03  0.95284642305E+03  0.50400001928E-02 0. -1.
        1   -1    0    0  501    0  0.00000000000E+00  0.00000000000E+00 -0.38615244937E+03  0.38615244940E+03  0.50400001928E-02 0.  1.
    10030    2    1    2    0    0  0.00000000000E+00  0.00000000000E+00  0.56669397367E+03  0.13389988725E+04  0.12131677216E+04 0.  0.
        5    1    3    3  502    0 -0.16108899099E+03  0.53389093424E+03  0.54670118465E+03  0.78095676447E+03  0.46999998093E+01 0.  1.
       -5    1    3    3    0  502  0.16108899099E+03 -0.53389093424E+03  0.19992789022E+02  0.55804210799E+03  0.46999998093E+01 0. -1.
</event>
<event>
 5   0  0.1567019E-03  0.1209499E+04  0.7818609E-02  0.9104582E-01
       -2   -1    0    0    0  501  0.00000000000E+00  0.00000000000E+00  0.23146988146E+03  0.23146988147E+03  0.25500000920E-02 0.  1.
        2   -1    0    0  501    0  0.00000000000E+00  0.00000000000E+00 -0.15799986022E+04  0.15799986022E+04  0.25500000920E-02 0. -1.
    10030    2    1    2    0    0  0.00000000000E+00  0.00000000000E+00 -0.13485287208E+04  0.18114684837E+04  0.12094992173E+04 0.  0.
        5    1    3    3  502    0 -0.57577870241E+03 -0.13800412491E+03 -0.85851050917E+03  0.10428943556E+04  0.46999998093E+01 0. -1.
       -5    1    3    3    0  502  0.57577870241E+03  0.13800412491E+03 -0.49001821158E+03  0.76857412806E+03  0.46999998093E+01 0.  1.
</event>
<event>
 5   0  0.1597352E-03  0.1202369E+04  0.7818609E-02  0.9110785E-01
       -2   -1    0    0    0  501  0.00000000000E+00  0.00000000000E+00  0.59035350677E+03  0.59035350677E+03  0.25500000920E-02 0. -1.
        2   -1    0    0  501    0  0.00000000000E+00  0.00000000000E+00 -0.61221452585E+03  0.61221452586E+03  0.25500000920E-02 0.  1.
    10030    2    1    2    0    0  0.00000000000E+00  0.00000000000E+00 -0.21861019086E+02  0.12025680326E+04  0.12023693147E+04 0.  0.
        1    1    3    3  502    0 -0.31514482420E+03  0.11715412878E+02  0.50098362453E+03  0.59197812729E+03  0.50400001928E-02 0. -1.
       -1    1    3    3    0  502  0.31514482420E+03 -0.11715412878E+02 -0.52284464362E+03  0.61058990534E+03  0.50400001928E-02 0.  1.
</event>
<event>
 5   0  0.9170776E-04  0.1190053E+04  0.7818609E-02  0.9121608E-01
       -1   -1    0    0    0  501  0.00000000000E+00  0.00000000000E+00  0.42521689781E+03  0.42521689784E+03  0.50400001928E-02 0. -1.
        1   -1    0    0  501    0  0.00000000000E+00  0.00000000000E+00 -0.83264864941E+03  0.83264864943E+03  0.50400001928E-02 0.  1.
    10030    2    1    2    0    0  0.00000000000E+00  0.00000000000E+00 -0.40743175160E+03  0.12578655473E+04  0.11900525630E+04 0.  0.
        5    1    3    3  502    0  0.57270644837E+03  0.15836398212E+03 -0.23650551230E+03  0.63955357413E+03  0.46999998093E+01 0.  1.
       -5    1    3    3    0  502 -0.57270644837E+03 -0.15836398212E+03 -0.17092623930E+03  0.61831197313E+03  0.46999998093E+01 0. -1.
</event>
<event>
 5   0  0.9358428E-04  0.1217083E+04  0.7818609E-02  0.9098033E-01
       -1   -1    0    0    0  501  0.00000000000E+00  0.00000000000E+00  0.16149573538E+04  0.16149573538E+04  0.50400001928E-02 0.  1.
        1   -1    0    0  501    0  0.00000000000E+00  0.00000000000E+00 -0.22930823561E+03  0.22930823566E+03  0.50400001928E-02 0. -1.
    10030    2    1    2    0    0  0.00000000000E+00  0.00000000000E+00  0.13856491182E+04  0.18442655895E+04  0.12170834342E+04 0.  0.
        2    1    3    3  502    0 -0.11423754746E+03 -0.59643941592E+03  0.75215119577E+03  0.96670658186E+03  0.25500000920E-02 0.  1.
       -2    1    3    3    0  502  0.11423754746E+03  0.59643941592E+03  0.63349792241E+03  0.87755900760E+03  0.25500000920E-02 0. -1.
</event>
<event>
 5   0  0.1551501E-03  0.1136460E+04  0.7818609E-02  0.9170366E-01
       -2   -1    0    0    0  501  0.00000000000E+00  0.00000000000E+00  0.47782671042E+03  0.47782671043E+03  0.25500000920E-02 0.  1.
        2   -1    0    0  501    0  0.00000000000E+00  0.00000000000E+00 -0.67573750980E+03  0.67573750981E+03  0.25500000920E-02 0. -1.
    10030    2    1    2    0    0  0.00000000000E+00  0.00000000000E+00 -0.19791079939E+03  0.11535642202E+04  0.11364601734E+04 0.  0.
        4    1    3    3  502    0  0.20858535318E+03  0.18776310518E+03  0.40256674444E+03  0.49073865739E+03  0.12699999809E+01 0.  1.
       -4    1    3    3    0  502 -0.20858535318E+03 -0.18776310518E+03 -0.60047754382E+03  0.66282556285E+03  0.12699999809E+01 0. -1.
</event>
<event>
 5   0  0.1597352E-03  0.1186542E+04  0.7818609E-02  0.9124718E-01
       -2   -1    0    0    0  501  0.00000000000E+00  0.00000000000E+00  0.58248263221E+03  0.58248263222E+03  0.25500000920E-02 0. -1.
        2   -1    0    0  501    0  0.00000000000E+00  0.00000000000E+00 -0.60425963386E+03  0.60425963387E+03  0.25500000920E-02 0.  1.
    10030    2    1    2    0    0  0.00000000000E+00  0.00000000000E+00 -0.21777001651E+02  0.11867422661E+04  0.11865424427E+04 0.  0.
        1    1    3    3  502    0  0.11046211296E+03 -0.48213131979E+03  0.31676131789E+03  0.58735868127E+03  0.50400001928E-02 0. -1.
       -1    1    3    3    0  502 -0.11046211296E+03  0.48213131979E+03 -0.33853831954E+03  0.59938358481E+03  0.50400001928E-02 0.  1.
</event>
<event>
 5   0  0.1567019E-03  0.1199252E+04  0.7818609E-02  0.9113511E-01
        2   -1    0    0  501    0  0.00000000000E+00  0.00000000000E+00  0.14682382085E+04  0.14682382085E+04  0.25500000920E-02 0.  1.
       -2   -1    0    0    0  501  0.00000000000E+00  0.00000000000E+00 -0.24488629026E+03  0.24488629027E+03  0.25500000920E-02 0. -1.
    10030    2    1    2    0    0  0.00000000000E+00  0.00000000000E+00  0.12233519183E+04  0.17131244988E+04  0.11992521138E+04 0.  0.
        5    1    3    3  502    0 -0.21617156262E+03  0.49785377599E+03  0.24764592075E+03  0.59660633488E+03  0.46999998093E+01 0. -1.
       -5    1    3    3    0  502  0.21617156262E+03 -0.49785377599E+03  0.97570599752E+03  0.11165181639E+04  0.46999998093E+01 0.  1.
</event>
<event>
 5   0  0.1567019E-03  0.1166774E+04  0.7818609E-02  0.9142447E-01
        2   -1    0    0  501    0  0.00000000000E+00  0.00000000000E+00  0.40543293056E+03  0.40543293057E+03  0.25500000920E-02 0.  1.
       -2   -1    0    0    0  501  0.00000000000E+00  0.00000000000E+00 -0.83944966531E+03  0.83944966532E+03  0.25500000920E-02 0. -1.
    10030    2    1    2    0    0  0.00000000000E+00  0.00000000000E+00 -0.43401673475E+03  0.12448825959E+04  0.11667742504E+04 0.  0.
        5    1    3    3  502    0  0.13265380629E+03 -0.15193879982E+03 -0.80104295377E+03  0.82605952267E+03  0.46999998093E+01 0. -1.
       -5    1    3    3    0  502 -0.13265380629E+03  0.15193879982E+03  0.36702621902E+03  0.41882307322E+03  0.46999998093E+01 0.  1.
</event>
<event>
 5   0  0.1567019E-03  0.1198618E+04  0.7818609E-02  0.9114067E-01
        2   -1    0    0  501    0  0.00000000000E+00  0.00000000000E+00  0.23656639168E+04  0.23656639168E+04  0.25500000920E-02 0.  1.
       -2   -1    0    0    0  501  0.00000000000E+00  0.00000000000E+00 -0.15182689440E+03  0.15182689443E+03  0.25500000920E-02 0. -1.
    10030    2    1    2    0    0  0.00000000000E+00  0.00000000000E+00  0.22138370224E+04  0.25174908112E+04  0.11986182140E+04 0.  0.
        5    1    3    3  502    0  0.45544410934E+03 -0.37794901277E+03  0.90905781891E+03  0.10847502022E+04  0.46999998093E+01 0.  1.
       -5    1    3    3    0  502 -0.45544410934E+03  0.37794901277E+03  0.13047792035E+04  0.14327406091E+04  0.46999998093E+01 0. -1.
</event>
<event>
 5   0  0.9170776E-04  0.1185051E+04  0.7818609E-02  0.9126042E-01
       -1   -1    0    0    0  501  0.00000000000E+00  0.00000000000E+00  0.35326315494E+03  0.35326315498E+03  0.50400001928E-02 0.  1.
        1   -1    0    0  501    0  0.00000000000E+00  0.00000000000E+00 -0.99383915964E+03  0.99383915965E+03  0.50400001928E-02 0. -1.
    10030    2    1    2    0    0  0.00000000000E+00  0.00000000000E+00 -0.64057600470E+03  0.13471023146E+04  0.11850514876E+04 0.  0.
        5    1    3    3  502    0  0.28816762392E+03 -0.51484351436E+03 -0.25843980202E+03  0.64414101331E+03  0.46999998093E+01 0. -1.
       -5    1    3    3    0  502 -0.28816762392E+03  0.51484351436E+03 -0.38213620267E+03  0.70296130132E+03  0.46999998093E+01 0.  1.
</event>
<event>
 5   0  0.1597352E-03  0.1202865E+04  0.7818609E-02  0.9110353E-01
       -2   -1    0    0    0  501  0.00000000000E+00  0.00000000000E+00  0.52789684682E+03  0.52789684683E+03  0.25500000920E-02 0. -1.
        2   -1    0    0  501    0  0.00000000000E+00  0.00000000000E+00 -0.68521136441E+03  0.68521136441E+03  0.25500000920E-02 0.  1.
    10030    2    1    2    0    0  0.00000000000E+00  0.00000000000E+00 -0.15731451759E+03  0.12131082112E+04  0.12028647782E+04 0.  0.
        1    1    3    3  502    0  0.95792280045E+02 -0.20132283758E+03  0.48468156955E+03  0.53350095571E+03  0.50400001928E-02 0. -1.
       -1    1    3    3    0  502 -0.95792280045E+02  0.20132283758E+03 -0.64199608714E+03  0.67960725554E+03  0.50400001928E-02 0.  1.
</event>
<event>
 5   0  0.9358428E-04  0.1156165E+04  0.7818609E-02  0.9152115E-01
       -1   -1    0    0    0  501  0.00000000000E+00  0.00000000000E+00  0.35903602689E+03  0.35903602693E+03  0.50400001928E-02 0. -1.
        1   -1    0    0  501    0  0.00000000000E+00  0.00000000000E+00 -0.93076817406E+03  0.93076817407E+03  0.50400001928E-02 0.  1.
    10030    2    1    2    0    0  0.00000000000E+00  0.00000000000E+00 -0.57173214717E+03  0.12898042010E+04  0.11561648796E+04 0.  0.
        2    1    3    3  502    0 -0.45945654177E+03 -0.17037834604E+03 -0.62799036045E+03  0.79655570263E+03  0.25500000920E-02 0.  1.
       -2    1    3    3    0  502  0.45945654177E+03  0.17037834604E+03  0.56258213286E+02  0.49324849837E+03  0.25500000920E-02 0. -1.
</event>
<event>
 5   0  0.9358428E-04  0.1199477E+04  0.7818609E-02  0.9113315E-01
        1   -1    0    0  501    0  0.00000000000E+00  0.00000000000E+00  0.97698329681E+03  0.97698329683E+03  0.50400001928E-02 0.  1.
       -1   -1    0    0    0  501  0.00000000000E+00  0.00000000000E+00 -0.36816001724E+03  0.36816001727E+03  0.50400001928E-02 0. -1.
    10030    2    1    2    0    0  0.00000000000E+00  0.00000000000E+00  0.60882327958E+03  0.13451433141E+04  0.11994768650E+04 0.  0.
        2    1    3    3  502    0 -0.69489231583E+02  0.50264875545E+03  0.66292526226E+03  0.83483796512E+03  0.25500000920E-02 0.  1.
       -2    1    3    3    0  502  0.69489231583E+02 -0.50264875545E+03 -0.54101982686E+02  0.51030534898E+03  0.25500000920E-02 0. -1.
</event>
<event>
 5   0  0.9208078E-04  0.1195706E+04  0.7818609E-02  0.9116623E-01
        1   -1    0    0  501    0  0.00000000000E+00  0.00000000000E+00  0.28619906679E+03  0.28619906683E+03  0.50400001928E-02 0. -1.
       -1   -1    0    0    0  501  0.00000000000E+00  0.00000000000E+00 -0.12488798111E+04  0.12488798112E+04  0.50400001928E-02 0.  1.
    10030    2    1    2    0    0  0.00000000000E+00  0.00000000000E+00 -0.96268074435E+03  0.15350788780E+04  0.11957060450E+04 0.  0.
        3    1    3    3  502    0  0.10072735865E+03  0.44414016485E+03  0.15919449130E+02  0.45569718660E+03  0.10100000352E+00 0. -1.
       -3    1    3    3    0  502 -0.10072735865E+03 -0.44414016485E+03 -0.97860019348E+03  0.10793816914E+04  0.10100000352E+00 0.  1.
</event>
<event>
 5   0  0.1597352E-03  0.1205877E+04  0.7818609E-02  0.9107728E-01
       -2   -1    0    0    0  501  0.00000000000E+00  0.00000000000E+00  0.53915413154E+03  0.53915413154E+03  0.25500000920E-02 0.  1.
        2   -1    0    0  501    0  0.00000000000E+00  0.00000000000E+00 -0.67426912594E+03  0.67426912594E+03  0.25500000920E-02 0. -1.
    10030    2    1    2    0    0  0.00000000000E+00  0.00000000000E+00 -0.13511499440E+03  0.12134232575E+04  0.12058772492E+04 0.  0.
        1    1    3    3  502    0 -0.67801295709E+02 -0.57569605273E+03 -0.23446293463E+03  0.62529659248E+03  0.50400001928E-02 0. -1.
       -1    1    3    3    0  502  0.67801295709E+02  0.57569605273E+03  0.99347940227E+02  0.58812666500E+03  0.50400001928E-02 0.  1.
</event>
<event>
 5   0  0.8908478E-04  0.1195979E+04  0.7818609E-02  0.9116383E-01
       -1   -1    0    0    0  501  0.00000000000E+00  0.00000000000E+00  0.20697292020E+03  0.20697292026E+03  0.50400001928E-02 0.  1.
        1   -1    0    0  501    0  0.00000000000E+00  0.00000000000E+00 -0.17277207581E+04  0.17277207581E+04  0.50400001928E-02 0. -1.
    10030    2    1    2    0    0  0.00000000000E+00  0.00000000000E+00 -0.15207478379E+04  0.19346936784E+04  0.11959789474E+04 0.  0.
        4    1    3    3  502    0 -0.49643346915E+03  0.11131309134E+03 -0.25202273921E+03  0.56776215757E+03  0.12699999809E+01 0.  1.
       -4    1    3    3    0  502  0.49643346915E+03 -0.11131309134E+03 -0.12687250987E+04  0.13669315208E+04  0.12699999809E+01 0. -1.
</event>
<event>
 5   0  0.8908478E-04  0.1182945E+04  0.7818609E-02  0.9127917E-01
       -1   -1    0    0    0  501  0.00000000000E+00  0.00000000000E+00  0.28506377059E+03  0.28506377064E+03  0.50400001928E-02 0.  1.
        1   -1    0    0  501    0  0.00000000000E+00  0.00000000000E+00 -0.12272328685E+04  0.12272328685E+04  0.50400001928E-02 0. -1.
    10030    2    1    2    0    0  0.00000000000E+00  0.00000000000E+00 -0.94216909787E+03  0.15122966391E+04  0.11829448490E+04 0.  0.
        4    1    3    3  502    0 -0.22704409840E+03  0.30805629200E+03 -0.10476354076E+04  0.11153426656E+04  0.12699999809E+01 0. -1.
       -4    1    3    3    0  502  0.22704409840E+03 -0.30805629200E+03  0.10546630973E+03  0.39695397346E+03  0.12699999809E+01 0.  1.
</event>
<event>
 5   0  0.9170776E-04  0.1181904E+04  0.7818609E-02  0.9128845E-01
       -1   -1    0    0    0  501  0.00000000000E+00  0.00000000000E+00  0.26996587996E+04  0.26996587996E+04  0.50400001928E-02 0.  1.
        1   -1    0    0  501    0  0.00000000000E+00  0.00000000000E+00 -0.12935860551E+03  0.12935860561E+03  0.50400001928E-02 0. -1.
    10030    2    1    2    0    0  0.00000000000E+00  0.00000000000E+00  0.25703001941E+04  0.28290174052E+04  0.11819037149E+04 0.  0.
        5    1    3    3  502    0  0.41158110283E+03  0.41001449188E+03  0.10263397817E+04  0.11793669172E+04  0.46999998093E+01 0. -1.
       -5    1    3    3    0  502 -0.41158110283E+03 -0.41001449188E+03  0.15439604124E+04  0.16496504881E+04  0.46999998093E+01 0.  1.
</event>
<event>
 5   0  0.1537557E-03  0.1213085E+04  0.7818609E-02  0.9101480E-01
       -2   -1    0    0    0  501  0.00000000000E+00  0.00000000000E+00  0.25276424200E+03  0.25276424201E+03  0.25500000920E-02 0.  1.
        2   -1    0    0  501    0  0.00000000000E+00  0.00000000000E+00 -0.14554812519E+04  0.14554812519E+04  0.25500000920E-02 0. -1.
    10030    2    1    2    0    0  0.00000000000E+00  0.00000000000E+00 -0.12027170099E+04  0.17082454939E+04  0.12130846885E+04 0.  0.
        2    1    3    3  502    0 -0.38289203021E+03 -0.18719085463E+03  0.63617066345E+01  0.42624780840E+03  0.25500000920E-02 0.  1.
       -2    1    3    3    0  502  0.38289203021E+03  0.18719085463E+03 -0.12090787166E+04  0.12819976855E+04  0.25500000920E-02 0. -1.
</event>
<event>
 5   0  0.1551501E-03  0.1203712E+04  0.7818609E-02  0.9109613E-01
       -2   -1    0    0    0  501  0.00000000000E+00  0.00000000000E+00  0.10147910005E+04  0.10147910005E+04  0.25500000920E-02 0. -1.
        2   -1    0    0  501    0  0.00000000000E+00  0.00000000000E+00 -0.35695116922E+03  0.35695116923E+03  0.25500000920E-02 0.  1.
    10030    2    1    2    0    0  0.00000000000E+00  0.00000000000E+00  0.65783983127E+03  0.13717421697E+04  0.12037123147E+04 0.  0.
        4    1    3    3  502    0  0.26684282850E+02 -0.54858657634E+03  0.48455121926E+02  0.55136992522E+03  0.12699999809E+01 0.  1.
       -4    1    3    3    0  502 -0.26684282850E+02  0.54858657634E+03  0.60938470934E+03  0.82037224452E+03  0.12699999809E+01 0. -1.
</event>
<event>
 5   0  0.1567019E-03  0.1346661E+04  0.7818609E-02  0.8993359E-01
        2   -1    0    0  501    0  0.00000000000E+00  0.00000000000E+00  0.13469531865E+04  0.13469531865E+04  0.25500000920E-02 0.  1.
       -2   -1    0    0    0  501  0.00000000000E+00  0.00000000000E+00 -0.33659227942E+03  0.33659227943E+03  0.25500000920E-02 0. -1.
    10030    2    1    2    0    0  0.00000000000E+00  0.00000000000E+00  0.10103609071E+04  0.16835454660E+04  0.13466611204E+04 0.  0.
        5    1    3    3  502    0 -0.27282973077E+03  0.64578496868E+02  0.12704857980E+04  0.13010621420E+04  0.46999998093E+01 0.  1.
       -5    1    3    3    0  502  0.27282973077E+03 -0.64578496868E+02 -0.26012489093E+03  0.38248332399E+03  0.46999998093E+01 0. -1.
</event>
<event>
 5   0  0.1647550E-03  0.1199787E+04  0.7818609E-02  0.9113043E-01
       -2   -1    0    0    0  501  0.00000000000E+00  0.00000000000E+00  0.57431065199E+03  0.57431065199E+03  0.25500000920E-02 0. -1.
        2   -1    0    0  501    0  0.00000000000E+00  0.00000000000E+00 -0.62661635486E+03  0.62661635486E+03  0.25500000920E-02 0.  1.
    10030    2    1    2    0    0  0.00000000000E+00  0.00000000000E+00 -0.52305702868E+02  0.12009270069E+04  0.11997873934E+04 0.  0.
        3    1    3    3  502    0  0.31172188768E+03  0.11657710820E+03 -0.52573781920E+03  0.62222264677E+03  0.10100000352E+00 0.  1.
       -3    1    3    3    0  502 -0.31172188768E+03 -0.11657710820E+03  0.47343211633E+03  0.57870436009E+03  0.10100000352E+00 0. -1.
</event>
<event>
 5   0  0.1567019E-03  0.1203862E+04  0.7818609E-02  0.9109483E-01
       -2   -1    0    0    0  501  0.00000000000E+00  0.00000000000E+00  0.64604798786E+03  0.64604798787E+03  0.25500000920E-02 0. -1.
        2   -1    0    0  501    0  0.00000000000E+00  0.00000000000E+00 -0.56082632065E+03  0.56082632066E+03  0.25500000920E-02 0.  1.
    10030    2    1    2    0    0  0.00000000000E+00  0.00000000000E+00  0.85221667209E+02  0.12068743085E+04  0.12038616465E+04 0.  0.
        5    1    3    3  502    0 -0.29874580974E+03 -0.94915927588E+02 -0.47252381821E+03  0.56706167295E+03  0.46999998093E+01 0.  1.
       -5    1    3    3    0  502  0.29874580974E+03  0.94915927588E+02  0.55774548542E+03  0.63981263558E+03  0.46999998093E+01 0. -1.
</event>
<event>
 5   0  0.1537557E-03  0.1197262E+04  0.7818609E-02  0.9115256E-01
       -2   -1    0    0    0  501  0.00000000000E+00  0.00000000000E+00  0.19552639107E+03  0.19552639109E+03  0.25500000920E-02 0.  1.
        2   -1    0    0  501    0  0.00000000000E+00  0.00000000000E+00 -0.18327922496E+04  0.18327922496E+04  0.25500000920E-02 0. -1.
    10030    2    1    2    0    0  0.00000000000E+00  0.00000000000E+00 -0.16372658585E+04  0.20283186407E+04  0.11972623007E+04 0.  0.
        2    1    3    3  502    0 -0.20346373656E+03  0.43105134217E+03 -0.14321713833E+04  0.15094096935E+04  0.25500000920E-02 0. -1.
       -2    1    3    3    0  502  0.20346373656E+03 -0.43105134217E+03 -0.20509447519E+03  0.51890894715E+03  0.25500000920E-02 0.  1.
</event>
<event>
 5   0  0.9169078E-04  0.1197367E+04  0.7818609E-02  0.9115165E-01
       -1   -1    0    0    0  501  0.00000000000E+00  0.00000000000E+00  0.32724085722E+03  0.32724085725E+03  0.50400001928E-02 0. -1.
        1   -1    0    0  501    0  0.00000000000E+00  0.00000000000E+00 -0.10952839318E+04  0.10952839318E+04  0.50400001928E-02 0.  1.
    10030    2    1    2    0    0  0.00000000000E+00  0.00000000000E+00 -0.76804307457E+03  0.14225247891E+04  0.11973665316E+04 0.  0.
        1    1    3    3  502    0 -0.45258484278E+03  0.31319503139E+03 -0.66389993585E+03  0.86237305874E+03  0.50400001928E-02 0.  1.
       -1    1    3    3    0  502  0.45258484278E+03 -0.31319503139E+03 -0.10414313872E+03  0.56015173031E+03  0.50400001928E-02 0. -1.
</event>
<event>
 5   0  0.8908478E-04  0.1199516E+04  0.7818609E-02  0.9113280E-01
        1   -1    0    0  501    0  0.00000000000E+00  0.00000000000E+00  0.74515146877E+03  0.74515146879E+03  0.50400001928E-02 0.  1.
       -1   -1    0    0    0  501  0.00000000000E+00  0.00000000000E+00 -0.48273384493E+03  0.48273384495E+03  0.50400001928E-02 0. -1.
    10030    2    1    2    0    0  0.00000000000E+00  0.00000000000E+00  0.26241762384E+03  0.12278853137E+04  0.11995162918E+04 0.  0.
        4    1    3    3  502    0  0.38343161127E+03 -0.45403864805E+03  0.21397476751E+03  0.63163099075E+03  0.12699999809E+01 0.  1.
       -4    1    3    3    0  502 -0.38343161127E+03  0.45403864805E+03  0.48442856330E+02  0.59625432299E+03  0.12699999809E+01 0. -1.
</event>
<event>
 5   0  0.1551501E-03  0.1199892E+04  0.7818609E-02  0.9112951E-01
        2   -1    0    0  501    0  0.00000000000E+00  0.00000000000E+00  0.60165675592E+03  0.60165675592E+03  0.25500000920E-02 0.  1.
       -2   -1    0    0    0  501  0.00000000000E+00  0.00000000000E+00 -0.59824055356E+03  0.59824055356E+03  0.25500000920E-02 0. -1.
    10030    2    1    2    0    0  0.00000000000E+00  0.00000000000E+00  0.34162023637E+01  0.11998973095E+04  0.11998924464E+04 0.  0.
        4    1    3    3  502    0 -0.35993317351E+02  0.37251618667E+03  0.47061300821E+03  0.60128366403E+03  0.12699999809E+01 0.  1.
       -4    1    3    3    0  502  0.35993317351E+02 -0.37251618667E+03 -0.46719680585E+03  0.59861364546E+03  0.12699999809E+01 0. -1.
</event>
<event>
 5   0  0.1551501E-03  0.1201767E+04  0.7818609E-02  0.9111311E-01
       -2   -1    0    0    0  501  0.00000000000E+00  0.00000000000E+00  0.23449569315E+03  0.23449569316E+03  0.25500000920E-02 0.  1.
        2   -1    0    0  501    0  0.00000000000E+00  0.00000000000E+00 -0.15397346009E+04  0.15397346009E+04  0.25500000920E-02 0. -1.
    10030    2    1    2    0    0  0.00000000000E+00  0.00000000000E+00 -0.13052389078E+04  0.17742302941E+04  0.12017672529E+04 0.  0.
        4    1    3    3  502    0 -0.31966397742E+03 -0.69390790854E+02 -0.13967638935E+04  0.14345560733E+04  0.12699999809E+01 0. -1.
       -4    1    3    3    0  502  0.31966397742E+03  0.69390790854E+02  0.91524985788E+02  0.33967422074E+03  0.12699999809E+01 0.  1.
</event>
<event>
 5   0  0.9358428E-04  0.1179744E+04  0.7818609E-02  0.9130774E-01
       -1   -1    0    0    0  501  0.00000000000E+00  0.00000000000E+00  0.73871388038E+03  0.73871388040E+03  0.50400001928E-02 0. -1.
        1   -1    0    0  501    0  0.00000000000E+00  0.00000000000E+00 -0.47102001819E+03  0.47102001821E+03  0.50400001928E-02 0.  1.
    10030    2    1    2    0    0  0.00000000000E+00  0.00000000000E+00  0.26769386220E+03  0.12097338986E+04  0.11797440831E+04 0.  0.
        2    1    3    3  502    0  0.19955944525E+03 -0.21343146518E+03 -0.39159690366E+03  0.48859502401E+03  0.25500000920E-02 0.  1.
       -2    1    3    3    0  502 -0.19955944525E+03  0.21343146518E+03  0.65929076586E+03  0.72113887461E+03  0.25500000920E-02 0. -1.
</event>
<event>
 5   0  0.6137750E-04  0.1202117E+04  0.7818609E-02  0.9111006E-01
       -4   -1    0    0    0  501  0.00000000000E+00  0.00000000000E+00  0.10010519651E+04  0.10010527707E+04  0.12699999809E+01 0.  1.
        4   -1    0    0  501    0  0.00000000000E+00  0.00000000000E+00 -0.36088936314E+03  0.36089159775E+03  0.12699999809E+01 0. -1.
    10030    2    1    2    0    0  0.00000000000E+00  0.00000000000E+00  0.64016260192E+03  0.13619443684E+04  0.12021165941E+04 0.  0.
        3    1    3    3  502    0 -0.17704687155E+03 -0.47908702234E+03 -0.38908412166E+02  0.51223416953E+03  0.10100000352E+00 0. -1.
       -3    1    3    3    0  502  0.17704687155E+03  0.47908702234E+03  0.67907101409E+03  0.84971019887E+03  0.10100000352E+00 0.  1.
</event>
<event>
 5   0  0.1537557E-03  0.1207068E+04  0.7818609E-02  0.9106692E-01
       -2   -1    0    0    0  501  0.00000000000E+00  0.00000000000E+00  0.31083861693E+03  0.31083861694E+03  0.25500000920E-02 0. -1.
        2   -1    0    0  501    0  0.00000000000E+00  0.00000000000E+00 -0.11718413685E+04  0.11718413685E+04  0.25500000920E-02 0.  1.
    10030    2    1    2    0    0  0.00000000000E+00  0.00000000000E+00 -0.86100275155E+03  0.14826799854E+04  0.12070684326E+04 0.  0.
        2    1    3    3  502    0 -0.10372722998E+03  0.59114007482E+03 -0.50864896966E+03  0.78672085306E+03  0.25500000920E-02 0. -1.
       -2    1    3    3    0  502  0.10372722998E+03 -0.59114007482E+03 -0.35235378189E+03  0.69595913236E+03  0.25500000920E-02 0.  1.
</event>
<event>
 5   0  0.1647550E-03  0.1200072E+04  0.7818609E-02  0.9112793E-01
        2   -1    0    0  501    0  0.00000000000E+00  0.00000000000E+00  0.11542703723E+04  0.11542703723E+04  0.25500000920E-02 0.  1.
       -2   -1    0    0    0  501  0.00000000000E+00  0.00000000000E+00 -0.31192297605E+03  0.31192297606E+03  0.25500000920E-02 0. -1.
    10030    2    1    2    0    0  0.00000000000E+00  0.00000000000E+00  0.84234739629E+03  0.14661933484E+04  0.12000724140E+04 0.  0.
        3    1    3    3  502    0 -0.47641097441E+03  0.31213634443E+03  0.65184567163E+03  0.86562076215E+03  0.10100000352E+00 0. -1.
       -3    1    3    3    0  502  0.47641097441E+03 -0.31213634443E+03  0.19050172466E+03  0.60057258625E+03  0.10100000352E+00 0.  1.
</event>
<event>
 5   0  0.6137750E-04  0.1242551E+04  0.7818609E-02  0.9076406E-01
       -3   -1    0    0    0  501  0.00000000000E+00  0.00000000000E+00  0.45147794613E+03  0.45147795743E+03  0.10100000352E+00 0. -1.
        3   -1    0    0  501    0  0.00000000000E+00  0.00000000000E+00 -0.85493271886E+03  0.85493272482E+03  0.10100000352E+00 0.  1.
    10030    2    1    2    0    0  0.00000000000E+00  0.00000000000E+00 -0.40345477273E+03  0.13064106822E+04  0.12425510521E+04 0.  0.
        5    1    3    3  502    0 -0.11779763472E+03 -0.38692319741E+03  0.29407521343E+03  0.50008815682E+03  0.46999998093E+01 0. -1.
       -5    1    3    3    0  502  0.11779763472E+03  0.38692319741E+03 -0.69752998615E+03  0.80632252543E+03  0.46999998093E+01 0.  1.
</event>
<event>
 5   0  0.1537557E-03  0.1190611E+04  0.7818609E-02  0.9121115E-01
        2   -1    0    0  501    0  0.00000000000E+00  0.00000000000E+00  0.85235347605E+03  0.85235347606E+03  0.25500000920E-02 0. -1.
       -2   -1    0    0    0  501  0.00000000000E+00  0.00000000000E+00 -0.41577647616E+03  0.41577647617E+03  0.25500000920E-02 0.  1.
    10030    2    1    2    0    0  0.00000000000E+00  0.00000000000E+00  0.43657699989E+03  0.12681299522E+04  0.11906108092E+04 0.  0.
        2    1    3    3  502    0 -0.30777563921E+03  0.38915410300E+03 -0.13210113057E+03  0.51343691791E+03  0.25500000920E-02 0.  1.
       -2    1    3    3    0  502  0.30777563921E+03 -0.38915410300E+03  0.56867813046E+03  0.75469303432E+03  0.25500000920E-02 0. -1.
</event>
<event>
 5   0  0.1597352E-03  0.1194458E+04  0.7818609E-02  0.9117722E-01
        2   -1    0    0  501    0  0.00000000000E+00  0.00000000000E+00  0.59546895965E+03  0.59546895965E+03  0.25500000920E-02 0. -1.
       -2   -1    0    0    0  501  0.00000000000E+00  0.00000000000E+00 -0.59899375341E+03  0.59899375342E+03  0.25500000920E-02 0.  1.
    10030    2    1    2    0    0  0.00000000000E+00  0.00000000000E+00 -0.35247937631E+01  0.11944627131E+04  0.11944575123E+04 0.  0.
        1    1    3    3  502    0  0.46154734924E+03 -0.21956761912E+03 -0.31070757546E+03  0.59814303676E+03  0.50400001928E-02 0.  1.
       -1    1    3    3    0  502 -0.46154734924E+03  0.21956761912E+03  0.30718278170E+03  0.59631967631E+03  0.50400001928E-02 0. -1.
</event>
<event>
 5   0  0.9208078E-04  0.1203190E+04  0.7818609E-02  0.9110069E-01
       -1   -1    0    0    0  501  0.00000000000E+00  0.00000000000E+00  0.91022323500E+03  0.91022323501E+03  0.50400001928E-02 0. -1.
        1   -1    0    0  501    0  0.00000000000E+00  0.00000000000E+00 -0.39761288546E+03  0.39761288549E+03  0.50400001928E-02 0.  1.
    10030    2    1    2    0    0  0.00000000000E+00  0.00000000000E+00  0.51261034954E+03  0.13078361205E+04  0.12031899051E+04 0.  0.
        3    1    3    3  502    0 -0.35217143052E+03 -0.30491870913E+03  0.67009311433E+03  0.81610350307E+03  0.10100000352E+00 0. -1.
       -3    1    3    3    0  502  0.35217143052E+03  0.30491870913E+03 -0.15748276479E+03  0.49173261744E+03  0.10100000352E+00 0.  1.
</event>
<event>
 5   0  0.1567019E-03  0.1239261E+04  0.7818609E-02  0.9079169E-01
        2   -1    0    0  501    0  0.00000000000E+00  0.00000000000E+00  0.10737287750E+04  0.10737287750E+04  0.25500000920E-02 0.  1.
       -2   -1    0    0    0  501  0.00000000000E+00  0.00000000000E+00 -0.35757807859E+03  0.35757807859E+03  0.25500000920E-02 0. -1.
    10030    2    1    2    0    0  0.00000000000E+00  0.00000000000E+00  0.71615069640E+03  0.14313068536E+04  0.12392608640E+04 0.  0.
        5    1    3    3  502    0 -0.27049935192E+03  0.54157936650E+03  0.20554225337E+03  0.63933388580E+03  0.46999998093E+01 0.  1.
       -5    1    3    3    0  502  0.27049935192E+03 -0.54157936650E+03  0.51060844302E+03  0.79197296778E+03  0.46999998093E+01 0. -1.
</event>
<event>
 5   0  0.1551501E-03  0.1169646E+04  0.7818609E-02  0.9139848E-01
       -2   -1    0    0    0  501  0.00000000000E+00  0.00000000000E+00  0.42344773149E+03  0.42344773150E+03  0.25500000920E-02 0. -1.
        2   -1    0    0  501    0  0.00000000000E+00  0.00000000000E+00 -0.80769820318E+03  0.80769820319E+03  0.25500000920E-02 0.  1.
    10030    2    1    2    0    0  0.00000000000E+00  0.00000000000E+00 -0.38425047169E+03  0.12311459347E+04  0.11696460522E+04 0.  0.
        4    1    3    3  502    0 -0.34785883026E+03 -0.29035038953E+03  0.19705505727E+03  0.49410669191E+03  0.12699999809E+01 0. -1.
       -4    1    3    3    0  502  0.34785883026E+03  0.29035038953E+03 -0.58130552897E+03  0.73703924278E+03  0.12699999809E+01 0.  1.
</event>
<event>
 5   0  0.1537557E-03  0.1202069E+04  0.7818609E-02  0.9111048E-01
        2   -1    0    0  501    0  0.00000000000E+00  0.00000000000E+00  0.74509035617E+03  0.74509035617E+03  0.25500000920E-02 0.  1.
       -2   -1    0    0    0  501  0.00000000000E+00  0.00000000000E+00 -0.48483012774E+03  0.48483012775E+03  0.25500000920E-02 0. -1.
    10030    2    1    2    0    0  0.00000000000E+00  0.00000000000E+00  0.26026022843E+03  0.12299204839E+04  0.12020686379E+04 0.  0.
        2    1    3    3  502    0  0.35667332827E+03 -0.31262370867E+03  0.50786251149E+03  0.69489119789E+03  0.25500000920E-02 0.  1.
       -2    1    3    3    0  502 -0.35667332827E+03  0.31262370867E+03 -0.24760228307E+03  0.53502928603E+03  0.25500000920E-02 0. -1.
</event>
<event>
 5   0  0.9208078E-04  0.1202948E+04  0.7818609E-02  0.9110280E-01
       -1   -1    0    0    0  501  0.00000000000E+00  0.00000000000E+00  0.70344684854E+03  0.70344684855E+03  0.50400001928E-02 0. -1.
        1   -1    0    0  501    0  0.00000000000E+00  0.00000000000E+00 -0.51428350374E+03  0.51428350377E+03  0.50400001928E-02 0.  1.
    10030    2    1    2    0    0  0.00000000000E+00  0.00000000000E+00  0.18916334479E+03  0.12177303523E+04  0.12029482283E+04 0.  0.
        3    1    3    3  502    0 -0.17387393835E+03 -0.71796311520E+02  0.67290243740E+03  0.69870205184E+03  0.10100000352E+00 0. -1.
       -3    1    3    3    0  502  0.17387393835E+03  0.71796311520E+02 -0.48373909261E+03  0.51902830048E+03  0.10100000352E+00 0.  1.
</event>
<event>
 5   0  0.9170776E-04  0.1200649E+04  0.7818609E-02  0.9112289E-01
        1   -1    0    0  501    0  0.00000000000E+00  0.00000000000E+00  0.97426455545E+03  0.97426455546E+03  0.50400001928E-02 0. -1.
       -1   -1    0    0    0  501  0.00000000000E+00  0.00000000000E+00 -0.36990914242E+03  0.36990914245E+03  0.50400001928E-02 0.  1.
    10030    2    1    2    0    0  0.00000000000E+00  0.00000000000E+00  0.60435541303E+03  0.13441736979E+04  0.12006487683E+04 0.  0.
        5    1    3    3  502    0 -0.12198833363E+03  0.37785072798E+03 -0.20188237204E+03  0.44545584328E+03  0.46999998093E+01 0.  1.
       -5    1    3    3    0  502  0.12198833363E+03 -0.37785072798E+03  0.80623778507E+03  0.89871785463E+03  0.46999998093E+01 0. -1.
</event>
<event>
 5   0  0.1597352E-03  0.1210117E+04  0.7818609E-02  0.9104047E-01
       -2   -1    0    0    0  501  0.00000000000E+00  0.00000000000E+00  0.42941482238E+03  0.42941482238E+03  0.25500000920E-02 0. -1.
        2   -1    0    0  501    0  0.00000000000E+00  0.00000000000E+00 -0.85254595824E+03  0.85254595824E+03  0.25500000920E-02 0.  1.
    10030    2    1    2    0    0  0.00000000000E+00  0.00000000000E+00 -0.42313113586E+03  0.12819607806E+04  0.12101171369E+04 0.  0.
        1    1    3    3  502    0  0.35835300761E+03  0.48064065325E+03 -0.12508862263E+03  0.61243732672E+03  0.50400001928E-02 0. -1.
       -1    1    3    3    0  502 -0.35835300761E+03 -0.48064065325E+03 -0.29804251323E+03  0.66952345391E+03  0.50400001928E-02 0.  1.
</event>
<event>
 5   0  0.1567019E-03  0.1203260E+04  0.7818609E-02  0.9110007E-01
        2   -1    0    0  501    0  0.00000000000E+00  0.00000000000E+00  0.94566309749E+03  0.94566309749E+03  0.25500000920E-02 0.  1.
       -2   -1    0    0    0  501  0.00000000000E+00  0.00000000000E+00 -0.38275674908E+03  0.38275674909E+03  0.25500000920E-02 0. -1.
    10030    2    1    2    0    0  0.00000000000E+00  0.00000000000E+00  0.56290634841E+03  0.13284198466E+04  0.12032604588E+04 0.  0.
        5    1    3    3  502    0 -0.28989525458E+03  0.26149506384E+02  0.86273015320E+03  0.91052098414E+03  0.46999998093E+01 0.  1.
       -5    1    3    3    0  502  0.28989525458E+03 -0.26149506384E+02 -0.29982380479E+03  0.41789886244E+03  0.46999998093E+01 0. -1.
</event>
<event>
 5   0  0.1567019E-03  0.1186878E+04  0.7818609E-02  0.9124420E-01
       -2   -1    0    0    0  501  0.00000000000E+00  0.00000000000E+00  0.93605957283E+03  0.93605957283E+03  0.25500000920E-02 0.  1.
        2   -1    0    0  501    0  0.00000000000E+00  0.00000000000E+00 -0.37622617657E+03  0.37622617658E+03  0.25500000920E-02 0. -1.
    10030    2    1    2    0    0  0.00000000000E+00  0.00000000000E+00  0.55983339626E+03  0.13122857494E+04  0.11868784506E+04 0.  0.
        5    1    3    3  502    0 -0.86011157726E+02 -0.11238515179E+03  0.91710746641E+03  0.92797442666E+03  0.46999998093E+01 0.  1.
       -5    1    3    3    0  502  0.86011157726E+02  0.11238515179E+03 -0.35727407015E+03  0.38431132275E+03  0.46999998093E+01 0. -1.
</event>
<event>
 5   0  0.8908478E-04  0.1190011E+04  0.7818609E-02  0.9121645E-01
       -1   -1    0    0    0  501  0.00000000000E+00  0.00000000000E+00  0.25901850068E+03  0.25901850073E+03  0.50400001928E-02 0. -1.
        1   -1    0    0  501    0  0.00000000000E+00  0.00000000000E+00 -0.13668196902E+04  0.13668196902E+04  0.50400001928E-02 0.  1.
    10030    2    1    2    0    0  0.00000000000E+00  0.00000000000E+00 -0.11078011895E+04  0.16258381909E+04  0.11900110704E+04 0.  0.
        4    1    3    3  502    0  0.29176834606E+03  0.89320436500E+02 -0.12517834927E+04  0.12884372059E+04  0.12699999809E+01 0.  1.
       -4    1    3    3    0  502 -0.29176834606E+03 -0.89320436500E+02  0.14398230320E+03  0.33740098499E+03  0.12699999809E+01 0. -1.
</event>
<event>
 5   0  0.8908478E-04  0.1207890E+04  0.7818609E-02  0.9105978E-01
       -1   -1    0    0    0  501  0.00000000000E+00  0.00000000000E+00  0.75716282517E+03  0.75716282519E+03  0.50400001928E-02 0. -1.
        1   -1    0    0  501    0  0.00000000000E+00  0.00000000000E+00 -0.48173193401E+03  0.48173193404E+03  0.50400001928E-02 0.  1.
    10030    2    1    2    0    0  0.00000000000E+00  0.00000000000E+00  0.27543089116E+03  0.12388947592E+04  0.12078899158E+04 0.  0.
        4    1    3    3  502    0  0.93372831135E+02 -0.23434922065E+03  0.70053547713E+03  0.74457344193E+03  0.12699999809E+01 0. -1.
       -4    1    3    3    0  502 -0.93372831135E+02  0.23434922065E+03 -0.42510458597E+03  0.49432131729E+03  0.12699999809E+01 0.  1.
</event>
<event>
 5   0  0.9358428E-04  0.1179988E+04  0.7818609E-02  0.9130556E-01
        1   -1    0    0  501    0  0.00000000000E+00  0.00000000000E+00  0.90725423712E+03  0.90725423713E+03  0.50400001928E-02 0.  1.
       -1   -1    0    0    0  501  0.00000000000E+00  0.00000000000E+00 -0.38367718988E+03  0.38367718991E+03  0.50400001928E-02 0. -1.
    10030    2    1    2    0    0  0.00000000000E+00  0.00000000000E+00  0.52357704724E+03  0.12909314270E+04  0.11799877224E+04 0.  0.
        2    1    3    3  502    0  0.11341090566E+03 -0.55992088071E+03  0.42301965354E+03  0.71085796996E+03  0.25500000920E-02 0.  1.
       -2    1    3    3    0  502 -0.11341090566E+03  0.55992088071E+03  0.10055739370E+03  0.58007345708E+03  0.25500000920E-02 0. -1.
</event>
<event>
 5   0  0.1597352E-03  0.1199582E+04  0.7818609E-02  0.9113223E-01
        2   -1    0    0  501    0  0.00000000000E+00  0.00000000000E+00  0.22813576440E+04  0.22813576440E+04  0.25500000920E-02 0.  1.
       -2   -1    0    0    0  501  0.00000000000E+00  0.00000000000E+00 -0.15769078268E+03  0.15769078270E+03  0.25500000920E-02 0. -1.
    10030    2    1    2    0    0  0.00000000000E+00  0.00000000000E+00  0.21236668613E+04  0.24390484267E+04  0.11995817146E+04 0.  0.
        1    1    3    3  502    0  0.27176002665E+03  0.25234609596E+03  0.10336186336E+03  0.38498797261E+03  0.50400001928E-02 0. -1.
       -1    1    3    3    0  502 -0.27176002665E+03 -0.25234609596E+03  0.20203049980E+04  0.20540604541E+04  0.50400001928E-02 0.  1.
</event>
<event>
 5   0  0.1567019E-03  0.1206550E+04  0.7818609E-02  0.9107143E-01
       -2   -1    0    0    0  501  0.00000000000E+00  0.00000000000E+00  0.19949058825E+03  0.19949058827E+03  0.25500000920E-02 0. -1.
        2   -1    0    0  501    0  0.00000000000E+00  0.00000000000E+00 -0.18243498517E+04  0.18243498517E+04  0.25500000920E-02 0.  1.
    10030    2    1    2    0    0  0.00000000000E+00  0.00000000000E+00 -0.16248592635E+04  0.20238404400E+04  0.12065498334E+04 0.  0.
        5    1    3    3  502    0 -0.61909749907E+02 -0.55406396347E+03 -0.11989510212E+04  0.13222425398E+04  0.46999998093E+01 0. -1.
       -5    1    3    3    0  502  0.61909749907E+02  0.55406396347E+03 -0.42590824226E+03  0.70159790021E+03  0.46999998093E+01 0.  1.
</event>
<event>
 5   0  0.1647550E-03  0.1198780E+04  0.7818609E-02  0.9113925E-01
        2   -1    0    0  501    0  0.00000000000E+00  0.00000000000E+00  0.85434614102E+03  0.85434614102E+03  0.25500000920E-02 0.  1.
       -2   -1    0    0    0  501  0.00000000000E+00  0.00000000000E+00 -0.42051840236E+03  0.42051840237E+03  0.25500000920E-02 0. -1.
    10030    2    1    2    0    0  0.00000000000E+00  0.00000000000E+00  0.43382773866E+03  0.12748645434E+04  0.11987798368E+04 0.  0.
        3    1    3    3  502    0  0.25027836716E+03 -0.48395400908E+03  0.48260549616E+03  0.72784532636E+03  0.10100000352E+00 0. -1.
       -3    1    3    3    0  502 -0.25027836716E+03  0.48395400908E+03 -0.48777757497E+02  0.54701921703E+03  0.10100000352E+00 0.  1.
</event>
<event>
 5   0  0.8908478E-04  0.1192783E+04  0.7818609E-02  0.9119197E-01
        1   -1    0    0  501    0  0.00000000000E+00  0.00000000000E+00  0.12992006798E+04  0.12992006798E+04  0.50400001928E-02 0.  1.
       -1   -1    0    0    0  501  0.00000000000E+00  0.00000000000E+00 -0.27377072198E+03  0.27377072203E+03  0.50400001928E-02 0. -1.
    10030    2    1    2    0    0  0.00000000000E+00  0.00000000000E+00  0.10254299578E+04  0.15729714019E+04  0.11927834810E+04 0.  0.
        4    1    3    3  502    0  0.42861884984E+03 -0.19102706719E+03  0.99810456226E+03  0.11029142256E+04  0.12699999809E+01 0.  1.
       -4    1    3    3    0  502 -0.42861884984E+03  0.19102706719E+03  0.27325395571E+02  0.47005717629E+03  0.12699999809E+01 0. -1.
</event>
<event>
 5   0  0.1597352E-03  0.1217471E+04  0.7818609E-02  0.9097701E-01
        2   -1    0    0  501    0  0.00000000000E+00  0.00000000000E+00  0.12636975595E+04  0.12636975595E+04  0.25500000920E-02 0. -1.
       -2   -1    0    0    0  501  0.00000000000E+00  0.00000000000E+00 -0.29323363316E+03  0.29323363317E+03  0.25500000920E-02 0.  1.
    10030    2    1    2    0    0  0.00000000000E+00  0.00000000000E+00  0.97046392638E+03  0.15569311927E+04  0.12174705362E+04 0.  0.
        1    1    3    3  502    0  0.49055121533E+03  0.77692895772E+00  0.94617242691E+03  0.10657782884E+04  0.50400001928E-02 0. -1.
       -1    1    3    3    0  502 -0.49055121533E+03 -0.77692895772E+00  0.24291499462E+02  0.49115290435E+03  0.50400001928E-02 0.  1.
</event>
<event>
 5   0  0.8908478E-04  0.1197807E+04  0.7818609E-02  0.9114778E-01
        1   -1    0    0  501    0  0.00000000000E+00  0.00000000000E+00  0.11096055098E+04  0.11096055098E+04  0.50400001928E-02 0. -1.
       -1   -1    0    0    0  501  0.00000000000E+00  0.00000000000E+00 -0.32325485039E+03  0.32325485043E+03  0.50400001928E-02 0.  1.
    10030    2    1    2    0    0  0.00000000000E+00  0.00000000000E+00  0.78635065937E+03  0.14328603602E+04  0.11978069345E+04 0.  0.
        4    1    3    3  502    0  0.21543921752E+03  0.35658988964E+01 -0.27528112522E+03  0.34958272681E+03  0.12699999809E+01 0.  1.
       -4    1    3    3    0  502 -0.21543921752E+03 -0.35658988964E+01  0.10616317846E+04  0.10832776334E+04  0.12699999809E+01 0. -1.
</event>
<event>
 5   0  0.1647550E-03  0.1205961E+04  0.7818609E-02  0.9107654E-01
       -2   -1    0    0    0  501  0.00000000000E+00  0.00000000000E+00  0.55499259021E+03  0.55499259021E+03  0.25500000920E-02 0. -1.
        2   -1    0    0  501    0  0.00000000000E+00  0.00000000000E+00 -0.65511817061E+03  0.65511817062E+03  0.25500000920E-02 0.  1.
    10030    2    1    2    0    0  0.00000000000E+00  0.00000000000E+00 -0.10012558041E+03  0.12101107608E+04  0.12059614097E+04 0.  0.
        3    1    3    3  502    0  0.12202843243E+03 -0.49351986993E+03 -0.37542047969E+03  0.63197574883E+03  0.10100000352E+00 0.  1.
       -3    1    3    3    0  502 -0.12202843243E+03  0.49351986993E+03  0.27529489928E+03  0.57813501200E+03  0.10100000352E+00 0. -1.
</event>
<event>
 5   0  0.1551501E-03  0.1198063E+04  0.7818609E-02  0.9114554E-01
       -2   -1    0    0    0  501  0.00000000000E+00  0.00000000000E+00  0.63649715982E+03  0.63649715983E+03  0.25500000920E-02 0. -1.
        2   -1    0    0  501    0  0.00000000000E+00  0.00000000000E+00 -0.56377092498E+03  0.56377092498E+03  0.25500000920E-02 0.  1.
    10030    2    1    2    0    0  0.00000000000E+00  0.00000000000E+00  0.72726234843E+02  0.12002680848E+04  0.11980627572E+04 0.  0.
        4    1    3    3  502    0  0.93466724876E+01  0.50094754982E+03  0.36529837825E+03  0.62006477566E+03  0.12699999809E+01 0. -1.
       -4    1    3    3    0  502 -0.93466724876E+01 -0.50094754982E+03 -0.29257214341E+03  0.58020330915E+03  0.12699999809E+01 0.  1.
</event>
<event>
 5   0  0.9169078E-04  0.1200349E+04  0.7818609E-02  0.9112552E-01
        1   -1    0    0  501    0  0.00000000000E+00  0.00000000000E+00  0.24745038404E+04  0.24745038404E+04  0.50400001928E-02 0. -1.
       -1   -1    0    0    0  501  0.00000000000E+00  0.00000000000E+00 -0.14556823279E+03  0.14556823287E+03  0.50400001928E-02 0.  1.
    10030    2    1    2    0    0  0.00000000000E+00  0.00000000000E+00  0.23289356077E+04  0.26200720733E+04  0.12003485347E+04 0.  0.
        1    1    3    3  502    0  0.39463675509E+03  0.11259996513E+03  0.20854818159E+03  0.46033603453E+03  0.50400001928E-02 0.  1.
       -1    1    3    3    0  502 -0.39463675509E+03 -0.11259996513E+03  0.21203874261E+04  0.21597360388E+04  0.50400001928E-02 0. -1.
</event>
<event>
 5   0  0.1597352E-03  0.1196696E+04  0.7818609E-02  0.9115754E-01
       -2   -1    0    0    0  501  0.00000000000E+00  0.00000000000E+00  0.51022104716E+03  0.51022104717E+03  0.25500000920E-02 0.  1.
        2   -1    0    0  501    0  0.00000000000E+00  0.00000000000E+00 -0.70169603724E+03  0.70169603724E+03  0.25500000920E-02 0. -1.
    10030    2    1    2    0    0  0.00000000000E+00  0.00000000000E+00 -0.19147499008E+03  0.12119170844E+04  0.11966955952E+04 0.  0.
        1    1    3    3  502    0 -0.20094198676E+03  0.35270585557E+03 -0.54092076563E+03  0.67629459359E+03  0.50400001928E-02 0. -1.
       -1    1    3    3    0  502  0.20094198676E+03 -0.35270585557E+03  0.34944577555E+03  0.53562249082E+03  0.50400001928E-02 0.  1.
</event>
<event>
 5   0  0.9170776E-04  0.1197966E+04  0.7818609E-02  0.9114639E-01
       -1   -1    0    0    0  501  0.00000000000E+00  0.00000000000E+00  0.30923698584E+03  0.30923698588E+03  0.50400001928E-02 0. -1.
        1   -1    0    0  501    0  0.00000000000E+00  0.00000000000E+00 -0.11602116189E+04  0.11602116190E+04  0.50400001928E-02 0.  1.
    10030    2    1    2    0    0  0.00000000000E+00  0.00000000000E+00 -0.85097463311E+03  0.14694486048E+04  0.11979655154E+04 0.  0.
        5    1    3    3  502    0 -0.36342647467E+03  0.18580698514E+03 -0.96318253306E+03  0.10461098031E+04  0.46999998093E+01 0.  1.
       -5    1    3    3    0  502  0.36342647467E+03 -0.18580698514E+03  0.11220789995E+03  0.42333880170E+03  0.46999998093E+01 0. -1.
</event>
<event>
 5   0  0.9170776E-04  0.1184274E+04  0.7818609E-02  0.9126734E-01
       -1   -1    0    0    0  501  0.00000000000E+00  0.00000000000E+00  0.23657436046E+03  0.23657436052E+03  0.50400001928E-02 0. -1.
        1   -1    0    0  501    0  0.00000000000E+00  0.00000000000E+00 -0.14820968241E+04  0.14820968241E+04  0.50400001928E-02 0.  1.
    10030    2    1    2    0    0  0.00000000000E+00  0.00000000000E+00 -0.12455224636E+04  0.17186711846E+04  0.11842738000E+04 0.  0.
        5    1    3    3  502    0 -0.25096617677E+02 -0.56595037299E+03 -0.87275622270E+03  0.10405071740E+04  0.46999998093E+01 0. -1.
       -5    1    3    3    0  502  0.25096617677E+02  0.56595037299E+03 -0.37276624093E+03  0.67816401060E+03  0.46999998093E+01 0.  1.
</event>
<event>
 5   0  0.8908478E-04  0.1201252E+04  0.7818609E-02  0.9111762E-01
        1   -1    0    0  501    0  0.00000000000E+00  0.00000000000E+00  0.22512904295E+03  0.22512904300E+03  0.50400001928E-02 0. -1.
       -1   -1    0    0    0  501  0.00000000000E+00  0.00000000000E+00 -0.16024203204E+04  0.16024203204E+04  0.50400001928E-02 0.  1.
    10030    2    1    2    0    0  0.00000000000E+00  0.00000000000E+00 -0.13772912774E+04  0.18275493634E+04  0.12012516026E+04 0.  0.
        4    1    3    3  502    0  0.41296251529E+03 -0.15599144383E+03 -0.13082721866E+04  0.13807422267E+04  0.12699999809E+01 0.  1.
       -4    1    3    3    0  502 -0.41296251529E+03  0.15599144383E+03 -0.69019090864E+02  0.44680713668E+03  0.12699999809E+01 0. -1.
</event>
<event>
 5   0  0.9208078E-04  0.1199435E+04  0.7818609E-02  0.9113351E-01
       -1   -1    0    0    0  501  0.00000000000E+00  0.00000000000E+00  0.40263482390E+03  0.40263482393E+03  0.50400001928E-02 0.  1.
        1   -1    0    0  501    0  0.00000000000E+00  0.00000000000E+00 -0.89326834843E+03  0.89326834845E+03  0.50400001928E-02 0. -1.
    10030    2    1    2    0    0  0.00000000000E+00  0.00000000000E+00 -0.49063352454E+03  0.12959031724E+04  0.11994347739E+04 0.  0.
        3    1    3    3  502    0  0.22582243214E+03 -0.37621592249E+03  0.19637458537E+03  0.48072567975E+03  0.10100000352E+00 0.  1.
       -3    1    3    3    0  502 -0.22582243214E+03  0.37621592249E+03 -0.68700810991E+03  0.81517749262E+03  0.10100000352E+00 0. -1.
</event>
<event>
 5   0  0.9208078E-04  0.1215654E+04  0.7818609E-02  0.9099264E-01
        1   -1    0    0  501    0  0.00000000000E+00  0.00000000000E+00  0.32219348109E+03  0.32219348113E+03  0.50400001928E-02 0. -1.
       -1   -1    0    0    0  501  0.00000000000E+00  0.00000000000E+00 -0.11466827418E+04  0.11466827418E+04  0.50400001928E-02 0.  1.
    10030    2    1    2    0    0  0.00000000000E+00  0.00000000000E+00 -0.82448926071E+03  0.14688762229E+04  0.12156540697E+04 0.  0.
        3    1    3    3  502    0 -0.33321094964E+03 -0.94366498192E+02  0.19132462365E+03  0.39565097593E+03  0.10100000352E+00 0. -1.
       -3    1    3    3    0  502  0.33321094964E+03  0.94366498192E+02 -0.10158138844E+04  0.10732252470E+04  0.10100000352E+00 0.  1.
</event>
<event>
 5   0  0.8908478E-04  0.1217156E+04  0.7818609E-02  0.9097971E-01
       -1   -1    0    0    0  501  0.00000000000E+00  0.00000000000E+00  0.49956897711E+03  0.49956897714E+03  0.50400001928E-02 0.  1.
        1   -1    0    0  501    0  0.00000000000E+00  0.00000000000E+00 -0.74137373157E+03  0.74137373158E+03  0.50400001928E-02 0. -1.
    10030    2    1    2    0    0  0.00000000000E+00  0.00000000000E+00 -0.24180475446E+03  0.12409427087E+04  0.12171562213E+04 0.  0.
        4    1    3    3  502    0  0.19410297004E+03  0.35540026238E+03 -0.58407152989E+03  0.71072250169E+03  0.12699999809E+01 0. -1.
       -4    1    3    3    0  502 -0.19410297004E+03 -0.35540026238E+03  0.34226677544E+03  0.53022020703E+03  0.12699999809E+01 0.  1.
</event>
<event>
 5   0  0.9208078E-04  0.1198209E+04  0.7818609E-02  0.9114426E-01
       -1   -1    0    0    0  501  0.00000000000E+00  0.00000000000E+00  0.59819295128E+03  0.59819295131E+03  0.50400001928E-02 0. -1.
        1   -1    0    0  501    0  0.00000000000E+00  0.00000000000E+00 -0.60001699759E+03  0.60001699761E+03  0.50400001928E-02 0.  1.
    10030    2    1    2    0    0  0.00000000000E+00  0.00000000000E+00 -0.18240463011E+01  0.11982099489E+04  0.11982085605E+04 0.  0.
        3    1    3    3  502    0 -0.88854139915E+02  0.40325846195E+03  0.43315469954E+03  0.59844419059E+03  0.10100000352E+00 0. -1.
       -3    1    3    3    0  502  0.88854139915E+02 -0.40325846195E+03 -0.43497874584E+03  0.59976575832E+03  0.10100000352E+00 0.  1.
</event>
<event>
 5   0  0.9169078E-04  0.1212236E+04  0.7818609E-02  0.9102214E-01
       -1   -1    0    0    0  501  0.00000000000E+00  0.00000000000E+00  0.42548318675E+03  0.42548318678E+03  0.50400001928E-02 0.  1.
        1   -1    0    0  501    0  0.00000000000E+00  0.00000000000E+00 -0.86343912838E+03  0.86343912839E+03  0.50400001928E-02 0. -1.
    10030    2    1    2    0    0  0.00000000000E+00  0.00000000000E+00 -0.43795594163E+03  0.12889223152E+04  0.12122356734E+04 0.  0.
        1    1    3    3  502    0 -0.10719953211E+03 -0.35083832889E+03 -0.73199379272E+03  0.81877602879E+03  0.50400001928E-02 0. -1.
       -1    1    3    3    0  502  0.10719953211E+03  0.35083832889E+03  0.29403785109E+03  0.47014628639E+03  0.50400001928E-02 0.  1.
</event>
<event>
 5   0  0.9170776E-04  0.1198796E+04  0.7818609E-02  0.9113911E-01
        1   -1    0    0  501    0  0.00000000000E+00  0.00000000000E+00  0.28967387910E+03  0.28967387914E+03  0.50400001928E-02 0. -1.
       -1   -1    0    0    0  501  0.00000000000E+00  0.00000000000E+00 -0.12402841432E+04  0.12402841432E+04  0.50400001928E-02 0.  1.
    10030    2    1    2    0    0  0.00000000000E+00  0.00000000000E+00 -0.95061026411E+03  0.15299580224E+04  0.11987959276E+04 0.  0.
        5    1    3    3  502    0 -0.46087036817E+03 -0.34015512000E+03 -0.25006016012E+03  0.62502733988E+03  0.46999998093E+01 0. -1.
       -5    1    3    3    0  502  0.46087036817E+03  0.34015512000E+03 -0.70055010399E+03  0.90493068249E+03  0.46999998093E+01 0.  1.
</event>
<event>
 5   0  0.1647550E-03  0.1192244E+04  0.7818609E-02  0.9119673E-01
        2   -1    0    0  501    0  0.00000000000E+00  0.00000000000E+00  0.74005239957E+03  0.74005239957E+03  0.25500000920E-02 0.  1.
       -2   -1    0    0    0  501  0.00000000000E+00  0.00000000000E+00 -0.48018413355E+03  0.48018413356E+03  0.25500000920E-02 0. -1.
    10030    2    1    2    0    0  0.00000000000E+00  0.00000000000E+00  0.25986826601E+03  0.12202365331E+04  0.11922439688E+04 0.  0.
        3    1    3    3  502    0  0.31629352824E+03  0.17316462176E+03  0.61577281100E+03  0.71358513662E+03  0.10100000352E+00 0.  1.
       -3    1    3    3    0  502 -0.31629352824E+03 -0.17316462176E+03 -0.35590454499E+03  0.50665139650E+03  0.10100000352E+00 0. -1.
</event>
<event>
 5   0  0.1537557E-03  0.1145833E+04  0.7818609E-02  0.9161636E-01
        2   -1    0    0  501    0  0.00000000000E+00  0.00000000000E+00  0.88209228197E+03  0.88209228198E+03  0.25500000920E-02 0. -1.
       -2   -1    0    0    0  501  0.00000000000E+00  0.00000000000E+00 -0.37210786379E+03  0.37210786380E+03  0.25500000920E-02 0.  1.
    10030    2    1    2    0    0  0.00000000000E+00  0.00000000000E+00  0.50998441818E+03  0.12542001458E+04  0.11458332771E+04 0.  0.
        2    1    3    3  502    0 -0.20289329819E+03  0.49451715666E+03  0.29285257741E+02  0.53532283251E+03  0.25500000920E-02 0.  1.
       -2    1    3    3    0  502  0.20289329819E+03 -0.49451715666E+03  0.48069916044E+03  0.71887731327E+03  0.25500000920E-02 0. -1.
</event>
<event>
 5   0  0.9170776E-04  0.1223163E+04  0.7818609E-02  0.9092820E-01
        1   -1    0    0  501    0  0.00000000000E+00  0.00000000000E+00  0.77796210033E+03  0.77796210034E+03  0.50400001928E-02 0.  1.
       -1   -1    0    0    0  501  0.00000000000E+00  0.00000000000E+00 -0.48078457156E+03  0.48078457159E+03  0.50400001928E-02 0. -1.
    10030    2    1    2    0    0  0.00000000000E+00  0.00000000000E+00  0.29717752877E+03  0.12587466719E+04  0.12231633989E+04 0.  0.
        5    1    3    3  502    0 -0.41604277742E+03 -0.19121473548E+03 -0.26861274413E+03  0.53087622288E+03  0.46999998093E+01 0. -1.
       -5    1    3    3    0  502  0.41604277742E+03  0.19121473548E+03  0.56579027290E+03  0.72787044906E+03  0.46999998093E+01 0.  1.
</event>
<event>
 5   0  0.1647550E-03  0.1197946E+04  0.7818609E-02  0.9114656E-01
       -2   -1    0    0    0  501  0.00000000000E+00  0.00000000000E+00  0.24785756294E+03  0.24785756296E+03  0.25500000920E-02 0.  1.
        2   -1    0    0  501    0  0.00000000000E+00  0.00000000000E+00 -0.14474786840E+04  0.14474786840E+04  0.25500000920E-02 0. -1.
    10030    2    1    2    0    0  0.00000000000E+00  0.00000000000E+00 -0.11996211211E+04  0.16953362470E+04  0.11979458069E+04 0.  0.
        3    1    3    3  502    0  0.93416113218E+02  0.49002865137E+03 -0.13062466917E+03  0.51567185668E+03  0.10100000352E+00 0.  1.
       -3    1    3    3    0  502 -0.93416113218E+02 -0.49002865137E+03 -0.10689964519E+04  0.11796643903E+04  0.10100000352E+00 0. -1.
</event>
<event>
 5   0  0.1597352E-03  0.1198402E+04  0.7818609E-02  0.9114256E-01
        2   -1    0    0  501    0  0.00000000000E+00  0.00000000000E+00  0.15337057455E+04  0.15337057455E+04  0.25500000920E-02 0.  1.
       -2   -1    0    0    0  501  0.00000000000E+00  0.00000000000E+00 -0.23410082605E+03  0.23410082606E+03  0.25500000920E-02 0. -1.
    10030    2    1    2    0    0  0.00000000000E+00  0.00000000000E+00  0.12996049194E+04  0.17678065715E+04  0.11984019058E+04 0.  0.
        1    1    3    3  502    0 -0.56107979182E+03 -0.41070809411E+02  0.34553630410E+03  0.66022169129E+03  0.50400001928E-02 0. -1.
       -1    1    3    3    0  502  0.56107979182E+03  0.41070809411E+02  0.95406861531E+03  0.11075848802E+04  0.50400001928E-02 0.  1.
</event>
<event>
 5   0  0.1551501E-03  0.1203381E+04  0.7818609E-02  0.9109902E-01
        2   -1    0    0  501    0  0.00000000000E+00  0.00000000000E+00  0.44689433653E+03  0.44689433654E+03  0.25500000920E-02 0. -1.
       -2   -1    0    0    0  501  0.00000000000E+00  0.00000000000E+00 -0.81010568484E+03  0.81010568485E+03  0.25500000920E-02 0.  1.
    10030    2    1    2    0    0  0.00000000000E+00  0.00000000000E+00 -0.36321134831E+03  0.12570000214E+04  0.12033813071E+04 0.  0.
        4    1    3    3  502    0  0.42326536137E+03 -0.13885272120E+03 -0.60409804968E+03  0.75057958329E+03  0.12699999809E+01 0.  1.
       -4    1    3    3    0  502 -0.42326536137E+03  0.13885272120E+03  0.24088670137E+03  0.50642043810E+03  0.12699999809E+01 0. -1.
</event>
<event>
 5   0  0.1537557E-03  0.1206070E+04  0.7818609E-02  0.9107560E-01
       -2   -1    0    0    0  501  0.00000000000E+00  0.00000000000E+00  0.41494159584E+03  0.41494159585E+03  0.25500000920E-02 0. -1.
        2   -1    0    0  501    0  0.00000000000E+00  0.00000000000E+00 -0.87639096501E+03  0.87639096502E+03  0.25500000920E-02 0.  1.
    10030    2    1    2    0    0  0.00000000000E+00  0.00000000000E+00 -0.46144936917E+03  0.12913325609E+04  0.12060697585E+04 0.  0.
        2    1    3    3  502    0  0.30283491094E+03  0.49809218703E+03 -0.39606386128E+03  0.70474916976E+03  0.25500000920E-02 0.  1.
       -2    1    3    3    0  502 -0.30283491094E+03 -0.49809218703E+03 -0.65385507895E+02  0.58658339110E+03  0.25500000920E-02 0. -1.
</event>
<event>
 5   0  0.9170776E-04  0.1191212E+04  0.7818609E-02  0.9120583E-01
        1   -1    0    0  501    0  0.00000000000E+00  0.00000000000E+00  0.45812076393E+03  0.45812076396E+03  0.50400001928E-02 0. -1.
       -1   -1    0    0    0  501  0.00000000000E+00  0.00000000000E+00 -0.77435197793E+03  0.77435197794E+03  0.50400001928E-02 0.  1.
    10030    2    1    2    0    0  0.00000000000E+00  0.00000000000E+00 -0.31623121399E+03  0.12324727419E+04  0.11912123567E+04 0.  0.
        5    1    3    3  502    0 -0.38298756525E+03  0.38353801911E+03 -0.41353430879E+03  0.68177239735E+03  0.46999998093E+01 0.  1.
       -5    1    3    3    0  502  0.38298756525E+03 -0.38353801911E+03  0.97303094799E+02  0.55070034455E+03  0.46999998093E+01 0. -1.
</event>
<event>
 5   0  0.1537557E-03  0.1264337E+04  0.7818609E-02  0.9058335E-01
       -2   -1    0    0    0  501  0.00000000000E+00  0.00000000000E+00  0.39588507173E+03  0.39588507174E+03  0.25500000920E-02 0.  1.
        2   -1    0    0  501    0  0.00000000000E+00  0.00000000000E+00 -0.10094767741E+04  0.10094767741E+04  0.25500000920E-02 0. -1.
    10030    2    1    2    0    0  0.00000000000E+00  0.00000000000E+00 -0.61359170235E+03  0.14053618458E+04  0.12643366405E+04 0.  0.
        2    1    3    3  502    0 -0.12482538370E+02  0.53438200492E+03  0.68366636803E+02  0.53888211882E+03  0.25500000920E-02 0.  1.
       -2    1    3    3    0  502  0.12482538370E+02 -0.53438200492E+03 -0.68195833915E+03  0.86647972700E+03  0.25500000920E-02 0. -1.
</event>
<event>
 5   0  0.9170776E-04  0.1197548E+04  0.7818609E-02  0.9115005E-01
       -1   -1    0    0    0  501  0.00000000000E+00  0.00000000000E+00  0.15760242634E+04  0.15760242634E+04  0.50400001928E-02 0. -1.
        1   -1    0    0  501    0  0.00000000000E+00  0.00000000000E+00 -0.22749052999E+03  0.22749053004E+03  0.50400001928E-02 0.  1.
    10030    2    1    2    0    0  0.00000000000E+00  0.00000000000E+00  0.13485337334E+04  0.18035147935E+04  0.11975484876E+04 0.  0.
        5    1    3    3  502    0 -0.28437800211E+03 -0.16200283759E+03  0.14293642513E+04  0.14663628543E+04  0.46999998093E+01 0. -1.
       -5    1    3    3    0  502  0.28437800211E+03  0.16200283759E+03 -0.80830517896E+02  0.33715193918E+03  0.46999998093E+01 0.  1.
</event>
<event>
 5   0  0.9358428E-04  0.1198620E+04  0.7818609E-02  0.9114066E-01
        1   -1    0    0  501    0  0.00000000000E+00  0.00000000000E+00  0.11988593970E+04  0.11988593970E+04  0.50400001928E-02 0. -1.
       -1   -1    0    0    0  501  0.00000000000E+00  0.00000000000E+00 -0.29959497041E+03  0.29959497046E+03  0.50400001928E-02 0.  1.
    10030    2    1    2    0    0  0.00000000000E+00  0.00000000000E+00  0.89926442654E+03  0.14984543674E+04  0.11986196154E+04 0.  0.
        2    1    3    3  502    0 -0.52382512210E+02 -0.59572674755E+03  0.49865914324E+03  0.77864961727E+03  0.25500000920E-02 0.  1.
       -2    1    3    3    0  502  0.52382512210E+02  0.59572674755E+03  0.40060528330E+03  0.71980475016E+03  0.25500000920E-02 0. -1.
</event>
<event>
 5   0  0.9358428E-04  0.1181407E+04  0.7818609E-02  0.9129288E-01
        1   -1    0    0  501    0  0.00000000000E+00  0.00000000000E+00  0.14184015457E+04  0.14184015457E+04  0.50400001928E-02 0.  1.
       -1   -1    0    0    0  501  0.00000000000E+00  0.00000000000E+00 -0.24600275612E+03  0.24600275618E+03  0.50400001928E-02 0. -1.
    10030    2    1    2    0    0  0.00000000000E+00  0.00000000000E+00  0.11723987896E+04  0.16644043019E+04  0.11814071095E+04 0.  0.
        2    1    3    3  502    0  0.17982831990E+03 -0.16318543374E+03 -0.17243150184E+03  0.29782601172E+03  0.25500000920E-02 0. -1.
       -2    1    3    3    0  502 -0.17982831990E+03  0.16318543374E+03  0.13448302914E+04  0.13665782902E+04  0.25500000920E-02 0.  1.
</event>
<event>
 5   0  0.9358428E-04  0.1203253E+04  0.7818609E-02  0.9110014E-01
        1   -1    0    0  501    0  0.00000000000E+00  0.00000000000E+00  0.13358367352E+04  0.13358367352E+04  0.50400001928E-02 0.  1.
       -1   -1    0    0    0  501  0.00000000000E+00  0.00000000000E+00 -0.27095722603E+03  0.27095722608E+03  0.50400001928E-02 0. -1.
    10030    2    1    2    0    0  0.00000000000E+00  0.00000000000E+00  0.10648795092E+04  0.16067939613E+04  0.12032532838E+04 0.  0.
        2    1    3    3  502    0 -0.59541856806E+03 -0.79701408695E+02  0.48857456651E+03  0.77432596029E+03  0.25500000920E-02 0. -1.
       -2    1    3    3    0  502  0.59541856806E+03  0.79701408695E+02  0.57630494268E+03  0.83246800101E+03  0.25500000920E-02 0.  1.
</event>
<event>
 5   0  0.1597352E-03  0.1193924E+04  0.7818609E-02  0.9118191E-01
        2   -1    0    0  501    0  0.00000000000E+00  0.00000000000E+00  0.10749576500E+04  0.10749576500E+04  0.25500000920E-02 0.  1.
       -2   -1    0    0    0  501  0.00000000000E+00  0.00000000000E+00 -0.33151427054E+03  0.33151427055E+03  0.25500000920E-02 0. -1.
    10030    2    1    2    0    0  0.00000000000E+00  0.00000000000E+00  0.74344337947E+03  0.14064719206E+04  0.11939242877E+04 0.  0.
        1    1    3    3  502    0  0.48551320508E+03 -0.45958986720E+02 -0.33848171383E+02  0.48885682924E+03  0.50400001928E-02 0. -1.
       -1    1    3    3    0  502 -0.48551320508E+03  0.45958986720E+02  0.77729155085E+03  0.91761509132E+03  0.50400001928E-02 0.  1.
</event>
<event>
 5   0  0.1551501E-03  0.1183300E+04  0.7818609E-02  0.9127601E-01
       -2   -1    0    0    0  501  0.00000000000E+00  0.00000000000E+00  0.47965360160E+03  0.47965360161E+03  0.25500000920E-02 0.  1.
        2   -1    0    0  501    0  0.00000000000E+00  0.00000000000E+00 -0.72979713100E+03  0.72979713101E+03  0.25500000920E-02 0. -1.
    10030    2    1    2    0    0  0.00000000000E+00  0.00000000000E+00 -0.25014352940E+03  0.12094507326E+04  0.11833001687E+04 0.  0.
        4    1    3    3  502    0 -0.53747917441E+03  0.21084539895E+03 -0.25719001758E+03  0.63205060179E+03  0.12699999809E+01 0. -1.
       -4    1    3    3    0  502  0.53747917441E+03 -0.21084539895E+03  0.70464881720E+01  0.57740013083E+03  0.12699999809E+01 0.  1.
</event>
<event>
 5   0  0.9208078E-04  0.1202569E+04  0.7818609E-02  0.9110611E-01
       -1   -1    0    0    0  501  0.00000000000E+00  0.00000000000E+00  0.58425371108E+03  0.58425371110E+03  0.50400001928E-02 0. -1.
        1   -1    0    0  501    0  0.00000000000E+00  0.00000000000E+00 -0.61881128558E+03  0.61881128560E+03  0.50400001928E-02 0.  1.
    10030    2    1    2    0    0  0.00000000000E+00  0.00000000000E+00 -0.34557574507E+02  0.12030649967E+04  0.12025685678E+04 0.  0.
        3    1    3    3  502    0  0.42691248563E+03  0.91934313949E+02  0.39621566936E+03  0.58965503077E+03  0.10100000352E+00 0. -1.
       -3    1    3    3    0  502 -0.42691248563E+03 -0.91934313949E+02 -0.43077324387E+03  0.61340996593E+03  0.10100000352E+00 0.  1.
</event>
<event>
 5   0  0.1647550E-03  0.1200365E+04  0.7818609E-02  0.9112537E-01
       -2   -1    0    0    0  501  0.00000000000E+00  0.00000000000E+00  0.23051140729E+03  0.23051140731E+03  0.25500000920E-02 0.  1.
        2   -1    0    0  501    0  0.00000000000E+00  0.00000000000E+00 -0.15626959863E+04  0.15626959864E+04  0.25500000920E-02 0. -1.
    10030    2    1    2    0    0  0.00000000000E+00  0.00000000000E+00 -0.13321845791E+04  0.17932073937E+04  0.12003653627E+04 0.  0.
        3    1    3    3  502    0  0.45305842897E+03 -0.25923535719E+03 -0.11086310794E+04  0.12253684307E+04  0.10100000352E+00 0. -1.
       -3    1    3    3    0  502 -0.45305842897E+03  0.25923535719E+03 -0.22355349966E+03  0.56783896299E+03  0.10100000352E+00 0.  1.
</event>
<event>
 5   0  0.9208078E-04  0.1208621E+04  0.7818609E-02  0.9105344E-01
        1   -1    0    0  501    0  0.00000000000E+00  0.00000000000E+00  0.14612450350E+04  0.14612450350E+04  0.50400001928E-02 0. -1.
       -1   -1    0    0    0  501  0.00000000000E+00  0.00000000000E+00 -0.24991762171E+03  0.24991762176E+03  0.50400001928E-02 0.  1.
    10030    2    1    2    0    0  0.00000000000E+00  0.00000000000E+00  0.12113274132E+04  0.17111626567E+04  0.12086205094E+04 0.  0.
        3    1    3    3  502    0  0.36325354242E+03 -0.33563944881E+03  0.10973023298E+04  0.12036109790E+04  0.10100000352E+00 0. -1.
       -3    1    3    3    0  502 -0.36325354242E+03  0.33563944881E+03  0.11402508347E+03  0.50755167770E+03  0.10100000352E+00 0.  1.
</event>
<event>
 5   0  0.9358428E-04  0.1199707E+04  0.7818609E-02  0.9113113E-01
        1   -1    0    0  501    0  0.00000000000E+00  0.00000000000E+00  0.59662697201E+03  0.59662697204E+03  0.50400001928E-02 0.  1.
       -1   -1    0    0    0  501  0.00000000000E+00  0.00000000000E+00 -0.60309711806E+03  0.60309711808E+03  0.50400001928E-02 0. -1.
    10030    2    1    2    0    0  0.00000000000E+00  0.00000000000E+00 -0.64701460448E+01  0.11997240901E+04  0.11997066431E+04 0.  0.
        2    1    3    3  502    0  0.14829650000E+03 -0.24974425354E+03 -0.52808550431E+03  0.60269257832E+03  0.25500000920E-02 0. -1.
       -2    1    3    3    0  502 -0.14829650000E+03  0.24974425354E+03  0.52161535827E+03  0.59703151180E+03  0.25500000920E-02 0.  1.
</event>
<event>
 5   0  0.1537557E-03  0.1200615E+04  0.7818609E-02  0.9112319E-01
        2   -1    0    0  501    0  0.00000000000E+00  0.00000000000E+00  0.11177100891E+04  0.11177100891E+04  0.25500000920E-02 0.  1.
       -2   -1    0    0    0  501  0.00000000000E+00  0.00000000000E+00 -0.32241717850E+03  0.32241717851E+03  0.25500000920E-02 0. -1.
    10030    2    1    2    0    0  0.00000000000E+00  0.00000000000E+00  0.79529291057E+03  0.14401272676E+04  0.12006147314E+04 0.  0.
        2    1    3    3  502    0 -0.16917198107E+03  0.18422982401E+03 -0.25693880429E+03  0.35857682077E+03  0.25500000920E-02 0. -1.
       -2    1    3    3    0  502  0.16917198107E+03 -0.18422982401E+03  0.10522317149E+04  0.10815504468E+04  0.25500000920E-02 0.  1.
</event>
<event>
 5   0  0.9170776E-04  0.1208142E+04  0.7818609E-02  0.9105760E-01
       -1   -1    0    0    0  501  0.00000000000E+00  0.00000000000E+00  0.48463034237E+03  0.48463034239E+03  0.50400001928E-02 0. -1.
        1   -1    0    0  501    0  0.00000000000E+00  0.00000000000E+00 -0.75294845036E+03  0.75294845037E+03  0.50400001928E-02 0.  1.
    10030    2    1    2    0    0  0.00000000000E+00  0.00000000000E+00 -0.26831810799E+03  0.12375787928E+04  0.12081418217E+04 0.  0.
        5    1    3    3  502    0 -0.37500619280E+03  0.46437231227E+03 -0.22920055594E+03  0.63939524074E+03  0.46999998093E+01 0.  1.
       -5    1    3    3    0  502  0.37500619280E+03 -0.46437231227E+03 -0.39117552054E+02  0.59818355203E+03  0.46999998093E+01 0. -1.
</event>
<event>
 5   0  0.9169078E-04  0.1204950E+04  0.7818609E-02  0.9108535E-01
       -1   -1    0    0    0  501  0.00000000000E+00  0.00000000000E+00  0.34520882284E+03  0.34520882288E+03  0.50400001928E-02 0. -1.
        1   -1    0    0  501    0  0.00000000000E+00  0.00000000000E+00 -0.10514688452E+04  0.10514688452E+04  0.50400001928E-02 0.  1.
    10030    2    1    2    0    0  0.00000000000E+00  0.00000000000E+00 -0.70626002238E+03  0.13966776681E+04  0.12049503265E+04 0.  0.
        1    1    3    3  502    0  0.31032648244E+03  0.29791076172E+03 -0.84205593034E+03  0.94557471280E+03  0.50400001928E-02 0.  1.
       -1    1    3    3    0  502 -0.31032648244E+03 -0.29791076172E+03  0.13579590796E+03  0.45110295531E+03  0.50400001928E-02 0. -1.
</event>
<event>
 5   0  0.1551501E-03  0.1197299E+04  0.7818609E-02  0.9115224E-01
       -2   -1    0    0    0  501  0.00000000000E+00  0.00000000000E+00  0.38188454645E+03  0.38188454645E+03  0.25500000920E-02 0.  1.
        2   -1    0    0  501    0  0.00000000000E+00  0.00000000000E+00 -0.93845438485E+03  0.93845438485E+03  0.25500000920E-02 0. -1.
    10030    2    1    2    0    0  0.00000000000E+00  0.00000000000E+00 -0.55656983840E+03  0.13203389313E+04  0.11972990055E+04 0.  0.
        4    1    3    3  502    0  0.42750712419E+03  0.24769660289E+03 -0.65105142600E+03  0.81730381164E+03  0.12699999809E+01 0. -1.
       -4    1    3    3    0  502 -0.42750712419E+03 -0.24769660289E+03  0.94481587602E+02  0.50303511967E+03  0.12699999809E+01 0.  1.
</event>
<event>
 5   0  0.9169078E-04  0.1199557E+04  0.7818609E-02  0.9113244E-01
        1   -1    0    0  501    0  0.00000000000E+00  0.00000000000E+00  0.53980297415E+03  0.53980297417E+03  0.50400001928E-02 0. -1.
       -1   -1    0    0    0  501  0.00000000000E+00  0.00000000000E+00 -0.66641786996E+03  0.66641786998E+03  0.50400001928E-02 0.  1.
    10030    2    1    2    0    0  0.00000000000E+00  0.00000000000E+00 -0.12661489581E+03  0.12062208441E+04  0.11995571654E+04 0.  0.
        1    1    3    3  502    0  0.56552176457E+02 -0.51184368856E+03  0.24589419034E+03  0.57065406601E+03  0.50400001928E-02 0. -1.
       -1    1    3    3    0  502 -0.56552176457E+02  0.51184368856E+03 -0.37250908615E+03  0.63556677814E+03  0.50400001928E-02 0.  1.
</event>
<event>
 5   0  0.1551501E-03  0.1212737E+04  0.7818609E-02  0.9101781E-01
       -2   -1    0    0    0  501  0.00000000000E+00  0.00000000000E+00  0.32180435303E+03  0.32180435304E+03  0.25500000920E-02 0.  1.
        2   -1    0    0  501    0  0.00000000000E+00  0.00000000000E+00 -0.11425656584E+04  0.11425656584E+04  0.25500000920E-02 0. -1.
    10030    2    1    2    0    0  0.00000000000E+00  0.00000000000E+00 -0.82076130533E+03  0.14643700114E+04  0.12127367439E+04 0.  0.
        4    1    3    3  502    0  0.29374809456E+03  0.27485420727E+03  0.13746451980E+03  0.42512455283E+03  0.12699999809E+01 0.  1.
       -4    1    3    3    0  502 -0.29374809456E+03 -0.27485420727E+03 -0.95822582513E+03  0.10392454586E+04  0.12699999809E+01 0. -1.
</event>
<event>
 5   0  0.1567019E-03  0.1201706E+04  0.7818609E-02  0.9111365E-01
        2   -1    0    0  501    0  0.00000000000E+00  0.00000000000E+00  0.13446889574E+04  0.13446889574E+04  0.25500000920E-02 0. -1.
       -2   -1    0    0    0  501  0.00000000000E+00  0.00000000000E+00 -0.26848161325E+03  0.26848161326E+03  0.25500000920E-02 0.  1.
    10030    2    1    2    0    0  0.00000000000E+00  0.00000000000E+00  0.10762073442E+04  0.16131705707E+04  0.12017058885E+04 0.  0.
        5    1    3    3  502    0  0.35855188284E+03  0.44930353243E+03  0.30339826301E+03  0.65000439455E+03  0.46999998093E+01 0.  1.
       -5    1    3    3    0  502 -0.35855188284E+03 -0.44930353243E+03  0.77280908118E+03  0.96316617616E+03  0.46999998093E+01 0. -1.
</event>
<event>
 5   0  0.8908478E-04  0.1187934E+04  0.7818609E-02  0.9123484E-01
        1   -1    0    0  501    0  0.00000000000E+00  0.00000000000E+00  0.11200931465E+04  0.11200931466E+04  0.50400001928E-02 0. -1.
       -1   -1    0    0    0  501  0.00000000000E+00  0.00000000000E+00 -0.31497097650E+03  0.31497097654E+03  0.50400001928E-02 0.  1.
    10030    2    1    2    0    0  0.00000000000E+00  0.00000000000E+00  0.80512217005E+03  0.14350641231E+04  0.11879340591E+04 0.  0.
        4    1    3    3  502    0 -0.35941433201E+03 -0.44864873079E+03  0.22203838128E+03  0.61625238446E+03  0.12699999809E+01 0.  1.
       -4    1    3    3    0  502  0.35941433201E+03  0.44864873079E+03  0.58308378877E+03  0.81881173863E+03  0.12699999809E+01 0. -1.
</event>
<event>
 5   0  0.1567019E-03  0.1193878E+04  0.7818609E-02  0.9118232E-01
       -2   -1    0    0    0  501  0.00000000000E+00  0.00000000000E+00  0.53643230283E+03  0.53643230283E+03  0.25500000920E-02 0.  1.
        2   -1    0    0  501    0  0.00000000000E+00  0.00000000000E+00 -0.66427092853E+03  0.66427092854E+03  0.25500000920E-02 0. -1.
    10030    2    1    2    0    0  0.00000000000E+00  0.00000000000E+00 -0.12783862570E+03  0.12007032314E+04  0.11938783588E+04 0.  0.
        5    1    3    3  502    0  0.99048988413E+02 -0.17235610451E+03 -0.62998405550E+03  0.66062041223E+03  0.46999998093E+01 0. -1.
       -5    1    3    3    0  502 -0.99048988413E+02  0.17235610451E+03  0.50214542980E+03  0.54008281914E+03  0.46999998093E+01 0.  1.
</event>
<event>
 5   0  0.6137750E-04  0.1199955E+04  0.7818609E-02  0.9112896E-01
        4   -1    0    0  501    0  0.00000000000E+00  0.00000000000E+00  0.76500726160E+03  0.76500831577E+03  0.12699999809E+01 0. -1.
       -4   -1    0    0    0  501  0.00000000000E+00  0.00000000000E+00 -0.47054660241E+03  0.47054831626E+03  0.12699999809E+01 0.  1.
    10030    2    1    2    0    0  0.00000000000E+00  0.00000000000E+00  0.29446065919E+03  0.12355566320E+04  0.11999554622E+04 0.  0.
        1    1    3    3  502    0 -0.83887705954E+02 -0.40319718958E+03  0.59648715279E+03  0.72484622118E+03  0.50400001928E-02 0. -1.
       -1    1    3    3    0  502  0.83887705954E+02  0.40319718958E+03 -0.30202649359E+03  0.51071041085E+03  0.50400001928E-02 0.  1.
</event>
<event>
 5   0  0.1537557E-03  0.1265955E+04  0.7818609E-02  0.9057007E-01
        2   -1    0    0  501    0  0.00000000000E+00  0.00000000000E+00  0.18365810215E+04  0.18365810215E+04  0.25500000920E-02 0. -1.
       -2   -1    0    0    0  501  0.00000000000E+00  0.00000000000E+00 -0.21815580680E+03  0.21815580682E+03  0.25500000920E-02 0.  1.
    10030    2    1    2    0    0  0.00000000000E+00  0.00000000000E+00  0.16184252147E+04  0.20547368284E+04  0.12659554724E+04 0.  0.
        2    1    3    3  502    0  0.11764034577E+03 -0.33262178909E+02 -0.19881202879E+03  0.23339204420E+03  0.25500000920E-02 0.  1.
       -2    1    3    3    0  502 -0.11764034577E+03  0.33262178909E+02  0.18172372435E+04  0.18213447842E+04  0.25500000920E-02 0. -1.
</event>
<event>
 5   0  0.9208078E-04  0.1199856E+04  0.7818609E-02  0.9112983E-01
       -1   -1    0    0    0  501  0.00000000000E+00  0.00000000000E+00  0.31699731135E+03  0.31699731139E+03  0.50400001928E-02 0. -1.
        1   -1    0    0  501    0  0.00000000000E+00  0.00000000000E+00 -0.11353836589E+04  0.11353836589E+04  0.50400001928E-02 0.  1.
    10030    2    1    2    0    0  0.00000000000E+00  0.00000000000E+00 -0.81838634759E+03  0.14523809703E+04  0.11998559368E+04 0.  0.
        3    1    3    3  502    0 -0.27299565026E+03 -0.53051900724E+03 -0.33324673766E+03  0.68339625435E+03  0.10100000352E+00 0.  1.
       -3    1    3    3    0  502  0.27299565026E+03  0.53051900724E+03 -0.48513960992E+03  0.76898471598E+03  0.10100000352E+00 0. -1.
</event>
</LesHouchesEvents>
