<LesHouchesEvents version="3.0">
<header>
<!--
#*********************************************************************
#                                                                    *
#                        MadGraph5_aMC@NLO                           *
#                                                                    *
#                           Going Beyond                             *
#                                                                    *
#                   http://madgraph.hep.uiuc.edu                     *
#                   http://madgraph.phys.ucl.ac.be                   *
#                   http://amcatnlo.cern.ch                          *
#                                                                    *
#                     The MadGraph5_aMC@NLO team                     *
#                                                                    *
#....................................................................*
#                                                                    *
# This file contains all the information necessary to reproduce      *
# the events generated:                                              *
#                                                                    *
# 1. software version                                                *
# 2. proc_card          : code generation info including model       *
# 3. param_card         : model primary parameters in the LH format  *
# 4. run_card           : running parameters (collider and cuts)     *
# 5. pythia_card        : present only if pythia has been run        *
# 6. pgs_card           : present only if pgs has been run           *
# 7. delphes_cards      : present only if delphes has been run       *
#                                                                    *
#                                                                    *
#*********************************************************************
-->
<MGVersion>
#5.2.2.3
</MGVersion>
<MG5ProcCard>
#************************************************************
#*                     MadGraph5_aMC@NLO                    *
#*                                                          *
#*                *                       *                 *
#*                  *        * *        *                   *
#*                    * * * * 5 * * * *                     *
#*                  *        * *        *                   *
#*                *                       *                 *
#*                                                          *
#*                                                          *
#*         VERSION 2.2.3                 2015-02-10         *
#*                                                          *
#*    The MadGraph5_aMC@NLO Development Team - Find us at   *
#*    https://server06.fynu.ucl.ac.be/projects/madgraph     *
#*                                                          *
#************************************************************
#*                                                          *
#*               Command File for MadGraph5_aMC@NLO         *
#*                                                          *
#*     run as ./bin/mg5_aMC  filename                       *
#*                                                          *
#************************************************************
set group_subprocesses Auto
set ignore_six_quark_processes False
set loop_optimized_output True
set gauge unitary
set complex_mass_scheme False
import model sm
define p = g u c d s u~ c~ d~ s~
define j = g u c d s u~ c~ d~ s~
define l+ = e+ mu+
define l- = e- mu-
define vl = ve vm vt
define vl~ = ve~ vm~ vt~
import model Zprime_UFO
generate p p > zph, zph > j j
add process p p > zph, zph > b b~
output Dijet_signal
</MG5ProcCard>
<MGProcCard>
#*********************************************************************
#                        MadGraph/MadEvent                           *
#                   http://madgraph.hep.uiuc.edu                     *
#                                                                    *
#                          proc_card.dat                             *
#*********************************************************************
#                                                                    *
#            This Files is generated by MADGRAPH 5                   *
#                                                                    *
# WARNING: This Files is generated for MADEVENT (compatibility issue)*
#          This files is NOT a valid MG4 proc_card.dat               *
#          Running this in MG4 will NEVER reproduce the result of MG5*
#                                                                    *
#*********************************************************************
#*********************************************************************
# Process(es) requested : mg2 input                                  *
#*********************************************************************
# Begin PROCESS # This is TAG. Do not modify this line
p p > zph , zph > j j           #Process
# Be carefull the coupling are here in MG5 convention
          
end_coup           # End the couplings input

done               # this tells MG there are no more procs
# End PROCESS  # This is TAG. Do not modify this line
#*********************************************************************
# Model information                                                  *
#*********************************************************************
# Begin MODEL  # This is TAG. Do not modify this line
Zprime_UFO
# End   MODEL  # This is TAG. Do not modify this line
#*********************************************************************
# Start multiparticle definitions                                    *
#*********************************************************************
# Begin MULTIPARTICLES # This is TAG. Do not modify this line

# End  MULTIPARTICLES # This is TAG. Do not modify this line
</MGProcCard>
<MGRunCard>
#*********************************************************************
#                       MadGraph5_aMC@NLO                            *
#                                                                    *
#                     run_card.dat MadEvent                          *
#                                                                    *
#  This file is used to set the parameters of the run.               *
#                                                                    *
#  Some notation/conventions:                                        *
#                                                                    *
#   Lines starting with a '# ' are info or comments                  *
#                                                                    *
#   mind the format:   value    = variable     ! comment             *
#*********************************************************************
#
#*******************                                                 
# Running parameters
#*******************                                                 
#                                                                    
#*********************************************************************
# Tag name for the run (one word)                                    *
#*********************************************************************
  tag_1     = run_tag ! name of the run 
#*********************************************************************
# Run to generate the grid pack                                      *
#*********************************************************************
  .false.     = gridpack  !True = setting up the grid pack
#*********************************************************************
# Number of events and rnd seed                                      *
# Warning: Do not generate more than 1M events in a single run       *
# If you want to run Pythia, avoid more than 50k events in a run.    *
#*********************************************************************
  2000 = nevents ! Number of unweighted events requested 
 2721 = iseed   ! rnd seed (0=assigned automatically=default))
#*********************************************************************
# Collider type and energy                                           *
# lpp: 0=No PDF, 1=proton, -1=antiproton, 2=photon from proton,      *
#                                         3=photon from electron     *
#*********************************************************************
        1     = lpp1    ! beam 1 type 
        1     = lpp2    ! beam 2 type
     4000     = ebeam1  ! beam 1 total energy in GeV
     4000     = ebeam2  ! beam 2 total energy in GeV
#*********************************************************************
# Beam polarization from -100 (left-handed) to 100 (right-handed)    *
#*********************************************************************
        0     = polbeam1 ! beam polarization for beam 1
        0     = polbeam2 ! beam polarization for beam 2
#*********************************************************************
# PDF CHOICE: this automatically fixes also alpha_s and its evol.    *
#*********************************************************************
 'nn23lo1'    = pdlabel     ! PDF set                                     
 230000    = lhaid     ! if pdlabel=lhapdf, this is the lhapdf number
#*********************************************************************
# Renormalization and factorization scales                           *
#*********************************************************************
 F        = fixed_ren_scale  ! if .true. use fixed ren scale
 F        = fixed_fac_scale  ! if .true. use fixed fac scale
 91.1880  = scale            ! fixed ren scale
 91.1880  = dsqrt_q2fact1    ! fixed fact scale for pdf1
 91.1880  = dsqrt_q2fact2    ! fixed fact scale for pdf2
 1        = scalefact        ! scale factor for event-by-event scales
#*********************************************************************
# Matching - Warning! ickkw > 1 is still beta
#*********************************************************************
 0        = ickkw            ! 0 no matching, 1 MLM, 2 CKKW matching
 1        = highestmult      ! for ickkw=2, highest mult group
 1        = ktscheme         ! for ickkw=1, 1 Durham kT, 2 Pythia pTE
 1        = alpsfact         ! scale factor for QCD emission vx
 F        = chcluster        ! cluster only according to channel diag
 T        = pdfwgt           ! for ickkw=1, perform pdf reweighting
 5        = asrwgtflavor     ! highest quark flavor for a_s reweight
 T        = clusinfo         ! include clustering tag in output
 3.0      = lhe_version       ! Change the way clustering information pass to shower.        
#*********************************************************************
#**********************************************************
#
#**********************************************************
# Automatic ptj and mjj cuts if xqcut > 0
# (turn off for VBF and single top processes)
#**********************************************************
   T  = auto_ptj_mjj  ! Automatic setting of ptj and mjj
#**********************************************************
#                                                                    
#**********************************
# BW cutoff (M+/-bwcutoff*Gamma)
#**********************************
  15  = bwcutoff      ! (M+/-bwcutoff*Gamma)
#**********************************************************
# Apply pt/E/eta/dr/mij cuts on decay products or not
# (note that etmiss/ptll/ptheavy/ht/sorted cuts always apply)
#**********************************************************
   T  = cut_decays    ! Cut decay products 
#*************************************************************
# Number of helicities to sum per event (0 = all helicities)
# 0 gives more stable result, but longer run time (needed for
# long decay chains e.g.).
# Use >=2 if most helicities contribute, e.g. pure QCD.
#*************************************************************
   0  = nhel          ! Number of helicities used per event
#*******************                                                 
# Standard Cuts
#*******************                                                 
#                                                                    
#*********************************************************************
# Minimum and maximum pt's (for max, -1 means no cut)                *
#*********************************************************************
 20  = ptj       ! minimum pt for the jets 
  0  = ptb       ! minimum pt for the b 
 10  = pta       ! minimum pt for the photons 
 10  = ptl       ! minimum pt for the charged leptons 
  0  = misset    ! minimum missing Et (sum of neutrino's momenta)
  0  = ptheavy   ! minimum pt for one heavy final state
 1.0 = ptonium   ! minimum pt for the quarkonium states
 -1  = ptjmax    ! maximum pt for the jets
 -1  = ptbmax    ! maximum pt for the b
 -1  = ptamax    ! maximum pt for the photons
 -1  = ptlmax    ! maximum pt for the charged leptons
 -1  = missetmax ! maximum missing Et (sum of neutrino's momenta)
#*********************************************************************
# Minimum and maximum E's (in the center of mass frame)              *
#*********************************************************************
  0  = ej     ! minimum E for the jets 
  0  = eb     ! minimum E for the b 
  0  = ea     ! minimum E for the photons 
  0  = el     ! minimum E for the charged leptons 
 -1   = ejmax ! maximum E for the jets
 -1   = ebmax ! maximum E for the b
 -1   = eamax ! maximum E for the photons
 -1   = elmax ! maximum E for the charged leptons
#*********************************************************************
# Maximum and minimum absolute rapidity (for max, -1 means no cut)   *
#*********************************************************************
   5  = etaj    ! max rap for the jets 
  -1  = etab    ! max rap for the b
 2.5  = etaa    ! max rap for the photons 
 2.5  = etal    ! max rap for the charged leptons 
 0.6  = etaonium ! max rap for the quarkonium states
   0  = etajmin ! min rap for the jets
   0  = etabmin ! min rap for the b
   0  = etaamin ! min rap for the photons
   0  = etalmin ! main rap for the charged leptons
#*********************************************************************
# Minimum and maximum DeltaR distance                                *
#*********************************************************************
 0.4 = drjj    ! min distance between jets 
 0   = drbb    ! min distance between b's 
 0.4 = drll    ! min distance between leptons 
 0.4 = draa    ! min distance between gammas 
 0   = drbj    ! min distance between b and jet 
 0.4 = draj    ! min distance between gamma and jet 
 0.4 = drjl    ! min distance between jet and lepton 
 0   = drab    ! min distance between gamma and b 
 0   = drbl    ! min distance between b and lepton 
 0.4 = dral    ! min distance between gamma and lepton 
 -1  = drjjmax ! max distance between jets
 -1  = drbbmax ! max distance between b's
 -1  = drllmax ! max distance between leptons
 -1  = draamax ! max distance between gammas
 -1  = drbjmax ! max distance between b and jet
 -1  = drajmax ! max distance between gamma and jet
 -1  = drjlmax ! max distance between jet and lepton
 -1  = drabmax ! max distance between gamma and b
 -1  = drblmax ! max distance between b and lepton
 -1  = dralmax ! maxdistance between gamma and lepton
#*********************************************************************
# Minimum and maximum invariant mass for pairs                       *
# WARNING: for four lepton final state mmll cut require to have      *
#          different lepton masses for each flavor!                  *           
#*********************************************************************
 0   = mmjj    ! min invariant mass of a jet pair 
 0   = mmbb    ! min invariant mass of a b pair 
 0   = mmaa    ! min invariant mass of gamma gamma pair
 0   = mmll    ! min invariant mass of l+l- (same flavour) lepton pair
 -1  = mmjjmax ! max invariant mass of a jet pair
 -1  = mmbbmax ! max invariant mass of a b pair
 -1  = mmaamax ! max invariant mass of gamma gamma pair
 -1  = mmllmax ! max invariant mass of l+l- (same flavour) lepton pair
#*********************************************************************
# Minimum and maximum invariant mass for all letpons                 *
#*********************************************************************
 0   = mmnl    ! min invariant mass for all letpons (l+- and vl) 
 -1  = mmnlmax ! max invariant mass for all letpons (l+- and vl) 
#*********************************************************************
# Minimum and maximum pt for 4-momenta sum of leptons                *
#*********************************************************************
 0   = ptllmin  ! Minimum pt for 4-momenta sum of leptons(l and vl)
 -1  = ptllmax  ! Maximum pt for 4-momenta sum of leptons(l and vl)
#*********************************************************************
# Inclusive cuts                                                     *
#*********************************************************************
 0  = xptj ! minimum pt for at least one jet  
 0  = xptb ! minimum pt for at least one b 
 0  = xpta ! minimum pt for at least one photon 
 0  = xptl ! minimum pt for at least one charged lepton 
#*********************************************************************
# Control the pt's of the jets sorted by pt                          *
#*********************************************************************
 0   = ptj1min ! minimum pt for the leading jet in pt
 0   = ptj2min ! minimum pt for the second jet in pt
 0   = ptj3min ! minimum pt for the third jet in pt
 0   = ptj4min ! minimum pt for the fourth jet in pt
 -1  = ptj1max ! maximum pt for the leading jet in pt 
 -1  = ptj2max ! maximum pt for the second jet in pt
 -1  = ptj3max ! maximum pt for the third jet in pt
 -1  = ptj4max ! maximum pt for the fourth jet in pt
 0   = cutuse  ! reject event if fails any (0) / all (1) jet pt cuts
#*********************************************************************
# Control the pt's of leptons sorted by pt                           *
#*********************************************************************
 0   = ptl1min ! minimum pt for the leading lepton in pt
 0   = ptl2min ! minimum pt for the second lepton in pt
 0   = ptl3min ! minimum pt for the third lepton in pt
 0   = ptl4min ! minimum pt for the fourth lepton in pt
 -1  = ptl1max ! maximum pt for the leading lepton in pt 
 -1  = ptl2max ! maximum pt for the second lepton in pt
 -1  = ptl3max ! maximum pt for the third lepton in pt
 -1  = ptl4max ! maximum pt for the fourth lepton in pt
#*********************************************************************
# Control the Ht(k)=Sum of k leading jets                            *
#*********************************************************************
 0   = htjmin ! minimum jet HT=Sum(jet pt)
 -1  = htjmax ! maximum jet HT=Sum(jet pt)
 0   = ihtmin  !inclusive Ht for all partons (including b)
 -1  = ihtmax  !inclusive Ht for all partons (including b)
 0   = ht2min ! minimum Ht for the two leading jets
 0   = ht3min ! minimum Ht for the three leading jets
 0   = ht4min ! minimum Ht for the four leading jets
 -1  = ht2max ! maximum Ht for the two leading jets
 -1  = ht3max ! maximum Ht for the three leading jets
 -1  = ht4max ! maximum Ht for the four leading jets
#***********************************************************************
# Photon-isolation cuts, according to hep-ph/9801442                   *
# When ptgmin=0, all the other parameters are ignored                  *
# When ptgmin>0, pta and draj are not going to be used                 *
#***********************************************************************
   0 = ptgmin ! Min photon transverse momentum
 0.4 = R0gamma ! Radius of isolation code
 1.0 = xn ! n parameter of eq.(3.4) in hep-ph/9801442
 1.0 = epsgamma ! epsilon_gamma parameter of eq.(3.4) in hep-ph/9801442
 .true. = isoEM ! isolate photons from EM energy (photons and leptons)
#*********************************************************************
# WBF cuts                                                           *
#*********************************************************************
 0   = xetamin ! minimum rapidity for two jets in the WBF case  
 0   = deltaeta ! minimum rapidity for two jets in the WBF case 
#*********************************************************************
# KT DURHAM CUT                                                      *
#*********************************************************************
 -1    =  ktdurham        
 0.4  =  dparameter 
#*********************************************************************
# maximal pdg code for quark to be considered as a light jet         *
# (otherwise b cuts are applied)                                     *
#*********************************************************************
 4 = maxjetflavor    ! Maximum jet pdg code
#*********************************************************************
# Jet measure cuts                                                   *
#*********************************************************************
 0   = xqcut   ! minimum kt jet measure between partons
#*********************************************************************
#
#*********************************************************************
# Store info for systematics studies                                 *
# WARNING: If use_syst is T, matched Pythia output is                *
#          meaningful ONLY if plotted taking matchscale              *
#          reweighting into account!                                 *
#*********************************************************************
   F  = use_syst      ! Enable systematics studies
#
#**************************************
# Parameter of the systematics study
#  will be used by SysCalc (if installed)
#**************************************                                  
#
0.5 1 2 = sys_scalefact  # factorization/renormalization scale factor
0.5 1 2 = sys_alpsfact  # \alpha_s emission scale factors
30 50 = sys_matchscale # variation of merging scale
# PDF sets and number of members (0 or none for all members).
CT10nlo.LHgrid = sys_pdf # matching scales
# MSTW2008nlo68cl.LHgrid 1  = sys_pdf
</MGRunCard>
<slha>
######################################################################
## PARAM_CARD AUTOMATICALY GENERATED BY MG5 FOLLOWING UFO MODEL   ####
######################################################################
##                                                                  ##
##  Width set on Auto will be computed following the information    ##
##        present in the decay.py files of the model.               ##
##        See  arXiv:1402.1178 for more details.                    ##
##                                                                  ##
######################################################################

###################################
## INFORMATION FOR CKMBLOCK
###################################
Block ckmblock 
    1 2.277360e-01 # cabi 

###################################
## INFORMATION FOR FRBLOCK
###################################
Block frblock 
    1 1.400000e+00 # gz 

###################################
## INFORMATION FOR MASS
###################################
Block mass 
    1 5.040000e-03 # MD 
    2 2.550000e-03 # MU 
    3 1.010000e-01 # MS 
    4 1.270000e+00 # MC 
    5 4.700000e+00 # MB 
    6 1.720000e+02 # MT 
   11 5.110000e-04 # Me 
   13 1.056600e-01 # MM 
   15 1.777000e+00 # MTA 
   23 9.118760e+01 # MZ 
   25 1.200000e+02 # MH 
  10030 3.600000e+03 # MZph 
  10031 3.000000e+02 # MZpl 
## Dependent parameters, given by model restrictions.
## Those values should be edited following the 
## analytical expression. MG5 ignores those values 
## but they are important for interfacing the output of MG5
## to external program such as Pythia.
  12 0.000000 # ve : 0.0 
  14 0.000000 # vm : 0.0 
  16 0.000000 # vt : 0.0 
  21 0.000000 # g : 0.0 
  22 0.000000 # a : 0.0 
  24 79.824360 # w+ : cmath.sqrt(MZ__exp__2/2. + cmath.sqrt(MZ__exp__4/4. - (aEW*cmath.pi*MZ__exp__2)/(Gf*sqrt__2))) 

###################################
## INFORMATION FOR SMINPUTS
###################################
Block sminputs 
    1 1.279000e+02 # aEWM1 
    2 1.166370e-05 # Gf 
    3 1.184000e-01 # aS 

###################################
## INFORMATION FOR YUKAWA
###################################
Block yukawa 
    1 5.040000e-03 # ymdo 
    2 2.550000e-03 # ymup 
    3 1.010000e-01 # yms 
    4 1.270000e+00 # ymc 
    5 4.700000e+00 # ymb 
    6 1.720000e+02 # ymt 
   11 5.110000e-04 # yme 
   13 1.056600e-01 # ymm 
   15 1.777000e+00 # ymtau 

###################################
## INFORMATION FOR DECAY
###################################
DECAY   6 1.508336e+00 # WT 
DECAY  23 2.495200e+00 # WZ 
DECAY  24 2.085000e+00 # WW 
DECAY  25 5.753088e-03 # WH 
## Dependent parameters, given by model restrictions.
## Those values should be edited following the 
## analytical expression. MG5 ignores those values 
## but they are important for interfacing the output of MG5
## to external program such as Pythia.
DECAY  1 0.000000 # d : 0.0 
DECAY  2 0.000000 # u : 0.0 
DECAY  3 0.000000 # s : 0.0 
DECAY  4 0.000000 # c : 0.0 
DECAY  5 0.000000 # b : 0.0 
DECAY  11 0.000000 # e- : 0.0 
DECAY  12 0.000000 # ve : 0.0 
DECAY  13 0.000000 # mu- : 0.0 
DECAY  14 0.000000 # vm : 0.0 
DECAY  15 0.000000 # ta- : 0.0 
DECAY  16 0.000000 # vt : 0.0 
DECAY  21 0.000000 # g : 0.0 
DECAY  22 0.000000 # a : 0.0 
DECAY  10030 0.308725 # zph : (gz__exp__2*MZph*(5 + cmath.sqrt(1 - (4*MT__exp__2)/MZph__exp__2)))/(144.*cmath.pi) 
DECAY  10031 0.132629 # zpl : (5*gz__exp__2*MZpl)/(144.*cmath.pi) 
#===========================================================
# QUANTUM NUMBERS OF NEW STATE(S) (NON SM PDG CODE)
#===========================================================

Block QNUMBERS 10030  # zph 
        1 0  # 3 times electric charge
        2 3  # number of spin states (2S+1)
        3 1  # colour rep (1: singlet, 3: triplet, 8: octet)
        4 0  # Particle/Antiparticle distinction (0=own anti)
Block QNUMBERS 10031  # zpl 
        1 0  # 3 times electric charge
        2 3  # number of spin states (2S+1)
        3 1  # colour rep (1: singlet, 3: triplet, 8: octet)
        4 0  # Particle/Antiparticle distinction (0=own anti)
</slha>
## END BANNER##
<MGGenerationInfo>
#  Number of Events        :         4001
#  Integrated weight (pb)  :  0.38492E-03
#  Max wgt                 :  0.15057E-06
#  Average wgt             :  0.96206E-07
</MGGenerationInfo>
</header>
<init>
     2212     2212  0.40000000000E+04  0.40000000000E+04 0 0  247000  247000 2   1
  0.38508958108E-03  0.13176802641E-05  0.15056710000E-06   0
</init>
<event>
 5   0  0.1444091E-06  0.3563405E+04  0.7818609E-02  0.8098926E-01
        2   -1    0    0  501    0  0.00000000000E+00  0.00000000000E+00  0.15818486280E+04  0.15818486280E+04  0.25500000920E-02 0. -1.
       -2   -1    0    0    0  501  0.00000000000E+00  0.00000000000E+00 -0.20068066232E+04  0.20068066232E+04  0.25500000920E-02 0.  1.
    10030    2    1    2    0    0  0.00000000000E+00  0.00000000000E+00 -0.42495799518E+03  0.35886552512E+04  0.35634052834E+04 0.  0.
        1    1    3    3  502    0 -0.40269466355E+03  0.90904042844E+03 -0.17014502567E+04  0.19706472208E+04  0.50400001928E-02 0.  1.
       -1    1    3    3    0  502  0.40269466355E+03 -0.90904042844E+03  0.12764922615E+04  0.16180080304E+04  0.50400001928E-02 0. -1.
</event>
<event>
 5   0  0.1444091E-06  0.3363461E+04  0.7818609E-02  0.8146933E-01
        2   -1    0    0  501    0  0.00000000000E+00  0.00000000000E+00  0.17793640915E+04  0.17793640915E+04  0.25500000920E-02 0.  1.
       -2   -1    0    0    0  501  0.00000000000E+00  0.00000000000E+00 -0.15894539146E+04  0.15894539146E+04  0.25500000920E-02 0. -1.
    10030    2    1    2    0    0  0.00000000000E+00  0.00000000000E+00  0.18991017686E+03  0.33688180061E+04  0.33634608490E+04 0.  0.
        1    1    3    3  502    0  0.12638878287E+04 -0.10930376253E+04 -0.95277744235E+02  0.16736850189E+04  0.50400001928E-02 0.  1.
       -1    1    3    3    0  502 -0.12638878287E+04  0.10930376253E+04  0.28518792109E+03  0.16951329872E+04  0.50400001928E-02 0. -1.
</event>
<event>
 5   0  0.1505671E-06  0.3908287E+04  0.7818609E-02  0.8023308E-01
        2   -1    0    0  501    0  0.00000000000E+00  0.00000000000E+00  0.18822645849E+04  0.18822645849E+04  0.25500000920E-02 0. -1.
       -2   -1    0    0    0  501  0.00000000000E+00  0.00000000000E+00 -0.20287676594E+04  0.20287676594E+04  0.25500000920E-02 0.  1.
    10030    2    1    2    0    0  0.00000000000E+00  0.00000000000E+00 -0.14650307445E+03  0.39110322443E+04  0.39082873570E+04 0.  0.
        3    1    3    3  502    0 -0.47586995710E+03  0.18642911420E+04  0.26851992026E+03  0.19427137298E+04  0.10100000352E+00 0. -1.
       -3    1    3    3    0  502  0.47586995710E+03 -0.18642911420E+04 -0.41502299471E+03  0.19683185145E+04  0.10100000352E+00 0.  1.
</event>
<event>
 5   0  0.1444091E-06  0.3580821E+04  0.7818609E-02  0.8094899E-01
        2   -1    0    0  501    0  0.00000000000E+00  0.00000000000E+00  0.20962939257E+04  0.20962939257E+04  0.25500000920E-02 0. -1.
       -2   -1    0    0    0  501  0.00000000000E+00  0.00000000000E+00 -0.15291604430E+04  0.15291604430E+04  0.25500000920E-02 0.  1.
    10030    2    1    2    0    0  0.00000000000E+00  0.00000000000E+00  0.56713348271E+03  0.36254543687E+04  0.35808209942E+04 0.  0.
        1    1    3    3  502    0  0.36710985824E+03 -0.17374643772E+04  0.52650145406E+02  0.17766046684E+04  0.50400001928E-02 0.  1.
       -1    1    3    3    0  502 -0.36710985824E+03  0.17374643772E+04  0.51448333730E+03  0.18488497003E+04  0.50400001928E-02 0. -1.
</event>
<event>
 5   0  0.1505671E-06  0.2922959E+04  0.7818609E-02  0.8266079E-01
       -2   -1    0    0    0  501  0.00000000000E+00  0.00000000000E+00  0.12798012057E+04  0.12798012057E+04  0.25500000920E-02 0. -1.
        2   -1    0    0  501    0  0.00000000000E+00  0.00000000000E+00 -0.16689482597E+04  0.16689482597E+04  0.25500000920E-02 0.  1.
    10030    2    1    2    0    0  0.00000000000E+00  0.00000000000E+00 -0.38914705408E+03  0.29487494654E+04  0.29229587715E+04 0.  0.
        3    1    3    3  502    0  0.42797828921E+03 -0.13506649207E+04 -0.55615033425E+03  0.15220920959E+04  0.10100000352E+00 0. -1.
       -3    1    3    3    0  502 -0.42797828921E+03  0.13506649207E+04  0.16700328017E+03  0.14266573695E+04  0.10100000352E+00 0.  1.
</event>
<event>
 5   0  0.5071661E-07  0.3594432E+04  0.7818609E-02  0.8091768E-01
        1   -1    0    0  501    0  0.00000000000E+00  0.00000000000E+00  0.11365170926E+04  0.11365170926E+04  0.50400001928E-02 0. -1.
       -1   -1    0    0    0  501  0.00000000000E+00  0.00000000000E+00 -0.28420035813E+04  0.28420035813E+04  0.50400001928E-02 0.  1.
    10030    2    1    2    0    0  0.00000000000E+00  0.00000000000E+00 -0.17054864887E+04  0.39785206740E+04  0.35944321652E+04 0.  0.
        1    1    3    3  502    0 -0.10713205253E+04 -0.14297984842E+03 -0.24420808064E+04  0.26705672750E+04  0.50400001928E-02 0.  1.
       -1    1    3    3    0  502  0.10713205253E+04  0.14297984842E+03  0.73659431772E+03  0.13079533990E+04  0.50400001928E-02 0. -1.
</event>
<event>
 5   0  0.4811500E-07  0.3663659E+04  0.7818609E-02  0.8076063E-01
       -1   -1    0    0    0  501  0.00000000000E+00  0.00000000000E+00  0.28034870470E+04  0.28034870470E+04  0.50400001928E-02 0.  1.
        1   -1    0    0  501    0  0.00000000000E+00  0.00000000000E+00 -0.11969378473E+04  0.11969378473E+04  0.50400001928E-02 0. -1.
    10030    2    1    2    0    0  0.00000000000E+00  0.00000000000E+00  0.16065491997E+04  0.40004248943E+04  0.36636592368E+04 0.  0.
        3    1    3    3  502    0  0.72244443668E+03  0.63899895339E+03  0.25037823954E+04  0.26831272650E+04  0.10100000352E+00 0.  1.
       -3    1    3    3    0  502 -0.72244443668E+03 -0.63899895339E+03 -0.89723319566E+03  0.13172976293E+04  0.10100000352E+00 0. -1.
</event>
<event>
 5   0  0.1444091E-06  0.3388990E+04  0.7818609E-02  0.8140614E-01
       -2   -1    0    0    0  501  0.00000000000E+00  0.00000000000E+00  0.11887402844E+04  0.11887402844E+04  0.25500000920E-02 0. -1.
        2   -1    0    0  501    0  0.00000000000E+00  0.00000000000E+00 -0.24154248045E+04  0.24154248045E+04  0.25500000920E-02 0.  1.
    10030    2    1    2    0    0  0.00000000000E+00  0.00000000000E+00 -0.12266845201E+04  0.36041650889E+04  0.33889896837E+04 0.  0.
        1    1    3    3  502    0  0.43750719650E+03 -0.10309225987E+04  0.73905009969E+03  0.13417932037E+04  0.50400001928E-02 0. -1.
       -1    1    3    3    0  502 -0.43750719650E+03  0.10309225987E+04 -0.19657346198E+04  0.22623718852E+04  0.50400001928E-02 0.  1.
</event>
<event>
 5   0  0.4811500E-07  0.3501317E+04  0.7818609E-02  0.8113478E-01
       -1   -1    0    0    0  501  0.00000000000E+00  0.00000000000E+00  0.11808937634E+04  0.11808937634E+04  0.50400001928E-02 0.  1.
        1   -1    0    0  501    0  0.00000000000E+00  0.00000000000E+00 -0.25953261694E+04  0.25953261694E+04  0.50400001928E-02 0. -1.
    10030    2    1    2    0    0  0.00000000000E+00  0.00000000000E+00 -0.14144324060E+04  0.37762199328E+04  0.35013166023E+04 0.  0.
        2    1    3    3  502    0  0.10264043637E+04  0.14128348919E+04 -0.57426492773E+03  0.18383113330E+04  0.25500000920E-02 0.  1.
       -2    1    3    3    0  502 -0.10264043637E+04 -0.14128348919E+04 -0.84016747825E+03  0.19379085998E+04  0.25500000920E-02 0. -1.
</event>
<event>
 5   0  0.1444091E-06  0.3611857E+04  0.7818609E-02  0.8087781E-01
       -2   -1    0    0    0  501  0.00000000000E+00  0.00000000000E+00  0.13593153228E+04  0.13593153228E+04  0.25500000920E-02 0.  1.
        2   -1    0    0  501    0  0.00000000000E+00  0.00000000000E+00 -0.23992800487E+04  0.23992800487E+04  0.25500000920E-02 0. -1.
    10030    2    1    2    0    0  0.00000000000E+00  0.00000000000E+00 -0.10399647259E+04  0.37585953715E+04  0.36118572142E+04 0.  0.
        1    1    3    3  502    0 -0.11457352614E+04  0.78681654550E+03  0.67994135452E+03  0.15472911204E+04  0.50400001928E-02 0.  1.
       -1    1    3    3    0  502  0.11457352614E+04 -0.78681654550E+03 -0.17199060804E+04  0.22113042511E+04  0.50400001928E-02 0. -1.
</event>
<event>
 5   0  0.1491854E-06  0.3508664E+04  0.7818609E-02  0.8111740E-01
       -2   -1    0    0    0  501  0.00000000000E+00  0.00000000000E+00  0.11626935156E+04  0.11626935156E+04  0.25500000920E-02 0.  1.
        2   -1    0    0  501    0  0.00000000000E+00  0.00000000000E+00 -0.26470260225E+04  0.26470260225E+04  0.25500000920E-02 0. -1.
    10030    2    1    2    0    0  0.00000000000E+00  0.00000000000E+00 -0.14843325069E+04  0.38097195381E+04  0.35086635587E+04 0.  0.
        5    1    3    3  502    0  0.48853362318E+03 -0.13848184496E+04  0.30001894223E+03  0.14988064235E+04  0.46999998093E+01 0.  1.
       -5    1    3    3    0  502 -0.48853362318E+03  0.13848184496E+04 -0.17843514491E+04  0.23109131146E+04  0.46999998093E+01 0. -1.
</event>
<event>
 5   0  0.1491854E-06  0.3964712E+04  0.7818609E-02  0.8011703E-01
        2   -1    0    0  501    0  0.00000000000E+00  0.00000000000E+00  0.23274784120E+04  0.23274784120E+04  0.25500000920E-02 0. -1.
       -2   -1    0    0    0  501  0.00000000000E+00  0.00000000000E+00 -0.16884088738E+04  0.16884088738E+04  0.25500000920E-02 0.  1.
    10030    2    1    2    0    0  0.00000000000E+00  0.00000000000E+00  0.63906953828E+03  0.40158872858E+04  0.39647119463E+04 0.  0.
        5    1    3    3  502    0 -0.12049933323E+04 -0.14475233710E+04  0.94588553882E+03  0.21076181777E+04  0.46999998093E+01 0. -1.
       -5    1    3    3    0  502  0.12049933323E+04  0.14475233710E+04 -0.30681600054E+03  0.19082691081E+04  0.46999998093E+01 0.  1.
</event>
<event>
 5   0  0.4811500E-07  0.2889609E+04  0.7818609E-02  0.8275976E-01
       -1   -1    0    0    0  501  0.00000000000E+00  0.00000000000E+00  0.95679153794E+03  0.95679153796E+03  0.50400001928E-02 0. -1.
        1   -1    0    0  501    0  0.00000000000E+00  0.00000000000E+00 -0.21817292432E+04  0.21817292433E+04  0.50400001928E-02 0.  1.
    10030    2    1    2    0    0  0.00000000000E+00  0.00000000000E+00 -0.12249377053E+04  0.31385207812E+04  0.28896090241E+04 0.  0.
        5    1    3    3  502    0 -0.19048603033E+03 -0.10575976801E+04  0.43645265607E+03  0.11598753346E+04  0.46999998093E+01 0. -1.
       -5    1    3    3    0  502  0.19048603033E+03  0.10575976801E+04 -0.16613903614E+04  0.19786454467E+04  0.46999998093E+01 0.  1.
</event>
<event>
 5   0  0.4811500E-07  0.3570078E+04  0.7818609E-02  0.8097380E-01
       -3   -1    0    0    0  501  0.00000000000E+00  0.00000000000E+00  0.12847020907E+04  0.12847020946E+04  0.10100000352E+00 0. -1.
        3   -1    0    0  501    0  0.00000000000E+00  0.00000000000E+00 -0.24802360995E+04  0.24802361015E+04  0.10100000352E+00 0.  1.
    10030    2    1    2    0    0  0.00000000000E+00  0.00000000000E+00 -0.11955340088E+04  0.37649381961E+04  0.35700781580E+04 0.  0.
        3    1    3    3  502    0 -0.13990699243E+03  0.96747816436E+03  0.97733310434E+03  0.13823053107E+04  0.10100000352E+00 0. -1.
       -3    1    3    3    0  502  0.13990699243E+03 -0.96747816436E+03 -0.21728671131E+04  0.23826328854E+04  0.10100000352E+00 0.  1.
</event>
<event>
 5   0  0.5071661E-07  0.2276379E+04  0.7818609E-02  0.8487293E-01
       -1   -1    0    0    0  501  0.00000000000E+00  0.00000000000E+00  0.27191299911E+04  0.27191299911E+04  0.50400001928E-02 0. -1.
        1   -1    0    0  501    0  0.00000000000E+00  0.00000000000E+00 -0.47643004892E+03  0.47643004894E+03  0.50400001928E-02 0.  1.
    10030    2    1    2    0    0  0.00000000000E+00  0.00000000000E+00  0.22426999422E+04  0.31955600401E+04  0.22763789093E+04 0.  0.
        1    1    3    3  502    0  0.98273600428E+03 -0.12044032415E+03  0.33322505655E+03  0.10446601668E+04  0.50400001928E-02 0.  1.
       -1    1    3    3    0  502 -0.98273600428E+03  0.12044032415E+03  0.19094748857E+04  0.21508998733E+04  0.50400001928E-02 0. -1.
</event>
<event>
 5   0  0.4811500E-07  0.3081574E+04  0.7818609E-02  0.8220813E-01
       -1   -1    0    0    0  501  0.00000000000E+00  0.00000000000E+00  0.10702885356E+04  0.10702885356E+04  0.50400001928E-02 0.  1.
        1   -1    0    0  501    0  0.00000000000E+00  0.00000000000E+00 -0.22181170303E+04  0.22181170304E+04  0.50400001928E-02 0. -1.
    10030    2    1    2    0    0  0.00000000000E+00  0.00000000000E+00 -0.11478284948E+04  0.32884055659E+04  0.30815744211E+04 0.  0.
        3    1    3    3  502    0  0.94842213861E+03 -0.17044176225E+03  0.70905810031E+03  0.11963771759E+04  0.10100000352E+00 0.  1.
       -3    1    3    3    0  502 -0.94842213861E+03  0.17044176225E+03 -0.18568865951E+04  0.20920283900E+04  0.10100000352E+00 0. -1.
</event>
<event>
 5   0  0.4811500E-07  0.2464176E+04  0.7818609E-02  0.8415860E-01
        1   -1    0    0  501    0  0.00000000000E+00  0.00000000000E+00  0.23828946477E+04  0.23828946477E+04  0.50400001928E-02 0. -1.
       -1   -1    0    0    0  501  0.00000000000E+00  0.00000000000E+00 -0.63705770395E+03  0.63705770397E+03  0.50400001928E-02 0.  1.
    10030    2    1    2    0    0  0.00000000000E+00  0.00000000000E+00  0.17458369438E+04  0.30199523517E+04  0.24641764491E+04 0.  0.
        3    1    3    3  502    0  0.99563518258E+03 -0.20141198371E+03  0.17274520763E+04  0.20039827569E+04  0.10100000352E+00 0. -1.
       -3    1    3    3    0  502 -0.99563518258E+03  0.20141198371E+03  0.18384867498E+02  0.10159695948E+04  0.10100000352E+00 0.  1.
</event>
<event>
 5   0  0.1444091E-06  0.3861155E+04  0.7818609E-02  0.8033157E-01
        2   -1    0    0  501    0  0.00000000000E+00  0.00000000000E+00  0.10959541465E+04  0.10959541465E+04  0.25500000920E-02 0.  1.
       -2   -1    0    0    0  501  0.00000000000E+00  0.00000000000E+00 -0.34008074640E+04  0.34008074640E+04  0.25500000920E-02 0. -1.
    10030    2    1    2    0    0  0.00000000000E+00  0.00000000000E+00 -0.23048533175E+04  0.44967616105E+04  0.38611547711E+04 0.  0.
        1    1    3    3  502    0  0.11087819368E+04 -0.12357398547E+04 -0.50119905100E+01  0.16602636815E+04  0.50400001928E-02 0. -1.
       -1    1    3    3    0  502 -0.11087819368E+04  0.12357398547E+04 -0.22998413270E+04  0.28364979290E+04  0.50400001928E-02 0.  1.
</event>
<event>
 5   0  0.4811500E-07  0.2810328E+04  0.7818609E-02  0.8300069E-01
        1   -1    0    0  501    0  0.00000000000E+00  0.00000000000E+00  0.21230027263E+04  0.21230027263E+04  0.50400001928E-02 0. -1.
       -1   -1    0    0    0  501  0.00000000000E+00  0.00000000000E+00 -0.93004403774E+03  0.93004403775E+03  0.50400001928E-02 0.  1.
    10030    2    1    2    0    0  0.00000000000E+00  0.00000000000E+00  0.11929586886E+04  0.30530467641E+04  0.28103281145E+04 0.  0.
        4    1    3    3  502    0 -0.11018481803E+03  0.13461910073E+04  0.10173864844E+04  0.16909901815E+04  0.12699999809E+01 0.  1.
       -4    1    3    3    0  502  0.11018481803E+03 -0.13461910073E+04  0.17557220416E+03  0.13620565826E+04  0.12699999809E+01 0. -1.
</event>
<event>
 5   0  0.5071661E-07  0.2503727E+04  0.7818609E-02  0.8401659E-01
        1   -1    0    0  501    0  0.00000000000E+00  0.00000000000E+00  0.20237759758E+04  0.20237759758E+04  0.50400001928E-02 0. -1.
       -1   -1    0    0    0  501  0.00000000000E+00  0.00000000000E+00 -0.77437518785E+03  0.77437518787E+03  0.50400001928E-02 0.  1.
    10030    2    1    2    0    0  0.00000000000E+00  0.00000000000E+00  0.12494007879E+04  0.27981511637E+04  0.25037267434E+04 0.  0.
        1    1    3    3  502    0 -0.48160389299E+02  0.40523946990E+03 -0.69794962039E+03  0.80849992189E+03  0.50400001928E-02 0.  1.
       -1    1    3    3    0  502  0.48160389299E+02 -0.40523946990E+03  0.19473504083E+04  0.19896512418E+04  0.50400001928E-02 0. -1.
</event>
<event>
 5   0  0.1468942E-06  0.3585412E+04  0.7818609E-02  0.8093841E-01
       -2   -1    0    0    0  501  0.00000000000E+00  0.00000000000E+00  0.28820509445E+04  0.28820509445E+04  0.25500000920E-02 0. -1.
        2   -1    0    0  501    0  0.00000000000E+00  0.00000000000E+00 -0.11151069267E+04  0.11151069267E+04  0.25500000920E-02 0.  1.
    10030    2    1    2    0    0  0.00000000000E+00  0.00000000000E+00  0.17669440179E+04  0.39971578712E+04  0.35854120942E+04 0.  0.
        2    1    3    3  502    0 -0.68693403770E+03 -0.11465447041E+04  0.22153907875E+04  0.25873537586E+04  0.25500000920E-02 0. -1.
       -2    1    3    3    0  502  0.68693403770E+03  0.11465447041E+04 -0.44844676967E+03  0.14098041126E+04  0.25500000920E-02 0.  1.
</event>
<event>
 5   0  0.4811500E-07  0.3645411E+04  0.7818609E-02  0.8080168E-01
        1   -1    0    0  501    0  0.00000000000E+00  0.00000000000E+00  0.28547865863E+04  0.28547865863E+04  0.50400001928E-02 0.  1.
       -1   -1    0    0    0  501  0.00000000000E+00  0.00000000000E+00 -0.11637490637E+04  0.11637490638E+04  0.50400001928E-02 0. -1.
    10030    2    1    2    0    0  0.00000000000E+00  0.00000000000E+00  0.16910375226E+04  0.40185356501E+04  0.36454109327E+04 0.  0.
        3    1    3    3  502    0  0.10275090136E+03 -0.15941541350E+04 -0.12202591949E+03  0.16021159413E+04  0.10100000352E+00 0. -1.
       -3    1    3    3    0  502 -0.10275090136E+03  0.15941541350E+04  0.18130634421E+04  0.24164197088E+04  0.10100000352E+00 0.  1.
</event>
<event>
 5   0  0.4811500E-07  0.3625885E+04  0.7818609E-02  0.8084588E-01
       -3   -1    0    0    0  501  0.00000000000E+00  0.00000000000E+00  0.20622463997E+04  0.20622464022E+04  0.10100000352E+00 0.  1.
        3   -1    0    0  501    0  0.00000000000E+00  0.00000000000E+00 -0.15937767106E+04  0.15937767138E+04  0.10100000352E+00 0. -1.
    10030    2    1    2    0    0  0.00000000000E+00  0.00000000000E+00  0.46846968910E+03  0.36560231160E+04  0.36258848816E+04 0.  0.
        5    1    3    3  502    0  0.99336810444E+03 -0.94783329511E+02 -0.12919425420E+04  0.16324526616E+04  0.46999998093E+01 0. -1.
       -5    1    3    3    0  502 -0.99336810444E+03  0.94783329511E+02  0.17604122311E+04  0.20235704544E+04  0.46999998093E+01 0.  1.
</event>
<event>
 5   0  0.1444091E-06  0.2738368E+04  0.7818609E-02  0.8322662E-01
        2   -1    0    0  501    0  0.00000000000E+00  0.00000000000E+00  0.17733886520E+04  0.17733886520E+04  0.25500000920E-02 0.  1.
       -2   -1    0    0    0  501  0.00000000000E+00  0.00000000000E+00 -0.10571087391E+04  0.10571087391E+04  0.25500000920E-02 0. -1.
    10030    2    1    2    0    0  0.00000000000E+00  0.00000000000E+00  0.71627991286E+03  0.28304973911E+04  0.27383678656E+04 0.  0.
        1    1    3    3  502    0 -0.61567953209E+03 -0.51356609355E+03 -0.78908992732E+03  0.11249330345E+04  0.50400001928E-02 0. -1.
       -1    1    3    3    0  502  0.61567953209E+03  0.51356609355E+03  0.15053698402E+04  0.17055643566E+04  0.50400001928E-02 0.  1.
</event>
<event>
 5   0  0.5071661E-07  0.3726929E+04  0.7818609E-02  0.8062020E-01
        1   -1    0    0  501    0  0.00000000000E+00  0.00000000000E+00  0.17927043179E+04  0.17927043179E+04  0.50400001928E-02 0.  1.
       -1   -1    0    0    0  501  0.00000000000E+00  0.00000000000E+00 -0.19370181181E+04  0.19370181181E+04  0.50400001928E-02 0. -1.
    10030    2    1    2    0    0  0.00000000000E+00  0.00000000000E+00 -0.14431380020E+03  0.37297224360E+04  0.37269294301E+04 0.  0.
        1    1    3    3  502    0  0.14921999723E+04  0.10505116532E+04  0.30530642750E+03  0.18502560649E+04  0.50400001928E-02 0.  1.
       -1    1    3    3    0  502 -0.14921999723E+04 -0.10505116532E+04 -0.44962022770E+03  0.18794663711E+04  0.50400001928E-02 0. -1.
</event>
<event>
 5   0  0.1468942E-06  0.3682398E+04  0.7818609E-02  0.8071874E-01
        2   -1    0    0  501    0  0.00000000000E+00  0.00000000000E+00  0.17171802114E+04  0.17171802114E+04  0.25500000920E-02 0. -1.
       -2   -1    0    0    0  501  0.00000000000E+00  0.00000000000E+00 -0.19741751609E+04  0.19741751609E+04  0.25500000920E-02 0.  1.
    10030    2    1    2    0    0  0.00000000000E+00  0.00000000000E+00 -0.25699494951E+03  0.36913553724E+04  0.36823984142E+04 0.  0.
        2    1    3    3  502    0 -0.13122291684E+04 -0.10048003230E+04 -0.94191772490E+03  0.19023086185E+04  0.25500000920E-02 0.  1.
       -2    1    3    3    0  502  0.13122291684E+04  0.10048003230E+04  0.68492277539E+03  0.17890467539E+04  0.25500000920E-02 0. -1.
</event>
<event>
 5   0  0.4811500E-07  0.3514615E+04  0.7818609E-02  0.8110335E-01
        1   -1    0    0  501    0  0.00000000000E+00  0.00000000000E+00  0.19501994471E+04  0.19501994471E+04  0.50400001928E-02 0. -1.
       -1   -1    0    0    0  501  0.00000000000E+00  0.00000000000E+00 -0.15834941933E+04  0.15834941933E+04  0.50400001928E-02 0.  1.
    10030    2    1    2    0    0  0.00000000000E+00  0.00000000000E+00  0.36670525387E+03  0.35336936404E+04  0.35146149151E+04 0.  0.
        2    1    3    3  502    0  0.25613356491E+03  0.13678937466E+04 -0.89550146305E+03  0.16548898983E+04  0.25500000920E-02 0.  1.
       -2    1    3    3    0  502 -0.25613356491E+03 -0.13678937466E+04  0.12622067169E+04  0.18788037421E+04  0.25500000920E-02 0. -1.
</event>
<event>
 5   0  0.1505671E-06  0.3641035E+04  0.7818609E-02  0.8081156E-01
       -2   -1    0    0    0  501  0.00000000000E+00  0.00000000000E+00  0.13669961389E+04  0.13669961389E+04  0.25500000920E-02 0.  1.
        2   -1    0    0  501    0  0.00000000000E+00  0.00000000000E+00 -0.24245010953E+04  0.24245010953E+04  0.25500000920E-02 0. -1.
    10030    2    1    2    0    0  0.00000000000E+00  0.00000000000E+00 -0.10575049564E+04  0.37914972342E+04  0.36410348178E+04 0.  0.
        3    1    3    3  502    0  0.38980577956E+03 -0.64246296290E+03 -0.22554601120E+04  0.23773530515E+04  0.10100000352E+00 0. -1.
       -3    1    3    3    0  502 -0.38980577956E+03  0.64246296290E+03  0.11979551556E+04  0.14141441827E+04  0.10100000352E+00 0.  1.
</event>
<event>
 5   0  0.1491854E-06  0.2333020E+04  0.7818609E-02  0.8465015E-01
       -2   -1    0    0    0  501  0.00000000000E+00  0.00000000000E+00  0.12790521044E+04  0.12790521044E+04  0.25500000920E-02 0. -1.
        2   -1    0    0  501    0  0.00000000000E+00  0.00000000000E+00 -0.10638700769E+04  0.10638700769E+04  0.25500000920E-02 0.  1.
    10030    2    1    2    0    0  0.00000000000E+00  0.00000000000E+00  0.21518202750E+03  0.23429221813E+04  0.23330197261E+04 0.  0.
        5    1    3    3  502    0  0.10519249754E+04  0.33549353478E+03 -0.27033208965E+03  0.11367513336E+04  0.46999998093E+01 0.  1.
       -5    1    3    3    0  502 -0.10519249754E+04 -0.33549353478E+03  0.48551411714E+03  0.12061708476E+04  0.46999998093E+01 0. -1.
</event>
<event>
 5   0  0.4811500E-07  0.2534667E+04  0.7818609E-02  0.8390738E-01
        1   -1    0    0  501    0  0.00000000000E+00  0.00000000000E+00  0.14294798990E+04  0.14294798990E+04  0.50400001928E-02 0.  1.
       -1   -1    0    0    0  501  0.00000000000E+00  0.00000000000E+00 -0.11235794369E+04  0.11235794369E+04  0.50400001928E-02 0. -1.
    10030    2    1    2    0    0  0.00000000000E+00  0.00000000000E+00  0.30590046213E+03  0.25530593359E+04  0.25346670156E+04 0.  0.
        2    1    3    3  502    0  0.18548142924E+03  0.14577132485E+03  0.14071690150E+04  0.14268066710E+04  0.25500000920E-02 0.  1.
       -2    1    3    3    0  502 -0.18548142924E+03 -0.14577132485E+03 -0.11012685528E+04  0.11262526649E+04  0.25500000920E-02 0. -1.
</event>
<event>
 5   0  0.1505671E-06  0.3650613E+04  0.7818609E-02  0.8078996E-01
       -2   -1    0    0    0  501  0.00000000000E+00  0.00000000000E+00  0.15918711222E+04  0.15918711222E+04  0.25500000920E-02 0.  1.
        2   -1    0    0  501    0  0.00000000000E+00  0.00000000000E+00 -0.20929734922E+04  0.20929734922E+04  0.25500000920E-02 0. -1.
    10030    2    1    2    0    0  0.00000000000E+00  0.00000000000E+00 -0.50110237007E+03  0.36848446144E+04  0.36506131330E+04 0.  0.
        3    1    3    3  502    0  0.14027720450E+04 -0.80835965067E+02 -0.14265685063E+04  0.20023490147E+04  0.10100000352E+00 0. -1.
       -3    1    3    3    0  502 -0.14027720450E+04  0.80835965067E+02  0.92546613618E+03  0.16824955997E+04  0.10100000352E+00 0.  1.
</event>
<event>
 5   0  0.1444091E-06  0.3442567E+04  0.7818609E-02  0.8127537E-01
        2   -1    0    0  501    0  0.00000000000E+00  0.00000000000E+00  0.17212287349E+04  0.17212287350E+04  0.25500000920E-02 0.  1.
       -2   -1    0    0    0  501  0.00000000000E+00  0.00000000000E+00 -0.17213381220E+04  0.17213381220E+04  0.25500000920E-02 0. -1.
    10030    2    1    2    0    0  0.00000000000E+00  0.00000000000E+00 -0.10938709010E+00  0.34425668570E+04  0.34425668553E+04 0.  0.
        1    1    3    3  502    0 -0.91367757775E+03  0.12015880189E+04  0.82710681161E+03  0.17212571456E+04  0.50400001928E-02 0. -1.
       -1    1    3    3    0  502  0.91367757775E+03 -0.12015880189E+04 -0.82721619870E+03  0.17213097114E+04  0.50400001928E-02 0.  1.
</event>
<event>
 5   0  0.4811500E-07  0.3174119E+04  0.7818609E-02  0.8195686E-01
       -1   -1    0    0    0  501  0.00000000000E+00  0.00000000000E+00  0.10493747912E+04  0.10493747912E+04  0.50400001928E-02 0.  1.
        1   -1    0    0  501    0  0.00000000000E+00  0.00000000000E+00 -0.24002460660E+04  0.24002460660E+04  0.50400001928E-02 0. -1.
    10030    2    1    2    0    0  0.00000000000E+00  0.00000000000E+00 -0.13508712748E+04  0.34496208572E+04  0.31741189104E+04 0.  0.
        3    1    3    3  502    0  0.10205213479E+04  0.75926786513E+03  0.35605158819E+03  0.13208801067E+04  0.10100000352E+00 0.  1.
       -3    1    3    3    0  502 -0.10205213479E+04 -0.75926786513E+03 -0.17069228630E+04  0.21287407506E+04  0.10100000352E+00 0. -1.
</event>
<event>
 5   0  0.1505671E-06  0.3516370E+04  0.7818609E-02  0.8109921E-01
        2   -1    0    0  501    0  0.00000000000E+00  0.00000000000E+00  0.11686031832E+04  0.11686031832E+04  0.25500000920E-02 0. -1.
       -2   -1    0    0    0  501  0.00000000000E+00  0.00000000000E+00 -0.26452210990E+04  0.26452210990E+04  0.25500000920E-02 0.  1.
    10030    2    1    2    0    0  0.00000000000E+00  0.00000000000E+00 -0.14766179158E+04  0.38138242822E+04  0.35163696032E+04 0.  0.
        3    1    3    3  502    0 -0.77943457025E+03  0.67233449218E+03 -0.22842462621E+04  0.25054606193E+04  0.10100000352E+00 0.  1.
       -3    1    3    3    0  502  0.77943457025E+03 -0.67233449218E+03  0.80762834627E+03  0.13083636630E+04  0.10100000352E+00 0. -1.
</event>
<event>
 5   0  0.4811500E-07  0.3514320E+04  0.7818609E-02  0.8110405E-01
       -1   -1    0    0    0  501  0.00000000000E+00  0.00000000000E+00  0.14695981676E+04  0.14695981676E+04  0.50400001928E-02 0. -1.
        1   -1    0    0  501    0  0.00000000000E+00  0.00000000000E+00 -0.21009906284E+04  0.21009906284E+04  0.50400001928E-02 0.  1.
    10030    2    1    2    0    0  0.00000000000E+00  0.00000000000E+00 -0.63139246082E+03  0.35705887961E+04  0.35143204053E+04 0.  0.
        4    1    3    3  502    0  0.45297955081E+03  0.15554998224E+04 -0.10069126039E+04  0.19075232045E+04  0.12699999809E+01 0.  1.
       -4    1    3    3    0  502 -0.45297955081E+03 -0.15554998224E+04  0.37552014308E+03  0.16630655915E+04  0.12699999809E+01 0. -1.
</event>
<event>
 5   0  0.5071661E-07  0.3624520E+04  0.7818609E-02  0.8084898E-01
        1   -1    0    0  501    0  0.00000000000E+00  0.00000000000E+00  0.20086504361E+04  0.20086504362E+04  0.50400001928E-02 0.  1.
       -1   -1    0    0    0  501  0.00000000000E+00  0.00000000000E+00 -0.16350713504E+04  0.16350713504E+04  0.50400001928E-02 0. -1.
    10030    2    1    2    0    0  0.00000000000E+00  0.00000000000E+00  0.37357908573E+03  0.36437217866E+04  0.36245202613E+04 0.  0.
        1    1    3    3  502    0 -0.50632579685E+03  0.23711013479E+02 -0.15623587177E+04  0.16425263430E+04  0.50400001928E-02 0. -1.
       -1    1    3    3    0  502  0.50632579685E+03 -0.23711013479E+02  0.19359378034E+04  0.20011954436E+04  0.50400001928E-02 0.  1.
</event>
<event>
 5   0  0.4811500E-07  0.3590688E+04  0.7818609E-02  0.8092628E-01
        1   -1    0    0  501    0  0.00000000000E+00  0.00000000000E+00  0.21028244247E+04  0.21028244247E+04  0.50400001928E-02 0.  1.
       -1   -1    0    0    0  501  0.00000000000E+00  0.00000000000E+00 -0.15328240571E+04  0.15328240571E+04  0.50400001928E-02 0. -1.
    10030    2    1    2    0    0  0.00000000000E+00  0.00000000000E+00  0.57000036762E+03  0.36356484818E+04  0.35906878818E+04 0.  0.
        3    1    3    3  502    0 -0.29818701908E+03  0.14936070991E+04 -0.67741846187E+03  0.16669353460E+04  0.10100000352E+00 0. -1.
       -3    1    3    3    0  502  0.29818701908E+03 -0.14936070991E+04  0.12474188295E+04  0.19687131359E+04  0.10100000352E+00 0.  1.
</event>
<event>
 5   0  0.1379425E-06  0.3662941E+04  0.7818609E-02  0.8076224E-01
       -2   -1    0    0    0  501  0.00000000000E+00  0.00000000000E+00  0.13141622205E+04  0.13141622205E+04  0.25500000920E-02 0.  1.
        2   -1    0    0  501    0  0.00000000000E+00  0.00000000000E+00 -0.25524131009E+04  0.25524131009E+04  0.25500000920E-02 0. -1.
    10030    2    1    2    0    0  0.00000000000E+00  0.00000000000E+00 -0.12382508804E+04  0.38665753213E+04  0.36629413690E+04 0.  0.
        4    1    3    3  502    0  0.17987300294E+04  0.16646199443E+03 -0.30044133065E+03  0.18312307120E+04  0.12699999809E+01 0.  1.
       -4    1    3    3    0  502 -0.17987300294E+04 -0.16646199443E+03 -0.93780954972E+03  0.20353446094E+04  0.12699999809E+01 0. -1.
</event>
<event>
 5   0  0.1379425E-06  0.3663000E+04  0.7818609E-02  0.8076211E-01
       -2   -1    0    0    0  501  0.00000000000E+00  0.00000000000E+00  0.12249368472E+04  0.12249368472E+04  0.25500000920E-02 0. -1.
        2   -1    0    0  501    0  0.00000000000E+00  0.00000000000E+00 -0.27384201197E+04  0.27384201197E+04  0.25500000920E-02 0.  1.
    10030    2    1    2    0    0  0.00000000000E+00  0.00000000000E+00 -0.15134832725E+04  0.39633569669E+04  0.36629997039E+04 0.  0.
        4    1    3    3  502    0  0.14044109715E+04  0.17094740889E+03 -0.20152108796E+04  0.24622489101E+04  0.12699999809E+01 0.  1.
       -4    1    3    3    0  502 -0.14044109715E+04 -0.17094740889E+03  0.50172760704E+03  0.15011080567E+04  0.12699999809E+01 0. -1.
</event>
<event>
 5   0  0.1491854E-06  0.2686276E+04  0.7818609E-02  0.8339472E-01
        2   -1    0    0  501    0  0.00000000000E+00  0.00000000000E+00  0.14187257553E+04  0.14187257553E+04  0.25500000920E-02 0.  1.
       -2   -1    0    0    0  501  0.00000000000E+00  0.00000000000E+00 -0.12715771080E+04  0.12715771080E+04  0.25500000920E-02 0. -1.
    10030    2    1    2    0    0  0.00000000000E+00  0.00000000000E+00  0.14714864730E+03  0.26903028633E+04  0.26862756322E+04 0.  0.
        5    1    3    3  502    0 -0.21703565438E+03 -0.32908010955E+03  0.13594770154E+04  0.14154850897E+04  0.46999998093E+01 0.  1.
       -5    1    3    3    0  502  0.21703565438E+03  0.32908010955E+03 -0.12123283681E+04  0.12748177736E+04  0.46999998093E+01 0. -1.
</event>
<event>
 5   0  0.4811500E-07  0.3549589E+04  0.7818609E-02  0.8102138E-01
       -1   -1    0    0    0  501  0.00000000000E+00  0.00000000000E+00  0.32632607564E+04  0.32632607564E+04  0.50400001928E-02 0. -1.
        1   -1    0    0  501    0  0.00000000000E+00  0.00000000000E+00 -0.96525997257E+03  0.96525997258E+03  0.50400001928E-02 0.  1.
    10030    2    1    2    0    0  0.00000000000E+00  0.00000000000E+00  0.22980007838E+04  0.42285207290E+04  0.35495887019E+04 0.  0.
        3    1    3    3  502    0 -0.37922271467E+03  0.37573116150E+03  0.31653508282E+04  0.32100513467E+04  0.10100000352E+00 0. -1.
       -3    1    3    3    0  502  0.37922271467E+03 -0.37573116150E+03 -0.86735004432E+03  0.10184693823E+04  0.10100000352E+00 0.  1.
</event>
<event>
 5   0  0.4811500E-07  0.3564369E+04  0.7818609E-02  0.8098702E-01
       -1   -1    0    0    0  501  0.00000000000E+00  0.00000000000E+00  0.23004643176E+04  0.23004643176E+04  0.50400001928E-02 0.  1.
        1   -1    0    0  501    0  0.00000000000E+00  0.00000000000E+00 -0.13806698386E+04  0.13806698386E+04  0.50400001928E-02 0. -1.
    10030    2    1    2    0    0  0.00000000000E+00  0.00000000000E+00  0.91979447904E+03  0.36811341562E+04  0.35643690595E+04 0.  0.
        5    1    3    3  502    0  0.41444486471E+03  0.19134554176E+02 -0.13300945364E+04  0.13933069449E+04  0.46999998093E+01 0. -1.
       -5    1    3    3    0  502 -0.41444486471E+03 -0.19134554176E+02  0.22498890154E+04  0.22878272113E+04  0.46999998093E+01 0.  1.
</event>
<event>
 5   0  0.1468942E-06  0.2265002E+04  0.7818609E-02  0.8491849E-01
       -2   -1    0    0    0  501  0.00000000000E+00  0.00000000000E+00  0.85238975824E+03  0.85238975824E+03  0.25500000920E-02 0. -1.
        2   -1    0    0  501    0  0.00000000000E+00  0.00000000000E+00 -0.15046625788E+04  0.15046625789E+04  0.25500000920E-02 0.  1.
    10030    2    1    2    0    0  0.00000000000E+00  0.00000000000E+00 -0.65227282061E+03  0.23570523371E+04  0.22650024034E+04 0.  0.
        2    1    3    3  502    0 -0.10719792615E+04 -0.18354585175E+03  0.24989127748E+01  0.10875821170E+04  0.25500000920E-02 0.  1.
       -2    1    3    3    0  502  0.10719792615E+04  0.18354585175E+03 -0.65477173339E+03  0.12694702200E+04  0.25500000920E-02 0. -1.
</event>
<event>
 5   0  0.1505671E-06  0.3651875E+04  0.7818609E-02  0.8078711E-01
       -2   -1    0    0    0  501  0.00000000000E+00  0.00000000000E+00  0.10951223115E+04  0.10951223115E+04  0.25500000920E-02 0. -1.
        2   -1    0    0  501    0  0.00000000000E+00  0.00000000000E+00 -0.30444531831E+04  0.30444531831E+04  0.25500000920E-02 0.  1.
    10030    2    1    2    0    0  0.00000000000E+00  0.00000000000E+00 -0.19493308716E+04  0.41395754947E+04  0.36518754673E+04 0.  0.
        3    1    3    3  502    0 -0.80034659699E+03 -0.77455526795E+03 -0.26148108453E+04  0.28421341110E+04  0.10100000352E+00 0.  1.
       -3    1    3    3    0  502  0.80034659699E+03  0.77455526795E+03  0.66547997365E+03  0.12974413836E+04  0.10100000352E+00 0. -1.
</event>
<event>
 5   0  0.1444091E-06  0.3593349E+04  0.7818609E-02  0.8092017E-01
        2   -1    0    0  501    0  0.00000000000E+00  0.00000000000E+00  0.19619276580E+04  0.19619276580E+04  0.25500000920E-02 0.  1.
       -2   -1    0    0    0  501  0.00000000000E+00  0.00000000000E+00 -0.16453408198E+04  0.16453408198E+04  0.25500000920E-02 0. -1.
    10030    2    1    2    0    0  0.00000000000E+00  0.00000000000E+00  0.31658683818E+03  0.36072684778E+04  0.35933492239E+04 0.  0.
        1    1    3    3  502    0 -0.23488407308E+03 -0.17692974075E+04  0.36513966451E+03  0.18217878084E+04  0.50400001928E-02 0.  1.
       -1    1    3    3    0  502  0.23488407308E+03  0.17692974075E+04 -0.48552826326E+02  0.17854806695E+04  0.50400001928E-02 0. -1.
</event>
<event>
 5   0  0.1468942E-06  0.3602713E+04  0.7818609E-02  0.8089871E-01
        2   -1    0    0  501    0  0.00000000000E+00  0.00000000000E+00  0.24856628137E+04  0.24856628137E+04  0.25500000920E-02 0.  1.
       -2   -1    0    0    0  501  0.00000000000E+00  0.00000000000E+00 -0.13054403308E+04  0.13054403308E+04  0.25500000920E-02 0. -1.
    10030    2    1    2    0    0  0.00000000000E+00  0.00000000000E+00  0.11802224829E+04  0.37911031444E+04  0.36027125812E+04 0.  0.
        2    1    3    3  502    0  0.11861582989E+03  0.17619101538E+04  0.96435932381E+03  0.20120601409E+04  0.25500000920E-02 0. -1.
       -2    1    3    3    0  502 -0.11861582989E+03 -0.17619101538E+04  0.21586315909E+03  0.17790430035E+04  0.25500000920E-02 0.  1.
</event>
<event>
 5   0  0.1505671E-06  0.3653909E+04  0.7818609E-02  0.8078254E-01
        2   -1    0    0  501    0  0.00000000000E+00  0.00000000000E+00  0.24532161691E+04  0.24532161691E+04  0.25500000920E-02 0.  1.
       -2   -1    0    0    0  501  0.00000000000E+00  0.00000000000E+00 -0.13605659962E+04  0.13605659962E+04  0.25500000920E-02 0. -1.
    10030    2    1    2    0    0  0.00000000000E+00  0.00000000000E+00  0.10926501729E+04  0.38137821652E+04  0.36539088663E+04 0.  0.
        3    1    3    3  502    0  0.10934957123E+04 -0.28797596369E+03 -0.95141631453E+03  0.14777875497E+04  0.10100000352E+00 0. -1.
       -3    1    3    3    0  502 -0.10934957123E+04  0.28797596369E+03  0.20440664874E+04  0.23359946155E+04  0.10100000352E+00 0.  1.
</event>
<event>
 5   0  0.4811500E-07  0.2820674E+04  0.7818609E-02  0.8296879E-01
        1   -1    0    0  501    0  0.00000000000E+00  0.00000000000E+00  0.21488948949E+04  0.21488948949E+04  0.50400001928E-02 0. -1.
       -1   -1    0    0    0  501  0.00000000000E+00  0.00000000000E+00 -0.92561547326E+03  0.92561547327E+03  0.50400001928E-02 0.  1.
    10030    2    1    2    0    0  0.00000000000E+00  0.00000000000E+00  0.12232794216E+04  0.30745103682E+04  0.28206739373E+04 0.  0.
        3    1    3    3  502    0  0.68200322459E+03  0.50354898846E+03 -0.61689249308E+03  0.10484494935E+04  0.10100000352E+00 0.  1.
       -3    1    3    3    0  502 -0.68200322459E+03 -0.50354898846E+03  0.18401719147E+04  0.20260608747E+04  0.10100000352E+00 0. -1.
</event>
<event>
 5   0  0.1491854E-06  0.2276703E+04  0.7818609E-02  0.8487164E-01
        2   -1    0    0  501    0  0.00000000000E+00  0.00000000000E+00  0.16694373505E+04  0.16694373505E+04  0.25500000920E-02 0. -1.
       -2   -1    0    0    0  501  0.00000000000E+00  0.00000000000E+00 -0.77621596010E+03  0.77621596010E+03  0.25500000920E-02 0.  1.
    10030    2    1    2    0    0  0.00000000000E+00  0.00000000000E+00  0.89322139040E+03  0.24456533106E+04  0.22767028052E+04 0.  0.
        5    1    3    3  502    0  0.10073120743E+04  0.42924884973E+03  0.78098062319E+03  0.13449479595E+04  0.46999998093E+01 0. -1.
       -5    1    3    3    0  502 -0.10073120743E+04 -0.42924884973E+03  0.11224076721E+03  0.11007053511E+04  0.46999998093E+01 0.  1.
</event>
<event>
 5   0  0.4811500E-07  0.3064282E+04  0.7818609E-02  0.8225609E-01
       -1   -1    0    0    0  501  0.00000000000E+00  0.00000000000E+00  0.10477102246E+04  0.10477102246E+04  0.50400001928E-02 0. -1.
        1   -1    0    0  501    0  0.00000000000E+00  0.00000000000E+00 -0.22405578391E+04  0.22405578391E+04  0.50400001928E-02 0.  1.
    10030    2    1    2    0    0  0.00000000000E+00  0.00000000000E+00 -0.11928476145E+04  0.32882680636E+04  0.30642815515E+04 0.  0.
        5    1    3    3  502    0 -0.46714217159E+03 -0.11317336291E+03  0.96470147705E+03  0.10778223640E+04  0.46999998093E+01 0. -1.
       -5    1    3    3    0  502  0.46714217159E+03  0.11317336291E+03 -0.21575490916E+04  0.22104456996E+04  0.46999998093E+01 0.  1.
</event>
<event>
 5   0  0.4811500E-07  0.3581689E+04  0.7818609E-02  0.8094699E-01
       -1   -1    0    0    0  501  0.00000000000E+00  0.00000000000E+00  0.14545266989E+04  0.14545266989E+04  0.50400001928E-02 0.  1.
        1   -1    0    0  501    0  0.00000000000E+00  0.00000000000E+00 -0.22049257467E+04  0.22049257467E+04  0.50400001928E-02 0. -1.
    10030    2    1    2    0    0  0.00000000000E+00  0.00000000000E+00 -0.75039904781E+03  0.36594524457E+04  0.35816886340E+04 0.  0.
        3    1    3    3  502    0  0.13005576661E+04  0.74411921733E+02  0.88035710917E+03  0.15722646173E+04  0.10100000352E+00 0.  1.
       -3    1    3    3    0  502 -0.13005576661E+04 -0.74411921733E+02 -0.16307561570E+04  0.20871878283E+04  0.10100000352E+00 0. -1.
</event>
<event>
 5   0  0.1505671E-06  0.3558760E+04  0.7818609E-02  0.8100004E-01
        2   -1    0    0  501    0  0.00000000000E+00  0.00000000000E+00  0.20896148914E+04  0.20896148914E+04  0.25500000920E-02 0.  1.
       -2   -1    0    0    0  501  0.00000000000E+00  0.00000000000E+00 -0.15152039412E+04  0.15152039412E+04  0.25500000920E-02 0. -1.
    10030    2    1    2    0    0  0.00000000000E+00  0.00000000000E+00  0.57441095022E+03  0.36048188325E+04  0.35587597384E+04 0.  0.
        3    1    3    3  502    0 -0.13678552432E+04 -0.77394371383E+03  0.11323758348E+04  0.19370833436E+04  0.10100000352E+00 0.  1.
       -3    1    3    3    0  502  0.13678552432E+04  0.77394371383E+03 -0.55796488460E+03  0.16677354890E+04  0.10100000352E+00 0. -1.
</event>
<event>
 5   0  0.5071661E-07  0.2585295E+04  0.7818609E-02  0.8373213E-01
       -1   -1    0    0    0  501  0.00000000000E+00  0.00000000000E+00  0.71748522839E+03  0.71748522840E+03  0.50400001928E-02 0.  1.
        1   -1    0    0  501    0  0.00000000000E+00  0.00000000000E+00 -0.23288806045E+04  0.23288806045E+04  0.50400001928E-02 0. -1.
    10030    2    1    2    0    0  0.00000000000E+00  0.00000000000E+00 -0.16113953761E+04  0.30463658329E+04  0.25852949019E+04 0.  0.
        1    1    3    3  502    0 -0.12727516615E+04 -0.12448674705E+03 -0.58354415480E+03  0.14056733343E+04  0.50400001928E-02 0.  1.
       -1    1    3    3    0  502  0.12727516615E+04  0.12448674705E+03 -0.10278512214E+04  0.16406924987E+04  0.50400001928E-02 0. -1.
</event>
<event>
 5   0  0.4811500E-07  0.2472147E+04  0.7818609E-02  0.8412976E-01
        1   -1    0    0  501    0  0.00000000000E+00  0.00000000000E+00  0.17531422207E+04  0.17531422207E+04  0.50400001928E-02 0.  1.
       -1   -1    0    0    0  501  0.00000000000E+00  0.00000000000E+00 -0.87150809093E+03  0.87150809094E+03  0.50400001928E-02 0. -1.
    10030    2    1    2    0    0  0.00000000000E+00  0.00000000000E+00  0.88163412977E+03  0.26246503116E+04  0.24721469454E+04 0.  0.
        3    1    3    3  502    0  0.47250919546E+03  0.23803261368E+03 -0.74521466900E+03  0.91393072936E+03  0.10100000352E+00 0. -1.
       -3    1    3    3    0  502 -0.47250919546E+03 -0.23803261368E+03  0.16268487988E+04  0.17107195823E+04  0.10100000352E+00 0.  1.
</event>
<event>
 5   0  0.4811500E-07  0.2487524E+04  0.7818609E-02  0.8407444E-01
       -1   -1    0    0    0  501  0.00000000000E+00  0.00000000000E+00  0.11087709550E+04  0.11087709550E+04  0.50400001928E-02 0.  1.
        1   -1    0    0  501    0  0.00000000000E+00  0.00000000000E+00 -0.13951877600E+04  0.13951877601E+04  0.50400001928E-02 0. -1.
    10030    2    1    2    0    0  0.00000000000E+00  0.00000000000E+00 -0.28641680505E+03  0.25039587151E+04  0.24875238010E+04 0.  0.
        2    1    3    3  502    0  0.44215150427E+03  0.63969767494E+03  0.83389152617E+03  0.11402132018E+04  0.25500000920E-02 0.  1.
       -2    1    3    3    0  502 -0.44215150427E+03 -0.63969767494E+03 -0.11203083312E+04  0.13637455133E+04  0.25500000920E-02 0. -1.
</event>
<event>
 5   0  0.4811500E-07  0.3578345E+04  0.7818609E-02  0.8095470E-01
       -1   -1    0    0    0  501  0.00000000000E+00  0.00000000000E+00  0.13453364885E+04  0.13453364885E+04  0.50400001928E-02 0. -1.
        1   -1    0    0  501    0  0.00000000000E+00  0.00000000000E+00 -0.23794331363E+04  0.23794331363E+04  0.50400001928E-02 0.  1.
    10030    2    1    2    0    0  0.00000000000E+00  0.00000000000E+00 -0.10340966478E+04  0.37247696248E+04  0.35783449919E+04 0.  0.
        5    1    3    3  502    0 -0.15194359302E+04  0.88700884622E+03 -0.85538066450E+03  0.19563150080E+04  0.46999998093E+01 0.  1.
       -5    1    3    3    0  502  0.15194359302E+04 -0.88700884622E+03 -0.17871598333E+03  0.17684546169E+04  0.46999998093E+01 0. -1.
</event>
<event>
 5   0  0.1379425E-06  0.3379337E+04  0.7818609E-02  0.8142996E-01
       -2   -1    0    0    0  501  0.00000000000E+00  0.00000000000E+00  0.13467583015E+04  0.13467583015E+04  0.25500000920E-02 0.  1.
        2   -1    0    0  501    0  0.00000000000E+00  0.00000000000E+00 -0.21198907605E+04  0.21198907605E+04  0.25500000920E-02 0. -1.
    10030    2    1    2    0    0  0.00000000000E+00  0.00000000000E+00 -0.77313245900E+03  0.34666490620E+04  0.33793374972E+04 0.  0.
        4    1    3    3  502    0 -0.89301885561E+03 -0.31094240010E+03 -0.18230349737E+04  0.20536859500E+04  0.12699999809E+01 0. -1.
       -4    1    3    3    0  502  0.89301885561E+03  0.31094240010E+03  0.10499025147E+04  0.14129631121E+04  0.12699999809E+01 0.  1.
</event>
<event>
 5   0  0.1444091E-06  0.2694361E+04  0.7818609E-02  0.8336837E-01
       -2   -1    0    0    0  501  0.00000000000E+00  0.00000000000E+00  0.94853738207E+03  0.94853738207E+03  0.25500000920E-02 0. -1.
        2   -1    0    0  501    0  0.00000000000E+00  0.00000000000E+00 -0.19133623442E+04  0.19133623442E+04  0.25500000920E-02 0.  1.
    10030    2    1    2    0    0  0.00000000000E+00  0.00000000000E+00 -0.96482496213E+03  0.28618997263E+04  0.26943613038E+04 0.  0.
        1    1    3    3  502    0  0.33090070415E+03 -0.38587268067E+03 -0.18075883556E+04  0.18777030289E+04  0.50400001928E-02 0.  1.
       -1    1    3    3    0  502 -0.33090070415E+03  0.38587268067E+03  0.84276339343E+03  0.98419669733E+03  0.50400001928E-02 0. -1.
</event>
<event>
 5   0  0.4811500E-07  0.3609454E+04  0.7818609E-02  0.8088330E-01
       -1   -1    0    0    0  501  0.00000000000E+00  0.00000000000E+00  0.17438361447E+04  0.17438361447E+04  0.50400001928E-02 0.  1.
        1   -1    0    0  501    0  0.00000000000E+00  0.00000000000E+00 -0.18677442934E+04  0.18677442934E+04  0.50400001928E-02 0. -1.
    10030    2    1    2    0    0  0.00000000000E+00  0.00000000000E+00 -0.12390814866E+03  0.36115804381E+04  0.36094542568E+04 0.  0.
        4    1    3    3  502    0 -0.14274039858E+04  0.10281330008E+04  0.34139476758E+03  0.17919518984E+04  0.12699999809E+01 0.  1.
       -4    1    3    3    0  502  0.14274039858E+04 -0.10281330008E+04 -0.46530291623E+03  0.18196285397E+04  0.12699999809E+01 0. -1.
</event>
<event>
 5   0  0.1468942E-06  0.3023288E+04  0.7818609E-02  0.8237112E-01
       -2   -1    0    0    0  501  0.00000000000E+00  0.00000000000E+00  0.91827507828E+03  0.91827507828E+03  0.25500000920E-02 0. -1.
        2   -1    0    0  501    0  0.00000000000E+00  0.00000000000E+00 -0.24884347129E+04  0.24884347129E+04  0.25500000920E-02 0.  1.
    10030    2    1    2    0    0  0.00000000000E+00  0.00000000000E+00 -0.15701596346E+04  0.34067097912E+04  0.30232879987E+04 0.  0.
        2    1    3    3  502    0 -0.13417192075E+04 -0.54721432414E+03 -0.12702861382E+04  0.19269874990E+04  0.25500000920E-02 0. -1.
       -2    1    3    3    0  502  0.13417192075E+04  0.54721432414E+03 -0.29987349640E+03  0.14797222922E+04  0.25500000920E-02 0.  1.
</event>
<event>
 5   0  0.4811500E-07  0.3553391E+04  0.7818609E-02  0.8101252E-01
        1   -1    0    0  501    0  0.00000000000E+00  0.00000000000E+00  0.21313190216E+04  0.21313190216E+04  0.50400001928E-02 0.  1.
       -1   -1    0    0    0  501  0.00000000000E+00  0.00000000000E+00 -0.14810770285E+04  0.14810770286E+04  0.50400001928E-02 0. -1.
    10030    2    1    2    0    0  0.00000000000E+00  0.00000000000E+00  0.65024199304E+03  0.36123960501E+04  0.35533914186E+04 0.  0.
        5    1    3    3  502    0  0.96268525226E+03 -0.16430634059E+03 -0.11837300133E+04  0.15346003724E+04  0.46999998093E+01 0. -1.
       -5    1    3    3    0  502 -0.96268525226E+03  0.16430634059E+03  0.18339720063E+04  0.20777956778E+04  0.46999998093E+01 0.  1.
</event>
<event>
 5   0  0.1468942E-06  0.3589657E+04  0.7818609E-02  0.8092865E-01
        2   -1    0    0  501    0  0.00000000000E+00  0.00000000000E+00  0.14040541985E+04  0.14040541985E+04  0.25500000920E-02 0. -1.
       -2   -1    0    0    0  501  0.00000000000E+00  0.00000000000E+00 -0.22943620969E+04  0.22943620969E+04  0.25500000920E-02 0.  1.
    10030    2    1    2    0    0  0.00000000000E+00  0.00000000000E+00 -0.89030789839E+03  0.36984162955E+04  0.35896566606E+04 0.  0.
        2    1    3    3  502    0 -0.11899233340E+04 -0.10719374288E+04 -0.12799124396E+04  0.20501568831E+04  0.25500000920E-02 0.  1.
       -2    1    3    3    0  502  0.11899233340E+04  0.10719374288E+04  0.38960454120E+03  0.16482594124E+04  0.25500000920E-02 0. -1.
</event>
<event>
 5   0  0.4811500E-07  0.2871059E+04  0.7818609E-02  0.8281541E-01
       -1   -1    0    0    0  501  0.00000000000E+00  0.00000000000E+00  0.12478138499E+04  0.12478138500E+04  0.50400001928E-02 0.  1.
        1   -1    0    0  501    0  0.00000000000E+00  0.00000000000E+00 -0.16514841277E+04  0.16514841277E+04  0.50400001928E-02 0. -1.
    10030    2    1    2    0    0  0.00000000000E+00  0.00000000000E+00 -0.40367027776E+03  0.28992979777E+04  0.28710588761E+04 0.  0.
        2    1    3    3  502    0 -0.10321384472E+04  0.84262445556E+03  0.33766580597E+03  0.13745340824E+04  0.25500000920E-02 0.  1.
       -2    1    3    3    0  502  0.10321384472E+04 -0.84262445556E+03 -0.74133608373E+03  0.15247638953E+04  0.25500000920E-02 0. -1.
</event>
<event>
 5   0  0.4811500E-07  0.3530487E+04  0.7818609E-02  0.8106603E-01
        1   -1    0    0  501    0  0.00000000000E+00  0.00000000000E+00  0.23169871491E+04  0.23169871491E+04  0.50400001928E-02 0. -1.
       -1   -1    0    0    0  501  0.00000000000E+00  0.00000000000E+00 -0.13448867890E+04  0.13448867891E+04  0.50400001928E-02 0.  1.
    10030    2    1    2    0    0  0.00000000000E+00  0.00000000000E+00  0.97210036006E+03  0.36618739382E+04  0.35304874492E+04 0.  0.
        2    1    3    3  502    0  0.13332627402E+04  0.47416850837E+03  0.15806239768E+04  0.21215082995E+04  0.25500000920E-02 0. -1.
       -2    1    3    3    0  502 -0.13332627402E+04 -0.47416850837E+03 -0.60852361676E+03  0.15403656387E+04  0.25500000920E-02 0.  1.
</event>
<event>
 5   0  0.4811500E-07  0.3658358E+04  0.7818609E-02  0.8077253E-01
        1   -1    0    0  501    0  0.00000000000E+00  0.00000000000E+00  0.24524309212E+04  0.24524309212E+04  0.50400001928E-02 0. -1.
       -1   -1    0    0    0  501  0.00000000000E+00  0.00000000000E+00 -0.13643181303E+04  0.13643181303E+04  0.50400001928E-02 0.  1.
    10030    2    1    2    0    0  0.00000000000E+00  0.00000000000E+00  0.10881127909E+04  0.38167490515E+04  0.36583580848E+04 0.  0.
        2    1    3    3  502    0  0.54679833996E+03  0.14822082091E+04 -0.41779563256E+03  0.16341611886E+04  0.25500000920E-02 0.  1.
       -2    1    3    3    0  502 -0.54679833996E+03 -0.14822082091E+04  0.15059084234E+04  0.21825878629E+04  0.25500000920E-02 0. -1.
</event>
<event>
 5   0  0.1468942E-06  0.3563579E+04  0.7818609E-02  0.8098886E-01
        2   -1    0    0  501    0  0.00000000000E+00  0.00000000000E+00  0.23902435121E+04  0.23902435121E+04  0.25500000920E-02 0. -1.
       -2   -1    0    0    0  501  0.00000000000E+00  0.00000000000E+00 -0.13282220692E+04  0.13282220692E+04  0.25500000920E-02 0.  1.
    10030    2    1    2    0    0  0.00000000000E+00  0.00000000000E+00  0.10620214429E+04  0.37184655813E+04  0.35635792028E+04 0.  0.
        2    1    3    3  502    0 -0.17465975551E+04 -0.34934106128E+03  0.57919103786E+03  0.18729934476E+04  0.25500000920E-02 0. -1.
       -2    1    3    3    0  502  0.17465975551E+04  0.34934106128E+03  0.48283040502E+03  0.18454721337E+04  0.25500000920E-02 0.  1.
</event>
<event>
 5   0  0.4811500E-07  0.3598906E+04  0.7818609E-02  0.8090742E-01
        1   -1    0    0  501    0  0.00000000000E+00  0.00000000000E+00  0.14787687154E+04  0.14787687154E+04  0.50400001928E-02 0. -1.
       -1   -1    0    0    0  501  0.00000000000E+00  0.00000000000E+00 -0.21896805049E+04  0.21896805050E+04  0.50400001928E-02 0.  1.
    10030    2    1    2    0    0  0.00000000000E+00  0.00000000000E+00 -0.71091178959E+03  0.36684492203E+04  0.35989059601E+04 0.  0.
        5    1    3    3  502    0 -0.11904003077E+04 -0.74724662843E+03 -0.15008137841E+04  0.20561844569E+04  0.46999998093E+01 0.  1.
       -5    1    3    3    0  502  0.11904003077E+04  0.74724662843E+03  0.78990199454E+03  0.16122647634E+04  0.46999998093E+01 0. -1.
</event>
<event>
 5   0  0.1491854E-06  0.3643902E+04  0.7818609E-02  0.8080509E-01
        2   -1    0    0  501    0  0.00000000000E+00  0.00000000000E+00  0.15163538462E+04  0.15163538462E+04  0.25500000920E-02 0.  1.
       -2   -1    0    0    0  501  0.00000000000E+00  0.00000000000E+00 -0.21891369319E+04  0.21891369319E+04  0.25500000920E-02 0. -1.
    10030    2    1    2    0    0  0.00000000000E+00  0.00000000000E+00 -0.67278308575E+03  0.37054907781E+04  0.36439024173E+04 0.  0.
        5    1    3    3  502    0  0.16366096642E+04 -0.69228878473E+03 -0.74534432490E+03  0.19269964211E+04  0.46999998093E+01 0.  1.
       -5    1    3    3    0  502 -0.16366096642E+04  0.69228878473E+03  0.72561239149E+02  0.17784943570E+04  0.46999998093E+01 0. -1.
</event>
<event>
 5   0  0.1491854E-06  0.3182358E+04  0.7818609E-02  0.8193492E-01
       -2   -1    0    0    0  501  0.00000000000E+00  0.00000000000E+00  0.11429708522E+04  0.11429708522E+04  0.25500000920E-02 0. -1.
        2   -1    0    0  501    0  0.00000000000E+00  0.00000000000E+00 -0.22151485867E+04  0.22151485867E+04  0.25500000920E-02 0.  1.
    10030    2    1    2    0    0  0.00000000000E+00  0.00000000000E+00 -0.10721777345E+04  0.33581194389E+04  0.31823577850E+04 0.  0.
        5    1    3    3  502    0  0.70926790474E+03 -0.16754436864E+03  0.95649140419E+03  0.12025098638E+04  0.46999998093E+01 0. -1.
       -5    1    3    3    0  502 -0.70926790474E+03  0.16754436864E+03 -0.20286691387E+04  0.21556095751E+04  0.46999998093E+01 0.  1.
</event>
<event>
 5   0  0.1379425E-06  0.2306522E+04  0.7818609E-02  0.8475354E-01
       -2   -1    0    0    0  501  0.00000000000E+00  0.00000000000E+00  0.75430797338E+03  0.75430797339E+03  0.25500000920E-02 0.  1.
        2   -1    0    0  501    0  0.00000000000E+00  0.00000000000E+00 -0.17632196601E+04  0.17632196601E+04  0.25500000920E-02 0. -1.
    10030    2    1    2    0    0  0.00000000000E+00  0.00000000000E+00 -0.10089116867E+04  0.25175276335E+04  0.23065217523E+04 0.  0.
        4    1    3    3  502    0 -0.86523049507E+03 -0.87295914950E+02 -0.13312237027E+04  0.15900951374E+04  0.12699999809E+01 0. -1.
       -4    1    3    3    0  502  0.86523049507E+03  0.87295914950E+02  0.32231201595E+03  0.92743249614E+03  0.12699999809E+01 0.  1.
</event>
<event>
 5   0  0.4811500E-07  0.3404664E+04  0.7818609E-02  0.8136763E-01
       -1   -1    0    0    0  501  0.00000000000E+00  0.00000000000E+00  0.17551000007E+04  0.17551000008E+04  0.50400001928E-02 0. -1.
        1   -1    0    0  501    0  0.00000000000E+00  0.00000000000E+00 -0.16511503315E+04  0.16511503316E+04  0.50400001928E-02 0.  1.
    10030    2    1    2    0    0  0.00000000000E+00  0.00000000000E+00  0.10394966920E+03  0.34062503323E+04  0.34046638296E+04 0.  0.
        4    1    3    3  502    0 -0.90952415996E+03  0.11988554634E+04  0.84823747737E+03  0.17274249769E+04  0.12699999809E+01 0. -1.
       -4    1    3    3    0  502  0.90952415996E+03 -0.11988554634E+04 -0.74428780818E+03  0.16788253554E+04  0.12699999809E+01 0.  1.
</event>
<event>
 5   0  0.4811500E-07  0.3734561E+04  0.7818609E-02  0.8060345E-01
        1   -1    0    0  501    0  0.00000000000E+00  0.00000000000E+00  0.18989772795E+04  0.18989772795E+04  0.50400001928E-02 0.  1.
       -1   -1    0    0    0  501  0.00000000000E+00  0.00000000000E+00 -0.18361131713E+04  0.18361131714E+04  0.50400001928E-02 0. -1.
    10030    2    1    2    0    0  0.00000000000E+00  0.00000000000E+00  0.62864108144E+02  0.37350904509E+04  0.37345613906E+04 0.  0.
        2    1    3    3  502    0 -0.18183526812E+04 -0.40540477369E+03  0.15785285386E+03  0.18696729733E+04  0.25500000920E-02 0.  1.
       -2    1    3    3    0  502  0.18183526812E+04  0.40540477369E+03 -0.94988745717E+02  0.18654174775E+04  0.25500000920E-02 0. -1.
</event>
<event>
 5   0  0.1468942E-06  0.3556340E+04  0.7818609E-02  0.8100566E-01
       -2   -1    0    0    0  501  0.00000000000E+00  0.00000000000E+00  0.10910830529E+04  0.10910830529E+04  0.25500000920E-02 0. -1.
        2   -1    0    0  501    0  0.00000000000E+00  0.00000000000E+00 -0.28979364981E+04  0.28979364981E+04  0.25500000920E-02 0.  1.
    10030    2    1    2    0    0  0.00000000000E+00  0.00000000000E+00 -0.18068534452E+04  0.39890195510E+04  0.35563404795E+04 0.  0.
        2    1    3    3  502    0 -0.13697593321E+03  0.20639795792E+03 -0.28784880349E+04  0.28891271848E+04  0.25500000920E-02 0.  1.
       -2    1    3    3    0  502  0.13697593321E+03 -0.20639795792E+03  0.10716345897E+04  0.10998923662E+04  0.25500000920E-02 0. -1.
</event>
<event>
 5   0  0.4811500E-07  0.3234971E+04  0.7818609E-02  0.8179642E-01
       -1   -1    0    0    0  501  0.00000000000E+00  0.00000000000E+00  0.21527366356E+04  0.21527366356E+04  0.50400001928E-02 0.  1.
        1   -1    0    0  501    0  0.00000000000E+00  0.00000000000E+00 -0.12153180331E+04  0.12153180332E+04  0.50400001928E-02 0. -1.
    10030    2    1    2    0    0  0.00000000000E+00  0.00000000000E+00  0.93741860249E+03  0.33680546688E+04  0.32349711924E+04 0.  0.
        2    1    3    3  502    0 -0.47258750217E+02 -0.25375456953E+03 -0.11937373241E+04  0.12213245147E+04  0.25500000920E-02 0. -1.
       -2    1    3    3    0  502  0.47258750217E+02  0.25375456953E+03  0.21311559266E+04  0.21467301541E+04  0.25500000920E-02 0.  1.
</event>
<event>
 5   0  0.1505671E-06  0.3570639E+04  0.7818609E-02  0.8097250E-01
       -2   -1    0    0    0  501  0.00000000000E+00  0.00000000000E+00  0.13350094317E+04  0.13350094317E+04  0.25500000920E-02 0.  1.
        2   -1    0    0  501    0  0.00000000000E+00  0.00000000000E+00 -0.23875229961E+04  0.23875229961E+04  0.25500000920E-02 0. -1.
    10030    2    1    2    0    0  0.00000000000E+00  0.00000000000E+00 -0.10525135644E+04  0.37225324278E+04  0.35706390006E+04 0.  0.
        3    1    3    3  502    0  0.95504870951E+03 -0.50977902091E+02  0.10454036558E+04  0.14168929380E+04  0.10100000352E+00 0.  1.
       -3    1    3    3    0  502 -0.95504870951E+03  0.50977902091E+02 -0.20979172202E+04  0.23056394898E+04  0.10100000352E+00 0. -1.
</event>
<event>
 5   0  0.1491854E-06  0.3562312E+04  0.7818609E-02  0.8099180E-01
        2   -1    0    0  501    0  0.00000000000E+00  0.00000000000E+00  0.16309386351E+04  0.16309386351E+04  0.25500000920E-02 0. -1.
       -2   -1    0    0    0  501  0.00000000000E+00  0.00000000000E+00 -0.19452089642E+04  0.19452089642E+04  0.25500000920E-02 0.  1.
    10030    2    1    2    0    0  0.00000000000E+00  0.00000000000E+00 -0.31427032909E+03  0.35761475993E+04  0.35623118634E+04 0.  0.
        5    1    3    3  502    0  0.39132406418E+03  0.10071168984E+04  0.12643713411E+04  0.16631524129E+04  0.46999998093E+01 0. -1.
       -5    1    3    3    0  502 -0.39132406418E+03 -0.10071168984E+04 -0.15786416702E+04  0.19129951864E+04  0.46999998093E+01 0.  1.
</event>
<event>
 5   0  0.4811500E-07  0.2865168E+04  0.7818609E-02  0.8283317E-01
        1   -1    0    0  501    0  0.00000000000E+00  0.00000000000E+00  0.12733230792E+04  0.12733230792E+04  0.50400001928E-02 0.  1.
       -1   -1    0    0    0  501  0.00000000000E+00  0.00000000000E+00 -0.16117639915E+04  0.16117639915E+04  0.50400001928E-02 0. -1.
    10030    2    1    2    0    0  0.00000000000E+00  0.00000000000E+00 -0.33844091235E+03  0.28850870707E+04  0.28651675613E+04 0.  0.
        5    1    3    3  502    0 -0.10351283269E+04 -0.60993458282E+03  0.61643684021E+03  0.13503804340E+04  0.46999998093E+01 0.  1.
       -5    1    3    3    0  502  0.10351283269E+04  0.60993458282E+03 -0.95487775255E+03  0.15347066367E+04  0.46999998093E+01 0. -1.
</event>
<event>
 5   0  0.4811500E-07  0.2834268E+04  0.7818609E-02  0.8292708E-01
       -1   -1    0    0    0  501  0.00000000000E+00  0.00000000000E+00  0.11375787712E+04  0.11375787712E+04  0.50400001928E-02 0.  1.
        1   -1    0    0  501    0  0.00000000000E+00  0.00000000000E+00 -0.17653890463E+04  0.17653890463E+04  0.50400001928E-02 0. -1.
    10030    2    1    2    0    0  0.00000000000E+00  0.00000000000E+00 -0.62781027512E+03  0.29029678175E+04  0.28342682315E+04 0.  0.
        3    1    3    3  502    0 -0.17576334443E+03  0.77701768275E+03 -0.15143288147E+04  0.17110935105E+04  0.10100000352E+00 0. -1.
       -3    1    3    3    0  502  0.17576334443E+03 -0.77701768275E+03  0.88651853954E+03  0.11918743070E+04  0.10100000352E+00 0.  1.
</event>
<event>
 5   0  0.1444091E-06  0.3444512E+04  0.7818609E-02  0.8127067E-01
        2   -1    0    0  501    0  0.00000000000E+00  0.00000000000E+00  0.23500239641E+04  0.23500239641E+04  0.25500000920E-02 0.  1.
       -2   -1    0    0    0  501  0.00000000000E+00  0.00000000000E+00 -0.12621856464E+04  0.12621856464E+04  0.25500000920E-02 0. -1.
    10030    2    1    2    0    0  0.00000000000E+00  0.00000000000E+00  0.10878383177E+04  0.36122096105E+04  0.34445124568E+04 0.  0.
        1    1    3    3  502    0  0.12475049746E+04  0.49092768899E+03  0.16777065108E+04  0.21475515812E+04  0.50400001928E-02 0.  1.
       -1    1    3    3    0  502 -0.12475049746E+04 -0.49092768899E+03 -0.58986819315E+03  0.14646580293E+04  0.50400001928E-02 0. -1.
</event>
<event>
 5   0  0.1379425E-06  0.3115447E+04  0.7818609E-02  0.8211511E-01
       -2   -1    0    0    0  501  0.00000000000E+00  0.00000000000E+00  0.11284147396E+04  0.11284147396E+04  0.25500000920E-02 0. -1.
        2   -1    0    0  501    0  0.00000000000E+00  0.00000000000E+00 -0.21503643549E+04  0.21503643549E+04  0.25500000920E-02 0.  1.
    10030    2    1    2    0    0  0.00000000000E+00  0.00000000000E+00 -0.10219496153E+04  0.32787790945E+04  0.31154472125E+04 0.  0.
        4    1    3    3  502    0 -0.51652315382E+03 -0.14584639369E+04 -0.32098924744E+03  0.15801737036E+04  0.12699999809E+01 0.  1.
       -4    1    3    3    0  502  0.51652315382E+03  0.14584639369E+04 -0.70096036784E+03  0.16986053909E+04  0.12699999809E+01 0. -1.
</event>
<event>
 5   0  0.1444091E-06  0.3653807E+04  0.7818609E-02  0.8078276E-01
       -2   -1    0    0    0  501  0.00000000000E+00  0.00000000000E+00  0.16353944104E+04  0.16353944104E+04  0.25500000920E-02 0. -1.
        2   -1    0    0  501    0  0.00000000000E+00  0.00000000000E+00 -0.20408391465E+04  0.20408391465E+04  0.25500000920E-02 0.  1.
    10030    2    1    2    0    0  0.00000000000E+00  0.00000000000E+00 -0.40544473609E+03  0.36762335569E+04  0.36538072926E+04 0.  0.
        1    1    3    3  502    0  0.45302478432E+03 -0.17675140009E+04 -0.29405249382E+03  0.18481894026E+04  0.50400001928E-02 0. -1.
       -1    1    3    3    0  502 -0.45302478432E+03  0.17675140009E+04 -0.11139224227E+03  0.18280441544E+04  0.50400001928E-02 0.  1.
</event>
<event>
 5   0  0.1468942E-06  0.3516791E+04  0.7818609E-02  0.8109822E-01
        2   -1    0    0  501    0  0.00000000000E+00  0.00000000000E+00  0.95205219007E+03  0.95205219007E+03  0.25500000920E-02 0.  1.
       -2   -1    0    0    0  501  0.00000000000E+00  0.00000000000E+00 -0.32476744878E+04  0.32476744878E+04  0.25500000920E-02 0. -1.
    10030    2    1    2    0    0  0.00000000000E+00  0.00000000000E+00 -0.22956222977E+04  0.41997266778E+04  0.35167914972E+04 0.  0.
        2    1    3    3  502    0 -0.28181990813E+01 -0.91087332415E+03 -0.29439728018E+04  0.30816674079E+04  0.25500000920E-02 0. -1.
       -2    1    3    3    0  502  0.28181990813E+01  0.91087332415E+03  0.64835050414E+03  0.11180592699E+04  0.25500000920E-02 0.  1.
</event>
<event>
 5   0  0.5071661E-07  0.3827412E+04  0.7818609E-02  0.8040298E-01
        1   -1    0    0  501    0  0.00000000000E+00  0.00000000000E+00  0.14188675649E+04  0.14188675649E+04  0.50400001928E-02 0.  1.
       -1   -1    0    0    0  501  0.00000000000E+00  0.00000000000E+00 -0.25811217168E+04  0.25811217168E+04  0.50400001928E-02 0. -1.
    10030    2    1    2    0    0  0.00000000000E+00  0.00000000000E+00 -0.11622541519E+04  0.39999892818E+04  0.38274115980E+04 0.  0.
        1    1    3    3  502    0  0.85065637489E+03 -0.10493428927E+04 -0.19978053893E+04  0.24116308068E+04  0.50400001928E-02 0. -1.
       -1    1    3    3    0  502 -0.85065637489E+03  0.10493428927E+04  0.83555123745E+03  0.15883584750E+04  0.50400001928E-02 0.  1.
</event>
<event>
 5   0  0.1379425E-06  0.3581627E+04  0.7818609E-02  0.8094713E-01
        2   -1    0    0  501    0  0.00000000000E+00  0.00000000000E+00  0.23153793632E+04  0.23153793632E+04  0.25500000920E-02 0. -1.
       -2   -1    0    0    0  501  0.00000000000E+00  0.00000000000E+00 -0.13850919475E+04  0.13850919475E+04  0.25500000920E-02 0.  1.
    10030    2    1    2    0    0  0.00000000000E+00  0.00000000000E+00  0.93028741576E+03  0.37004713107E+04  0.35816271784E+04 0.  0.
        4    1    3    3  502    0 -0.85192781028E+03  0.48800300524E+03 -0.10822449571E+04  0.14612267747E+04  0.12699999809E+01 0.  1.
       -4    1    3    3    0  502  0.85192781028E+03 -0.48800300524E+03  0.20125323729E+04  0.22392445360E+04  0.12699999809E+01 0. -1.
</event>
<event>
 5   0  0.1379425E-06  0.3559360E+04  0.7818609E-02  0.8099865E-01
        2   -1    0    0  501    0  0.00000000000E+00  0.00000000000E+00  0.23318396248E+04  0.23318396248E+04  0.25500000920E-02 0. -1.
       -2   -1    0    0    0  501  0.00000000000E+00  0.00000000000E+00 -0.13582668729E+04  0.13582668729E+04  0.25500000920E-02 0.  1.
    10030    2    1    2    0    0  0.00000000000E+00  0.00000000000E+00  0.97357275187E+03  0.36901064977E+04  0.35593597825E+04 0.  0.
        4    1    3    3  502    0  0.17228137118E+04 -0.44616328335E+03  0.49766671077E+03  0.18479238429E+04  0.12699999809E+01 0.  1.
       -4    1    3    3    0  502 -0.17228137118E+04  0.44616328335E+03  0.47590604110E+03  0.18421826549E+04  0.12699999809E+01 0. -1.
</event>
<event>
 5   0  0.1505671E-06  0.3524549E+04  0.7818609E-02  0.8107997E-01
        2   -1    0    0  501    0  0.00000000000E+00  0.00000000000E+00  0.21580874184E+04  0.21580874184E+04  0.25500000920E-02 0. -1.
       -2   -1    0    0    0  501  0.00000000000E+00  0.00000000000E+00 -0.14390576556E+04  0.14390576556E+04  0.25500000920E-02 0.  1.
    10030    2    1    2    0    0  0.00000000000E+00  0.00000000000E+00  0.71902976285E+03  0.35971450740E+04  0.35245494582E+04 0.  0.
        3    1    3    3  502    0 -0.54620627192E+03  0.10858254058E+04 -0.94279829723E+03  0.15382544467E+04  0.10100000352E+00 0.  1.
       -3    1    3    3    0  502  0.54620627192E+03 -0.10858254058E+04  0.16618280601E+04  0.20588906272E+04  0.10100000352E+00 0. -1.
</event>
<event>
 5   0  0.4811500E-07  0.3450812E+04  0.7818609E-02  0.8125547E-01
       -1   -1    0    0    0  501  0.00000000000E+00  0.00000000000E+00  0.17045735393E+04  0.17045735393E+04  0.50400001928E-02 0.  1.
        1   -1    0    0  501    0  0.00000000000E+00  0.00000000000E+00 -0.17464934262E+04  0.17464934262E+04  0.50400001928E-02 0. -1.
    10030    2    1    2    0    0  0.00000000000E+00  0.00000000000E+00 -0.41919886887E+02  0.34510669655E+04  0.34508123571E+04 0.  0.
        3    1    3    3  502    0 -0.57943204918E+03  0.41759120566E+03  0.15497935689E+04  0.17064536416E+04  0.10100000352E+00 0.  1.
       -3    1    3    3    0  502  0.57943204918E+03 -0.41759120566E+03 -0.15917134557E+04  0.17446133239E+04  0.10100000352E+00 0. -1.
</event>
<event>
 5   0  0.4811500E-07  0.3696314E+04  0.7818609E-02  0.8068779E-01
        4   -1    0    0  501    0  0.00000000000E+00  0.00000000000E+00  0.27957334623E+04  0.27957337508E+04  0.12699999809E+01 0.  1.
       -4   -1    0    0    0  501  0.00000000000E+00  0.00000000000E+00 -0.12217482780E+04  0.12217489381E+04  0.12699999809E+01 0. -1.
    10030    2    1    2    0    0  0.00000000000E+00  0.00000000000E+00  0.15739851844E+04  0.40174826889E+04  0.36963140823E+04 0.  0.
        2    1    3    3  502    0  0.17974523761E+04 -0.26385270403E+03  0.11559447925E+04  0.21532908900E+04  0.25500000920E-02 0.  1.
       -2    1    3    3    0  502 -0.17974523761E+04  0.26385270403E+03  0.41804039188E+03  0.18641917989E+04  0.25500000920E-02 0. -1.
</event>
<event>
 5   0  0.1444091E-06  0.3609345E+04  0.7818609E-02  0.8088355E-01
       -2   -1    0    0    0  501  0.00000000000E+00  0.00000000000E+00  0.16536161817E+04  0.16536161817E+04  0.25500000920E-02 0. -1.
        2   -1    0    0  501    0  0.00000000000E+00  0.00000000000E+00 -0.19695274330E+04  0.19695274330E+04  0.25500000920E-02 0.  1.
    10030    2    1    2    0    0  0.00000000000E+00  0.00000000000E+00 -0.31591125134E+03  0.36231436147E+04  0.36093447791E+04 0.  0.
        1    1    3    3  502    0 -0.45581895842E+03  0.11719019033E+04 -0.14573996437E+04  0.19248736881E+04  0.50400001928E-02 0.  1.
       -1    1    3    3    0  502  0.45581895842E+03 -0.11719019033E+04  0.11414883924E+04  0.16982699266E+04  0.50400001928E-02 0. -1.
</event>
<event>
 5   0  0.1379425E-06  0.3600465E+04  0.7818609E-02  0.8090385E-01
        2   -1    0    0  501    0  0.00000000000E+00  0.00000000000E+00  0.21581284555E+04  0.21581284555E+04  0.25500000920E-02 0. -1.
       -2   -1    0    0    0  501  0.00000000000E+00  0.00000000000E+00 -0.15016884011E+04  0.15016884011E+04  0.25500000920E-02 0.  1.
    10030    2    1    2    0    0  0.00000000000E+00  0.00000000000E+00  0.65644005438E+03  0.36598168567E+04  0.36004646755E+04 0.  0.
        4    1    3    3  502    0  0.13027686891E+04 -0.42736535306E+03 -0.85762478974E+03  0.16172103435E+04  0.12699999809E+01 0.  1.
       -4    1    3    3    0  502 -0.13027686891E+04  0.42736535306E+03  0.15140648441E+04  0.20426065131E+04  0.12699999809E+01 0. -1.
</event>
<event>
 5   0  0.1505671E-06  0.3578412E+04  0.7818609E-02  0.8095455E-01
       -2   -1    0    0    0  501  0.00000000000E+00  0.00000000000E+00  0.10825172557E+04  0.10825172557E+04  0.25500000920E-02 0. -1.
        2   -1    0    0  501    0  0.00000000000E+00  0.00000000000E+00 -0.29572350034E+04  0.29572350034E+04  0.25500000920E-02 0.  1.
    10030    2    1    2    0    0  0.00000000000E+00  0.00000000000E+00 -0.18747177477E+04  0.40397522591E+04  0.35784118938E+04 0.  0.
        3    1    3    3  502    0  0.55900585910E+03  0.16996348878E+04 -0.93351259049E+03  0.20180911944E+04  0.10100000352E+00 0.  1.
       -3    1    3    3    0  502 -0.55900585910E+03 -0.16996348878E+04 -0.94120515721E+03  0.20216610647E+04  0.10100000352E+00 0. -1.
</event>
<event>
 5   0  0.5071661E-07  0.3777312E+04  0.7818609E-02  0.8051041E-01
       -1   -1    0    0    0  501  0.00000000000E+00  0.00000000000E+00  0.25950932299E+04  0.25950932299E+04  0.50400001928E-02 0. -1.
        1   -1    0    0  501    0  0.00000000000E+00  0.00000000000E+00 -0.13745250214E+04  0.13745250214E+04  0.50400001928E-02 0.  1.
    10030    2    1    2    0    0  0.00000000000E+00  0.00000000000E+00  0.12205682085E+04  0.39696182513E+04  0.37773115187E+04 0.  0.
        1    1    3    3  502    0 -0.55331070487E+03  0.97102099635E+03  0.22102891460E+04  0.24767746407E+04  0.50400001928E-02 0. -1.
       -1    1    3    3    0  502  0.55331070487E+03 -0.97102099635E+03 -0.98972093759E+03  0.14928436106E+04  0.50400001928E-02 0.  1.
</event>
<event>
 5   0  0.1468942E-06  0.3638840E+04  0.7818609E-02  0.8081652E-01
       -2   -1    0    0    0  501  0.00000000000E+00  0.00000000000E+00  0.16921774458E+04  0.16921774458E+04  0.25500000920E-02 0.  1.
        2   -1    0    0  501    0  0.00000000000E+00  0.00000000000E+00 -0.19562305663E+04  0.19562305663E+04  0.25500000920E-02 0. -1.
    10030    2    1    2    0    0  0.00000000000E+00  0.00000000000E+00 -0.26405312050E+03  0.36484080122E+04  0.36388400587E+04 0.  0.
        2    1    3    3  502    0  0.13331152950E+04  0.93462836013E+03 -0.94629662944E+03  0.18831367110E+04  0.25500000920E-02 0. -1.
       -2    1    3    3    0  502 -0.13331152950E+04 -0.93462836013E+03  0.68224350894E+03  0.17652713012E+04  0.25500000920E-02 0.  1.
</event>
<event>
 5   0  0.4811500E-07  0.3678067E+04  0.7818609E-02  0.8072840E-01
        1   -1    0    0  501    0  0.00000000000E+00  0.00000000000E+00  0.11597803942E+04  0.11597803942E+04  0.50400001928E-02 0. -1.
       -1   -1    0    0    0  501  0.00000000000E+00  0.00000000000E+00 -0.29161079108E+04  0.29161079108E+04  0.50400001928E-02 0.  1.
    10030    2    1    2    0    0  0.00000000000E+00  0.00000000000E+00 -0.17563275167E+04  0.40758883050E+04  0.36780673090E+04 0.  0.
        4    1    3    3  502    0  0.12800137081E+04  0.12663742230E+04 -0.46366971477E+03  0.18593358984E+04  0.12699999809E+01 0. -1.
       -4    1    3    3    0  502 -0.12800137081E+04 -0.12663742230E+04 -0.12926578019E+04  0.22165524066E+04  0.12699999809E+01 0.  1.
</event>
<event>
 5   0  0.4811500E-07  0.2700063E+04  0.7818609E-02  0.8334985E-01
       -1   -1    0    0    0  501  0.00000000000E+00  0.00000000000E+00  0.13126461174E+04  0.13126461174E+04  0.50400001928E-02 0.  1.
        1   -1    0    0  501    0  0.00000000000E+00  0.00000000000E+00 -0.13884813852E+04  0.13884813853E+04  0.50400001928E-02 0. -1.
    10030    2    1    2    0    0  0.00000000000E+00  0.00000000000E+00 -0.75835267841E+02  0.27011275027E+04  0.27000627396E+04 0.  0.
        2    1    3    3  502    0  0.97247384770E+03 -0.52084652648E+03 -0.81642642471E+03  0.13724207065E+04  0.25500000920E-02 0. -1.
       -2    1    3    3    0  502 -0.97247384770E+03  0.52084652648E+03  0.74059115687E+03  0.13287067962E+04  0.25500000920E-02 0.  1.
</event>
<event>
 5   0  0.1491854E-06  0.3579743E+04  0.7818609E-02  0.8095148E-01
       -2   -1    0    0    0  501  0.00000000000E+00  0.00000000000E+00  0.13357112873E+04  0.13357112873E+04  0.25500000920E-02 0. -1.
        2   -1    0    0  501    0  0.00000000000E+00  0.00000000000E+00 -0.23984519542E+04  0.23984519542E+04  0.25500000920E-02 0.  1.
    10030    2    1    2    0    0  0.00000000000E+00  0.00000000000E+00 -0.10627406670E+04  0.37341632415E+04  0.35797426428E+04 0.  0.
        5    1    3    3  502    0 -0.16966927172E+04  0.56544951889E+03 -0.60599602033E+03  0.18883200474E+04  0.46999998093E+01 0.  1.
       -5    1    3    3    0  502  0.16966927172E+04 -0.56544951889E+03 -0.45674464664E+03  0.18458431941E+04  0.46999998093E+01 0. -1.
</event>
<event>
 5   0  0.5071661E-07  0.3062938E+04  0.7818609E-02  0.8225983E-01
       -1   -1    0    0    0  501  0.00000000000E+00  0.00000000000E+00  0.88594027191E+03  0.88594027193E+03  0.50400001928E-02 0.  1.
        1   -1    0    0  501    0  0.00000000000E+00  0.00000000000E+00 -0.26473540007E+04  0.26473540007E+04  0.50400001928E-02 0. -1.
    10030    2    1    2    0    0  0.00000000000E+00  0.00000000000E+00 -0.17614137288E+04  0.35332942726E+04  0.30629381471E+04 0.  0.
        1    1    3    3  502    0  0.63304123826E+03  0.76916723886E+03  0.46112033594E+03  0.10977210096E+04  0.50400001928E-02 0.  1.
       -1    1    3    3    0  502 -0.63304123826E+03 -0.76916723886E+03 -0.22225340647E+04  0.24355732630E+04  0.50400001928E-02 0. -1.
</event>
<event>
 5   0  0.1379425E-06  0.3570378E+04  0.7818609E-02  0.8097311E-01
       -2   -1    0    0    0  501  0.00000000000E+00  0.00000000000E+00  0.31547568023E+04  0.31547568023E+04  0.25500000920E-02 0.  1.
        2   -1    0    0  501    0  0.00000000000E+00  0.00000000000E+00 -0.10101886463E+04  0.10101886463E+04  0.25500000920E-02 0. -1.
    10030    2    1    2    0    0  0.00000000000E+00  0.00000000000E+00  0.21445681560E+04  0.41649454486E+04  0.35703778531E+04 0.  0.
        4    1    3    3  502    0  0.16710152767E+04 -0.22435227031E+03  0.38782746762E+03  0.17300398128E+04  0.12699999809E+01 0. -1.
       -4    1    3    3    0  502 -0.16710152767E+04  0.22435227031E+03  0.17567406884E+04  0.24349056358E+04  0.12699999809E+01 0.  1.
</event>
<event>
 5   0  0.4811500E-07  0.3588314E+04  0.7818609E-02  0.8093174E-01
       -1   -1    0    0    0  501  0.00000000000E+00  0.00000000000E+00  0.11510169930E+04  0.11510169930E+04  0.50400001928E-02 0.  1.
        1   -1    0    0  501    0  0.00000000000E+00  0.00000000000E+00 -0.27966568450E+04  0.27966568450E+04  0.50400001928E-02 0. -1.
    10030    2    1    2    0    0  0.00000000000E+00  0.00000000000E+00 -0.16456398520E+04  0.39476738381E+04  0.35883141180E+04 0.  0.
        5    1    3    3  502    0  0.11430250952E+04  0.56236136310E+03 -0.22127638883E+04  0.25532533729E+04  0.46999998093E+01 0. -1.
       -5    1    3    3    0  502 -0.11430250952E+04 -0.56236136310E+03  0.56712403634E+03  0.13944204651E+04  0.46999998093E+01 0.  1.
</event>
<event>
 5   0  0.1505671E-06  0.3612368E+04  0.7818609E-02  0.8087664E-01
       -2   -1    0    0    0  501  0.00000000000E+00  0.00000000000E+00  0.26875734065E+04  0.26875734065E+04  0.25500000920E-02 0. -1.
        2   -1    0    0  501    0  0.00000000000E+00  0.00000000000E+00 -0.12138463242E+04  0.12138463242E+04  0.25500000920E-02 0.  1.
    10030    2    1    2    0    0  0.00000000000E+00  0.00000000000E+00  0.14737270823E+04  0.39014197308E+04  0.36123682540E+04 0.  0.
        3    1    3    3  502    0  0.79545577223E+03  0.10757083337E+04 -0.57365742774E+03  0.14556720645E+04  0.10100000352E+00 0.  1.
       -3    1    3    3    0  502 -0.79545577223E+03 -0.10757083337E+04  0.20473845100E+04  0.24457476662E+04  0.10100000352E+00 0. -1.
</event>
<event>
 5   0  0.1505671E-06  0.3601520E+04  0.7818609E-02  0.8090144E-01
       -2   -1    0    0    0  501  0.00000000000E+00  0.00000000000E+00  0.20121438234E+04  0.20121438234E+04  0.25500000920E-02 0.  1.
        2   -1    0    0  501    0  0.00000000000E+00  0.00000000000E+00 -0.16115832409E+04  0.16115832409E+04  0.25500000920E-02 0. -1.
    10030    2    1    2    0    0  0.00000000000E+00  0.00000000000E+00  0.40056058246E+03  0.36237270643E+04  0.36015203812E+04 0.  0.
        3    1    3    3  502    0 -0.36235287278E+03  0.77604755216E+03  0.17940889812E+04  0.19880404146E+04  0.10100000352E+00 0.  1.
       -3    1    3    3    0  502  0.36235287278E+03 -0.77604755216E+03 -0.13935283987E+04  0.16356866496E+04  0.10100000352E+00 0. -1.
</event>
<event>
 5   0  0.4811500E-07  0.3554408E+04  0.7818609E-02  0.8101016E-01
       -1   -1    0    0    0  501  0.00000000000E+00  0.00000000000E+00  0.16064207383E+04  0.16064207383E+04  0.50400001928E-02 0. -1.
        1   -1    0    0  501    0  0.00000000000E+00  0.00000000000E+00 -0.19661435566E+04  0.19661435566E+04  0.50400001928E-02 0.  1.
    10030    2    1    2    0    0  0.00000000000E+00  0.00000000000E+00 -0.35972281826E+03  0.35725642949E+04  0.35544078459E+04 0.  0.
        3    1    3    3  502    0 -0.15663719938E+03 -0.14098825342E+04 -0.12559139722E+04  0.18946302774E+04  0.10100000352E+00 0.  1.
       -3    1    3    3    0  502  0.15663719938E+03  0.14098825342E+04  0.89619115391E+03  0.16779340175E+04  0.10100000352E+00 0. -1.
</event>
<event>
 5   0  0.1468942E-06  0.3580154E+04  0.7818609E-02  0.8095053E-01
       -2   -1    0    0    0  501  0.00000000000E+00  0.00000000000E+00  0.15732079659E+04  0.15732079659E+04  0.25500000920E-02 0. -1.
        2   -1    0    0  501    0  0.00000000000E+00  0.00000000000E+00 -0.20368417812E+04  0.20368417812E+04  0.25500000920E-02 0.  1.
    10030    2    1    2    0    0  0.00000000000E+00  0.00000000000E+00 -0.46363381526E+03  0.36100497471E+04  0.35801540277E+04 0.  0.
        2    1    3    3  502    0 -0.92433473574E+03 -0.59387718282E+03  0.11932397685E+04  0.16220067685E+04  0.25500000920E-02 0. -1.
       -2    1    3    3    0  502  0.92433473574E+03  0.59387718282E+03 -0.16568735838E+04  0.19880429786E+04  0.25500000920E-02 0.  1.
</event>
<event>
 5   0  0.1379425E-06  0.3585999E+04  0.7818609E-02  0.8093706E-01
       -2   -1    0    0    0  501  0.00000000000E+00  0.00000000000E+00  0.21234161175E+04  0.21234161175E+04  0.25500000920E-02 0. -1.
        2   -1    0    0  501    0  0.00000000000E+00  0.00000000000E+00 -0.15139978907E+04  0.15139978907E+04  0.25500000920E-02 0.  1.
    10030    2    1    2    0    0  0.00000000000E+00  0.00000000000E+00  0.60941822684E+03  0.36374140082E+04  0.35859991762E+04 0.  0.
        4    1    3    3  502    0 -0.13345880832E+04 -0.80529465418E+03  0.12035411102E+04  0.19692987708E+04  0.12699999809E+01 0. -1.
       -4    1    3    3    0  502  0.13345880832E+04  0.80529465418E+03 -0.59412288332E+03  0.16681152374E+04  0.12699999809E+01 0.  1.
</event>
<event>
 5   0  0.1379425E-06  0.3576087E+04  0.7818609E-02  0.8095991E-01
        2   -1    0    0  501    0  0.00000000000E+00  0.00000000000E+00  0.19079164851E+04  0.19079164851E+04  0.25500000920E-02 0.  1.
       -2   -1    0    0    0  501  0.00000000000E+00  0.00000000000E+00 -0.16757019150E+04  0.16757019150E+04  0.25500000920E-02 0. -1.
    10030    2    1    2    0    0  0.00000000000E+00  0.00000000000E+00  0.23221457015E+03  0.35836184001E+04  0.35760868601E+04 0.  0.
        4    1    3    3  502    0  0.74089392478E+03  0.10220767757E+04 -0.11528664794E+04  0.17095810819E+04  0.12699999809E+01 0. -1.
       -4    1    3    3    0  502 -0.74089392478E+03 -0.10220767757E+04  0.13850810496E+04  0.18740373182E+04  0.12699999809E+01 0.  1.
</event>
<event>
 5   0  0.4811500E-07  0.3631301E+04  0.7818609E-02  0.8083359E-01
        1   -1    0    0  501    0  0.00000000000E+00  0.00000000000E+00  0.18057208014E+04  0.18057208014E+04  0.50400001928E-02 0. -1.
       -1   -1    0    0    0  501  0.00000000000E+00  0.00000000000E+00 -0.18256351867E+04  0.18256351867E+04  0.50400001928E-02 0.  1.
    10030    2    1    2    0    0  0.00000000000E+00  0.00000000000E+00 -0.19914385253E+02  0.36313559881E+04  0.36313013824E+04 0.  0.
        4    1    3    3  502    0  0.85385172997E+03 -0.10462550786E+04  0.12036809949E+04  0.18090223925E+04  0.12699999809E+01 0. -1.
       -4    1    3    3    0  502 -0.85385172997E+03  0.10462550786E+04 -0.12235953801E+04  0.18223335956E+04  0.12699999809E+01 0.  1.
</event>
<event>
 5   0  0.4811500E-07  0.3616615E+04  0.7818609E-02  0.8086696E-01
       -1   -1    0    0    0  501  0.00000000000E+00  0.00000000000E+00  0.12565937801E+04  0.12565937801E+04  0.50400001928E-02 0.  1.
        1   -1    0    0  501    0  0.00000000000E+00  0.00000000000E+00 -0.26022542698E+04  0.26022542698E+04  0.50400001928E-02 0. -1.
    10030    2    1    2    0    0  0.00000000000E+00  0.00000000000E+00 -0.13456604897E+04  0.38588480498E+04  0.36166152848E+04 0.  0.
        3    1    3    3  502    0 -0.13464527042E+03  0.12048836476E+04  0.75871141056E+03  0.14302157068E+04  0.10100000352E+00 0.  1.
       -3    1    3    3    0  502  0.13464527042E+03 -0.12048836476E+04 -0.21043719002E+04  0.24286323431E+04  0.10100000352E+00 0. -1.
</event>
<event>
 5   0  0.5071661E-07  0.3612698E+04  0.7818609E-02  0.8087589E-01
       -1   -1    0    0    0  501  0.00000000000E+00  0.00000000000E+00  0.30106344279E+04  0.30106344279E+04  0.50400001928E-02 0.  1.
        1   -1    0    0  501    0  0.00000000000E+00  0.00000000000E+00 -0.10837906507E+04  0.10837906507E+04  0.50400001928E-02 0. -1.
    10030    2    1    2    0    0  0.00000000000E+00  0.00000000000E+00  0.19268437771E+04  0.40944250786E+04  0.36126984074E+04 0.  0.
        1    1    3    3  502    0  0.15897632470E+04  0.84473965825E+03  0.11313906595E+04  0.21262589438E+04  0.50400001928E-02 0. -1.
       -1    1    3    3    0  502 -0.15897632470E+04 -0.84473965825E+03  0.79545311764E+03  0.19681661348E+04  0.50400001928E-02 0.  1.
</event>
<event>
 5   0  0.4811500E-07  0.3624186E+04  0.7818609E-02  0.8084974E-01
        1   -1    0    0  501    0  0.00000000000E+00  0.00000000000E+00  0.23564738298E+04  0.23564738298E+04  0.50400001928E-02 0.  1.
       -1   -1    0    0    0  501  0.00000000000E+00  0.00000000000E+00 -0.13934724088E+04  0.13934724088E+04  0.50400001928E-02 0. -1.
    10030    2    1    2    0    0  0.00000000000E+00  0.00000000000E+00  0.96300142100E+03  0.37499462386E+04  0.36241861232E+04 0.  0.
        2    1    3    3  502    0  0.12500539314E+04  0.78049351404E+03  0.15725460194E+04  0.21551579849E+04  0.25500000920E-02 0.  1.
       -2    1    3    3    0  502 -0.12500539314E+04 -0.78049351404E+03 -0.60954459838E+03  0.15947882537E+04  0.25500000920E-02 0. -1.
</event>
<event>
 5   0  0.5071661E-07  0.3340616E+04  0.7818609E-02  0.8152637E-01
       -1   -1    0    0    0  501  0.00000000000E+00  0.00000000000E+00  0.22189722317E+04  0.22189722317E+04  0.50400001928E-02 0. -1.
        1   -1    0    0  501    0  0.00000000000E+00  0.00000000000E+00 -0.12573070770E+04  0.12573070770E+04  0.50400001928E-02 0.  1.
    10030    2    1    2    0    0  0.00000000000E+00  0.00000000000E+00  0.96166515475E+03  0.34762793087E+04  0.33406164045E+04 0.  0.
        1    1    3    3  502    0 -0.11116273556E+02  0.11203192015E+04 -0.80830271943E+03  0.13815179952E+04  0.50400001928E-02 0.  1.
       -1    1    3    3    0  502  0.11116273556E+02 -0.11203192015E+04  0.17699678742E+04  0.20947613135E+04  0.50400001928E-02 0. -1.
</event>
<event>
 5   0  0.1468942E-06  0.3611825E+04  0.7818609E-02  0.8087788E-01
       -2   -1    0    0    0  501  0.00000000000E+00  0.00000000000E+00  0.16035217918E+04  0.16035217918E+04  0.25500000920E-02 0.  1.
        2   -1    0    0  501    0  0.00000000000E+00  0.00000000000E+00 -0.20338485287E+04  0.20338485287E+04  0.25500000920E-02 0. -1.
    10030    2    1    2    0    0  0.00000000000E+00  0.00000000000E+00 -0.43032673689E+03  0.36373703205E+04  0.36118252654E+04 0.  0.
        2    1    3    3  502    0  0.81751589295E+03 -0.86243635927E+03  0.11543042201E+04  0.16566674203E+04  0.25500000920E-02 0.  1.
       -2    1    3    3    0  502 -0.81751589295E+03  0.86243635927E+03 -0.15846309570E+04  0.19807029002E+04  0.25500000920E-02 0. -1.
</event>
<event>
 5   0  0.4811500E-07  0.3572150E+04  0.7818609E-02  0.8096901E-01
       -1   -1    0    0    0  501  0.00000000000E+00  0.00000000000E+00  0.13405290699E+04  0.13405290699E+04  0.50400001928E-02 0.  1.
        1   -1    0    0  501    0  0.00000000000E+00  0.00000000000E+00 -0.23797052909E+04  0.23797052909E+04  0.50400001928E-02 0. -1.
    10030    2    1    2    0    0  0.00000000000E+00  0.00000000000E+00 -0.10391762210E+04  0.37202343608E+04  0.35721501202E+04 0.  0.
        4    1    3    3  502    0  0.37018425409E+03  0.12807517992E+04 -0.17574315437E+04  0.22058850370E+04  0.12699999809E+01 0. -1.
       -4    1    3    3    0  502 -0.37018425409E+03 -0.12807517992E+04  0.71825532263E+03  0.15143493238E+04  0.12699999809E+01 0.  1.
</event>
<event>
 5   0  0.1468942E-06  0.3618294E+04  0.7818609E-02  0.8086314E-01
        2   -1    0    0  501    0  0.00000000000E+00  0.00000000000E+00  0.22910597733E+04  0.22910597733E+04  0.25500000920E-02 0.  1.
       -2   -1    0    0    0  501  0.00000000000E+00  0.00000000000E+00 -0.14286019290E+04  0.14286019291E+04  0.25500000920E-02 0. -1.
    10030    2    1    2    0    0  0.00000000000E+00  0.00000000000E+00  0.86245784427E+03  0.37196617024E+04  0.36182937480E+04 0.  0.
        2    1    3    3  502    0  0.17491432439E+04  0.78083180051E+02  0.89941442833E+03  0.19683864927E+04  0.25500000920E-02 0.  1.
       -2    1    3    3    0  502 -0.17491432439E+04 -0.78083180051E+02 -0.36956584058E+02  0.17512752096E+04  0.25500000920E-02 0. -1.
</event>
<event>
 5   0  0.5071661E-07  0.3550277E+04  0.7818609E-02  0.8101977E-01
        1   -1    0    0  501    0  0.00000000000E+00  0.00000000000E+00  0.24069443075E+04  0.24069443075E+04  0.50400001928E-02 0.  1.
       -1   -1    0    0    0  501  0.00000000000E+00  0.00000000000E+00 -0.13091775317E+04  0.13091775317E+04  0.50400001928E-02 0. -1.
    10030    2    1    2    0    0  0.00000000000E+00  0.00000000000E+00  0.10977667758E+04  0.37161218392E+04  0.35502774017E+04 0.  0.
        1    1    3    3  502    0  0.14854869599E+04  0.33058213536E+03  0.15054447852E+04  0.21406354331E+04  0.50400001928E-02 0.  1.
       -1    1    3    3    0  502 -0.14854869599E+04 -0.33058213536E+03 -0.40767800935E+03  0.15754864060E+04  0.50400001928E-02 0. -1.
</event>
<event>
 5   0  0.4811500E-07  0.3564435E+04  0.7818609E-02  0.8098687E-01
        1   -1    0    0  501    0  0.00000000000E+00  0.00000000000E+00  0.12847606612E+04  0.12847606612E+04  0.50400001928E-02 0.  1.
       -1   -1    0    0    0  501  0.00000000000E+00  0.00000000000E+00 -0.24722884185E+04  0.24722884185E+04  0.50400001928E-02 0. -1.
    10030    2    1    2    0    0  0.00000000000E+00  0.00000000000E+00 -0.11875277573E+04  0.37570490796E+04  0.35644348237E+04 0.  0.
        3    1    3    3  502    0 -0.17628598291E+04  0.25632952489E+03 -0.65071402575E+03  0.18965253375E+04  0.10100000352E+00 0. -1.
       -3    1    3    3    0  502  0.17628598291E+04 -0.25632952489E+03 -0.53681373154E+03  0.18605237421E+04  0.10100000352E+00 0.  1.
</event>
<event>
 5   0  0.1468942E-06  0.3584695E+04  0.7818609E-02  0.8094007E-01
        2   -1    0    0  501    0  0.00000000000E+00  0.00000000000E+00  0.16498267235E+04  0.16498267235E+04  0.25500000920E-02 0. -1.
       -2   -1    0    0    0  501  0.00000000000E+00  0.00000000000E+00 -0.19471797105E+04  0.19471797105E+04  0.25500000920E-02 0.  1.
    10030    2    1    2    0    0  0.00000000000E+00  0.00000000000E+00 -0.29735298700E+03  0.35970064340E+04  0.35846947552E+04 0.  0.
        2    1    3    3  502    0 -0.71579404840E+03  0.10590470849E+04 -0.14094021230E+04  0.19027233619E+04  0.25500000920E-02 0.  1.
       -2    1    3    3    0  502  0.71579404840E+03 -0.10590470849E+04  0.11120491360E+04  0.16942830721E+04  0.25500000920E-02 0. -1.
</event>
<event>
 5   0  0.1444091E-06  0.3597433E+04  0.7818609E-02  0.8091080E-01
        2   -1    0    0  501    0  0.00000000000E+00  0.00000000000E+00  0.13389358800E+04  0.13389358800E+04  0.25500000920E-02 0.  1.
       -2   -1    0    0    0  501  0.00000000000E+00  0.00000000000E+00 -0.24163826380E+04  0.24163826380E+04  0.25500000920E-02 0. -1.
    10030    2    1    2    0    0  0.00000000000E+00  0.00000000000E+00 -0.10774467580E+04  0.37553185180E+04  0.35974332038E+04 0.  0.
        1    1    3    3  502    0 -0.14090373356E+03  0.71526728073E+03 -0.22552517293E+04  0.23701522119E+04  0.50400001928E-02 0. -1.
       -1    1    3    3    0  502  0.14090373356E+03 -0.71526728073E+03  0.11778049714E+04  0.13851663061E+04  0.50400001928E-02 0.  1.
</event>
<event>
 5   0  0.1491854E-06  0.3598719E+04  0.7818609E-02  0.8090785E-01
        2   -1    0    0  501    0  0.00000000000E+00  0.00000000000E+00  0.17097895276E+04  0.17097895276E+04  0.25500000920E-02 0. -1.
       -2   -1    0    0    0  501  0.00000000000E+00  0.00000000000E+00 -0.18936215577E+04  0.18936215577E+04  0.25500000920E-02 0.  1.
    10030    2    1    2    0    0  0.00000000000E+00  0.00000000000E+00 -0.18383203010E+03  0.36034110854E+04  0.35987188324E+04 0.  0.
        5    1    3    3  502    0 -0.35621167451E+03  0.13991908407E+04 -0.11671179792E+04  0.18565581685E+04  0.46999998093E+01 0.  1.
       -5    1    3    3    0  502  0.35621167451E+03 -0.13991908407E+04  0.98328594909E+03  0.17468529169E+04  0.46999998093E+01 0. -1.
</event>
<event>
 5   0  0.4811500E-07  0.3586069E+04  0.7818609E-02  0.8093690E-01
       -1   -1    0    0    0  501  0.00000000000E+00  0.00000000000E+00  0.11811146991E+04  0.11811146991E+04  0.50400001928E-02 0.  1.
        1   -1    0    0  501    0  0.00000000000E+00  0.00000000000E+00 -0.27219816586E+04  0.27219816586E+04  0.50400001928E-02 0. -1.
    10030    2    1    2    0    0  0.00000000000E+00  0.00000000000E+00 -0.15408669595E+04  0.39030963577E+04  0.35860689049E+04 0.  0.
        4    1    3    3  502    0 -0.28849693226E+03 -0.91958747790E+03 -0.24160861951E+04  0.26012200454E+04  0.12699999809E+01 0. -1.
       -4    1    3    3    0  502  0.28849693226E+03  0.91958747790E+03  0.87521923558E+03  0.13018763124E+04  0.12699999809E+01 0.  1.
</event>
<event>
 5   0  0.5071661E-07  0.3606585E+04  0.7818609E-02  0.8088985E-01
       -1   -1    0    0    0  501  0.00000000000E+00  0.00000000000E+00  0.36237225888E+04  0.36237225888E+04  0.50400001928E-02 0.  1.
        1   -1    0    0  501    0  0.00000000000E+00  0.00000000000E+00 -0.89738187577E+03  0.89738187578E+03  0.50400001928E-02 0. -1.
    10030    2    1    2    0    0  0.00000000000E+00  0.00000000000E+00  0.27263407130E+04  0.45211044646E+04  0.36065845195E+04 0.  0.
        1    1    3    3  502    0 -0.10570092670E+04  0.65324269777E+03 -0.27506247122E+03  0.12726562678E+04  0.50400001928E-02 0. -1.
       -1    1    3    3    0  502  0.10570092670E+04 -0.65324269777E+03  0.30014031842E+04  0.32484481968E+04  0.50400001928E-02 0.  1.
</event>
<event>
 5   0  0.4811500E-07  0.3609363E+04  0.7818609E-02  0.8088350E-01
        1   -1    0    0  501    0  0.00000000000E+00  0.00000000000E+00  0.24558076396E+04  0.24558076396E+04  0.50400001928E-02 0.  1.
       -1   -1    0    0    0  501  0.00000000000E+00  0.00000000000E+00 -0.13261931955E+04  0.13261931955E+04  0.50400001928E-02 0. -1.
    10030    2    1    2    0    0  0.00000000000E+00  0.00000000000E+00  0.11296144441E+04  0.37820008351E+04  0.36093630358E+04 0.  0.
        3    1    3    3  502    0  0.16114375113E+03  0.17786451769E+04  0.83669733580E+03  0.19722090193E+04  0.10100000352E+00 0.  1.
       -3    1    3    3    0  502 -0.16114375113E+03 -0.17786451769E+04  0.29291710827E+03  0.18097918158E+04  0.10100000352E+00 0. -1.
</event>
<event>
 5   0  0.1505671E-06  0.3608730E+04  0.7818609E-02  0.8088495E-01
        2   -1    0    0  501    0  0.00000000000E+00  0.00000000000E+00  0.25433520259E+04  0.25433520259E+04  0.25500000920E-02 0.  1.
       -2   -1    0    0    0  501  0.00000000000E+00  0.00000000000E+00 -0.12800950872E+04  0.12800950872E+04  0.25500000920E-02 0. -1.
    10030    2    1    2    0    0  0.00000000000E+00  0.00000000000E+00  0.12632569386E+04  0.38234471131E+04  0.36087296565E+04 0.  0.
        3    1    3    3  502    0  0.89664751000E+03  0.11142713919E+04 -0.53389554487E+03  0.15266374668E+04  0.10100000352E+00 0. -1.
       -3    1    3    3    0  502 -0.89664751000E+03 -0.11142713919E+04  0.17971524835E+04  0.22968096463E+04  0.10100000352E+00 0.  1.
</event>
<event>
 5   0  0.1468942E-06  0.3598759E+04  0.7818609E-02  0.8090776E-01
       -2   -1    0    0    0  501  0.00000000000E+00  0.00000000000E+00  0.18623142839E+04  0.18623142839E+04  0.25500000920E-02 0.  1.
        2   -1    0    0  501    0  0.00000000000E+00  0.00000000000E+00 -0.17385712918E+04  0.17385712918E+04  0.25500000920E-02 0. -1.
    10030    2    1    2    0    0  0.00000000000E+00  0.00000000000E+00  0.12374299205E+03  0.36008855757E+04  0.35987587585E+04 0.  0.
        2    1    3    3  502    0  0.96708396953E+03 -0.14886757441E+03 -0.14491047788E+04  0.17485186927E+04  0.25500000920E-02 0. -1.
       -2    1    3    3    0  502 -0.96708396953E+03  0.14886757441E+03  0.15728477709E+04  0.18523668830E+04  0.25500000920E-02 0.  1.
</event>
<event>
 5   0  0.1491854E-06  0.3388443E+04  0.7818609E-02  0.8140749E-01
        2   -1    0    0  501    0  0.00000000000E+00  0.00000000000E+00  0.16722695366E+04  0.16722695366E+04  0.25500000920E-02 0. -1.
       -2   -1    0    0    0  501  0.00000000000E+00  0.00000000000E+00 -0.17164616353E+04  0.17164616353E+04  0.25500000920E-02 0.  1.
    10030    2    1    2    0    0  0.00000000000E+00  0.00000000000E+00 -0.44192098736E+02  0.33887311719E+04  0.33884430073E+04 0.  0.
        5    1    3    3  502    0  0.28167383588E+03 -0.16682655352E+03 -0.16845229401E+04  0.17160451260E+04  0.46999998093E+01 0.  1.
       -5    1    3    3    0  502 -0.28167383588E+03  0.16682655352E+03  0.16403308414E+04  0.16726860458E+04  0.46999998093E+01 0. -1.
</event>
<event>
 5   0  0.4811500E-07  0.3709751E+04  0.7818609E-02  0.8065804E-01
       -1   -1    0    0    0  501  0.00000000000E+00  0.00000000000E+00  0.14122944687E+04  0.14122944687E+04  0.50400001928E-02 0.  1.
        1   -1    0    0  501    0  0.00000000000E+00  0.00000000000E+00 -0.24361513653E+04  0.24361513653E+04  0.50400001928E-02 0. -1.
    10030    2    1    2    0    0  0.00000000000E+00  0.00000000000E+00 -0.10238568966E+04  0.38484458340E+04  0.37097509879E+04 0.  0.
        2    1    3    3  502    0  0.69954094997E+03  0.66382599917E+02 -0.22927314101E+04  0.23979953105E+04  0.25500000920E-02 0. -1.
       -2    1    3    3    0  502 -0.69954094997E+03 -0.66382599917E+02  0.12688745134E+04  0.14504505235E+04  0.25500000920E-02 0.  1.
</event>
<event>
 5   0  0.1379425E-06  0.2283095E+04  0.7818609E-02  0.8484616E-01
       -2   -1    0    0    0  501  0.00000000000E+00  0.00000000000E+00  0.14442909473E+04  0.14442909473E+04  0.25500000920E-02 0.  1.
        2   -1    0    0  501    0  0.00000000000E+00  0.00000000000E+00 -0.90226362149E+03  0.90226362149E+03  0.25500000920E-02 0. -1.
    10030    2    1    2    0    0  0.00000000000E+00  0.00000000000E+00  0.54202732580E+03  0.23465545688E+04  0.22830954256E+04 0.  0.
        4    1    3    3  502    0  0.72259244512E+02  0.41605097842E+00  0.14419372331E+04  0.14437472662E+04  0.12699999809E+01 0.  1.
       -4    1    3    3    0  502 -0.72259244512E+02 -0.41605097842E+00 -0.89990990729E+03  0.90280730261E+03  0.12699999809E+01 0. -1.
</event>
<event>
 5   0  0.4811500E-07  0.3406395E+04  0.7818609E-02  0.8136339E-01
        1   -1    0    0  501    0  0.00000000000E+00  0.00000000000E+00  0.18020431797E+04  0.18020431797E+04  0.50400001928E-02 0.  1.
       -1   -1    0    0    0  501  0.00000000000E+00  0.00000000000E+00 -0.16097733629E+04  0.16097733630E+04  0.50400001928E-02 0. -1.
    10030    2    1    2    0    0  0.00000000000E+00  0.00000000000E+00  0.19226981672E+03  0.34118165426E+04  0.34063946392E+04 0.  0.
        3    1    3    3  502    0  0.10009542990E+04 -0.90326468189E+03  0.11385048548E+04  0.17646500812E+04  0.10100000352E+00 0.  1.
       -3    1    3    3    0  502 -0.10009542990E+04  0.90326468189E+03 -0.94623503809E+03  0.16471664615E+04  0.10100000352E+00 0. -1.
</event>
<event>
 5   0  0.1444091E-06  0.2334616E+04  0.7818609E-02  0.8464396E-01
       -2   -1    0    0    0  501  0.00000000000E+00  0.00000000000E+00  0.10397202465E+04  0.10397202465E+04  0.25500000920E-02 0. -1.
        2   -1    0    0  501    0  0.00000000000E+00  0.00000000000E+00 -0.13105525279E+04  0.13105525279E+04  0.25500000920E-02 0.  1.
    10030    2    1    2    0    0  0.00000000000E+00  0.00000000000E+00 -0.27083228139E+03  0.23502727744E+04  0.23346160261E+04 0.  0.
        1    1    3    3  502    0 -0.75106203980E+03  0.39070413614E+03  0.67363015872E+03  0.10819064194E+04  0.50400001928E-02 0. -1.
       -1    1    3    3    0  502  0.75106203980E+03 -0.39070413614E+03 -0.94446244011E+03  0.12683663550E+04  0.50400001928E-02 0.  1.
</event>
<event>
 5   0  0.4811500E-07  0.2699605E+04  0.7818609E-02  0.8335133E-01
        4   -1    0    0  501    0  0.00000000000E+00  0.00000000000E+00  0.16574880686E+04  0.16574885551E+04  0.12699999809E+01 0. -1.
       -4   -1    0    0    0  501  0.00000000000E+00  0.00000000000E+00 -0.10992328085E+04  0.10992335422E+04  0.12699999809E+01 0.  1.
    10030    2    1    2    0    0  0.00000000000E+00  0.00000000000E+00  0.55825526008E+03  0.27567220973E+04  0.26996051167E+04 0.  0.
        5    1    3    3  502    0  0.11412102666E+02 -0.13412881662E+04  0.12506925260E+03  0.13471631634E+04  0.46999998093E+01 0.  1.
       -5    1    3    3    0  502 -0.11412102666E+02  0.13412881662E+04  0.43318600748E+03  0.14095589339E+04  0.46999998093E+01 0. -1.
</event>
<event>
 5   0  0.4811500E-07  0.3327415E+04  0.7818609E-02  0.8155954E-01
        1   -1    0    0  501    0  0.00000000000E+00  0.00000000000E+00  0.25333860313E+04  0.25333860314E+04  0.50400001928E-02 0.  1.
       -1   -1    0    0    0  501  0.00000000000E+00  0.00000000000E+00 -0.10925785852E+04  0.10925785852E+04  0.50400001928E-02 0. -1.
    10030    2    1    2    0    0  0.00000000000E+00  0.00000000000E+00  0.14408074462E+04  0.36259646165E+04  0.33274154089E+04 0.  0.
        4    1    3    3  502    0 -0.91152040687E+03  0.64439030596E+03  0.20647069448E+04  0.23471524662E+04  0.12699999809E+01 0.  1.
       -4    1    3    3    0  502  0.91152040687E+03 -0.64439030596E+03 -0.62389949867E+03  0.12788121504E+04  0.12699999809E+01 0. -1.
</event>
<event>
 5   0  0.1379425E-06  0.3619584E+04  0.7818609E-02  0.8086020E-01
        2   -1    0    0  501    0  0.00000000000E+00  0.00000000000E+00  0.23167041746E+04  0.23167041746E+04  0.25500000920E-02 0. -1.
       -2   -1    0    0    0  501  0.00000000000E+00  0.00000000000E+00 -0.14137957493E+04  0.14137957493E+04  0.25500000920E-02 0.  1.
    10030    2    1    2    0    0  0.00000000000E+00  0.00000000000E+00  0.90290842533E+03  0.37304999239E+04  0.36195836856E+04 0.  0.
        4    1    3    3  502    0  0.15662823257E+04  0.25694144010E+03  0.13476314691E+04  0.20821554738E+04  0.12699999809E+01 0.  1.
       -4    1    3    3    0  502 -0.15662823257E+04 -0.25694144010E+03 -0.44472304379E+03  0.16483444501E+04  0.12699999809E+01 0. -1.
</event>
<event>
 5   0  0.1468942E-06  0.3614382E+04  0.7818609E-02  0.8087205E-01
        2   -1    0    0  501    0  0.00000000000E+00  0.00000000000E+00  0.24776809583E+04  0.24776809583E+04  0.25500000920E-02 0.  1.
       -2   -1    0    0    0  501  0.00000000000E+00  0.00000000000E+00 -0.13181435331E+04  0.13181435331E+04  0.25500000920E-02 0. -1.
    10030    2    1    2    0    0  0.00000000000E+00  0.00000000000E+00  0.11595374251E+04  0.37958244914E+04  0.36143819014E+04 0.  0.
        2    1    3    3  502    0 -0.42446382871E+03 -0.26045611273E+03  0.24041971139E+04  0.24552333273E+04  0.25500000920E-02 0.  1.
       -2    1    3    3    0  502  0.42446382871E+03  0.26045611273E+03 -0.12446596888E+04  0.13405911642E+04  0.25500000920E-02 0. -1.
</event>
<event>
 5   0  0.4811500E-07  0.3603216E+04  0.7818609E-02  0.8089755E-01
       -1   -1    0    0    0  501  0.00000000000E+00  0.00000000000E+00  0.29674164885E+04  0.29674164885E+04  0.50400001928E-02 0.  1.
        1   -1    0    0  501    0  0.00000000000E+00  0.00000000000E+00 -0.10938107607E+04  0.10938107608E+04  0.50400001928E-02 0. -1.
    10030    2    1    2    0    0  0.00000000000E+00  0.00000000000E+00  0.18736057277E+04  0.40612272492E+04  0.36032163891E+04 0.  0.
        5    1    3    3  502    0  0.91938606836E+03  0.37262210686E+03 -0.75823670028E+03  0.12486244275E+04  0.46999998093E+01 0. -1.
       -5    1    3    3    0  502 -0.91938606836E+03 -0.37262210686E+03  0.26318424280E+04  0.28126028218E+04  0.46999998093E+01 0.  1.
</event>
<event>
 5   0  0.1505671E-06  0.3638032E+04  0.7818609E-02  0.8081835E-01
       -2   -1    0    0    0  501  0.00000000000E+00  0.00000000000E+00  0.14318091411E+04  0.14318091411E+04  0.25500000920E-02 0.  1.
        2   -1    0    0  501    0  0.00000000000E+00  0.00000000000E+00 -0.23109365603E+04  0.23109365603E+04  0.25500000920E-02 0. -1.
    10030    2    1    2    0    0  0.00000000000E+00  0.00000000000E+00 -0.87912741925E+03  0.37427457014E+04  0.36380324856E+04 0.  0.
        3    1    3    3  502    0  0.55997773876E+03 -0.41361139987E+03  0.12893336582E+04  0.14652749744E+04  0.10100000352E+00 0.  1.
       -3    1    3    3    0  502 -0.55997773876E+03  0.41361139987E+03 -0.21684610775E+04  0.22774707271E+04  0.10100000352E+00 0. -1.
</event>
<event>
 5   0  0.1468942E-06  0.3640607E+04  0.7818609E-02  0.8081253E-01
       -2   -1    0    0    0  501  0.00000000000E+00  0.00000000000E+00  0.13722564944E+04  0.13722564944E+04  0.25500000920E-02 0.  1.
        2   -1    0    0  501    0  0.00000000000E+00  0.00000000000E+00 -0.24146399894E+04  0.24146399894E+04  0.25500000920E-02 0. -1.
    10030    2    1    2    0    0  0.00000000000E+00  0.00000000000E+00 -0.10423834951E+04  0.37868964838E+04  0.36406073159E+04 0.  0.
        2    1    3    3  502    0 -0.66110725641E+02  0.16806369512E+04  0.20290852324E+03  0.16941319484E+04  0.25500000920E-02 0.  1.
       -2    1    3    3    0  502  0.66110725641E+02 -0.16806369512E+04 -0.12452920183E+04  0.20927645354E+04  0.25500000920E-02 0. -1.
</event>
<event>
 5   0  0.1491854E-06  0.3856459E+04  0.7818609E-02  0.8034146E-01
       -2   -1    0    0    0  501  0.00000000000E+00  0.00000000000E+00  0.15577367340E+04  0.15577367340E+04  0.25500000920E-02 0. -1.
        2   -1    0    0  501    0  0.00000000000E+00  0.00000000000E+00 -0.23868400950E+04  0.23868400950E+04  0.25500000920E-02 0.  1.
    10030    2    1    2    0    0  0.00000000000E+00  0.00000000000E+00 -0.82910336105E+03  0.39445768290E+04  0.38564587353E+04 0.  0.
        5    1    3    3  502    0 -0.76696843708E+03 -0.61292466399E+02  0.13939113076E+04  0.15921708996E+04  0.46999998093E+01 0. -1.
       -5    1    3    3    0  502  0.76696843708E+03  0.61292466399E+02 -0.22230146687E+04  0.23524059295E+04  0.46999998093E+01 0.  1.
</event>
<event>
 5   0  0.4811500E-07  0.3600926E+04  0.7818609E-02  0.8090280E-01
        1   -1    0    0  501    0  0.00000000000E+00  0.00000000000E+00  0.19789917215E+04  0.19789917215E+04  0.50400001928E-02 0.  1.
       -1   -1    0    0    0  501  0.00000000000E+00  0.00000000000E+00 -0.16380396461E+04  0.16380396461E+04  0.50400001928E-02 0. -1.
    10030    2    1    2    0    0  0.00000000000E+00  0.00000000000E+00  0.34095207543E+03  0.36170313676E+04  0.36009259360E+04 0.  0.
        3    1    3    3  502    0  0.10093146727E+04 -0.61022377683E+03 -0.11959676888E+04  0.16797106564E+04  0.10100000352E+00 0. -1.
       -3    1    3    3    0  502 -0.10093146727E+04  0.61022377683E+03  0.15369197642E+04  0.19373207112E+04  0.10100000352E+00 0.  1.
</event>
<event>
 5   0  0.1444091E-06  0.3584619E+04  0.7818609E-02  0.8094024E-01
        2   -1    0    0  501    0  0.00000000000E+00  0.00000000000E+00  0.25047762110E+04  0.25047762110E+04  0.25500000920E-02 0.  1.
       -2   -1    0    0    0  501  0.00000000000E+00  0.00000000000E+00 -0.12824991938E+04  0.12824991938E+04  0.25500000920E-02 0. -1.
    10030    2    1    2    0    0  0.00000000000E+00  0.00000000000E+00  0.12222770172E+04  0.37872754048E+04  0.35846190711E+04 0.  0.
        1    1    3    3  502    0 -0.52690099520E+03 -0.94620988236E+03  0.21199635457E+04  0.23805846415E+04  0.50400001928E-02 0.  1.
       -1    1    3    3    0  502  0.52690099520E+03  0.94620988236E+03 -0.89768652844E+03  0.14066907633E+04  0.50400001928E-02 0. -1.
</event>
<event>
 5   0  0.4811500E-07  0.3553517E+04  0.7818609E-02  0.8101223E-01
        1   -1    0    0  501    0  0.00000000000E+00  0.00000000000E+00  0.14399724230E+04  0.14399724230E+04  0.50400001928E-02 0.  1.
       -1   -1    0    0    0  501  0.00000000000E+00  0.00000000000E+00 -0.21923131834E+04  0.21923131834E+04  0.50400001928E-02 0. -1.
    10030    2    1    2    0    0  0.00000000000E+00  0.00000000000E+00 -0.75234076043E+03  0.36322856064E+04  0.35535168645E+04 0.  0.
        3    1    3    3  502    0 -0.10669212860E+04 -0.14207247218E+04 -0.38590786397E+03  0.18181596892E+04  0.10100000352E+00 0.  1.
       -3    1    3    3    0  502  0.10669212860E+04  0.14207247218E+04 -0.36643289646E+03  0.18141259172E+04  0.10100000352E+00 0. -1.
</event>
<event>
 5   0  0.1468942E-06  0.3657190E+04  0.7818609E-02  0.8077516E-01
       -2   -1    0    0    0  501  0.00000000000E+00  0.00000000000E+00  0.11926182608E+04  0.11926182608E+04  0.25500000920E-02 0.  1.
        2   -1    0    0  501    0  0.00000000000E+00  0.00000000000E+00 -0.28037137909E+04  0.28037137909E+04  0.25500000920E-02 0. -1.
    10030    2    1    2    0    0  0.00000000000E+00  0.00000000000E+00 -0.16110955301E+04  0.39963320516E+04  0.36571903231E+04 0.  0.
        2    1    3    3  502    0 -0.17528965259E+04  0.48307411415E+03 -0.10178684165E+04  0.20837617291E+04  0.25500000920E-02 0.  1.
       -2    1    3    3    0  502  0.17528965259E+04 -0.48307411415E+03 -0.59322711363E+03  0.19125703225E+04  0.25500000920E-02 0. -1.
</event>
<event>
 5   0  0.1444091E-06  0.3577843E+04  0.7818609E-02  0.8095586E-01
       -2   -1    0    0    0  501  0.00000000000E+00  0.00000000000E+00  0.13469351676E+04  0.13469351676E+04  0.25500000920E-02 0.  1.
        2   -1    0    0  501    0  0.00000000000E+00  0.00000000000E+00 -0.23759426942E+04  0.23759426942E+04  0.25500000920E-02 0. -1.
    10030    2    1    2    0    0  0.00000000000E+00  0.00000000000E+00 -0.10290075266E+04  0.37228778619E+04  0.35778433566E+04 0.  0.
        1    1    3    3  502    0 -0.76751646901E+03 -0.31042306133E+03 -0.21645986260E+04  0.23175269618E+04  0.50400001928E-02 0. -1.
       -1    1    3    3    0  502  0.76751646901E+03  0.31042306133E+03  0.11355910994E+04  0.14053509000E+04  0.50400001928E-02 0.  1.
</event>
<event>
 5   0  0.1444091E-06  0.2600174E+04  0.7818609E-02  0.8368142E-01
       -2   -1    0    0    0  501  0.00000000000E+00  0.00000000000E+00  0.67620161393E+03  0.67620161394E+03  0.25500000920E-02 0.  1.
        2   -1    0    0  501    0  0.00000000000E+00  0.00000000000E+00 -0.24995898861E+04  0.24995898861E+04  0.25500000920E-02 0. -1.
    10030    2    1    2    0    0  0.00000000000E+00  0.00000000000E+00 -0.18233882721E+04  0.31757915000E+04  0.26001743904E+04 0.  0.
        1    1    3    3  502    0  0.43069157556E+03  0.93615776897E+03 -0.18798536076E+04  0.21437668221E+04  0.50400001928E-02 0. -1.
       -1    1    3    3    0  502 -0.43069157556E+03 -0.93615776897E+03  0.56465335433E+02  0.10320246779E+04  0.50400001928E-02 0.  1.
</event>
<event>
 5   0  0.1491854E-06  0.3547737E+04  0.7818609E-02  0.8102569E-01
       -2   -1    0    0    0  501  0.00000000000E+00  0.00000000000E+00  0.16156720502E+04  0.16156720502E+04  0.25500000920E-02 0.  1.
        2   -1    0    0  501    0  0.00000000000E+00  0.00000000000E+00 -0.19475542777E+04  0.19475542777E+04  0.25500000920E-02 0. -1.
    10030    2    1    2    0    0  0.00000000000E+00  0.00000000000E+00 -0.33188222748E+03  0.35632263280E+04  0.35477367506E+04 0.  0.
        5    1    3    3  502    0 -0.13410464816E+04  0.87218317856E+03  0.60387631075E+03  0.17099116502E+04  0.46999998093E+01 0. -1.
       -5    1    3    3    0  502  0.13410464816E+04 -0.87218317856E+03 -0.93575853823E+03  0.18533146777E+04  0.46999998093E+01 0.  1.
</event>
<event>
 5   0  0.4811500E-07  0.3538635E+04  0.7818609E-02  0.8104694E-01
       -1   -1    0    0    0  501  0.00000000000E+00  0.00000000000E+00  0.16341497812E+04  0.16341497812E+04  0.50400001928E-02 0. -1.
        1   -1    0    0  501    0  0.00000000000E+00  0.00000000000E+00 -0.19156660252E+04  0.19156660252E+04  0.50400001928E-02 0.  1.
    10030    2    1    2    0    0  0.00000000000E+00  0.00000000000E+00 -0.28151624404E+03  0.35498158064E+04  0.35386354522E+04 0.  0.
        4    1    3    3  502    0 -0.53437508962E+03  0.70269549818E+02 -0.18313093206E+04  0.19089761619E+04  0.12699999809E+01 0.  1.
       -4    1    3    3    0  502  0.53437508962E+03 -0.70269549818E+02  0.15497930766E+04  0.16408396445E+04  0.12699999809E+01 0. -1.
</event>
<event>
 5   0  0.4811500E-07  0.3612742E+04  0.7818609E-02  0.8087579E-01
        1   -1    0    0  501    0  0.00000000000E+00  0.00000000000E+00  0.21935342992E+04  0.21935342992E+04  0.50400001928E-02 0. -1.
       -1   -1    0    0    0  501  0.00000000000E+00  0.00000000000E+00 -0.14875424365E+04  0.14875424365E+04  0.50400001928E-02 0.  1.
    10030    2    1    2    0    0  0.00000000000E+00  0.00000000000E+00  0.70599186268E+03  0.36810767357E+04  0.36127415385E+04 0.  0.
        5    1    3    3  502    0  0.35283998383E+03 -0.82162116381E+03  0.19522044084E+04  0.21472497604E+04  0.46999998093E+01 0. -1.
       -5    1    3    3    0  502 -0.35283998383E+03  0.82162116381E+03 -0.12462125458E+04  0.15338269753E+04  0.46999998093E+01 0.  1.
</event>
<event>
 5   0  0.1379425E-06  0.2931608E+04  0.7818609E-02  0.8263535E-01
       -2   -1    0    0    0  501  0.00000000000E+00  0.00000000000E+00  0.15604440439E+04  0.15604440439E+04  0.25500000920E-02 0.  1.
        2   -1    0    0  501    0  0.00000000000E+00  0.00000000000E+00 -0.13769036085E+04  0.13769036085E+04  0.25500000920E-02 0. -1.
    10030    2    1    2    0    0  0.00000000000E+00  0.00000000000E+00  0.18354043536E+03  0.29373476524E+04  0.29316077738E+04 0.  0.
        4    1    3    3  502    0  0.75322611296E+03 -0.23278500819E+03  0.13299246963E+04  0.15460400215E+04  0.12699999809E+01 0.  1.
       -4    1    3    3    0  502 -0.75322611296E+03  0.23278500819E+03 -0.11463842609E+04  0.13913076309E+04  0.12699999809E+01 0. -1.
</event>
<event>
 5   0  0.4811500E-07  0.3444907E+04  0.7818609E-02  0.8126972E-01
       -1   -1    0    0    0  501  0.00000000000E+00  0.00000000000E+00  0.17402855907E+04  0.17402855907E+04  0.50400001928E-02 0. -1.
        1   -1    0    0  501    0  0.00000000000E+00  0.00000000000E+00 -0.17048043606E+04  0.17048043606E+04  0.50400001928E-02 0.  1.
    10030    2    1    2    0    0  0.00000000000E+00  0.00000000000E+00  0.35481230117E+02  0.34450899513E+04  0.34449072346E+04 0.  0.
        4    1    3    3  502    0 -0.55666204634E+03 -0.11281733345E+03  0.16439401641E+04  0.17392933222E+04  0.12699999809E+01 0. -1.
       -4    1    3    3    0  502  0.55666204634E+03  0.11281733345E+03 -0.16084589340E+04  0.17057966291E+04  0.12699999809E+01 0.  1.
</event>
<event>
 5   0  0.5071661E-07  0.3615410E+04  0.7818609E-02  0.8086971E-01
        1   -1    0    0  501    0  0.00000000000E+00  0.00000000000E+00  0.23769144306E+04  0.23769144306E+04  0.50400001928E-02 0. -1.
       -1   -1    0    0    0  501  0.00000000000E+00  0.00000000000E+00 -0.13748064803E+04  0.13748064803E+04  0.50400001928E-02 0.  1.
    10030    2    1    2    0    0  0.00000000000E+00  0.00000000000E+00  0.10021079503E+04  0.37517209109E+04  0.36154099974E+04 0.  0.
        1    1    3    3  502    0 -0.53924682621E+03 -0.54038058263E+03  0.22014302527E+04  0.23300415171E+04  0.50400001928E-02 0. -1.
       -1    1    3    3    0  502  0.53924682621E+03  0.54038058263E+03 -0.11993223025E+04  0.14216793938E+04  0.50400001928E-02 0.  1.
</event>
<event>
 5   0  0.1444091E-06  0.3164571E+04  0.7818609E-02  0.8198237E-01
        2   -1    0    0  501    0  0.00000000000E+00  0.00000000000E+00  0.20915275996E+04  0.20915275996E+04  0.25500000920E-02 0.  1.
       -2   -1    0    0    0  501  0.00000000000E+00  0.00000000000E+00 -0.11970326655E+04  0.11970326655E+04  0.25500000920E-02 0. -1.
    10030    2    1    2    0    0  0.00000000000E+00  0.00000000000E+00  0.89449493403E+03  0.32885602651E+04  0.31645706550E+04 0.  0.
        1    1    3    3  502    0 -0.29963516932E+03 -0.47692113490E+03  0.19838268748E+04  0.20622327882E+04  0.50400001928E-02 0.  1.
       -1    1    3    3    0  502  0.29963516932E+03  0.47692113490E+03 -0.10893319407E+04  0.12263274769E+04  0.50400001928E-02 0. -1.
</event>
<event>
 5   0  0.4811500E-07  0.3574441E+04  0.7818609E-02  0.8096371E-01
       -1   -1    0    0    0  501  0.00000000000E+00  0.00000000000E+00  0.10468839037E+04  0.10468839037E+04  0.50400001928E-02 0. -1.
        1   -1    0    0  501    0  0.00000000000E+00  0.00000000000E+00 -0.30511092893E+04  0.30511092893E+04  0.50400001928E-02 0.  1.
    10030    2    1    2    0    0  0.00000000000E+00  0.00000000000E+00 -0.20042253856E+04  0.40979931930E+04  0.35744410491E+04 0.  0.
        5    1    3    3  502    0  0.29155200412E+03 -0.24199160693E+03  0.10003008629E+04  0.10696664972E+04  0.46999998093E+01 0. -1.
       -5    1    3    3    0  502 -0.29155200412E+03  0.24199160693E+03 -0.30045262485E+04  0.30283266958E+04  0.46999998093E+01 0.  1.
</event>
<event>
 5   0  0.1379425E-06  0.3499416E+04  0.7818609E-02  0.8113928E-01
       -2   -1    0    0    0  501  0.00000000000E+00  0.00000000000E+00  0.11205564723E+04  0.11205564723E+04  0.25500000920E-02 0.  1.
        2   -1    0    0  501    0  0.00000000000E+00  0.00000000000E+00 -0.27321053647E+04  0.27321053647E+04  0.25500000920E-02 0. -1.
    10030    2    1    2    0    0  0.00000000000E+00  0.00000000000E+00 -0.16115488923E+04  0.38526618370E+04  0.34994161510E+04 0.  0.
        4    1    3    3  502    0  0.15795971209E+04  0.74883421741E+03 -0.88813939933E+03  0.19607837604E+04  0.12699999809E+01 0.  1.
       -4    1    3    3    0  502 -0.15795971209E+04 -0.74883421741E+03 -0.72340949301E+03  0.18918780766E+04  0.12699999809E+01 0. -1.
</event>
<event>
 5   0  0.1444091E-06  0.3224155E+04  0.7818609E-02  0.8182467E-01
       -2   -1    0    0    0  501  0.00000000000E+00  0.00000000000E+00  0.19083899249E+04  0.19083899249E+04  0.25500000920E-02 0.  1.
        2   -1    0    0  501    0  0.00000000000E+00  0.00000000000E+00 -0.13617731819E+04  0.13617731819E+04  0.25500000920E-02 0. -1.
    10030    2    1    2    0    0  0.00000000000E+00  0.00000000000E+00  0.54661674303E+03  0.32701631068E+04  0.32241552198E+04 0.  0.
        1    1    3    3  502    0  0.43207234182E+03 -0.70275574721E+03 -0.11314614823E+04  0.14002704149E+04  0.50400001928E-02 0. -1.
       -1    1    3    3    0  502 -0.43207234182E+03  0.70275574721E+03  0.16780782254E+04  0.18698926919E+04  0.50400001928E-02 0.  1.
</event>
<event>
 5   0  0.1505671E-06  0.3600069E+04  0.7818609E-02  0.8090476E-01
       -2   -1    0    0    0  501  0.00000000000E+00  0.00000000000E+00  0.15959616799E+04  0.15959616799E+04  0.25500000920E-02 0. -1.
        2   -1    0    0  501    0  0.00000000000E+00  0.00000000000E+00 -0.20302014348E+04  0.20302014348E+04  0.25500000920E-02 0.  1.
    10030    2    1    2    0    0  0.00000000000E+00  0.00000000000E+00 -0.43423975495E+03  0.36261631147E+04  0.36000687174E+04 0.  0.
        3    1    3    3  502    0  0.11392119350E+04 -0.24350118210E+03 -0.15993005689E+04  0.19786002574E+04  0.10100000352E+00 0.  1.
       -3    1    3    3    0  502 -0.11392119350E+04  0.24350118210E+03  0.11650608139E+04  0.16475628574E+04  0.10100000352E+00 0. -1.
</event>
<event>
 5   0  0.1468942E-06  0.3606887E+04  0.7818609E-02  0.8088916E-01
        2   -1    0    0  501    0  0.00000000000E+00  0.00000000000E+00  0.14969941164E+04  0.14969941164E+04  0.25500000920E-02 0.  1.
       -2   -1    0    0    0  501  0.00000000000E+00  0.00000000000E+00 -0.21726263798E+04  0.21726263799E+04  0.25500000920E-02 0. -1.
    10030    2    1    2    0    0  0.00000000000E+00  0.00000000000E+00 -0.67563226349E+03  0.36696204962E+04  0.36068872495E+04 0.  0.
        2    1    3    3  502    0 -0.12456196043E+04 -0.12913886340E+04 -0.52307130278E+03  0.18689185083E+04  0.25500000920E-02 0.  1.
       -2    1    3    3    0  502  0.12456196043E+04  0.12913886340E+04 -0.15256096071E+03  0.18007019880E+04  0.25500000920E-02 0. -1.
</event>
<event>
 5   0  0.1444091E-06  0.3587985E+04  0.7818609E-02  0.8093249E-01
        2   -1    0    0  501    0  0.00000000000E+00  0.00000000000E+00  0.12395693983E+04  0.12395693983E+04  0.25500000920E-02 0.  1.
       -2   -1    0    0    0  501  0.00000000000E+00  0.00000000000E+00 -0.25963925837E+04  0.25963925837E+04  0.25500000920E-02 0. -1.
    10030    2    1    2    0    0  0.00000000000E+00  0.00000000000E+00 -0.13568231854E+04  0.38359619819E+04  0.35879848342E+04 0.  0.
        1    1    3    3  502    0 -0.56345701626E+03  0.24845915437E+03 -0.24798572091E+04  0.25551727022E+04  0.50400001928E-02 0. -1.
       -1    1    3    3    0  502  0.56345701626E+03 -0.24845915437E+03  0.11230340237E+04  0.12807892797E+04  0.50400001928E-02 0.  1.
</event>
<event>
 5   0  0.1505671E-06  0.3548149E+04  0.7818609E-02  0.8102473E-01
        2   -1    0    0  501    0  0.00000000000E+00  0.00000000000E+00  0.23575134894E+04  0.23575134894E+04  0.25500000920E-02 0.  1.
       -2   -1    0    0    0  501  0.00000000000E+00  0.00000000000E+00 -0.13350256418E+04  0.13350256418E+04  0.25500000920E-02 0. -1.
    10030    2    1    2    0    0  0.00000000000E+00  0.00000000000E+00  0.10224878476E+04  0.36925391312E+04  0.35481493538E+04 0.  0.
        3    1    3    3  502    0 -0.98671851901E+03  0.12993683039E+04  0.12362797482E+04  0.20470366511E+04  0.10100000352E+00 0.  1.
       -3    1    3    3    0  502  0.98671851901E+03 -0.12993683039E+04 -0.21379190053E+03  0.16455024801E+04  0.10100000352E+00 0. -1.
</event>
<event>
 5   0  0.1468942E-06  0.3603233E+04  0.7818609E-02  0.8089752E-01
       -2   -1    0    0    0  501  0.00000000000E+00  0.00000000000E+00  0.16477309300E+04  0.16477309300E+04  0.25500000920E-02 0.  1.
        2   -1    0    0  501    0  0.00000000000E+00  0.00000000000E+00 -0.19698739457E+04  0.19698739457E+04  0.25500000920E-02 0. -1.
    10030    2    1    2    0    0  0.00000000000E+00  0.00000000000E+00 -0.32214301569E+03  0.36176048758E+04  0.36032331197E+04 0.  0.
        2    1    3    3  502    0  0.14932805058E+04 -0.10000801943E+04 -0.28717169193E+03  0.18200314955E+04  0.25500000920E-02 0.  1.
       -2    1    3    3    0  502 -0.14932805058E+04  0.10000801943E+04 -0.34971323757E+02  0.17975733803E+04  0.25500000920E-02 0. -1.
</event>
<event>
 5   0  0.4811500E-07  0.3414707E+04  0.7818609E-02  0.8134306E-01
        1   -1    0    0  501    0  0.00000000000E+00  0.00000000000E+00  0.22490127846E+04  0.22490127846E+04  0.50400001928E-02 0.  1.
       -1   -1    0    0    0  501  0.00000000000E+00  0.00000000000E+00 -0.12961494121E+04  0.12961494122E+04  0.50400001928E-02 0. -1.
    10030    2    1    2    0    0  0.00000000000E+00  0.00000000000E+00  0.95286337246E+03  0.35451621968E+04  0.34147073659E+04 0.  0.
        3    1    3    3  502    0 -0.14970125480E+04 -0.30810740366E+03 -0.31361334110E+03  0.15602339821E+04  0.10100000352E+00 0. -1.
       -3    1    3    3    0  502  0.14970125480E+04  0.30810740366E+03  0.12664767136E+04  0.19849282146E+04  0.10100000352E+00 0.  1.
</event>
<event>
 5   0  0.5071661E-07  0.3607918E+04  0.7818609E-02  0.8088680E-01
        1   -1    0    0  501    0  0.00000000000E+00  0.00000000000E+00  0.23530804697E+04  0.23530804697E+04  0.50400001928E-02 0. -1.
       -1   -1    0    0    0  501  0.00000000000E+00  0.00000000000E+00 -0.13829817090E+04  0.13829817091E+04  0.50400001928E-02 0.  1.
    10030    2    1    2    0    0  0.00000000000E+00  0.00000000000E+00  0.97009876062E+03  0.37360621787E+04  0.36079175431E+04 0.  0.
        1    1    3    3  502    0 -0.54084488425E+03 -0.32950917929E+02 -0.12967235999E+04  0.14053793247E+04  0.50400001928E-02 0.  1.
       -1    1    3    3    0  502  0.54084488425E+03  0.32950917929E+02  0.22668223605E+04  0.23306828540E+04  0.50400001928E-02 0. -1.
</event>
<event>
 5   0  0.1468942E-06  0.3712839E+04  0.7818609E-02  0.8065123E-01
        2   -1    0    0  501    0  0.00000000000E+00  0.00000000000E+00  0.17571390399E+04  0.17571390399E+04  0.25500000920E-02 0. -1.
       -2   -1    0    0    0  501  0.00000000000E+00  0.00000000000E+00 -0.19613091433E+04  0.19613091433E+04  0.25500000920E-02 0.  1.
    10030    2    1    2    0    0  0.00000000000E+00  0.00000000000E+00 -0.20417010331E+03  0.37184481832E+04  0.37128387334E+04 0.  0.
        2    1    3    3  502    0 -0.27755003764E+03 -0.17959250806E+04 -0.48201547487E+03  0.18800850610E+04  0.25500000920E-02 0.  1.
       -2    1    3    3    0  502  0.27755003764E+03  0.17959250806E+04  0.27784537156E+03  0.18383631222E+04  0.25500000920E-02 0. -1.
</event>
<event>
 5   0  0.1491854E-06  0.3577922E+04  0.7818609E-02  0.8095568E-01
        2   -1    0    0  501    0  0.00000000000E+00  0.00000000000E+00  0.22813199065E+04  0.22813199065E+04  0.25500000920E-02 0.  1.
       -2   -1    0    0    0  501  0.00000000000E+00  0.00000000000E+00 -0.14028636083E+04  0.14028636083E+04  0.25500000920E-02 0. -1.
    10030    2    1    2    0    0  0.00000000000E+00  0.00000000000E+00  0.87845629821E+03  0.36841835147E+04  0.35779215618E+04 0.  0.
        5    1    3    3  502    0  0.17801345729E+04  0.16043428952E+03  0.51724326252E+03  0.18606936721E+04  0.46999998093E+01 0.  1.
       -5    1    3    3    0  502 -0.17801345729E+04 -0.16043428952E+03  0.36121303569E+03  0.18234898426E+04  0.46999998093E+01 0. -1.
</event>
<event>
 5   0  0.1491854E-06  0.3586510E+04  0.7818609E-02  0.8093589E-01
        2   -1    0    0  501    0  0.00000000000E+00  0.00000000000E+00  0.25541411510E+04  0.25541411510E+04  0.25500000920E-02 0.  1.
       -2   -1    0    0    0  501  0.00000000000E+00  0.00000000000E+00 -0.12590393420E+04  0.12590393420E+04  0.25500000920E-02 0. -1.
    10030    2    1    2    0    0  0.00000000000E+00  0.00000000000E+00  0.12951018090E+04  0.38131804929E+04  0.35865103898E+04 0.  0.
        5    1    3    3  502    0 -0.69320267810E+03  0.78397415336E+03 -0.90071057131E+03  0.13807414853E+04  0.46999998093E+01 0. -1.
       -5    1    3    3    0  502  0.69320267810E+03 -0.78397415336E+03  0.21958123803E+04  0.24324390076E+04  0.46999998093E+01 0.  1.
</event>
<event>
 5   0  0.4811500E-07  0.3490810E+04  0.7818609E-02  0.8115971E-01
        1   -1    0    0  501    0  0.00000000000E+00  0.00000000000E+00  0.19804031332E+04  0.19804031332E+04  0.50400001928E-02 0.  1.
       -1   -1    0    0    0  501  0.00000000000E+00  0.00000000000E+00 -0.15382918729E+04  0.15382918729E+04  0.50400001928E-02 0. -1.
    10030    2    1    2    0    0  0.00000000000E+00  0.00000000000E+00  0.44211126027E+03  0.35186950062E+04  0.34908096740E+04 0.  0.
        4    1    3    3  502    0  0.51234540375E+03 -0.95782753436E+03 -0.11560588237E+04  0.15863180687E+04  0.12699999809E+01 0. -1.
       -4    1    3    3    0  502 -0.51234540375E+03  0.95782753436E+03  0.15981700840E+04  0.19323769375E+04  0.12699999809E+01 0.  1.
</event>
<event>
 5   0  0.4811500E-07  0.3564694E+04  0.7818609E-02  0.8098627E-01
       -1   -1    0    0    0  501  0.00000000000E+00  0.00000000000E+00  0.17539259838E+04  0.17539259838E+04  0.50400001928E-02 0. -1.
        1   -1    0    0  501    0  0.00000000000E+00  0.00000000000E+00 -0.18112287595E+04  0.18112287595E+04  0.50400001928E-02 0.  1.
    10030    2    1    2    0    0  0.00000000000E+00  0.00000000000E+00 -0.57302775758E+02  0.35651547433E+04  0.35646941995E+04 0.  0.
        5    1    3    3  502    0  0.89833810819E+02 -0.17799289452E+04 -0.51500135953E+02  0.17829446199E+04  0.46999998093E+01 0.  1.
       -5    1    3    3    0  502 -0.89833810819E+02  0.17799289452E+04 -0.58026398055E+01  0.17822101235E+04  0.46999998093E+01 0. -1.
</event>
<event>
 5   0  0.1444091E-06  0.3570553E+04  0.7818609E-02  0.8097270E-01
        2   -1    0    0  501    0  0.00000000000E+00  0.00000000000E+00  0.10252752887E+04  0.10252752887E+04  0.25500000920E-02 0.  1.
       -2   -1    0    0    0  501  0.00000000000E+00  0.00000000000E+00 -0.31086411602E+04  0.31086411602E+04  0.25500000920E-02 0. -1.
    10030    2    1    2    0    0  0.00000000000E+00  0.00000000000E+00 -0.20833658715E+04  0.41339164489E+04  0.35705534378E+04 0.  0.
        1    1    3    3  502    0  0.83994840060E+02 -0.12494178182E+04  0.43152730864E+03  0.13245058836E+04  0.50400001928E-02 0.  1.
       -1    1    3    3    0  502 -0.83994840060E+02  0.12494178182E+04 -0.25148931801E+04  0.28094105654E+04  0.50400001928E-02 0. -1.
</event>
<event>
 5   0  0.1379425E-06  0.3638609E+04  0.7818609E-02  0.8081705E-01
        2   -1    0    0  501    0  0.00000000000E+00  0.00000000000E+00  0.24364713315E+04  0.24364713315E+04  0.25500000920E-02 0.  1.
       -2   -1    0    0    0  501  0.00000000000E+00  0.00000000000E+00 -0.13584682492E+04  0.13584682492E+04  0.25500000920E-02 0. -1.
    10030    2    1    2    0    0  0.00000000000E+00  0.00000000000E+00  0.10780030823E+04  0.37949395806E+04  0.36386090440E+04 0.  0.
        4    1    3    3  502    0  0.59752835978E+03 -0.37217983342E+02 -0.12527863556E+04  0.13884885972E+04  0.12699999809E+01 0. -1.
       -4    1    3    3    0  502 -0.59752835978E+03  0.37217983342E+02  0.23307894378E+04  0.24064509834E+04  0.12699999809E+01 0.  1.
</event>
<event>
 5   0  0.1468942E-06  0.3607189E+04  0.7818609E-02  0.8088847E-01
       -2   -1    0    0    0  501  0.00000000000E+00  0.00000000000E+00  0.20157875766E+04  0.20157875766E+04  0.25500000920E-02 0. -1.
        2   -1    0    0  501    0  0.00000000000E+00  0.00000000000E+00 -0.16137376137E+04  0.16137376137E+04  0.25500000920E-02 0.  1.
    10030    2    1    2    0    0  0.00000000000E+00  0.00000000000E+00  0.40204996284E+03  0.36295251903E+04  0.36071885083E+04 0.  0.
        2    1    3    3  502    0  0.37484504061E+03 -0.16220317253E+04  0.89919228853E+03  0.18921000223E+04  0.25500000920E-02 0. -1.
       -2    1    3    3    0  502 -0.37484504061E+03  0.16220317253E+04 -0.49714232569E+03  0.17374251680E+04  0.25500000920E-02 0.  1.
</event>
<event>
 5   0  0.1468942E-06  0.3657013E+04  0.7818609E-02  0.8077556E-01
        2   -1    0    0  501    0  0.00000000000E+00  0.00000000000E+00  0.21244684162E+04  0.21244684162E+04  0.25500000920E-02 0.  1.
       -2   -1    0    0    0  501  0.00000000000E+00  0.00000000000E+00 -0.15737750222E+04  0.15737750222E+04  0.25500000920E-02 0. -1.
    10030    2    1    2    0    0  0.00000000000E+00  0.00000000000E+00  0.55069339402E+03  0.36982434383E+04  0.36570126217E+04 0.  0.
        2    1    3    3  502    0 -0.13234129382E+04 -0.10691444729E+04  0.95293349873E+03  0.19500189645E+04  0.25500000920E-02 0. -1.
       -2    1    3    3    0  502  0.13234129382E+04  0.10691444729E+04 -0.40224010471E+03  0.17482244738E+04  0.25500000920E-02 0.  1.
</event>
<event>
 5   0  0.1491854E-06  0.2570065E+04  0.7818609E-02  0.8378441E-01
        2   -1    0    0  501    0  0.00000000000E+00  0.00000000000E+00  0.13077799120E+04  0.13077799120E+04  0.25500000920E-02 0. -1.
       -2   -1    0    0    0  501  0.00000000000E+00  0.00000000000E+00 -0.12626812026E+04  0.12626812026E+04  0.25500000920E-02 0.  1.
    10030    2    1    2    0    0  0.00000000000E+00  0.00000000000E+00  0.45098709372E+02  0.25704611146E+04  0.25700654560E+04 0.  0.
        5    1    3    3  502    0 -0.44409560374E+03  0.35904692925E+02  0.12280468914E+04  0.13063809971E+04  0.46999998093E+01 0. -1.
       -5    1    3    3    0  502  0.44409560374E+03 -0.35904692925E+02 -0.11829481820E+04  0.12640801175E+04  0.46999998093E+01 0.  1.
</event>
<event>
 5   0  0.5071661E-07  0.2616583E+04  0.7818609E-02  0.8362590E-01
        1   -1    0    0  501    0  0.00000000000E+00  0.00000000000E+00  0.12109896058E+04  0.12109896058E+04  0.50400001928E-02 0. -1.
       -1   -1    0    0    0  501  0.00000000000E+00  0.00000000000E+00 -0.14134114444E+04  0.14134114444E+04  0.50400001928E-02 0.  1.
    10030    2    1    2    0    0  0.00000000000E+00  0.00000000000E+00 -0.20242183864E+03  0.26244010503E+04  0.26165829381E+04 0.  0.
        1    1    3    3  502    0  0.72006407613E+03 -0.10791540296E+04  0.68293665176E+02  0.12991265212E+04  0.50400001928E-02 0. -1.
       -1    1    3    3    0  502 -0.72006407613E+03  0.10791540296E+04 -0.27071550381E+03  0.13252745291E+04  0.50400001928E-02 0.  1.
</event>
<event>
 5   0  0.1491854E-06  0.2858498E+04  0.7818609E-02  0.8285334E-01
        2   -1    0    0  501    0  0.00000000000E+00  0.00000000000E+00  0.14470100400E+04  0.14470100400E+04  0.25500000920E-02 0. -1.
       -2   -1    0    0    0  501  0.00000000000E+00  0.00000000000E+00 -0.14117055873E+04  0.14117055873E+04  0.25500000920E-02 0.  1.
    10030    2    1    2    0    0  0.00000000000E+00  0.00000000000E+00  0.35304452700E+02  0.28587156274E+04  0.28584976183E+04 0.  0.
        5    1    3    3  502    0 -0.15637925165E+03 -0.36174544782E+03  0.13915895376E+04  0.14463256101E+04  0.46999998093E+01 0. -1.
       -5    1    3    3    0  502  0.15637925165E+03  0.36174544782E+03 -0.13562850849E+04  0.14123900173E+04  0.46999998093E+01 0.  1.
</event>
<event>
 5   0  0.1444091E-06  0.2276229E+04  0.7818609E-02  0.8487353E-01
       -2   -1    0    0    0  501  0.00000000000E+00  0.00000000000E+00  0.11566896902E+04  0.11566896902E+04  0.25500000920E-02 0. -1.
        2   -1    0    0  501    0  0.00000000000E+00  0.00000000000E+00 -0.11198378645E+04  0.11198378645E+04  0.25500000920E-02 0.  1.
    10030    2    1    2    0    0  0.00000000000E+00  0.00000000000E+00  0.36851825734E+02  0.22765275547E+04  0.22762292614E+04 0.  0.
        1    1    3    3  502    0 -0.11168904701E+04  0.10258754151E+03  0.21167749236E+03  0.11413920828E+04  0.50400001928E-02 0. -1.
       -1    1    3    3    0  502  0.11168904701E+04 -0.10258754151E+03 -0.17482566662E+03  0.11351354719E+04  0.50400001928E-02 0.  1.
</event>
<event>
 5   0  0.4811500E-07  0.3627102E+04  0.7818609E-02  0.8084312E-01
       -1   -1    0    0    0  501  0.00000000000E+00  0.00000000000E+00  0.16600493524E+04  0.16600493524E+04  0.50400001928E-02 0. -1.
        1   -1    0    0  501    0  0.00000000000E+00  0.00000000000E+00 -0.19812468185E+04  0.19812468185E+04  0.50400001928E-02 0.  1.
    10030    2    1    2    0    0  0.00000000000E+00  0.00000000000E+00 -0.32119746611E+03  0.36412961710E+04  0.36271021481E+04 0.  0.
        4    1    3    3  502    0 -0.12237942121E+04 -0.13289641739E+04 -0.13974627599E+01  0.18066049969E+04  0.12699999809E+01 0. -1.
       -4    1    3    3    0  502  0.12237942121E+04  0.13289641739E+04 -0.31980000335E+03  0.18346911741E+04  0.12699999809E+01 0.  1.
</event>
<event>
 5   0  0.4811500E-07  0.3577962E+04  0.7818609E-02  0.8095558E-01
        1   -1    0    0  501    0  0.00000000000E+00  0.00000000000E+00  0.12102928713E+04  0.12102928713E+04  0.50400001928E-02 0. -1.
       -1   -1    0    0    0  501  0.00000000000E+00  0.00000000000E+00 -0.26443625885E+04  0.26443625885E+04  0.50400001928E-02 0.  1.
    10030    2    1    2    0    0  0.00000000000E+00  0.00000000000E+00 -0.14340697172E+04  0.38546554599E+04  0.35779620960E+04 0.  0.
        3    1    3    3  502    0  0.36677000517E+03  0.40845379042E+03  0.11173113720E+04  0.12448853151E+04  0.10100000352E+00 0. -1.
       -3    1    3    3    0  502 -0.36677000517E+03 -0.40845379042E+03 -0.25513810892E+04  0.26097701447E+04  0.10100000352E+00 0.  1.
</event>
<event>
 5   0  0.1491854E-06  0.3584745E+04  0.7818609E-02  0.8093995E-01
        2   -1    0    0  501    0  0.00000000000E+00  0.00000000000E+00  0.17597528264E+04  0.17597528264E+04  0.25500000920E-02 0. -1.
       -2   -1    0    0    0  501  0.00000000000E+00  0.00000000000E+00 -0.18255967435E+04  0.18255967435E+04  0.25500000920E-02 0.  1.
    10030    2    1    2    0    0  0.00000000000E+00  0.00000000000E+00 -0.65843917098E+02  0.35853495699E+04  0.35847449166E+04 0.  0.
        5    1    3    3  502    0 -0.19560015086E+03 -0.17113243937E+04  0.46282921731E+03  0.17835704567E+04  0.46999998093E+01 0. -1.
       -5    1    3    3    0  502  0.19560015086E+03  0.17113243937E+04 -0.52867313440E+03  0.18017791132E+04  0.46999998093E+01 0.  1.
</event>
<event>
 5   0  0.1491854E-06  0.3091614E+04  0.7818609E-02  0.8218043E-01
       -2   -1    0    0    0  501  0.00000000000E+00  0.00000000000E+00  0.17237375074E+04  0.17237375074E+04  0.25500000920E-02 0. -1.
        2   -1    0    0  501    0  0.00000000000E+00  0.00000000000E+00 -0.13862427056E+04  0.13862427056E+04  0.25500000920E-02 0.  1.
    10030    2    1    2    0    0  0.00000000000E+00  0.00000000000E+00  0.33749480176E+03  0.31099802130E+04  0.30916135243E+04 0.  0.
        5    1    3    3  502    0  0.90826205934E+03 -0.72958401059E+03 -0.85329225367E+03  0.14440784456E+04  0.46999998093E+01 0.  1.
       -5    1    3    3    0  502 -0.90826205934E+03  0.72958401059E+03  0.11907870554E+04  0.16659017673E+04  0.46999998093E+01 0. -1.
</event>
<event>
 5   0  0.1468942E-06  0.3420530E+04  0.7818609E-02  0.8132886E-01
       -2   -1    0    0    0  501  0.00000000000E+00  0.00000000000E+00  0.22586943634E+04  0.22586943634E+04  0.25500000920E-02 0. -1.
        2   -1    0    0  501    0  0.00000000000E+00  0.00000000000E+00 -0.12949986524E+04  0.12949986524E+04  0.25500000920E-02 0.  1.
    10030    2    1    2    0    0  0.00000000000E+00  0.00000000000E+00  0.96369571107E+03  0.35536930158E+04  0.34205298752E+04 0.  0.
        2    1    3    3  502    0 -0.77367571997E+03  0.11218046012E+04  0.15555143414E+04  0.20680049684E+04  0.25500000920E-02 0. -1.
       -2    1    3    3    0  502  0.77367571997E+03 -0.11218046012E+04 -0.59181863037E+03  0.14856880474E+04  0.25500000920E-02 0.  1.
</event>
<event>
 5   0  0.1379425E-06  0.3303759E+04  0.7818609E-02  0.8161940E-01
        2   -1    0    0  501    0  0.00000000000E+00  0.00000000000E+00  0.20651281011E+04  0.20651281011E+04  0.25500000920E-02 0.  1.
       -2   -1    0    0    0  501  0.00000000000E+00  0.00000000000E+00 -0.13213252723E+04  0.13213252723E+04  0.25500000920E-02 0. -1.
    10030    2    1    2    0    0  0.00000000000E+00  0.00000000000E+00  0.74380282889E+03  0.33864533734E+04  0.33037590411E+04 0.  0.
        4    1    3    3  502    0  0.11779080611E+03 -0.93324520896E+03  0.17637866273E+04  0.19989412632E+04  0.12699999809E+01 0.  1.
       -4    1    3    3    0  502 -0.11779080611E+03  0.93324520896E+03 -0.10199837984E+04  0.13875121102E+04  0.12699999809E+01 0. -1.
</event>
<event>
 5   0  0.5071661E-07  0.3553123E+04  0.7818609E-02  0.8101315E-01
       -1   -1    0    0    0  501  0.00000000000E+00  0.00000000000E+00  0.17290559997E+04  0.17290559997E+04  0.50400001928E-02 0. -1.
        1   -1    0    0  501    0  0.00000000000E+00  0.00000000000E+00 -0.18253720679E+04  0.18253720679E+04  0.50400001928E-02 0.  1.
    10030    2    1    2    0    0  0.00000000000E+00  0.00000000000E+00 -0.96316068132E+02  0.35544280676E+04  0.35531228663E+04 0.  0.
        1    1    3    3  502    0 -0.17520653168E+03  0.17642748727E+04 -0.16136925982E+03  0.17802817735E+04  0.50400001928E-02 0.  1.
       -1    1    3    3    0  502  0.17520653168E+03 -0.17642748727E+04  0.65053191690E+02  0.17741462941E+04  0.50400001928E-02 0. -1.
</event>
<event>
 5   0  0.5071661E-07  0.3729832E+04  0.7818609E-02  0.8061383E-01
        1   -1    0    0  501    0  0.00000000000E+00  0.00000000000E+00  0.17334799950E+04  0.17334799950E+04  0.50400001928E-02 0. -1.
       -1   -1    0    0    0  501  0.00000000000E+00  0.00000000000E+00 -0.20063181435E+04  0.20063181435E+04  0.50400001928E-02 0.  1.
    10030    2    1    2    0    0  0.00000000000E+00  0.00000000000E+00 -0.27283814845E+03  0.37397981385E+04  0.37298323638E+04 0.  0.
        1    1    3    3  502    0  0.57210670137E+03  0.44456730568E+03  0.15865920683E+04  0.17441962499E+04  0.50400001928E-02 0. -1.
       -1    1    3    3    0  502 -0.57210670137E+03 -0.44456730568E+03 -0.18594302167E+04  0.19956018886E+04  0.50400001928E-02 0.  1.
</event>
<event>
 5   0  0.4811500E-07  0.3539544E+04  0.7818609E-02  0.8104482E-01
       -1   -1    0    0    0  501  0.00000000000E+00  0.00000000000E+00  0.21827949309E+04  0.21827949309E+04  0.50400001928E-02 0. -1.
        1   -1    0    0  501    0  0.00000000000E+00  0.00000000000E+00 -0.14349000111E+04  0.14349000111E+04  0.50400001928E-02 0.  1.
    10030    2    1    2    0    0  0.00000000000E+00  0.00000000000E+00  0.74789491976E+03  0.36176949420E+04  0.35395437393E+04 0.  0.
        3    1    3    3  502    0 -0.47183717958E+03  0.15700844949E+04 -0.30732566854E+03  0.16680062116E+04  0.10100000352E+00 0.  1.
       -3    1    3    3    0  502  0.47183717958E+03 -0.15700844949E+04  0.10552205883E+04  0.19496887304E+04  0.10100000352E+00 0. -1.
</event>
<event>
 5   0  0.1444091E-06  0.3483652E+04  0.7818609E-02  0.8117675E-01
       -2   -1    0    0    0  501  0.00000000000E+00  0.00000000000E+00  0.25209818516E+04  0.25209818516E+04  0.25500000920E-02 0.  1.
        2   -1    0    0  501    0  0.00000000000E+00  0.00000000000E+00 -0.12034822772E+04  0.12034822772E+04  0.25500000920E-02 0. -1.
    10030    2    1    2    0    0  0.00000000000E+00  0.00000000000E+00  0.13174995744E+04  0.37244641288E+04  0.34836515208E+04 0.  0.
        1    1    3    3  502    0  0.39692071594E+03  0.54703160694E+03  0.23750782353E+04  0.24693696074E+04  0.50400001928E-02 0.  1.
       -1    1    3    3    0  502 -0.39692071594E+03 -0.54703160694E+03 -0.10575786609E+04  0.12550945215E+04  0.50400001928E-02 0. -1.
</event>
<event>
 5   0  0.4811500E-07  0.3591276E+04  0.7818609E-02  0.8092493E-01
       -3   -1    0    0    0  501  0.00000000000E+00  0.00000000000E+00  0.27303284032E+04  0.27303284050E+04  0.10100000352E+00 0.  1.
        3   -1    0    0  501    0  0.00000000000E+00  0.00000000000E+00 -0.11809261865E+04  0.11809261908E+04  0.10100000352E+00 0. -1.
    10030    2    1    2    0    0  0.00000000000E+00  0.00000000000E+00  0.15494022167E+04  0.39112545958E+04  0.35912762751E+04 0.  0.
        4    1    3    3  502    0 -0.55316105934E+01 -0.84955238377E+03 -0.94819149037E+03  0.12731215837E+04  0.12699999809E+01 0. -1.
       -4    1    3    3    0  502  0.55316105934E+01  0.84955238377E+03  0.24975937070E+04  0.26381330122E+04  0.12699999809E+01 0.  1.
</event>
<event>
 5   0  0.1379425E-06  0.3670797E+04  0.7818609E-02  0.8074464E-01
       -2   -1    0    0    0  501  0.00000000000E+00  0.00000000000E+00  0.18178128943E+04  0.18178128943E+04  0.25500000920E-02 0. -1.
        2   -1    0    0  501    0  0.00000000000E+00  0.00000000000E+00 -0.18531544691E+04  0.18531544691E+04  0.25500000920E-02 0.  1.
    10030    2    1    2    0    0  0.00000000000E+00  0.00000000000E+00 -0.35341574816E+02  0.36709673633E+04  0.36707972371E+04 0.  0.
        4    1    3    3  502    0  0.13243844500E+04  0.11387775231E+04  0.54616209823E+03  0.18300554825E+04  0.12699999809E+01 0. -1.
       -4    1    3    3    0  502 -0.13243844500E+04 -0.11387775231E+04 -0.58150367304E+03  0.18409118809E+04  0.12699999809E+01 0.  1.
</event>
<event>
 5   0  0.4811500E-07  0.3225097E+04  0.7818609E-02  0.8182220E-01
       -1   -1    0    0    0  501  0.00000000000E+00  0.00000000000E+00  0.14779476202E+04  0.14779476202E+04  0.50400001928E-02 0.  1.
        1   -1    0    0  501    0  0.00000000000E+00  0.00000000000E+00 -0.17594076963E+04  0.17594076963E+04  0.50400001928E-02 0. -1.
    10030    2    1    2    0    0  0.00000000000E+00  0.00000000000E+00 -0.28146007615E+03  0.32373553165E+04  0.32250968467E+04 0.  0.
        4    1    3    3  502    0  0.81375951137E+03  0.13648832347E+04 -0.41599857825E+03  0.16426098797E+04  0.12699999809E+01 0.  1.
       -4    1    3    3    0  502 -0.81375951137E+03 -0.13648832347E+04  0.13453850210E+03  0.15947454368E+04  0.12699999809E+01 0. -1.
</event>
<event>
 5   0  0.4811500E-07  0.3613418E+04  0.7818609E-02  0.8087425E-01
       -1   -1    0    0    0  501  0.00000000000E+00  0.00000000000E+00  0.13433444401E+04  0.13433444401E+04  0.50400001928E-02 0.  1.
        1   -1    0    0  501    0  0.00000000000E+00  0.00000000000E+00 -0.24299032852E+04  0.24299032852E+04  0.50400001928E-02 0. -1.
    10030    2    1    2    0    0  0.00000000000E+00  0.00000000000E+00 -0.10865588452E+04  0.37732477253E+04  0.36134178104E+04 0.  0.
        5    1    3    3  502    0  0.97177213834E+03  0.15186200735E+04 -0.42138140106E+03  0.18515216422E+04  0.46999998093E+01 0.  1.
       -5    1    3    3    0  502 -0.97177213834E+03 -0.15186200735E+04 -0.66517744409E+03  0.19217260831E+04  0.46999998093E+01 0. -1.
</event>
<event>
 5   0  0.1444091E-06  0.3609002E+04  0.7818609E-02  0.8088433E-01
       -2   -1    0    0    0  501  0.00000000000E+00  0.00000000000E+00  0.16594587920E+04  0.16594587920E+04  0.25500000920E-02 0. -1.
        2   -1    0    0  501    0  0.00000000000E+00  0.00000000000E+00 -0.19622198405E+04  0.19622198405E+04  0.25500000920E-02 0.  1.
    10030    2    1    2    0    0  0.00000000000E+00  0.00000000000E+00 -0.30276104849E+03  0.36216786326E+04  0.36090015053E+04 0.  0.
        1    1    3    3  502    0  0.80728415943E+03  0.15809129656E+04  0.17414983110E+03  0.17836259929E+04  0.50400001928E-02 0. -1.
       -1    1    3    3    0  502 -0.80728415943E+03 -0.15809129656E+04 -0.47691087959E+03  0.18380526396E+04  0.50400001928E-02 0.  1.
</event>
<event>
 5   0  0.4811500E-07  0.3602145E+04  0.7818609E-02  0.8090001E-01
       -1   -1    0    0    0  501  0.00000000000E+00  0.00000000000E+00  0.15618165285E+04  0.15618165285E+04  0.50400001928E-02 0. -1.
        1   -1    0    0  501    0  0.00000000000E+00  0.00000000000E+00 -0.20769801959E+04  0.20769801959E+04  0.50400001928E-02 0.  1.
    10030    2    1    2    0    0  0.00000000000E+00  0.00000000000E+00 -0.51516366742E+03  0.36387967245E+04  0.36021449163E+04 0.  0.
        3    1    3    3  502    0  0.48171526153E+03 -0.24644325314E+03 -0.19929313831E+04  0.20650809617E+04  0.10100000352E+00 0.  1.
       -3    1    3    3    0  502 -0.48171526153E+03  0.24644325314E+03  0.14777677157E+04  0.15737157628E+04  0.10100000352E+00 0. -1.
</event>
<event>
 5   0  0.1468942E-06  0.2811994E+04  0.7818609E-02  0.8299554E-01
       -2   -1    0    0    0  501  0.00000000000E+00  0.00000000000E+00  0.14436317741E+04  0.14436317741E+04  0.25500000920E-02 0. -1.
        2   -1    0    0  501    0  0.00000000000E+00  0.00000000000E+00 -0.13693438115E+04  0.13693438115E+04  0.25500000920E-02 0.  1.
    10030    2    1    2    0    0  0.00000000000E+00  0.00000000000E+00  0.74287962604E+02  0.28129755855E+04  0.28119944778E+04 0.  0.
        2    1    3    3  502    0 -0.83843321174E+03 -0.93194188072E+03 -0.59974314705E+03  0.13896682201E+04  0.25500000920E-02 0.  1.
       -2    1    3    3    0  502  0.83843321174E+03  0.93194188072E+03  0.67403110965E+03  0.14233073654E+04  0.25500000920E-02 0. -1.
</event>
<event>
 5   0  0.1468942E-06  0.3563696E+04  0.7818609E-02  0.8098859E-01
        2   -1    0    0  501    0  0.00000000000E+00  0.00000000000E+00  0.22136316693E+04  0.22136316693E+04  0.25500000920E-02 0.  1.
       -2   -1    0    0    0  501  0.00000000000E+00  0.00000000000E+00 -0.14342866504E+04  0.14342866504E+04  0.25500000920E-02 0. -1.
    10030    2    1    2    0    0  0.00000000000E+00  0.00000000000E+00  0.77934501891E+03  0.36479183197E+04  0.35636960321E+04 0.  0.
        2    1    3    3  502    0  0.60438372805E+03  0.60716910978E+03 -0.12096374485E+04  0.14822809368E+04  0.25500000920E-02 0. -1.
       -2    1    3    3    0  502 -0.60438372805E+03 -0.60716910978E+03  0.19889824675E+04  0.21656373830E+04  0.25500000920E-02 0.  1.
</event>
<event>
 5   0  0.1379425E-06  0.3583954E+04  0.7818609E-02  0.8094177E-01
       -2   -1    0    0    0  501  0.00000000000E+00  0.00000000000E+00  0.20427874508E+04  0.20427874508E+04  0.25500000920E-02 0.  1.
        2   -1    0    0  501    0  0.00000000000E+00  0.00000000000E+00 -0.15719610160E+04  0.15719610160E+04  0.25500000920E-02 0. -1.
    10030    2    1    2    0    0  0.00000000000E+00  0.00000000000E+00  0.47082643480E+03  0.36147484668E+04  0.35839543728E+04 0.  0.
        4    1    3    3  502    0  0.81055212795E+03  0.15940179583E+04  0.11912896444E+03  0.17922280342E+04  0.12699999809E+01 0. -1.
       -4    1    3    3    0  502 -0.81055212795E+03 -0.15940179583E+04  0.35169747037E+03  0.18225204326E+04  0.12699999809E+01 0.  1.
</event>
<event>
 5   0  0.1505671E-06  0.3563145E+04  0.7818609E-02  0.8098986E-01
       -2   -1    0    0    0  501  0.00000000000E+00  0.00000000000E+00  0.11587516989E+04  0.11587516989E+04  0.25500000920E-02 0. -1.
        2   -1    0    0  501    0  0.00000000000E+00  0.00000000000E+00 -0.27391546646E+04  0.27391546646E+04  0.25500000920E-02 0.  1.
    10030    2    1    2    0    0  0.00000000000E+00  0.00000000000E+00 -0.15804029657E+04  0.38979063635E+04  0.35631447465E+04 0.  0.
        3    1    3    3  502    0  0.37495481257E+03 -0.33504100971E+03  0.10795132535E+04  0.11908788622E+04  0.10100000352E+00 0. -1.
       -3    1    3    3    0  502 -0.37495481257E+03  0.33504100971E+03 -0.26599162192E+04  0.27070275013E+04  0.10100000352E+00 0.  1.
</event>
<event>
 5   0  0.1444091E-06  0.3627830E+04  0.7818609E-02  0.8084146E-01
       -2   -1    0    0    0  501  0.00000000000E+00  0.00000000000E+00  0.17731718874E+04  0.17731718874E+04  0.25500000920E-02 0. -1.
        2   -1    0    0  501    0  0.00000000000E+00  0.00000000000E+00 -0.18555944711E+04  0.18555944711E+04  0.25500000920E-02 0.  1.
    10030    2    1    2    0    0  0.00000000000E+00  0.00000000000E+00 -0.82422583635E+02  0.36287663585E+04  0.36278301782E+04 0.  0.
        1    1    3    3  502    0 -0.10118551234E+04 -0.94122858515E+03  0.11340497455E+04  0.17876886937E+04  0.50400001928E-02 0. -1.
       -1    1    3    3    0  502  0.10118551234E+04  0.94122858515E+03 -0.12164723291E+04  0.18410776648E+04  0.50400001928E-02 0.  1.
</event>
<event>
 5   0  0.1491854E-06  0.3607080E+04  0.7818609E-02  0.8088872E-01
        2   -1    0    0  501    0  0.00000000000E+00  0.00000000000E+00  0.17673174899E+04  0.17673174899E+04  0.25500000920E-02 0.  1.
       -2   -1    0    0    0  501  0.00000000000E+00  0.00000000000E+00 -0.18405047047E+04  0.18405047047E+04  0.25500000920E-02 0. -1.
    10030    2    1    2    0    0  0.00000000000E+00  0.00000000000E+00 -0.73187214774E+02  0.36078221946E+04  0.36070797911E+04 0.  0.
        5    1    3    3  502    0 -0.38071915990E+03 -0.14433266961E+04 -0.10490247600E+04  0.18244489765E+04  0.46999998093E+01 0.  1.
       -5    1    3    3    0  502  0.38071915990E+03  0.14433266961E+04  0.97583754527E+03  0.17833732182E+04  0.46999998093E+01 0. -1.
</event>
<event>
 5   0  0.4811500E-07  0.3532521E+04  0.7818609E-02  0.8106126E-01
       -1   -1    0    0    0  501  0.00000000000E+00  0.00000000000E+00  0.20701671805E+04  0.20701671805E+04  0.50400001928E-02 0. -1.
        1   -1    0    0  501    0  0.00000000000E+00  0.00000000000E+00 -0.15069685797E+04  0.15069685797E+04  0.50400001928E-02 0.  1.
    10030    2    1    2    0    0  0.00000000000E+00  0.00000000000E+00  0.56319860077E+03  0.35771357602E+04  0.35325214200E+04 0.  0.
        4    1    3    3  502    0  0.12514183176E+04  0.10913471431E+04  0.89135780395E+03  0.18845707044E+04  0.12699999809E+01 0. -1.
       -4    1    3    3    0  502 -0.12514183176E+04 -0.10913471431E+04 -0.32815920318E+03  0.16925650558E+04  0.12699999809E+01 0.  1.
</event>
<event>
 5   0  0.4811500E-07  0.3617172E+04  0.7818609E-02  0.8086569E-01
        1   -1    0    0  501    0  0.00000000000E+00  0.00000000000E+00  0.25434730528E+04  0.25434730528E+04  0.50400001928E-02 0.  1.
       -1   -1    0    0    0  501  0.00000000000E+00  0.00000000000E+00 -0.12860306162E+04  0.12860306162E+04  0.50400001928E-02 0. -1.
    10030    2    1    2    0    0  0.00000000000E+00  0.00000000000E+00  0.12574424367E+04  0.38295036690E+04  0.36171724965E+04 0.  0.
        5    1    3    3  502    0 -0.75105004057E+03  0.70709942524E+03  0.22014876811E+04  0.24311799317E+04  0.46999998093E+01 0.  1.
       -5    1    3    3    0  502  0.75105004057E+03 -0.70709942524E+03 -0.94404524442E+03  0.13983237372E+04  0.46999998093E+01 0. -1.
</event>
<event>
 5   0  0.1379425E-06  0.3625269E+04  0.7818609E-02  0.8084728E-01
       -2   -1    0    0    0  501  0.00000000000E+00  0.00000000000E+00  0.15604613218E+04  0.15604613218E+04  0.25500000920E-02 0. -1.
        2   -1    0    0  501    0  0.00000000000E+00  0.00000000000E+00 -0.21055591180E+04  0.21055591180E+04  0.25500000920E-02 0.  1.
    10030    2    1    2    0    0  0.00000000000E+00  0.00000000000E+00 -0.54509779622E+03  0.36660204399E+04  0.36252688532E+04 0.  0.
        4    1    3    3  502    0 -0.14073603520E+03 -0.10909420195E+04  0.11843685668E+04  0.16163822681E+04  0.12699999809E+01 0. -1.
       -4    1    3    3    0  502  0.14073603520E+03  0.10909420195E+04 -0.17294663630E+04  0.20496381718E+04  0.12699999809E+01 0.  1.
</event>
<event>
 5   0  0.1468942E-06  0.3613281E+04  0.7818609E-02  0.8087456E-01
        2   -1    0    0  501    0  0.00000000000E+00  0.00000000000E+00  0.17454975588E+04  0.17454975588E+04  0.25500000920E-02 0.  1.
       -2   -1    0    0    0  501  0.00000000000E+00  0.00000000000E+00 -0.18699247156E+04  0.18699247156E+04  0.25500000920E-02 0. -1.
    10030    2    1    2    0    0  0.00000000000E+00  0.00000000000E+00 -0.12442715684E+03  0.36154222744E+04  0.36132805184E+04 0.  0.
        2    1    3    3  502    0  0.22651880681E+03  0.26297590238E+03  0.17118240777E+04  0.17466564540E+04  0.25500000920E-02 0.  1.
       -2    1    3    3    0  502 -0.22651880681E+03 -0.26297590238E+03 -0.18362512346E+04  0.18687658204E+04  0.25500000920E-02 0. -1.
</event>
<event>
 5   0  0.4811500E-07  0.2525967E+04  0.7818609E-02  0.8393793E-01
        1   -1    0    0  501    0  0.00000000000E+00  0.00000000000E+00  0.11206104321E+04  0.11206104321E+04  0.50400001928E-02 0.  1.
       -1   -1    0    0    0  501  0.00000000000E+00  0.00000000000E+00 -0.14234451119E+04  0.14234451119E+04  0.50400001928E-02 0. -1.
    10030    2    1    2    0    0  0.00000000000E+00  0.00000000000E+00 -0.30283467982E+03  0.25440555441E+04  0.25259670956E+04 0.  0.
        5    1    3    3  502    0  0.10680695213E+04  0.31188108744E+02 -0.82955923001E+03  0.13527511991E+04  0.46999998093E+01 0. -1.
       -5    1    3    3    0  502 -0.10680695213E+04 -0.31188108744E+02  0.52672455018E+03  0.11913043450E+04  0.46999998093E+01 0.  1.
</event>
<event>
 5   0  0.4811500E-07  0.3541390E+04  0.7818609E-02  0.8104051E-01
        1   -1    0    0  501    0  0.00000000000E+00  0.00000000000E+00  0.10434202582E+04  0.10434202582E+04  0.50400001928E-02 0. -1.
       -1   -1    0    0    0  501  0.00000000000E+00  0.00000000000E+00 -0.30048870472E+04  0.30048870472E+04  0.50400001928E-02 0.  1.
    10030    2    1    2    0    0  0.00000000000E+00  0.00000000000E+00 -0.19614667890E+04  0.40483073054E+04  0.35413895683E+04 0.  0.
        2    1    3    3  502    0  0.17483716404E+04  0.27821812315E+03 -0.94194566884E+03  0.20053604065E+04  0.25500000920E-02 0. -1.
       -2    1    3    3    0  502 -0.17483716404E+04 -0.27821812315E+03 -0.10195211202E+04  0.20429468988E+04  0.25500000920E-02 0.  1.
</event>
<event>
 5   0  0.1491854E-06  0.2582635E+04  0.7818609E-02  0.8374124E-01
        2   -1    0    0  501    0  0.00000000000E+00  0.00000000000E+00  0.11306623540E+04  0.11306623540E+04  0.25500000920E-02 0. -1.
       -2   -1    0    0    0  501  0.00000000000E+00  0.00000000000E+00 -0.14748001393E+04  0.14748001393E+04  0.25500000920E-02 0.  1.
    10030    2    1    2    0    0  0.00000000000E+00  0.00000000000E+00 -0.34413778531E+03  0.26054624933E+04  0.25826350863E+04 0.  0.
        5    1    3    3  502    0 -0.70992908227E+03 -0.39224250468E+03 -0.11857513198E+04  0.14366216505E+04  0.46999998093E+01 0.  1.
       -5    1    3    3    0  502  0.70992908227E+03  0.39224250468E+03  0.84161353450E+03  0.11688408428E+04  0.46999998093E+01 0. -1.
</event>
<event>
 5   0  0.4811500E-07  0.4018623E+04  0.7818609E-02  0.8000800E-01
        1   -1    0    0  501    0  0.00000000000E+00  0.00000000000E+00  0.17128008214E+04  0.17128008214E+04  0.50400001928E-02 0.  1.
       -1   -1    0    0    0  501  0.00000000000E+00  0.00000000000E+00 -0.23571527782E+04  0.23571527782E+04  0.50400001928E-02 0. -1.
    10030    2    1    2    0    0  0.00000000000E+00  0.00000000000E+00 -0.64435195678E+03  0.40699535996E+04  0.40186232541E+04 0.  0.
        2    1    3    3  502    0 -0.14202400495E+04 -0.10118520697E+03 -0.17580343178E+04  0.22623007994E+04  0.25500000920E-02 0. -1.
       -2    1    3    3    0  502  0.14202400495E+04  0.10118520697E+03  0.11136823611E+04  0.18076528001E+04  0.25500000920E-02 0.  1.
</event>
<event>
 5   0  0.4811500E-07  0.3555572E+04  0.7818609E-02  0.8100745E-01
       -1   -1    0    0    0  501  0.00000000000E+00  0.00000000000E+00  0.22770986523E+04  0.22770986523E+04  0.50400001928E-02 0.  1.
        1   -1    0    0  501    0  0.00000000000E+00  0.00000000000E+00 -0.13879604081E+04  0.13879604081E+04  0.50400001928E-02 0. -1.
    10030    2    1    2    0    0  0.00000000000E+00  0.00000000000E+00  0.88913824424E+03  0.36650590604E+04  0.35555718385E+04 0.  0.
        3    1    3    3  502    0 -0.84554727100E+03 -0.13872240093E+04 -0.29959079837E+03  0.16519973657E+04  0.10100000352E+00 0.  1.
       -3    1    3    3    0  502  0.84554727100E+03  0.13872240093E+04  0.11887290426E+04  0.20130616947E+04  0.10100000352E+00 0. -1.
</event>
<event>
 5   0  0.5071661E-07  0.3617341E+04  0.7818609E-02  0.8086531E-01
        1   -1    0    0  501    0  0.00000000000E+00  0.00000000000E+00  0.23112856528E+04  0.23112856528E+04  0.50400001928E-02 0. -1.
       -1   -1    0    0    0  501  0.00000000000E+00  0.00000000000E+00 -0.14153546723E+04  0.14153546723E+04  0.50400001928E-02 0.  1.
    10030    2    1    2    0    0  0.00000000000E+00  0.00000000000E+00  0.89593098055E+03  0.37266403251E+04  0.36173409835E+04 0.  0.
        1    1    3    3  502    0  0.12250769261E+03  0.14057559656E+04  0.16135807754E+04  0.21435486671E+04  0.50400001928E-02 0. -1.
       -1    1    3    3    0  502 -0.12250769261E+03 -0.14057559656E+04 -0.71764979480E+03  0.15830916580E+04  0.50400001928E-02 0.  1.
</event>
<event>
 5   0  0.1444091E-06  0.3598626E+04  0.7818609E-02  0.8090807E-01
        2   -1    0    0  501    0  0.00000000000E+00  0.00000000000E+00  0.13171329320E+04  0.13171329320E+04  0.25500000920E-02 0. -1.
       -2   -1    0    0    0  501  0.00000000000E+00  0.00000000000E+00 -0.24580109197E+04  0.24580109197E+04  0.25500000920E-02 0.  1.
    10030    2    1    2    0    0  0.00000000000E+00  0.00000000000E+00 -0.11408779876E+04  0.37751438517E+04  0.35986259209E+04 0.  0.
        1    1    3    3  502    0 -0.26517690678E+03  0.10289645060E+04 -0.20937110109E+04  0.23479166390E+04  0.50400001928E-02 0.  1.
       -1    1    3    3    0  502  0.26517690678E+03 -0.10289645060E+04  0.95283302326E+03  0.14272272127E+04  0.50400001928E-02 0. -1.
</event>
<event>
 5   0  0.4811500E-07  0.3532107E+04  0.7818609E-02  0.8106223E-01
       -3   -1    0    0    0  501  0.00000000000E+00  0.00000000000E+00  0.26051188990E+04  0.26051189010E+04  0.10100000352E+00 0.  1.
        3   -1    0    0  501    0  0.00000000000E+00  0.00000000000E+00 -0.11972374012E+04  0.11972374055E+04  0.10100000352E+00 0. -1.
    10030    2    1    2    0    0  0.00000000000E+00  0.00000000000E+00  0.14078814978E+04  0.38023563064E+04  0.35321074686E+04 0.  0.
        1    1    3    3  502    0  0.99464412975E+03 -0.13072058911E+04  0.14022989478E+04  0.21597561264E+04  0.50400001928E-02 0.  1.
       -1    1    3    3    0  502 -0.99464412975E+03  0.13072058911E+04  0.55825499519E+01  0.16426001800E+04  0.50400001928E-02 0. -1.
</event>
<event>
 5   0  0.1505671E-06  0.3454716E+04  0.7818609E-02  0.8124606E-01
       -2   -1    0    0    0  501  0.00000000000E+00  0.00000000000E+00  0.12849377481E+04  0.12849377481E+04  0.25500000920E-02 0. -1.
        2   -1    0    0  501    0  0.00000000000E+00  0.00000000000E+00 -0.23221091965E+04  0.23221091965E+04  0.25500000920E-02 0.  1.
    10030    2    1    2    0    0  0.00000000000E+00  0.00000000000E+00 -0.10371714484E+04  0.36070469446E+04  0.34547160588E+04 0.  0.
        3    1    3    3  502    0 -0.11703702668E+04  0.66882716358E+03  0.60916559092E+03  0.14792494933E+04  0.10100000352E+00 0. -1.
       -3    1    3    3    0  502  0.11703702668E+04 -0.66882716358E+03 -0.16463370394E+04  0.21277974513E+04  0.10100000352E+00 0.  1.
</event>
<event>
 5   0  0.1491854E-06  0.3619664E+04  0.7818609E-02  0.8086002E-01
       -2   -1    0    0    0  501  0.00000000000E+00  0.00000000000E+00  0.12293854635E+04  0.12293854635E+04  0.25500000920E-02 0.  1.
        2   -1    0    0  501    0  0.00000000000E+00  0.00000000000E+00 -0.26643331972E+04  0.26643331972E+04  0.25500000920E-02 0. -1.
    10030    2    1    2    0    0  0.00000000000E+00  0.00000000000E+00 -0.14349477337E+04  0.38937186607E+04  0.36196643505E+04 0.  0.
        5    1    3    3  502    0  0.97310495199E+03 -0.12964508885E+04 -0.15832402848E+04  0.22659192491E+04  0.46999998093E+01 0. -1.
       -5    1    3    3    0  502 -0.97310495199E+03  0.12964508885E+04  0.14829255110E+03  0.16277994117E+04  0.46999998093E+01 0.  1.
</event>
<event>
 5   0  0.1379425E-06  0.3582861E+04  0.7818609E-02  0.8094429E-01
        2   -1    0    0  501    0  0.00000000000E+00  0.00000000000E+00  0.22225448728E+04  0.22225448728E+04  0.25500000920E-02 0.  1.
       -2   -1    0    0    0  501  0.00000000000E+00  0.00000000000E+00 -0.14439409201E+04  0.14439409201E+04  0.25500000920E-02 0. -1.
    10030    2    1    2    0    0  0.00000000000E+00  0.00000000000E+00  0.77860395269E+03  0.36664857930E+04  0.35828611409E+04 0.  0.
        4    1    3    3  502    0  0.45286409587E+03  0.29642902895E+03 -0.13582640107E+04  0.14621350123E+04  0.12699999809E+01 0. -1.
       -4    1    3    3    0  502 -0.45286409587E+03 -0.29642902895E+03  0.21368679634E+04  0.22043507807E+04  0.12699999809E+01 0.  1.
</event>
<event>
 5   0  0.1444091E-06  0.3402700E+04  0.7818609E-02  0.8137244E-01
       -2   -1    0    0    0  501  0.00000000000E+00  0.00000000000E+00  0.14773255620E+04  0.14773255620E+04  0.25500000920E-02 0.  1.
        2   -1    0    0  501    0  0.00000000000E+00  0.00000000000E+00 -0.19593460823E+04  0.19593460823E+04  0.25500000920E-02 0. -1.
    10030    2    1    2    0    0  0.00000000000E+00  0.00000000000E+00 -0.48202052032E+03  0.34366716443E+04  0.34027001350E+04 0.  0.
        1    1    3    3  502    0  0.14647212405E+04 -0.66739983970E+03 -0.79765807276E+03  0.17964101033E+04  0.50400001928E-02 0. -1.
       -1    1    3    3    0  502 -0.14647212405E+04  0.66739983970E+03  0.31563755244E+03  0.16402615410E+04  0.50400001928E-02 0.  1.
</event>
<event>
 5   0  0.4811500E-07  0.3261786E+04  0.7818609E-02  0.8172688E-01
       -1   -1    0    0    0  501  0.00000000000E+00  0.00000000000E+00  0.15254337856E+04  0.15254337856E+04  0.50400001928E-02 0. -1.
        1   -1    0    0  501    0  0.00000000000E+00  0.00000000000E+00 -0.17436431109E+04  0.17436431109E+04  0.50400001928E-02 0.  1.
    10030    2    1    2    0    0  0.00000000000E+00  0.00000000000E+00 -0.21820932524E+03  0.32690768965E+04  0.32617860822E+04 0.  0.
        2    1    3    3  502    0  0.93779374741E+03  0.25417331159E+03  0.12036899388E+04  0.15469100341E+04  0.25500000920E-02 0. -1.
       -2    1    3    3    0  502 -0.93779374741E+03 -0.25417331159E+03 -0.14218992640E+04  0.17221668624E+04  0.25500000920E-02 0.  1.
</event>
<event>
 5   0  0.4811500E-07  0.3573201E+04  0.7818609E-02  0.8096658E-01
        1   -1    0    0  501    0  0.00000000000E+00  0.00000000000E+00  0.20034376905E+04  0.20034376905E+04  0.50400001928E-02 0.  1.
       -1   -1    0    0    0  501  0.00000000000E+00  0.00000000000E+00 -0.15932324733E+04  0.15932324733E+04  0.50400001928E-02 0. -1.
    10030    2    1    2    0    0  0.00000000000E+00  0.00000000000E+00  0.41020521723E+03  0.35966701638E+04  0.35732013583E+04 0.  0.
        3    1    3    3  502    0  0.17326555599E+02  0.17573180294E+04  0.52889084858E+03  0.18352635794E+04  0.10100000352E+00 0.  1.
       -3    1    3    3    0  502 -0.17326555599E+02 -0.17573180294E+04 -0.11868563135E+03  0.17614065843E+04  0.10100000352E+00 0. -1.
</event>
<event>
 5   0  0.1505671E-06  0.3592455E+04  0.7818609E-02  0.8092222E-01
        2   -1    0    0  501    0  0.00000000000E+00  0.00000000000E+00  0.17111029270E+04  0.17111029270E+04  0.25500000920E-02 0. -1.
       -2   -1    0    0    0  501  0.00000000000E+00  0.00000000000E+00 -0.18855864874E+04  0.18855864874E+04  0.25500000920E-02 0.  1.
    10030    2    1    2    0    0  0.00000000000E+00  0.00000000000E+00 -0.17448356046E+03  0.35966894144E+04  0.35924546247E+04 0.  0.
        3    1    3    3  502    0  0.17074591561E+04  0.76562694882E+02  0.46581679465E+03  0.17715145815E+04  0.10100000352E+00 0. -1.
       -3    1    3    3    0  502 -0.17074591561E+04 -0.76562694882E+02 -0.64030035511E+03  0.18251748330E+04  0.10100000352E+00 0.  1.
</event>
<event>
 5   0  0.1505671E-06  0.3761490E+04  0.7818609E-02  0.8054470E-01
       -2   -1    0    0    0  501  0.00000000000E+00  0.00000000000E+00  0.18933402799E+04  0.18933402799E+04  0.25500000920E-02 0. -1.
        2   -1    0    0  501    0  0.00000000000E+00  0.00000000000E+00 -0.18682335954E+04  0.18682335954E+04  0.25500000920E-02 0.  1.
    10030    2    1    2    0    0  0.00000000000E+00  0.00000000000E+00  0.25106684477E+02  0.37615738753E+04  0.37614900868E+04 0.  0.
        3    1    3    3  502    0 -0.11390162913E+03  0.57452337776E+03 -0.17747053180E+04  0.18688578514E+04  0.10100000352E+00 0.  1.
       -3    1    3    3    0  502  0.11390162913E+03 -0.57452337776E+03  0.17998120025E+04  0.18927160239E+04  0.10100000352E+00 0. -1.
</event>
<event>
 5   0  0.4811500E-07  0.3494147E+04  0.7818609E-02  0.8115179E-01
        1   -1    0    0  501    0  0.00000000000E+00  0.00000000000E+00  0.98927982714E+03  0.98927982715E+03  0.50400001928E-02 0.  1.
       -1   -1    0    0    0  501  0.00000000000E+00  0.00000000000E+00 -0.30853404698E+04  0.30853404698E+04  0.50400001928E-02 0. -1.
    10030    2    1    2    0    0  0.00000000000E+00  0.00000000000E+00 -0.20960606426E+04  0.40746202969E+04  0.34941465834E+04 0.  0.
        2    1    3    3  502    0  0.70074366345E+03 -0.14668680534E+04 -0.17942803960E+04  0.24211950990E+04  0.25500000920E-02 0. -1.
       -2    1    3    3    0  502 -0.70074366345E+03  0.14668680534E+04 -0.30178024659E+03  0.16534251979E+04  0.25500000920E-02 0.  1.
</event>
<event>
 5   0  0.5071661E-07  0.3631359E+04  0.7818609E-02  0.8083346E-01
       -1   -1    0    0    0  501  0.00000000000E+00  0.00000000000E+00  0.15967191182E+04  0.15967191183E+04  0.50400001928E-02 0.  1.
        1   -1    0    0  501    0  0.00000000000E+00  0.00000000000E+00 -0.20646661388E+04  0.20646661388E+04  0.50400001928E-02 0. -1.
    10030    2    1    2    0    0  0.00000000000E+00  0.00000000000E+00 -0.46794702056E+03  0.36613852571E+04  0.36313589174E+04 0.  0.
        1    1    3    3  502    0  0.13781227392E+04  0.10981020039E+04 -0.67536214696E+03  0.18871047466E+04  0.50400001928E-02 0. -1.
       -1    1    3    3    0  502 -0.13781227392E+04 -0.10981020039E+04  0.20741512640E+03  0.17742805105E+04  0.50400001928E-02 0.  1.
</event>
<event>
 5   0  0.1491854E-06  0.3327737E+04  0.7818609E-02  0.8155873E-01
       -2   -1    0    0    0  501  0.00000000000E+00  0.00000000000E+00  0.11153265546E+04  0.11153265546E+04  0.25500000920E-02 0.  1.
        2   -1    0    0  501    0  0.00000000000E+00  0.00000000000E+00 -0.24821952493E+04  0.24821952493E+04  0.25500000920E-02 0. -1.
    10030    2    1    2    0    0  0.00000000000E+00  0.00000000000E+00 -0.13668686947E+04  0.35975218039E+04  0.33277369338E+04 0.  0.
        5    1    3    3  502    0 -0.10600110415E+04 -0.21432576387E+02 -0.20697177738E+04  0.23254755463E+04  0.46999998093E+01 0. -1.
       -5    1    3    3    0  502  0.10600110415E+04  0.21432576387E+02  0.70284907909E+03  0.12720462576E+04  0.46999998093E+01 0.  1.
</event>
<event>
 5   0  0.4811500E-07  0.3574598E+04  0.7818609E-02  0.8096335E-01
       -1   -1    0    0    0  501  0.00000000000E+00  0.00000000000E+00  0.17297675911E+04  0.17297675911E+04  0.50400001928E-02 0.  1.
        1   -1    0    0  501    0  0.00000000000E+00  0.00000000000E+00 -0.18467440789E+04  0.18467440789E+04  0.50400001928E-02 0. -1.
    10030    2    1    2    0    0  0.00000000000E+00  0.00000000000E+00 -0.11697648775E+03  0.35765116700E+04  0.35745981910E+04 0.  0.
        4    1    3    3  502    0  0.14096657356E+03  0.11401814250E+04  0.13113871575E+04  0.17434515039E+04  0.12699999809E+01 0.  1.
       -4    1    3    3    0  502 -0.14096657356E+03 -0.11401814250E+04 -0.14283636452E+04  0.18330601661E+04  0.12699999809E+01 0. -1.
</event>
<event>
 5   0  0.5071661E-07  0.3567892E+04  0.7818609E-02  0.8097886E-01
        1   -1    0    0  501    0  0.00000000000E+00  0.00000000000E+00  0.16866529606E+04  0.16866529606E+04  0.50400001928E-02 0.  1.
       -1   -1    0    0    0  501  0.00000000000E+00  0.00000000000E+00 -0.18868515402E+04  0.18868515402E+04  0.50400001928E-02 0. -1.
    10030    2    1    2    0    0  0.00000000000E+00  0.00000000000E+00 -0.20019857962E+03  0.35735045008E+04  0.35678922273E+04 0.  0.
        1    1    3    3  502    0 -0.33498589898E+03  0.44470690056E+03 -0.17976056564E+04  0.18818517146E+04  0.50400001928E-02 0. -1.
       -1    1    3    3    0  502  0.33498589898E+03 -0.44470690056E+03  0.15974070768E+04  0.16916527862E+04  0.50400001928E-02 0.  1.
</event>
<event>
 5   0  0.1379425E-06  0.3624927E+04  0.7818609E-02  0.8084806E-01
       -2   -1    0    0    0  501  0.00000000000E+00  0.00000000000E+00  0.13856112029E+04  0.13856112029E+04  0.25500000920E-02 0. -1.
        2   -1    0    0  501    0  0.00000000000E+00  0.00000000000E+00 -0.23708115814E+04  0.23708115814E+04  0.25500000920E-02 0.  1.
    10030    2    1    2    0    0  0.00000000000E+00  0.00000000000E+00 -0.98520037847E+03  0.37564227843E+04  0.36249265301E+04 0.  0.
        4    1    3    3  502    0  0.12313558849E+04  0.10126214902E+04  0.40087241739E+03  0.16438795289E+04  0.12699999809E+01 0. -1.
       -4    1    3    3    0  502 -0.12313558849E+04 -0.10126214902E+04 -0.13860727959E+04  0.21125432554E+04  0.12699999809E+01 0.  1.
</event>
<event>
 5   0  0.5071661E-07  0.2951933E+04  0.7818609E-02  0.8257591E-01
        1   -1    0    0  501    0  0.00000000000E+00  0.00000000000E+00  0.15703149197E+04  0.15703149197E+04  0.50400001928E-02 0. -1.
       -1   -1    0    0    0  501  0.00000000000E+00  0.00000000000E+00 -0.13872866145E+04  0.13872866145E+04  0.50400001928E-02 0.  1.
    10030    2    1    2    0    0  0.00000000000E+00  0.00000000000E+00  0.18302830513E+03  0.29576015342E+04  0.29519328371E+04 0.  0.
        1    1    3    3  502    0  0.75037208677E+03  0.78676432271E+03 -0.90861138728E+03  0.14169089672E+04  0.50400001928E-02 0.  1.
       -1    1    3    3    0  502 -0.75037208677E+03 -0.78676432271E+03  0.10916396924E+04  0.15406925671E+04  0.50400001928E-02 0. -1.
</event>
<event>
 5   0  0.5071661E-07  0.3658888E+04  0.7818609E-02  0.8077134E-01
        1   -1    0    0  501    0  0.00000000000E+00  0.00000000000E+00  0.13979853372E+04  0.13979853372E+04  0.50400001928E-02 0.  1.
       -1   -1    0    0    0  501  0.00000000000E+00  0.00000000000E+00 -0.23940631577E+04  0.23940631577E+04  0.50400001928E-02 0. -1.
    10030    2    1    2    0    0  0.00000000000E+00  0.00000000000E+00 -0.99607782047E+03  0.37920484949E+04  0.36588879134E+04 0.  0.
        1    1    3    3  502    0  0.43850108224E+03  0.90106798778E+02  0.13403444269E+04  0.14131261858E+04  0.50400001928E-02 0.  1.
       -1    1    3    3    0  502 -0.43850108224E+03 -0.90106798778E+02 -0.23364222474E+04  0.23789223090E+04  0.50400001928E-02 0. -1.
</event>
<event>
 5   0  0.5071661E-07  0.3358676E+04  0.7818609E-02  0.8148124E-01
        1   -1    0    0  501    0  0.00000000000E+00  0.00000000000E+00  0.17479547477E+04  0.17479547477E+04  0.50400001928E-02 0.  1.
       -1   -1    0    0    0  501  0.00000000000E+00  0.00000000000E+00 -0.16134151573E+04  0.16134151573E+04  0.50400001928E-02 0. -1.
    10030    2    1    2    0    0  0.00000000000E+00  0.00000000000E+00  0.13453959040E+03  0.33613699050E+04  0.33586763370E+04 0.  0.
        1    1    3    3  502    0 -0.24103545868E+03 -0.21671964848E+03 -0.15818111077E+04  0.16146801165E+04  0.50400001928E-02 0. -1.
       -1    1    3    3    0  502  0.24103545868E+03  0.21671964848E+03  0.17163506981E+04  0.17466897885E+04  0.50400001928E-02 0.  1.
</event>
<event>
 5   0  0.4811500E-07  0.3601483E+04  0.7818609E-02  0.8090152E-01
        1   -1    0    0  501    0  0.00000000000E+00  0.00000000000E+00  0.18224902086E+04  0.18224902086E+04  0.50400001928E-02 0.  1.
       -1   -1    0    0    0  501  0.00000000000E+00  0.00000000000E+00 -0.17792526962E+04  0.17792526962E+04  0.50400001928E-02 0. -1.
    10030    2    1    2    0    0  0.00000000000E+00  0.00000000000E+00  0.43237512403E+02  0.36017429047E+04  0.36014833707E+04 0.  0.
        5    1    3    3  502    0 -0.93403904468E+03  0.42870944735E+03  0.15003827445E+04  0.18186234347E+04  0.46999998093E+01 0.  1.
       -5    1    3    3    0  502  0.93403904468E+03 -0.42870944735E+03 -0.14571452321E+04  0.17831194701E+04  0.46999998093E+01 0. -1.
</event>
<event>
 5   0  0.4811500E-07  0.3631129E+04  0.7818609E-02  0.8083398E-01
       -1   -1    0    0    0  501  0.00000000000E+00  0.00000000000E+00  0.21545904622E+04  0.21545904622E+04  0.50400001928E-02 0. -1.
        1   -1    0    0  501    0  0.00000000000E+00  0.00000000000E+00 -0.15298844103E+04  0.15298844103E+04  0.50400001928E-02 0.  1.
    10030    2    1    2    0    0  0.00000000000E+00  0.00000000000E+00  0.62470605188E+03  0.36844748726E+04  0.36311289478E+04 0.  0.
        5    1    3    3  502    0  0.90751856946E+03  0.15724612485E+04  0.31771622377E+03  0.18431467713E+04  0.46999998093E+01 0. -1.
       -5    1    3    3    0  502 -0.90751856946E+03 -0.15724612485E+04  0.30698982811E+03  0.18413281012E+04  0.46999998093E+01 0.  1.
</event>
<event>
 5   0  0.4811500E-07  0.3606962E+04  0.7818609E-02  0.8088899E-01
       -1   -1    0    0    0  501  0.00000000000E+00  0.00000000000E+00  0.20793483869E+04  0.20793483869E+04  0.50400001928E-02 0.  1.
        1   -1    0    0  501    0  0.00000000000E+00  0.00000000000E+00 -0.15642130834E+04  0.15642130834E+04  0.50400001928E-02 0. -1.
    10030    2    1    2    0    0  0.00000000000E+00  0.00000000000E+00  0.51513530346E+03  0.36435614703E+04  0.36069621299E+04 0.  0.
        2    1    3    3  502    0  0.97978594294E+03  0.14370483869E+04 -0.22419445347E+03  0.17536680739E+04  0.25500000920E-02 0. -1.
       -2    1    3    3    0  502 -0.97978594294E+03 -0.14370483869E+04  0.73932975693E+03  0.18898933964E+04  0.25500000920E-02 0.  1.
</event>
<event>
 5   0  0.4811500E-07  0.3157143E+04  0.7818609E-02  0.8200228E-01
       -1   -1    0    0    0  501  0.00000000000E+00  0.00000000000E+00  0.18732307937E+04  0.18732307937E+04  0.50400001928E-02 0.  1.
        1   -1    0    0  501    0  0.00000000000E+00  0.00000000000E+00 -0.13302617797E+04  0.13302617797E+04  0.50400001928E-02 0. -1.
    10030    2    1    2    0    0  0.00000000000E+00  0.00000000000E+00  0.54296901394E+03  0.32034925734E+04  0.31571425875E+04 0.  0.
        2    1    3    3  502    0  0.15687780653E+04  0.16187938467E+03  0.34043636306E+03  0.16134331317E+04  0.25500000920E-02 0.  1.
       -2    1    3    3    0  502 -0.15687780653E+04 -0.16187938467E+03  0.20253265088E+03  0.15900594416E+04  0.25500000920E-02 0. -1.
</event>
<event>
 5   0  0.4811500E-07  0.2757447E+04  0.7818609E-02  0.8316602E-01
       -1   -1    0    0    0  501  0.00000000000E+00  0.00000000000E+00  0.15733927123E+04  0.15733927123E+04  0.50400001928E-02 0. -1.
        1   -1    0    0  501    0  0.00000000000E+00  0.00000000000E+00 -0.12081402619E+04  0.12081402620E+04  0.50400001928E-02 0.  1.
    10030    2    1    2    0    0  0.00000000000E+00  0.00000000000E+00  0.36525245038E+03  0.27815329743E+04  0.27574474310E+04 0.  0.
        2    1    3    3  502    0 -0.14612414332E+03 -0.67460405566E+03  0.13865485563E+04  0.15488575778E+04  0.25500000920E-02 0. -1.
       -2    1    3    3    0  502  0.14612414332E+03  0.67460405566E+03 -0.10212961059E+04  0.12326753965E+04  0.25500000920E-02 0.  1.
</event>
<event>
 5   0  0.1505671E-06  0.3613401E+04  0.7818609E-02  0.8087429E-01
       -2   -1    0    0    0  501  0.00000000000E+00  0.00000000000E+00  0.22673892128E+04  0.22673892128E+04  0.25500000920E-02 0. -1.
        2   -1    0    0  501    0  0.00000000000E+00  0.00000000000E+00 -0.14396142607E+04  0.14396142607E+04  0.25500000920E-02 0.  1.
    10030    2    1    2    0    0  0.00000000000E+00  0.00000000000E+00  0.82777495216E+03  0.37070034735E+04  0.36134005287E+04 0.  0.
        3    1    3    3  502    0 -0.33115773941E+03 -0.15989427458E+04  0.12071461027E+04  0.20306366184E+04  0.10100000352E+00 0. -1.
       -3    1    3    3    0  502  0.33115773941E+03  0.15989427458E+04 -0.37937115050E+03  0.16763668551E+04  0.10100000352E+00 0.  1.
</event>
<event>
 5   0  0.5071661E-07  0.3556515E+04  0.7818609E-02  0.8100526E-01
       -1   -1    0    0    0  501  0.00000000000E+00  0.00000000000E+00  0.19734163326E+04  0.19734163326E+04  0.50400001928E-02 0.  1.
        1   -1    0    0  501    0  0.00000000000E+00  0.00000000000E+00 -0.16023984643E+04  0.16023984644E+04  0.50400001928E-02 0. -1.
    10030    2    1    2    0    0  0.00000000000E+00  0.00000000000E+00  0.37101786822E+03  0.35758147969E+04  0.35565147551E+04 0.  0.
        1    1    3    3  502    0 -0.15065923350E+04  0.17499818228E+00 -0.76427545263E+03  0.16893600747E+04  0.50400001928E-02 0. -1.
       -1    1    3    3    0  502  0.15065923350E+04 -0.17499818228E+00  0.11352933209E+04  0.18864547222E+04  0.50400001928E-02 0.  1.
</event>
<event>
 5   0  0.4811500E-07  0.3604417E+04  0.7818609E-02  0.8089481E-01
        1   -1    0    0  501    0  0.00000000000E+00  0.00000000000E+00  0.28012224988E+04  0.28012224989E+04  0.50400001928E-02 0.  1.
       -1   -1    0    0    0  501  0.00000000000E+00  0.00000000000E+00 -0.11594779540E+04  0.11594779541E+04  0.50400001928E-02 0. -1.
    10030    2    1    2    0    0  0.00000000000E+00  0.00000000000E+00  0.16417445448E+04  0.39607004529E+04  0.36044171411E+04 0.  0.
        5    1    3    3  502    0  0.41284115811E+03 -0.17537881997E+04  0.86648128674E+03  0.19992555568E+04  0.46999998093E+01 0. -1.
       -5    1    3    3    0  502 -0.41284115811E+03  0.17537881997E+04  0.77526325806E+03  0.19614448961E+04  0.46999998093E+01 0.  1.
</event>
<event>
 5   0  0.1505671E-06  0.3623561E+04  0.7818609E-02  0.8085116E-01
       -2   -1    0    0    0  501  0.00000000000E+00  0.00000000000E+00  0.11716694204E+04  0.11716694204E+04  0.25500000920E-02 0.  1.
        2   -1    0    0  501    0  0.00000000000E+00  0.00000000000E+00 -0.28015990492E+04  0.28015990492E+04  0.25500000920E-02 0. -1.
    10030    2    1    2    0    0  0.00000000000E+00  0.00000000000E+00 -0.16299296288E+04  0.39732684696E+04  0.36235606434E+04 0.  0.
        3    1    3    3  502    0  0.14174548433E+04  0.11282784226E+04 -0.79423259533E+03  0.19781293833E+04  0.10100000352E+00 0.  1.
       -3    1    3    3    0  502 -0.14174548433E+04 -0.11282784226E+04 -0.83569703343E+03  0.19951390862E+04  0.10100000352E+00 0. -1.
</event>
<event>
 5   0  0.4811500E-07  0.3650221E+04  0.7818609E-02  0.8079084E-01
        1   -1    0    0  501    0  0.00000000000E+00  0.00000000000E+00  0.18852292068E+04  0.18852292068E+04  0.50400001928E-02 0.  1.
       -1   -1    0    0    0  501  0.00000000000E+00  0.00000000000E+00 -0.17669085286E+04  0.17669085286E+04  0.50400001928E-02 0. -1.
    10030    2    1    2    0    0  0.00000000000E+00  0.00000000000E+00  0.11832067821E+03  0.36521377354E+04  0.36502205762E+04 0.  0.
        4    1    3    3  502    0  0.12592351275E+04 -0.13155539595E+04  0.18034630673E+03  0.18299950082E+04  0.12699999809E+01 0. -1.
       -4    1    3    3    0  502 -0.12592351275E+04  0.13155539595E+04 -0.62025628521E+02  0.18221427272E+04  0.12699999809E+01 0.  1.
</event>
<event>
 5   0  0.1379425E-06  0.3579835E+04  0.7818609E-02  0.8095126E-01
       -2   -1    0    0    0  501  0.00000000000E+00  0.00000000000E+00  0.13449475554E+04  0.13449475554E+04  0.25500000920E-02 0. -1.
        2   -1    0    0  501    0  0.00000000000E+00  0.00000000000E+00 -0.23821035811E+04  0.23821035811E+04  0.25500000920E-02 0.  1.
    10030    2    1    2    0    0  0.00000000000E+00  0.00000000000E+00 -0.10371560256E+04  0.37270511365E+04  0.35798348499E+04 0.  0.
        4    1    3    3  502    0 -0.94223359222E+03 -0.61526709125E+03  0.93058438152E+03  0.14602556762E+04  0.12699999809E+01 0. -1.
       -4    1    3    3    0  502  0.94223359222E+03  0.61526709125E+03 -0.19677404071E+04  0.22667954603E+04  0.12699999809E+01 0.  1.
</event>
<event>
 5   0  0.1444091E-06  0.2529358E+04  0.7818609E-02  0.8392601E-01
        2   -1    0    0  501    0  0.00000000000E+00  0.00000000000E+00  0.17853993673E+04  0.17853993673E+04  0.25500000920E-02 0. -1.
       -2   -1    0    0    0  501  0.00000000000E+00  0.00000000000E+00 -0.89582922143E+03  0.89582922143E+03  0.25500000920E-02 0.  1.
    10030    2    1    2    0    0  0.00000000000E+00  0.00000000000E+00  0.88957014590E+03  0.26812285888E+04  0.25293579622E+04 0.  0.
        1    1    3    3  502    0 -0.29117789547E+03 -0.60036395860E+02  0.17478295050E+04  0.17729345488E+04  0.50400001928E-02 0. -1.
       -1    1    3    3    0  502  0.29117789547E+03  0.60036395860E+02 -0.85825935909E+03  0.90829404001E+03  0.50400001928E-02 0.  1.
</event>
<event>
 5   0  0.4811500E-07  0.3555453E+04  0.7818609E-02  0.8100773E-01
        1   -1    0    0  501    0  0.00000000000E+00  0.00000000000E+00  0.11818453802E+04  0.11818453802E+04  0.50400001928E-02 0.  1.
       -1   -1    0    0    0  501  0.00000000000E+00  0.00000000000E+00 -0.26740480192E+04  0.26740480192E+04  0.50400001928E-02 0. -1.
    10030    2    1    2    0    0  0.00000000000E+00  0.00000000000E+00 -0.14922026390E+04  0.38558933993E+04  0.35554528813E+04 0.  0.
        3    1    3    3  502    0  0.53886773669E+03  0.15490100366E+04 -0.14899939466E+04  0.22158277239E+04  0.10100000352E+00 0. -1.
       -3    1    3    3    0  502 -0.53886773669E+03 -0.15490100366E+04 -0.22086923988E+01  0.16400656754E+04  0.10100000352E+00 0.  1.
</event>
<event>
 5   0  0.1505671E-06  0.3636412E+04  0.7818609E-02  0.8082202E-01
        2   -1    0    0  501    0  0.00000000000E+00  0.00000000000E+00  0.20799728788E+04  0.20799728789E+04  0.25500000920E-02 0.  1.
       -2   -1    0    0    0  501  0.00000000000E+00  0.00000000000E+00 -0.15893831788E+04  0.15893831788E+04  0.25500000920E-02 0. -1.
    10030    2    1    2    0    0  0.00000000000E+00  0.00000000000E+00  0.49058970008E+03  0.36693560576E+04  0.36364124661E+04 0.  0.
        3    1    3    3  502    0  0.12247297474E+04  0.13303150792E+04  0.43720916483E+03  0.18603368051E+04  0.10100000352E+00 0. -1.
       -3    1    3    3    0  502 -0.12247297474E+04 -0.13303150792E+04  0.53380535245E+02  0.18090192525E+04  0.10100000352E+00 0.  1.
</event>
<event>
 5   0  0.4811500E-07  0.3602232E+04  0.7818609E-02  0.8089981E-01
       -1   -1    0    0    0  501  0.00000000000E+00  0.00000000000E+00  0.13798867871E+04  0.13798867871E+04  0.50400001928E-02 0.  1.
        1   -1    0    0  501    0  0.00000000000E+00  0.00000000000E+00 -0.23509314613E+04  0.23509314613E+04  0.50400001928E-02 0. -1.
    10030    2    1    2    0    0  0.00000000000E+00  0.00000000000E+00 -0.97104467421E+03  0.37308182484E+04  0.36022322306E+04 0.  0.
        4    1    3    3  502    0 -0.15178243195E+04  0.82998481873E+03 -0.10047690023E+04  0.20005568787E+04  0.12699999809E+01 0. -1.
       -4    1    3    3    0  502  0.15178243195E+04 -0.82998481873E+03  0.33724328090E+02  0.17302613697E+04  0.12699999809E+01 0.  1.
</event>
<event>
 5   0  0.1468942E-06  0.3346881E+04  0.7818609E-02  0.8151068E-01
        2   -1    0    0  501    0  0.00000000000E+00  0.00000000000E+00  0.25103175893E+04  0.25103175893E+04  0.25500000920E-02 0. -1.
       -2   -1    0    0    0  501  0.00000000000E+00  0.00000000000E+00 -0.11155573237E+04  0.11155573237E+04  0.25500000920E-02 0.  1.
    10030    2    1    2    0    0  0.00000000000E+00  0.00000000000E+00  0.13947602656E+04  0.36258749129E+04  0.33468810385E+04 0.  0.
        2    1    3    3  502    0 -0.13080659178E+04  0.92842326327E+03  0.18076767028E+03  0.16142128582E+04  0.25500000920E-02 0.  1.
       -2    1    3    3    0  502  0.13080659178E+04 -0.92842326327E+03  0.12139925953E+04  0.20116620547E+04  0.25500000920E-02 0. -1.
</event>
<event>
 5   0  0.4811500E-07  0.3629113E+04  0.7818609E-02  0.8083855E-01
       -1   -1    0    0    0  501  0.00000000000E+00  0.00000000000E+00  0.28139505153E+04  0.28139505153E+04  0.50400001928E-02 0. -1.
        1   -1    0    0  501    0  0.00000000000E+00  0.00000000000E+00 -0.11701039501E+04  0.11701039501E+04  0.50400001928E-02 0.  1.
    10030    2    1    2    0    0  0.00000000000E+00  0.00000000000E+00  0.16438465653E+04  0.39840544654E+04  0.36291126261E+04 0.  0.
        4    1    3    3  502    0 -0.13428149197E+04 -0.11512490598E+03 -0.51190063881E+03  0.14416828810E+04  0.12699999809E+01 0.  1.
       -4    1    3    3    0  502  0.13428149197E+04  0.11512490598E+03  0.21557472041E+04  0.25423715844E+04  0.12699999809E+01 0. -1.
</event>
<event>
 5   0  0.4811500E-07  0.3555532E+04  0.7818609E-02  0.8100754E-01
        1   -1    0    0  501    0  0.00000000000E+00  0.00000000000E+00  0.21845887697E+04  0.21845887697E+04  0.50400001928E-02 0.  1.
       -1   -1    0    0    0  501  0.00000000000E+00  0.00000000000E+00 -0.14467036216E+04  0.14467036216E+04  0.50400001928E-02 0. -1.
    10030    2    1    2    0    0  0.00000000000E+00  0.00000000000E+00  0.73788514812E+03  0.36312923913E+04  0.35555323004E+04 0.  0.
        4    1    3    3  502    0 -0.11640326870E+04 -0.41932434456E+03  0.16727192620E+04  0.20805759647E+04  0.12699999809E+01 0.  1.
       -4    1    3    3    0  502  0.11640326870E+04  0.41932434456E+03 -0.93483411392E+03  0.15507164266E+04  0.12699999809E+01 0. -1.
</event>
<event>
 5   0  0.4811500E-07  0.3457314E+04  0.7818609E-02  0.8123981E-01
        1   -1    0    0  501    0  0.00000000000E+00  0.00000000000E+00  0.23047480916E+04  0.23047480916E+04  0.50400001928E-02 0. -1.
       -1   -1    0    0    0  501  0.00000000000E+00  0.00000000000E+00 -0.12965643492E+04  0.12965643492E+04  0.50400001928E-02 0.  1.
    10030    2    1    2    0    0  0.00000000000E+00  0.00000000000E+00  0.10081837424E+04  0.36013124408E+04  0.34573135290E+04 0.  0.
        2    1    3    3  502    0  0.34787326563E+03  0.48794106687E+03 -0.11849090099E+04  0.13278221475E+04  0.25500000920E-02 0.  1.
       -2    1    3    3    0  502 -0.34787326563E+03 -0.48794106687E+03  0.21930927522E+04  0.22734902933E+04  0.25500000920E-02 0. -1.
</event>
<event>
 5   0  0.1468942E-06  0.3620653E+04  0.7818609E-02  0.8085777E-01
       -2   -1    0    0    0  501  0.00000000000E+00  0.00000000000E+00  0.18014835105E+04  0.18014835105E+04  0.25500000920E-02 0. -1.
        2   -1    0    0  501    0  0.00000000000E+00  0.00000000000E+00 -0.18192131916E+04  0.18192131916E+04  0.25500000920E-02 0.  1.
    10030    2    1    2    0    0  0.00000000000E+00  0.00000000000E+00 -0.17729681148E+02  0.36206967021E+04  0.36206532928E+04 0.  0.
        2    1    3    3  502    0  0.27999561867E+03 -0.44649167656E+03  0.17230711075E+04  0.18018674772E+04  0.25500000920E-02 0. -1.
       -2    1    3    3    0  502 -0.27999561867E+03  0.44649167656E+03 -0.17408007886E+04  0.18188292249E+04  0.25500000920E-02 0.  1.
</event>
<event>
 5   0  0.1444091E-06  0.3617565E+04  0.7818609E-02  0.8086480E-01
       -2   -1    0    0    0  501  0.00000000000E+00  0.00000000000E+00  0.14366931486E+04  0.14366931486E+04  0.25500000920E-02 0. -1.
        2   -1    0    0  501    0  0.00000000000E+00  0.00000000000E+00 -0.22772394821E+04  0.22772394821E+04  0.25500000920E-02 0.  1.
    10030    2    1    2    0    0  0.00000000000E+00  0.00000000000E+00 -0.84054633347E+03  0.37139326307E+04  0.36175651268E+04 0.  0.
        1    1    3    3  502    0 -0.28435340439E+03 -0.17637294334E+04 -0.71082461646E+03  0.19227246314E+04  0.50400001928E-02 0. -1.
       -1    1    3    3    0  502  0.28435340439E+03  0.17637294334E+04 -0.12972171701E+03  0.17912079993E+04  0.50400001928E-02 0.  1.
</event>
<event>
 5   0  0.1491854E-06  0.2849028E+04  0.7818609E-02  0.8288207E-01
        2   -1    0    0  501    0  0.00000000000E+00  0.00000000000E+00  0.64763476545E+03  0.64763476546E+03  0.25500000920E-02 0.  1.
       -2   -1    0    0    0  501  0.00000000000E+00  0.00000000000E+00 -0.31333083635E+04  0.31333083635E+04  0.25500000920E-02 0. -1.
    10030    2    1    2    0    0  0.00000000000E+00  0.00000000000E+00 -0.24856735981E+04  0.37809431290E+04  0.28490275022E+04 0.  0.
        5    1    3    3  502    0 -0.92702573705E+03  0.81336940344E+03 -0.21889674188E+04  0.25124782495E+04  0.46999998093E+01 0. -1.
       -5    1    3    3    0  502  0.92702573705E+03 -0.81336940344E+03 -0.29670617922E+03  0.12684648794E+04  0.46999998093E+01 0.  1.
</event>
<event>
 5   0  0.1444091E-06  0.3564110E+04  0.7818609E-02  0.8098763E-01
       -2   -1    0    0    0  501  0.00000000000E+00  0.00000000000E+00  0.97705775905E+03  0.97705775905E+03  0.25500000920E-02 0. -1.
        2   -1    0    0  501    0  0.00000000000E+00  0.00000000000E+00 -0.32502885078E+04  0.32502885078E+04  0.25500000920E-02 0.  1.
    10030    2    1    2    0    0  0.00000000000E+00  0.00000000000E+00 -0.22732307488E+04  0.42273462669E+04  0.35641097658E+04 0.  0.
        1    1    3    3  502    0  0.91545678369E+03  0.86367659535E+03  0.35979343193E+03  0.13089880434E+04  0.50400001928E-02 0. -1.
       -1    1    3    3    0  502 -0.91545678369E+03 -0.86367659535E+03 -0.26330241807E+04  0.29183582235E+04  0.50400001928E-02 0.  1.
</event>
<event>
 5   0  0.5071661E-07  0.3311307E+04  0.7818609E-02  0.8160024E-01
        1   -1    0    0  501    0  0.00000000000E+00  0.00000000000E+00  0.28398903515E+04  0.28398903515E+04  0.50400001928E-02 0. -1.
       -1   -1    0    0    0  501  0.00000000000E+00  0.00000000000E+00 -0.96524472726E+03  0.96524472728E+03  0.50400001928E-02 0.  1.
    10030    2    1    2    0    0  0.00000000000E+00  0.00000000000E+00  0.18746456243E+04  0.38051350788E+04  0.33113074082E+04 0.  0.
        1    1    3    3  502    0  0.13407474393E+04  0.77844061933E+03  0.16050236034E+04  0.22315183758E+04  0.50400001928E-02 0.  1.
       -1    1    3    3    0  502 -0.13407474393E+04 -0.77844061933E+03  0.26962202087E+03  0.15736167030E+04  0.50400001928E-02 0. -1.
</event>
<event>
 5   0  0.1491854E-06  0.3513044E+04  0.7818609E-02  0.8110706E-01
        2   -1    0    0  501    0  0.00000000000E+00  0.00000000000E+00  0.15553872384E+04  0.15553872384E+04  0.25500000920E-02 0. -1.
       -2   -1    0    0    0  501  0.00000000000E+00  0.00000000000E+00 -0.19836669145E+04  0.19836669145E+04  0.25500000920E-02 0.  1.
    10030    2    1    2    0    0  0.00000000000E+00  0.00000000000E+00 -0.42827967606E+03  0.35390541529E+04  0.35130443800E+04 0.  0.
        5    1    3    3  502    0  0.37496687484E+03  0.68253804226E+02  0.15132240582E+04  0.15604896280E+04  0.46999998093E+01 0. -1.
       -5    1    3    3    0  502 -0.37496687484E+03 -0.68253804226E+02 -0.19415037342E+04  0.19785645248E+04  0.46999998093E+01 0.  1.
</event>
<event>
 5   0  0.4811500E-07  0.3437509E+04  0.7818609E-02  0.8128761E-01
        3   -1    0    0  501    0  0.00000000000E+00  0.00000000000E+00  0.19378629565E+04  0.19378629591E+04  0.10100000352E+00 0.  1.
       -3   -1    0    0    0  501  0.00000000000E+00  0.00000000000E+00 -0.15244197266E+04  0.15244197299E+04  0.10100000352E+00 0. -1.
    10030    2    1    2    0    0  0.00000000000E+00  0.00000000000E+00  0.41344322992E+03  0.34622826891E+04  0.34375087076E+04 0.  0.
        2    1    3    3  502    0  0.13745821047E+04 -0.36065554579E+03 -0.76697621911E+03  0.16148686962E+04  0.25500000920E-02 0. -1.
       -2    1    3    3    0  502 -0.13745821047E+04  0.36065554579E+03  0.11804194490E+04  0.18474139929E+04  0.25500000920E-02 0.  1.
</event>
<event>
 5   0  0.1379425E-06  0.3580694E+04  0.7818609E-02  0.8094928E-01
        2   -1    0    0  501    0  0.00000000000E+00  0.00000000000E+00  0.21083657345E+04  0.21083657345E+04  0.25500000920E-02 0.  1.
       -2   -1    0    0    0  501  0.00000000000E+00  0.00000000000E+00 -0.15202973576E+04  0.15202973576E+04  0.25500000920E-02 0. -1.
    10030    2    1    2    0    0  0.00000000000E+00  0.00000000000E+00  0.58806837695E+03  0.36286630921E+04  0.35806942651E+04 0.  0.
        4    1    3    3  502    0 -0.35894627556E+03  0.76878194653E+03 -0.13036242704E+04  0.15554118302E+04  0.12699999809E+01 0. -1.
       -4    1    3    3    0  502  0.35894627556E+03 -0.76878194653E+03  0.18916926474E+04  0.20732512619E+04  0.12699999809E+01 0.  1.
</event>
<event>
 5   0  0.1379425E-06  0.2921816E+04  0.7818609E-02  0.8266416E-01
        2   -1    0    0  501    0  0.00000000000E+00  0.00000000000E+00  0.17296932092E+04  0.17296932092E+04  0.25500000920E-02 0. -1.
       -2   -1    0    0    0  501  0.00000000000E+00  0.00000000000E+00 -0.12338907608E+04  0.12338907608E+04  0.25500000920E-02 0.  1.
    10030    2    1    2    0    0  0.00000000000E+00  0.00000000000E+00  0.49580244839E+03  0.29635839701E+04  0.29218161954E+04 0.  0.
        4    1    3    3  502    0  0.71046658632E+03  0.55700050502E+03  0.14129014446E+04  0.16766944975E+04  0.12699999809E+01 0. -1.
       -4    1    3    3    0  502 -0.71046658632E+03 -0.55700050502E+03 -0.91709899622E+03  0.12868894726E+04  0.12699999809E+01 0.  1.
</event>
<event>
 5   0  0.4811500E-07  0.3596200E+04  0.7818609E-02  0.8091363E-01
        1   -1    0    0  501    0  0.00000000000E+00  0.00000000000E+00  0.27545682101E+04  0.27545682101E+04  0.50400001928E-02 0.  1.
       -1   -1    0    0    0  501  0.00000000000E+00  0.00000000000E+00 -0.11737459270E+04  0.11737459270E+04  0.50400001928E-02 0. -1.
    10030    2    1    2    0    0  0.00000000000E+00  0.00000000000E+00  0.15808222831E+04  0.39283141371E+04  0.35961997815E+04 0.  0.
        2    1    3    3  502    0  0.41967393076E+03 -0.11046250327E+04  0.22708760859E+04  0.25599220435E+04  0.25500000920E-02 0.  1.
       -2    1    3    3    0  502 -0.41967393076E+03  0.11046250327E+04 -0.69005380281E+03  0.13683920936E+04  0.25500000920E-02 0. -1.
</event>
<event>
 5   0  0.5071661E-07  0.3610462E+04  0.7818609E-02  0.8088099E-01
       -1   -1    0    0    0  501  0.00000000000E+00  0.00000000000E+00  0.11450101513E+04  0.11450101513E+04  0.50400001928E-02 0.  1.
        1   -1    0    0  501    0  0.00000000000E+00  0.00000000000E+00 -0.28461401503E+04  0.28461401503E+04  0.50400001928E-02 0. -1.
    10030    2    1    2    0    0  0.00000000000E+00  0.00000000000E+00 -0.17011299991E+04  0.39911503016E+04  0.36104622220E+04 0.  0.
        1    1    3    3  502    0 -0.12819600120E+04  0.12481846080E+04 -0.58555180438E+03  0.18826197715E+04  0.50400001928E-02 0. -1.
       -1    1    3    3    0  502  0.12819600120E+04 -0.12481846080E+04 -0.11155781947E+04  0.21085305302E+04  0.50400001928E-02 0.  1.
</event>
<event>
 5   0  0.4811500E-07  0.3613192E+04  0.7818609E-02  0.8087477E-01
       -1   -1    0    0    0  501  0.00000000000E+00  0.00000000000E+00  0.25354475661E+04  0.25354475661E+04  0.50400001928E-02 0.  1.
        1   -1    0    0  501    0  0.00000000000E+00  0.00000000000E+00 -0.12872634530E+04  0.12872634530E+04  0.50400001928E-02 0. -1.
    10030    2    1    2    0    0  0.00000000000E+00  0.00000000000E+00  0.12481841131E+04  0.38227110191E+04  0.36131919345E+04 0.  0.
        5    1    3    3  502    0 -0.10052374850E+03 -0.10407365264E+04  0.21827946874E+04  0.24203000390E+04  0.46999998093E+01 0.  1.
       -5    1    3    3    0  502  0.10052374850E+03  0.10407365264E+04 -0.93461057434E+03  0.14024109801E+04  0.46999998093E+01 0. -1.
</event>
<event>
 5   0  0.1379425E-06  0.3494020E+04  0.7818609E-02  0.8115209E-01
       -2   -1    0    0    0  501  0.00000000000E+00  0.00000000000E+00  0.19396822634E+04  0.19396822634E+04  0.25500000920E-02 0.  1.
        2   -1    0    0  501    0  0.00000000000E+00  0.00000000000E+00 -0.15734761085E+04  0.15734761085E+04  0.25500000920E-02 0. -1.
    10030    2    1    2    0    0  0.00000000000E+00  0.00000000000E+00  0.36620615494E+03  0.35131583719E+04  0.34940198623E+04 0.  0.
        4    1    3    3  502    0  0.85885733475E+03  0.23873806748E+02 -0.13463588296E+04  0.15971504598E+04  0.12699999809E+01 0. -1.
       -4    1    3    3    0  502 -0.85885733475E+03 -0.23873806748E+02  0.17125649846E+04  0.19160079122E+04  0.12699999809E+01 0.  1.
</event>
<event>
 5   0  0.1491854E-06  0.3571036E+04  0.7818609E-02  0.8097159E-01
       -2   -1    0    0    0  501  0.00000000000E+00  0.00000000000E+00  0.12764073057E+04  0.12764073057E+04  0.25500000920E-02 0. -1.
        2   -1    0    0  501    0  0.00000000000E+00  0.00000000000E+00 -0.24976934886E+04  0.24976934886E+04  0.25500000920E-02 0.  1.
    10030    2    1    2    0    0  0.00000000000E+00  0.00000000000E+00 -0.12212861829E+04  0.37741007943E+04  0.35710358252E+04 0.  0.
        5    1    3    3  502    0 -0.70675630663E+03 -0.12433137876E+04 -0.17404101614E+04  0.22526391791E+04  0.46999998093E+01 0.  1.
       -5    1    3    3    0  502  0.70675630663E+03  0.12433137876E+04  0.51912397845E+03  0.15214616152E+04  0.46999998093E+01 0. -1.
</event>
<event>
 5   0  0.1444091E-06  0.2627376E+04  0.7818609E-02  0.8358961E-01
       -2   -1    0    0    0  501  0.00000000000E+00  0.00000000000E+00  0.97463188957E+03  0.97463188957E+03  0.25500000920E-02 0. -1.
        2   -1    0    0  501    0  0.00000000000E+00  0.00000000000E+00 -0.17706959939E+04  0.17706959939E+04  0.25500000920E-02 0.  1.
    10030    2    1    2    0    0  0.00000000000E+00  0.00000000000E+00 -0.79606410430E+03  0.27453278834E+04  0.26273764727E+04 0.  0.
        1    1    3    3  502    0  0.96347214743E+03  0.37710093286E+03 -0.12438749530E+04  0.16179334322E+04  0.50400001928E-02 0.  1.
       -1    1    3    3    0  502 -0.96347214743E+03 -0.37710093286E+03  0.44781084867E+03  0.11273944512E+04  0.50400001928E-02 0. -1.
</event>
<event>
 5   0  0.1444091E-06  0.3517495E+04  0.7818609E-02  0.8109656E-01
       -2   -1    0    0    0  501  0.00000000000E+00  0.00000000000E+00  0.11444499594E+04  0.11444499594E+04  0.25500000920E-02 0. -1.
        2   -1    0    0  501    0  0.00000000000E+00  0.00000000000E+00 -0.27027773111E+04  0.27027773111E+04  0.25500000920E-02 0.  1.
    10030    2    1    2    0    0  0.00000000000E+00  0.00000000000E+00 -0.15583273517E+04  0.38472272706E+04  0.35174953499E+04 0.  0.
        1    1    3    3  502    0  0.13973335962E+04  0.99700615736E+01  0.38891476587E+03  0.14504810500E+04  0.50400001928E-02 0. -1.
       -1    1    3    3    0  502 -0.13973335962E+04 -0.99700615736E+01 -0.19472421176E+04  0.23967462206E+04  0.50400001928E-02 0.  1.
</event>
<event>
 5   0  0.4811500E-07  0.2867801E+04  0.7818609E-02  0.8282522E-01
        1   -1    0    0  501    0  0.00000000000E+00  0.00000000000E+00  0.21060066137E+04  0.21060066137E+04  0.50400001928E-02 0. -1.
       -1   -1    0    0    0  501  0.00000000000E+00  0.00000000000E+00 -0.97628905031E+03  0.97628905033E+03  0.50400001928E-02 0.  1.
    10030    2    1    2    0    0  0.00000000000E+00  0.00000000000E+00  0.11297175634E+04  0.30822956641E+04  0.28678013857E+04 0.  0.
        5    1    3    3  502    0 -0.11420278877E+04  0.11396087245E+03  0.14887030284E+04  0.18797535938E+04  0.46999998093E+01 0. -1.
       -5    1    3    3    0  502  0.11420278877E+04 -0.11396087245E+03 -0.35898546498E+03  0.12025420703E+04  0.46999998093E+01 0.  1.
</event>
<event>
 5   0  0.4811500E-07  0.3575822E+04  0.7818609E-02  0.8096053E-01
       -1   -1    0    0    0  501  0.00000000000E+00  0.00000000000E+00  0.14809113446E+04  0.14809113446E+04  0.50400001928E-02 0. -1.
        1   -1    0    0  501    0  0.00000000000E+00  0.00000000000E+00 -0.21585530275E+04  0.21585530275E+04  0.50400001928E-02 0.  1.
    10030    2    1    2    0    0  0.00000000000E+00  0.00000000000E+00 -0.67764168292E+03  0.36394643721E+04  0.35758219566E+04 0.  0.
        5    1    3    3  502    0 -0.38999704131E+03  0.16180727393E+04  0.32575252693E+03  0.16959934790E+04  0.46999998093E+01 0. -1.
       -5    1    3    3    0  502  0.38999704131E+03 -0.16180727393E+04 -0.10033942099E+04  0.19434708931E+04  0.46999998093E+01 0.  1.
</event>
<event>
 5   0  0.1379425E-06  0.3691429E+04  0.7818609E-02  0.8069864E-01
        2   -1    0    0  501    0  0.00000000000E+00  0.00000000000E+00  0.19381127259E+04  0.19381127259E+04  0.25500000920E-02 0. -1.
       -2   -1    0    0    0  501  0.00000000000E+00  0.00000000000E+00 -0.17577215720E+04  0.17577215720E+04  0.25500000920E-02 0.  1.
    10030    2    1    2    0    0  0.00000000000E+00  0.00000000000E+00  0.18039115394E+03  0.36958342979E+04  0.36914292881E+04 0.  0.
        4    1    3    3  502    0 -0.13789956271E+04  0.47528465461E+03 -0.10421432060E+04  0.17926484645E+04  0.12699999809E+01 0.  1.
       -4    1    3    3    0  502  0.13789956271E+04 -0.47528465461E+03  0.12225343600E+04  0.19031858334E+04  0.12699999809E+01 0. -1.
</event>
<event>
 5   0  0.4811500E-07  0.3220045E+04  0.7818609E-02  0.8183543E-01
       -1   -1    0    0    0  501  0.00000000000E+00  0.00000000000E+00  0.12995841239E+04  0.12995841239E+04  0.50400001928E-02 0.  1.
        1   -1    0    0  501    0  0.00000000000E+00  0.00000000000E+00 -0.19946171626E+04  0.19946171626E+04  0.50400001928E-02 0. -1.
    10030    2    1    2    0    0  0.00000000000E+00  0.00000000000E+00 -0.69503303871E+03  0.32942012865E+04  0.32200452157E+04 0.  0.
        4    1    3    3  502    0 -0.86234775738E+03  0.13193062802E+04 -0.11379363363E+02  0.15761801352E+04  0.12699999809E+01 0.  1.
       -4    1    3    3    0  502  0.86234775738E+03 -0.13193062802E+04 -0.68365367535E+03  0.17180211513E+04  0.12699999809E+01 0. -1.
</event>
<event>
 5   0  0.1379425E-06  0.3532670E+04  0.7818609E-02  0.8106091E-01
       -2   -1    0    0    0  501  0.00000000000E+00  0.00000000000E+00  0.18136667529E+04  0.18136667529E+04  0.25500000920E-02 0. -1.
        2   -1    0    0  501    0  0.00000000000E+00  0.00000000000E+00 -0.17202383430E+04  0.17202383430E+04  0.25500000920E-02 0.  1.
    10030    2    1    2    0    0  0.00000000000E+00  0.00000000000E+00  0.93428409889E+02  0.35339050959E+04  0.35326698627E+04 0.  0.
        4    1    3    3  502    0  0.34185543355E+03 -0.12534368652E+04  0.12437814309E+04  0.17986002817E+04  0.12699999809E+01 0. -1.
       -4    1    3    3    0  502 -0.34185543355E+03  0.12534368652E+04 -0.11503530210E+04  0.17353048142E+04  0.12699999809E+01 0.  1.
</event>
<event>
 5   0  0.4811500E-07  0.3411807E+04  0.7818609E-02  0.8135015E-01
       -1   -1    0    0    0  501  0.00000000000E+00  0.00000000000E+00  0.15760165496E+04  0.15760165496E+04  0.50400001928E-02 0. -1.
        1   -1    0    0  501    0  0.00000000000E+00  0.00000000000E+00 -0.18464948496E+04  0.18464948496E+04  0.50400001928E-02 0.  1.
    10030    2    1    2    0    0  0.00000000000E+00  0.00000000000E+00 -0.27047829997E+03  0.34225113992E+04  0.34118068186E+04 0.  0.
        3    1    3    3  502    0 -0.68952209801E+03  0.78526023046E+03 -0.14878137932E+04  0.18181485766E+04  0.10100000352E+00 0.  1.
       -3    1    3    3    0  502  0.68952209801E+03 -0.78526023046E+03  0.12173354933E+04  0.16043628226E+04  0.10100000352E+00 0. -1.
</event>
<event>
 5   0  0.4811500E-07  0.3542786E+04  0.7818609E-02  0.8103724E-01
       -1   -1    0    0    0  501  0.00000000000E+00  0.00000000000E+00  0.12951452225E+04  0.12951452225E+04  0.50400001928E-02 0. -1.
        1   -1    0    0  501    0  0.00000000000E+00  0.00000000000E+00 -0.24227654041E+04  0.24227654042E+04  0.50400001928E-02 0.  1.
    10030    2    1    2    0    0  0.00000000000E+00  0.00000000000E+00 -0.11276201816E+04  0.37179106267E+04  0.35427859312E+04 0.  0.
        4    1    3    3  502    0  0.27327101284E+03  0.10675270808E+04  0.89166467543E+03  0.14175184729E+04  0.12699999809E+01 0. -1.
       -4    1    3    3    0  502 -0.27327101284E+03 -0.10675270808E+04 -0.20192848570E+04  0.23003921538E+04  0.12699999809E+01 0.  1.
</event>
<event>
 5   0  0.4811500E-07  0.3519444E+04  0.7818609E-02  0.8109197E-01
        1   -1    0    0  501    0  0.00000000000E+00  0.00000000000E+00  0.18585160441E+04  0.18585160441E+04  0.50400001928E-02 0. -1.
       -1   -1    0    0    0  501  0.00000000000E+00  0.00000000000E+00 -0.16661797703E+04  0.16661797703E+04  0.50400001928E-02 0.  1.
    10030    2    1    2    0    0  0.00000000000E+00  0.00000000000E+00  0.19233627377E+03  0.35246958144E+04  0.35194441808E+04 0.  0.
        2    1    3    3  502    0  0.14957429049E+04  0.24734228377E+03  0.99091987425E+03  0.18111728908E+04  0.25500000920E-02 0. -1.
       -2    1    3    3    0  502 -0.14957429049E+04 -0.24734228377E+03 -0.79858360048E+03  0.17135229237E+04  0.25500000920E-02 0.  1.
</event>
<event>
 5   0  0.1444091E-06  0.3579415E+04  0.7818609E-02  0.8095223E-01
        2   -1    0    0  501    0  0.00000000000E+00  0.00000000000E+00  0.21534457903E+04  0.21534457903E+04  0.25500000920E-02 0. -1.
       -2   -1    0    0    0  501  0.00000000000E+00  0.00000000000E+00 -0.14874079932E+04  0.14874079932E+04  0.25500000920E-02 0.  1.
    10030    2    1    2    0    0  0.00000000000E+00  0.00000000000E+00  0.66603779713E+03  0.36408537835E+04  0.35794147462E+04 0.  0.
        1    1    3    3  502    0  0.93190863804E+03  0.15178679559E+04  0.51116980299E+03  0.18530168399E+04  0.50400001928E-02 0. -1.
       -1    1    3    3    0  502 -0.93190863804E+03 -0.15178679559E+04  0.15486799413E+03  0.17878369436E+04  0.50400001928E-02 0.  1.
</event>
<event>
 5   0  0.5071661E-07  0.3581383E+04  0.7818609E-02  0.8094770E-01
       -1   -1    0    0    0  501  0.00000000000E+00  0.00000000000E+00  0.13929486630E+04  0.13929486630E+04  0.50400001928E-02 0. -1.
        1   -1    0    0  501    0  0.00000000000E+00  0.00000000000E+00 -0.23020052846E+04  0.23020052846E+04  0.50400001928E-02 0.  1.
    10030    2    1    2    0    0  0.00000000000E+00  0.00000000000E+00 -0.90905662156E+03  0.36949539476E+04  0.35813825171E+04 0.  0.
        1    1    3    3  502    0 -0.51940282279E+03 -0.35970373000E+03  0.12741380215E+04  0.14221792304E+04  0.50400001928E-02 0. -1.
       -1    1    3    3    0  502  0.51940282279E+03  0.35970373000E+03 -0.21831946430E+04  0.22727747172E+04  0.50400001928E-02 0.  1.
</event>
<event>
 5   0  0.1444091E-06  0.3441130E+04  0.7818609E-02  0.8127885E-01
        2   -1    0    0  501    0  0.00000000000E+00  0.00000000000E+00  0.19561403103E+04  0.19561403103E+04  0.25500000920E-02 0. -1.
       -2   -1    0    0    0  501  0.00000000000E+00  0.00000000000E+00 -0.15133600542E+04  0.15133600542E+04  0.25500000920E-02 0.  1.
    10030    2    1    2    0    0  0.00000000000E+00  0.00000000000E+00  0.44278025608E+03  0.34695003645E+04  0.34411303992E+04 0.  0.
        1    1    3    3  502    0  0.16375221547E+04  0.33686420500E+03  0.63142255790E+03  0.17870788305E+04  0.50400001928E-02 0.  1.
       -1    1    3    3    0  502 -0.16375221547E+04 -0.33686420500E+03 -0.18864230182E+03  0.16824215340E+04  0.50400001928E-02 0. -1.
</event>
<event>
 5   0  0.1468942E-06  0.3583761E+04  0.7818609E-02  0.8094222E-01
       -2   -1    0    0    0  501  0.00000000000E+00  0.00000000000E+00  0.16130033532E+04  0.16130033532E+04  0.25500000920E-02 0.  1.
        2   -1    0    0  501    0  0.00000000000E+00  0.00000000000E+00 -0.19905949066E+04  0.19905949066E+04  0.25500000920E-02 0. -1.
    10030    2    1    2    0    0  0.00000000000E+00  0.00000000000E+00 -0.37759155335E+03  0.36035982598E+04  0.35837612974E+04 0.  0.
        2    1    3    3  502    0  0.35158223420E+03 -0.19056684945E+02 -0.19554679702E+04  0.19869142425E+04  0.25500000920E-02 0. -1.
       -2    1    3    3    0  502 -0.35158223420E+03  0.19056684945E+02  0.15778764169E+04  0.16166840172E+04  0.25500000920E-02 0.  1.
</event>
<event>
 5   0  0.1379425E-06  0.3395354E+04  0.7818609E-02  0.8139048E-01
        2   -1    0    0  501    0  0.00000000000E+00  0.00000000000E+00  0.20792322727E+04  0.20792322727E+04  0.25500000920E-02 0.  1.
       -2   -1    0    0    0  501  0.00000000000E+00  0.00000000000E+00 -0.13861400530E+04  0.13861400530E+04  0.25500000920E-02 0. -1.
    10030    2    1    2    0    0  0.00000000000E+00  0.00000000000E+00  0.69309221965E+03  0.34653723257E+04  0.33953539625E+04 0.  0.
        4    1    3    3  502    0 -0.15035882601E+04 -0.39940498912E+03 -0.34702894652E+03  0.15939675981E+04  0.12699999809E+01 0. -1.
       -4    1    3    3    0  502  0.15035882601E+04  0.39940498912E+03  0.10401211662E+04  0.18714047276E+04  0.12699999809E+01 0.  1.
</event>
<event>
 5   0  0.4811500E-07  0.3597516E+04  0.7818609E-02  0.8091061E-01
       -1   -1    0    0    0  501  0.00000000000E+00  0.00000000000E+00  0.31252340558E+04  0.31252340558E+04  0.50400001928E-02 0.  1.
        1   -1    0    0  501    0  0.00000000000E+00  0.00000000000E+00 -0.10352919756E+04  0.10352919756E+04  0.50400001928E-02 0. -1.
    10030    2    1    2    0    0  0.00000000000E+00  0.00000000000E+00  0.20899420802E+04  0.41605260314E+04  0.35975156649E+04 0.  0.
        2    1    3    3  502    0  0.14427760991E+04  0.10702952467E+04  0.93900793706E+03  0.20270349512E+04  0.25500000920E-02 0.  1.
       -2    1    3    3    0  502 -0.14427760991E+04 -0.10702952467E+04  0.11509341432E+04  0.21334910802E+04  0.25500000920E-02 0. -1.
</event>
<event>
 5   0  0.5071661E-07  0.3099588E+04  0.7818609E-02  0.8215851E-01
        1   -1    0    0  501    0  0.00000000000E+00  0.00000000000E+00  0.97473609400E+03  0.97473609401E+03  0.50400001928E-02 0. -1.
       -1   -1    0    0    0  501  0.00000000000E+00  0.00000000000E+00 -0.24641147420E+04  0.24641147420E+04  0.50400001928E-02 0.  1.
    10030    2    1    2    0    0  0.00000000000E+00  0.00000000000E+00 -0.14893786480E+04  0.34388508360E+04  0.30995880880E+04 0.  0.
        1    1    3    3  502    0 -0.93749326951E+03 -0.13353818648E+03 -0.21058116410E+04  0.23089323821E+04  0.50400001928E-02 0.  1.
       -1    1    3    3    0  502  0.93749326951E+03  0.13353818648E+03  0.61643299301E+03  0.11299184539E+04  0.50400001928E-02 0. -1.
</event>
<event>
 5   0  0.1379425E-06  0.3496888E+04  0.7818609E-02  0.8114528E-01
        2   -1    0    0  501    0  0.00000000000E+00  0.00000000000E+00  0.15493182685E+04  0.15493182685E+04  0.25500000920E-02 0.  1.
       -2   -1    0    0    0  501  0.00000000000E+00  0.00000000000E+00 -0.19731620156E+04  0.19731620156E+04  0.25500000920E-02 0. -1.
    10030    2    1    2    0    0  0.00000000000E+00  0.00000000000E+00 -0.42384374706E+03  0.35224802841E+04  0.34968877348E+04 0.  0.
        4    1    3    3  502    0 -0.84758319744E+03 -0.15120543632E+04 -0.44239469043E+03  0.17889718692E+04  0.12699999809E+01 0. -1.
       -4    1    3    3    0  502  0.84758319744E+03  0.15120543632E+04  0.18550943364E+02  0.17335084148E+04  0.12699999809E+01 0.  1.
</event>
<event>
 5   0  0.1505671E-06  0.2393333E+04  0.7818609E-02  0.8442004E-01
       -2   -1    0    0    0  501  0.00000000000E+00  0.00000000000E+00  0.11207296199E+04  0.11207296199E+04  0.25500000920E-02 0.  1.
        2   -1    0    0  501    0  0.00000000000E+00  0.00000000000E+00 -0.12777487300E+04  0.12777487300E+04  0.25500000920E-02 0. -1.
    10030    2    1    2    0    0  0.00000000000E+00  0.00000000000E+00 -0.15701911010E+03  0.23984783499E+04  0.23933331139E+04 0.  0.
        3    1    3    3  502    0  0.97811426753E+03 -0.58652746841E+03 -0.44162654496E+03  0.12230110412E+04  0.10100000352E+00 0. -1.
       -3    1    3    3    0  502 -0.97811426753E+03  0.58652746841E+03  0.28460743485E+03  0.11754673087E+04  0.10100000352E+00 0.  1.
</event>
<event>
 5   0  0.4811500E-07  0.3516600E+04  0.7818609E-02  0.8109867E-01
       -1   -1    0    0    0  501  0.00000000000E+00  0.00000000000E+00  0.15675470509E+04  0.15675470509E+04  0.50400001928E-02 0. -1.
        1   -1    0    0  501    0  0.00000000000E+00  0.00000000000E+00 -0.19722649139E+04  0.19722649139E+04  0.50400001928E-02 0.  1.
    10030    2    1    2    0    0  0.00000000000E+00  0.00000000000E+00 -0.40471786299E+03  0.35398119649E+04  0.35165995220E+04 0.  0.
        2    1    3    3  502    0 -0.97920709523E+03 -0.78450005998E+03  0.10375719308E+04  0.16281407774E+04  0.25500000920E-02 0. -1.
       -2    1    3    3    0  502  0.97920709523E+03  0.78450005998E+03 -0.14422897938E+04  0.19116711874E+04  0.25500000920E-02 0.  1.
</event>
<event>
 5   0  0.4811500E-07  0.2481859E+04  0.7818609E-02  0.8409477E-01
        3   -1    0    0  501    0  0.00000000000E+00  0.00000000000E+00  0.15597565723E+04  0.15597565755E+04  0.10100000352E+00 0.  1.
       -3   -1    0    0    0  501  0.00000000000E+00  0.00000000000E+00 -0.98727317714E+03  0.98727318231E+03  0.10100000352E+00 0. -1.
    10030    2    1    2    0    0  0.00000000000E+00  0.00000000000E+00  0.57248339513E+03  0.25470297578E+04  0.24818588497E+04 0.  0.
        3    1    3    3  502    0 -0.87561409454E+03  0.79031864356E+03  0.68185382706E+03  0.13624346783E+04  0.10100000352E+00 0. -1.
       -3    1    3    3    0  502  0.87561409454E+03 -0.79031864356E+03 -0.10937043194E+03  0.11845950796E+04  0.10100000352E+00 0.  1.
</event>
<event>
 5   0  0.4811500E-07  0.3600691E+04  0.7818609E-02  0.8090333E-01
       -1   -1    0    0    0  501  0.00000000000E+00  0.00000000000E+00  0.14379795392E+04  0.14379795393E+04  0.50400001928E-02 0. -1.
        1   -1    0    0  501    0  0.00000000000E+00  0.00000000000E+00 -0.22540270208E+04  0.22540270209E+04  0.50400001928E-02 0.  1.
    10030    2    1    2    0    0  0.00000000000E+00  0.00000000000E+00 -0.81604748160E+03  0.36920065601E+04  0.36006914541E+04 0.  0.
        3    1    3    3  502    0 -0.86706527687E+03 -0.91701809653E+03  0.90848489258E+03  0.15550142102E+04  0.10100000352E+00 0. -1.
       -3    1    3    3    0  502  0.86706527687E+03  0.91701809653E+03 -0.17245323742E+04  0.21369923499E+04  0.10100000352E+00 0.  1.
</event>
<event>
 5   0  0.1468942E-06  0.3571523E+04  0.7818609E-02  0.8097046E-01
       -2   -1    0    0    0  501  0.00000000000E+00  0.00000000000E+00  0.11109990510E+04  0.11109990510E+04  0.25500000920E-02 0.  1.
        2   -1    0    0  501    0  0.00000000000E+00  0.00000000000E+00 -0.28703397085E+04  0.28703397085E+04  0.25500000920E-02 0. -1.
    10030    2    1    2    0    0  0.00000000000E+00  0.00000000000E+00 -0.17593406575E+04  0.39813387595E+04  0.35715233121E+04 0.  0.
        2    1    3    3  502    0  0.87052299187E+03  0.15375985779E+04 -0.59128715500E+03  0.18632337926E+04  0.25500000920E-02 0.  1.
       -2    1    3    3    0  502 -0.87052299187E+03 -0.15375985779E+04 -0.11680535025E+04  0.21181049669E+04  0.25500000920E-02 0. -1.
</event>
<event>
 5   0  0.1379425E-06  0.3030006E+04  0.7818609E-02  0.8235214E-01
        2   -1    0    0  501    0  0.00000000000E+00  0.00000000000E+00  0.25220775625E+04  0.25220775625E+04  0.25500000920E-02 0.  1.
       -2   -1    0    0    0  501  0.00000000000E+00  0.00000000000E+00 -0.91005678438E+03  0.91005678438E+03  0.25500000920E-02 0. -1.
    10030    2    1    2    0    0  0.00000000000E+00  0.00000000000E+00  0.16120207782E+04  0.34321343469E+04  0.30300058063E+04 0.  0.
        4    1    3    3  502    0 -0.10194030220E+04  0.10581545507E+04  0.12242855742E+04  0.19125246024E+04  0.12699999809E+01 0.  1.
       -4    1    3    3    0  502  0.10194030220E+04 -0.10581545507E+04  0.38773520395E+03  0.15196097446E+04  0.12699999809E+01 0. -1.
</event>
<event>
 5   0  0.5071661E-07  0.3601137E+04  0.7818609E-02  0.8090231E-01
        1   -1    0    0  501    0  0.00000000000E+00  0.00000000000E+00  0.24077963931E+04  0.24077963931E+04  0.50400001928E-02 0. -1.
       -1   -1    0    0    0  501  0.00000000000E+00  0.00000000000E+00 -0.13464788789E+04  0.13464788789E+04  0.50400001928E-02 0.  1.
    10030    2    1    2    0    0  0.00000000000E+00  0.00000000000E+00  0.10613175143E+04  0.37542752720E+04  0.36011370360E+04 0.  0.
        1    1    3    3  502    0 -0.19762836696E+03 -0.88195894013E+03 -0.10928503642E+04  0.14181785720E+04  0.50400001928E-02 0.  1.
       -1    1    3    3    0  502  0.19762836696E+03  0.88195894013E+03  0.21541678784E+04  0.23360967001E+04  0.50400001928E-02 0. -1.
</event>
<event>
 5   0  0.5071661E-07  0.3399177E+04  0.7818609E-02  0.8138108E-01
       -1   -1    0    0    0  501  0.00000000000E+00  0.00000000000E+00  0.26360997766E+04  0.26360997766E+04  0.50400001928E-02 0. -1.
        1   -1    0    0  501    0  0.00000000000E+00  0.00000000000E+00 -0.10957856464E+04  0.10957856464E+04  0.50400001928E-02 0.  1.
    10030    2    1    2    0    0  0.00000000000E+00  0.00000000000E+00  0.15403141302E+04  0.37318854230E+04  0.33991765460E+04 0.  0.
        1    1    3    3  502    0  0.30829774104E+03 -0.24707396534E+03  0.25849841073E+04  0.26150020796E+04  0.50400001928E-02 0. -1.
       -1    1    3    3    0  502 -0.30829774104E+03  0.24707396534E+03 -0.10446699771E+04  0.11168833434E+04  0.50400001928E-02 0.  1.
</event>
<event>
 5   0  0.1505671E-06  0.3588126E+04  0.7818609E-02  0.8093217E-01
       -2   -1    0    0    0  501  0.00000000000E+00  0.00000000000E+00  0.13498171955E+04  0.13498171955E+04  0.25500000920E-02 0. -1.
        2   -1    0    0  501    0  0.00000000000E+00  0.00000000000E+00 -0.23845169705E+04  0.23845169705E+04  0.25500000920E-02 0.  1.
    10030    2    1    2    0    0  0.00000000000E+00  0.00000000000E+00 -0.10346997750E+04  0.37343341659E+04  0.35881259786E+04 0.  0.
        3    1    3    3  502    0 -0.10238060665E+04  0.12967894635E+04  0.21029599924E+03  0.16655528187E+04  0.10100000352E+00 0. -1.
       -3    1    3    3    0  502  0.10238060665E+04 -0.12967894635E+04 -0.12449957742E+04  0.20687813472E+04  0.10100000352E+00 0.  1.
</event>
<event>
 5   0  0.4811500E-07  0.3679176E+04  0.7818609E-02  0.8072592E-01
        1   -1    0    0  501    0  0.00000000000E+00  0.00000000000E+00  0.28328624015E+04  0.28328624015E+04  0.50400001928E-02 0.  1.
       -1   -1    0    0    0  501  0.00000000000E+00  0.00000000000E+00 -0.11945811494E+04  0.11945811494E+04  0.50400001928E-02 0. -1.
    10030    2    1    2    0    0  0.00000000000E+00  0.00000000000E+00  0.16382812521E+04  0.40274435509E+04  0.36791760076E+04 0.  0.
        4    1    3    3  502    0  0.13661957948E+04 -0.96971719545E+03 -0.12541015050E+02  0.16754107791E+04  0.12699999809E+01 0. -1.
       -4    1    3    3    0  502 -0.13661957948E+04  0.96971719545E+03  0.16508222672E+04  0.23520327718E+04  0.12699999809E+01 0.  1.
</event>
<event>
 5   0  0.5071661E-07  0.3537296E+04  0.7818609E-02  0.8105008E-01
       -1   -1    0    0    0  501  0.00000000000E+00  0.00000000000E+00  0.17133352326E+04  0.17133352326E+04  0.50400001928E-02 0. -1.
        1   -1    0    0  501    0  0.00000000000E+00  0.00000000000E+00 -0.18257467862E+04  0.18257467862E+04  0.50400001928E-02 0.  1.
    10030    2    1    2    0    0  0.00000000000E+00  0.00000000000E+00 -0.11241155356E+03  0.35390820189E+04  0.35372963092E+04 0.  0.
        1    1    3    3  502    0  0.99667178197E+02  0.14741133735E+04 -0.10288963964E+04  0.18004364968E+04  0.50400001928E-02 0.  1.
       -1    1    3    3    0  502 -0.99667178197E+02 -0.14741133735E+04  0.91648484282E+03  0.17386455221E+04  0.50400001928E-02 0. -1.
</event>
<event>
 5   0  0.5071661E-07  0.3595615E+04  0.7818609E-02  0.8091497E-01
        1   -1    0    0  501    0  0.00000000000E+00  0.00000000000E+00  0.23405505468E+04  0.23405505468E+04  0.50400001928E-02 0. -1.
       -1   -1    0    0    0  501  0.00000000000E+00  0.00000000000E+00 -0.13809195283E+04  0.13809195283E+04  0.50400001928E-02 0.  1.
    10030    2    1    2    0    0  0.00000000000E+00  0.00000000000E+00  0.95963101854E+03  0.37214700751E+04  0.35956150835E+04 0.  0.
        1    1    3    3  502    0 -0.16612675061E+04  0.28189657629E+02  0.11905144594E+04  0.20439983028E+04  0.50400001928E-02 0.  1.
       -1    1    3    3    0  502  0.16612675061E+04 -0.28189657629E+02 -0.23088344091E+03  0.16774717723E+04  0.50400001928E-02 0. -1.
</event>
<event>
 5   0  0.4811500E-07  0.3574845E+04  0.7818609E-02  0.8096278E-01
        1   -1    0    0  501    0  0.00000000000E+00  0.00000000000E+00  0.21182628181E+04  0.21182628181E+04  0.50400001928E-02 0. -1.
       -1   -1    0    0    0  501  0.00000000000E+00  0.00000000000E+00 -0.15082543453E+04  0.15082543454E+04  0.50400001928E-02 0.  1.
    10030    2    1    2    0    0  0.00000000000E+00  0.00000000000E+00  0.61000847275E+03  0.36265171634E+04  0.35748449477E+04 0.  0.
        3    1    3    3  502    0 -0.69971131108E+03  0.39647158624E+03  0.19243522889E+04  0.20856455546E+04  0.10100000352E+00 0. -1.
       -3    1    3    3    0  502  0.69971131108E+03 -0.39647158624E+03 -0.13143438162E+04  0.15408716088E+04  0.10100000352E+00 0.  1.
</event>
<event>
 5   0  0.1491854E-06  0.3594877E+04  0.7818609E-02  0.8091666E-01
        2   -1    0    0  501    0  0.00000000000E+00  0.00000000000E+00  0.25996514695E+04  0.25996514695E+04  0.25500000920E-02 0.  1.
       -2   -1    0    0    0  501  0.00000000000E+00  0.00000000000E+00 -0.12427761104E+04  0.12427761104E+04  0.25500000920E-02 0. -1.
    10030    2    1    2    0    0  0.00000000000E+00  0.00000000000E+00  0.13568753591E+04  0.38424275799E+04  0.35948767666E+04 0.  0.
        5    1    3    3  502    0  0.25296603468E+03 -0.15474189313E+04  0.16177391391E+04  0.22529090474E+04  0.46999998093E+01 0.  1.
       -5    1    3    3    0  502 -0.25296603468E+03  0.15474189313E+04 -0.26086378006E+03  0.15895185325E+04  0.46999998093E+01 0. -1.
</event>
<event>
 5   0  0.4811500E-07  0.3667045E+04  0.7818609E-02  0.8075305E-01
        1   -1    0    0  501    0  0.00000000000E+00  0.00000000000E+00  0.22591942697E+04  0.22591942697E+04  0.50400001928E-02 0. -1.
       -1   -1    0    0    0  501  0.00000000000E+00  0.00000000000E+00 -0.14880545615E+04  0.14880545615E+04  0.50400001928E-02 0.  1.
    10030    2    1    2    0    0  0.00000000000E+00  0.00000000000E+00  0.77113970818E+03  0.37472488311E+04  0.36670447711E+04 0.  0.
        4    1    3    3  502    0 -0.33933755401E+03  0.15147690949E+04  0.13826816137E+04  0.20788182807E+04  0.12699999809E+01 0. -1.
       -4    1    3    3    0  502  0.33933755401E+03 -0.15147690949E+04 -0.61154190548E+03  0.16684305504E+04  0.12699999809E+01 0.  1.
</event>
<event>
 5   0  0.5071661E-07  0.3588420E+04  0.7818609E-02  0.8093149E-01
        1   -1    0    0  501    0  0.00000000000E+00  0.00000000000E+00  0.10751363397E+04  0.10751363397E+04  0.50400001928E-02 0.  1.
       -1   -1    0    0    0  501  0.00000000000E+00  0.00000000000E+00 -0.29942147576E+04  0.29942147576E+04  0.50400001928E-02 0. -1.
    10030    2    1    2    0    0  0.00000000000E+00  0.00000000000E+00 -0.19190784178E+04  0.40693510973E+04  0.35884197607E+04 0.  0.
        1    1    3    3  502    0  0.15846271368E+04 -0.25017576643E+03 -0.48389875332E+02  0.16049836937E+04  0.50400001928E-02 0.  1.
       -1    1    3    3    0  502 -0.15846271368E+04  0.25017576643E+03 -0.18706885425E+04  0.24643674036E+04  0.50400001928E-02 0. -1.
</event>
<event>
 5   0  0.5071661E-07  0.2764971E+04  0.7818609E-02  0.8314227E-01
        1   -1    0    0  501    0  0.00000000000E+00  0.00000000000E+00  0.19418779625E+04  0.19418779625E+04  0.50400001928E-02 0. -1.
       -1   -1    0    0    0  501  0.00000000000E+00  0.00000000000E+00 -0.98423604776E+03  0.98423604777E+03  0.50400001928E-02 0.  1.
    10030    2    1    2    0    0  0.00000000000E+00  0.00000000000E+00  0.95764191474E+03  0.29261140103E+04  0.27649710965E+04 0.  0.
        1    1    3    3  502    0 -0.11990637295E+04 -0.39888681892E+03 -0.11457302587E+03  0.12688544046E+04  0.50400001928E-02 0.  1.
       -1    1    3    3    0  502  0.11990637295E+04  0.39888681892E+03  0.10722149406E+04  0.16572596057E+04  0.50400001928E-02 0. -1.
</event>
<event>
 5   0  0.1491854E-06  0.3442458E+04  0.7818609E-02  0.8127564E-01
       -2   -1    0    0    0  501  0.00000000000E+00  0.00000000000E+00  0.14358712886E+04  0.14358712886E+04  0.25500000920E-02 0. -1.
        2   -1    0    0  501    0  0.00000000000E+00  0.00000000000E+00 -0.20632973067E+04  0.20632973067E+04  0.25500000920E-02 0.  1.
    10030    2    1    2    0    0  0.00000000000E+00  0.00000000000E+00 -0.62742601815E+03  0.34991685953E+04  0.34424580535E+04 0.  0.
        5    1    3    3  502    0 -0.10565558841E+04  0.28618277429E+03 -0.16639011433E+04  0.19916827110E+04  0.46999998093E+01 0.  1.
       -5    1    3    3    0  502  0.10565558841E+04 -0.28618277429E+03  0.10364751251E+04  0.15074858844E+04  0.46999998093E+01 0. -1.
</event>
<event>
 5   0  0.1379425E-06  0.3446045E+04  0.7818609E-02  0.8126697E-01
       -2   -1    0    0    0  501  0.00000000000E+00  0.00000000000E+00  0.10551907670E+04  0.10551907670E+04  0.25500000920E-02 0. -1.
        2   -1    0    0  501    0  0.00000000000E+00  0.00000000000E+00 -0.28135260265E+04  0.28135260265E+04  0.25500000920E-02 0.  1.
    10030    2    1    2    0    0  0.00000000000E+00  0.00000000000E+00 -0.17583352595E+04  0.38687167935E+04  0.34460450873E+04 0.  0.
        4    1    3    3  502    0  0.95957236435E+03  0.14280558615E+04 -0.77455935088E+03  0.18868138400E+04  0.12699999809E+01 0.  1.
       -4    1    3    3    0  502 -0.95957236435E+03 -0.14280558615E+04 -0.98377590863E+03  0.19819029535E+04  0.12699999809E+01 0. -1.
</event>
<event>
 5   0  0.4811500E-07  0.3644084E+04  0.7818609E-02  0.8080468E-01
       -1   -1    0    0    0  501  0.00000000000E+00  0.00000000000E+00  0.16179478363E+04  0.16179478363E+04  0.50400001928E-02 0. -1.
        1   -1    0    0  501    0  0.00000000000E+00  0.00000000000E+00 -0.20518812825E+04  0.20518812825E+04  0.50400001928E-02 0.  1.
    10030    2    1    2    0    0  0.00000000000E+00  0.00000000000E+00 -0.43393344620E+03  0.36698291189E+04  0.36440839076E+04 0.  0.
        5    1    3    3  502    0 -0.37378773059E+03  0.16106285074E+04  0.55393035733E+03  0.17437609891E+04  0.46999998093E+01 0.  1.
       -5    1    3    3    0  502  0.37378773059E+03 -0.16106285074E+04 -0.98786380353E+03  0.19260681298E+04  0.46999998093E+01 0. -1.
</event>
<event>
 5   0  0.1379425E-06  0.3574765E+04  0.7818609E-02  0.8096297E-01
        2   -1    0    0  501    0  0.00000000000E+00  0.00000000000E+00  0.23546303439E+04  0.23546303439E+04  0.25500000920E-02 0.  1.
       -2   -1    0    0    0  501  0.00000000000E+00  0.00000000000E+00 -0.13567887786E+04  0.13567887786E+04  0.25500000920E-02 0. -1.
    10030    2    1    2    0    0  0.00000000000E+00  0.00000000000E+00  0.99784156525E+03  0.37114191225E+04  0.35747649033E+04 0.  0.
        4    1    3    3  502    0  0.70832561011E+03 -0.64055682605E+02 -0.12035526172E+04  0.13979874162E+04  0.12699999809E+01 0. -1.
       -4    1    3    3    0  502 -0.70832561011E+03  0.64055682605E+02  0.22013941825E+04  0.23134317064E+04  0.12699999809E+01 0.  1.
</event>
<event>
 5   0  0.4811500E-07  0.3631814E+04  0.7818609E-02  0.8083243E-01
        1   -1    0    0  501    0  0.00000000000E+00  0.00000000000E+00  0.25022095546E+04  0.25022095546E+04  0.50400001928E-02 0. -1.
       -1   -1    0    0    0  501  0.00000000000E+00  0.00000000000E+00 -0.13178426804E+04  0.13178426804E+04  0.50400001928E-02 0.  1.
    10030    2    1    2    0    0  0.00000000000E+00  0.00000000000E+00  0.11843668742E+04  0.38200522350E+04  0.36318141728E+04 0.  0.
        3    1    3    3  502    0  0.17457212800E+04 -0.43730390706E+03  0.84711082993E+03  0.19890636648E+04  0.10100000352E+00 0. -1.
       -3    1    3    3    0  502 -0.17457212800E+04  0.43730390706E+03  0.33725604428E+03  0.18309885702E+04  0.10100000352E+00 0.  1.
</event>
<event>
 5   0  0.1468942E-06  0.3654617E+04  0.7818609E-02  0.8078094E-01
        2   -1    0    0  501    0  0.00000000000E+00  0.00000000000E+00  0.17784887427E+04  0.17784887427E+04  0.25500000920E-02 0. -1.
       -2   -1    0    0    0  501  0.00000000000E+00  0.00000000000E+00 -0.18774685071E+04  0.18774685071E+04  0.25500000920E-02 0.  1.
    10030    2    1    2    0    0  0.00000000000E+00  0.00000000000E+00 -0.98979764411E+02  0.36559572499E+04  0.36546171371E+04 0.  0.
        2    1    3    3  502    0  0.10149024997E+04 -0.12721353690E+04 -0.88087893888E+03  0.18504872834E+04  0.25500000920E-02 0.  1.
       -2    1    3    3    0  502 -0.10149024997E+04  0.12721353690E+04  0.78189917447E+03  0.18054699665E+04  0.25500000920E-02 0. -1.
</event>
<event>
 5   0  0.1444091E-06  0.3621922E+04  0.7818609E-02  0.8085489E-01
       -2   -1    0    0    0  501  0.00000000000E+00  0.00000000000E+00  0.19857540823E+04  0.19857540823E+04  0.25500000920E-02 0.  1.
        2   -1    0    0  501    0  0.00000000000E+00  0.00000000000E+00 -0.16515533899E+04  0.16515533899E+04  0.25500000920E-02 0. -1.
    10030    2    1    2    0    0  0.00000000000E+00  0.00000000000E+00  0.33420069236E+03  0.36373074722E+04  0.36219215266E+04 0.  0.
        1    1    3    3  502    0 -0.17883007007E+04  0.69261404180E+02 -0.11113679524E+03  0.17930889341E+04  0.50400001928E-02 0.  1.
       -1    1    3    3    0  502  0.17883007007E+04 -0.69261404180E+02  0.44533748760E+03  0.18442185381E+04  0.50400001928E-02 0. -1.
</event>
<event>
 5   0  0.4811500E-07  0.3610827E+04  0.7818609E-02  0.8088016E-01
        1   -1    0    0  501    0  0.00000000000E+00  0.00000000000E+00  0.22646603104E+04  0.22646603104E+04  0.50400001928E-02 0.  1.
       -1   -1    0    0    0  501  0.00000000000E+00  0.00000000000E+00 -0.14392967514E+04  0.14392967514E+04  0.50400001928E-02 0. -1.
    10030    2    1    2    0    0  0.00000000000E+00  0.00000000000E+00  0.82536355901E+03  0.37039570619E+04  0.36108271783E+04 0.  0.
        4    1    3    3  502    0  0.13384853705E+04 -0.11845036990E+04  0.15130704866E+03  0.17937356371E+04  0.12699999809E+01 0. -1.
       -4    1    3    3    0  502 -0.13384853705E+04  0.11845036990E+04  0.67405651034E+03  0.19102214248E+04  0.12699999809E+01 0.  1.
</event>
<event>
 5   0  0.1444091E-06  0.3621661E+04  0.7818609E-02  0.8085548E-01
       -2   -1    0    0    0  501  0.00000000000E+00  0.00000000000E+00  0.20887811071E+04  0.20887811071E+04  0.25500000920E-02 0.  1.
        2   -1    0    0  501    0  0.00000000000E+00  0.00000000000E+00 -0.15698661843E+04  0.15698661843E+04  0.25500000920E-02 0. -1.
    10030    2    1    2    0    0  0.00000000000E+00  0.00000000000E+00  0.51891492284E+03  0.36586472914E+04  0.36216608491E+04 0.  0.
        1    1    3    3  502    0 -0.16809819620E+04  0.18411012494E+03  0.91376796021E+03  0.19221261093E+04  0.50400001928E-02 0.  1.
       -1    1    3    3    0  502  0.16809819620E+04 -0.18411012494E+03 -0.39485303737E+03  0.17365211821E+04  0.50400001928E-02 0. -1.
</event>
<event>
 5   0  0.4811500E-07  0.3649558E+04  0.7818609E-02  0.8079233E-01
        4   -1    0    0  501    0  0.00000000000E+00  0.00000000000E+00  0.21213319569E+04  0.21213323371E+04  0.12699999809E+01 0.  1.
       -4   -1    0    0    0  501  0.00000000000E+00  0.00000000000E+00 -0.15696820374E+04  0.15696825512E+04  0.12699999809E+01 0. -1.
    10030    2    1    2    0    0  0.00000000000E+00  0.00000000000E+00  0.55164991954E+03  0.36910148883E+04  0.36495579557E+04 0.  0.
        2    1    3    3  502    0 -0.11288247861E+04 -0.86063481621E+03 -0.88388315665E+03  0.16721803489E+04  0.25500000920E-02 0. -1.
       -2    1    3    3    0  502  0.11288247861E+04  0.86063481621E+03  0.14355330762E+04  0.20188345394E+04  0.25500000920E-02 0.  1.
</event>
<event>
 5   0  0.1379425E-06  0.3407957E+04  0.7818609E-02  0.8135956E-01
        2   -1    0    0  501    0  0.00000000000E+00  0.00000000000E+00  0.21798398367E+04  0.21798398368E+04  0.25500000920E-02 0.  1.
       -2   -1    0    0    0  501  0.00000000000E+00  0.00000000000E+00 -0.13319982116E+04  0.13319982116E+04  0.25500000920E-02 0. -1.
    10030    2    1    2    0    0  0.00000000000E+00  0.00000000000E+00  0.84784162515E+03  0.35118380483E+04  0.34079570209E+04 0.  0.
        4    1    3    3  502    0  0.19081400540E+03  0.11739373767E+04 -0.83352141494E+03  0.14523424221E+04  0.12699999809E+01 0. -1.
       -4    1    3    3    0  502 -0.19081400540E+03 -0.11739373767E+04  0.16813630401E+04  0.20594956262E+04  0.12699999809E+01 0.  1.
</event>
<event>
 5   0  0.1505671E-06  0.3610250E+04  0.7818609E-02  0.8088148E-01
       -2   -1    0    0    0  501  0.00000000000E+00  0.00000000000E+00  0.16689713555E+04  0.16689713555E+04  0.25500000920E-02 0. -1.
        2   -1    0    0  501    0  0.00000000000E+00  0.00000000000E+00 -0.19523862835E+04  0.19523862835E+04  0.25500000920E-02 0.  1.
    10030    2    1    2    0    0  0.00000000000E+00  0.00000000000E+00 -0.28341492803E+03  0.36213576391E+04  0.36102502861E+04 0.  0.
        3    1    3    3  502    0 -0.36180197804E+03 -0.16232349967E+04  0.56236675779E+03  0.17555765168E+04  0.10100000352E+00 0. -1.
       -3    1    3    3    0  502  0.36180197804E+03  0.16232349967E+04 -0.84578168582E+03  0.18657811223E+04  0.10100000352E+00 0.  1.
</event>
<event>
 5   0  0.4811500E-07  0.3026594E+04  0.7818609E-02  0.8236177E-01
       -1   -1    0    0    0  501  0.00000000000E+00  0.00000000000E+00  0.78458410835E+03  0.78458410836E+03  0.50400001928E-02 0. -1.
        1   -1    0    0  501    0  0.00000000000E+00  0.00000000000E+00 -0.29188297282E+04  0.29188297282E+04  0.50400001928E-02 0.  1.
    10030    2    1    2    0    0  0.00000000000E+00  0.00000000000E+00 -0.21342456198E+04  0.37034138366E+04  0.30265937420E+04 0.  0.
        2    1    3    3  502    0  0.10751114254E+04  0.43460606676E+03 -0.22568232775E+04  0.25373210905E+04  0.25500000920E-02 0.  1.
       -2    1    3    3    0  502 -0.10751114254E+04 -0.43460606676E+03  0.12257765768E+03  0.11660927461E+04  0.25500000920E-02 0. -1.
</event>
<event>
 5   0  0.4811500E-07  0.2244314E+04  0.7818609E-02  0.8500207E-01
       -1   -1    0    0    0  501  0.00000000000E+00  0.00000000000E+00  0.10145199687E+04  0.10145199687E+04  0.50400001928E-02 0. -1.
        1   -1    0    0  501    0  0.00000000000E+00  0.00000000000E+00 -0.12412137670E+04  0.12412137670E+04  0.50400001928E-02 0.  1.
    10030    2    1    2    0    0  0.00000000000E+00  0.00000000000E+00 -0.22669379836E+03  0.22557337357E+04  0.22443138391E+04 0.  0.
        4    1    3    3  502    0  0.63630498774E+03 -0.76537456488E+02 -0.10391705185E+04  0.12209090871E+04  0.12699999809E+01 0.  1.
       -4    1    3    3    0  502 -0.63630498774E+03  0.76537456488E+02  0.81247672013E+03  0.10348246486E+04  0.12699999809E+01 0. -1.
</event>
<event>
 5   0  0.4811500E-07  0.3484061E+04  0.7818609E-02  0.8117578E-01
       -1   -1    0    0    0  501  0.00000000000E+00  0.00000000000E+00  0.11352604659E+04  0.11352604659E+04  0.50400001928E-02 0.  1.
        1   -1    0    0  501    0  0.00000000000E+00  0.00000000000E+00 -0.26731045213E+04  0.26731045214E+04  0.50400001928E-02 0. -1.
    10030    2    1    2    0    0  0.00000000000E+00  0.00000000000E+00 -0.15378440554E+04  0.38083649873E+04  0.34840607827E+04 0.  0.
        3    1    3    3  502    0  0.81913160479E+03  0.49695884822E+03  0.82140001997E+03  0.12619994793E+04  0.10100000352E+00 0.  1.
       -3    1    3    3    0  502 -0.81913160479E+03 -0.49695884822E+03 -0.23592440754E+04  0.25463655080E+04  0.10100000352E+00 0. -1.
</event>
<event>
 5   0  0.4811500E-07  0.3609186E+04  0.7818609E-02  0.8088391E-01
       -1   -1    0    0    0  501  0.00000000000E+00  0.00000000000E+00  0.12105401801E+04  0.12105401801E+04  0.50400001928E-02 0.  1.
        1   -1    0    0  501    0  0.00000000000E+00  0.00000000000E+00 -0.26901670927E+04  0.26901670927E+04  0.50400001928E-02 0. -1.
    10030    2    1    2    0    0  0.00000000000E+00  0.00000000000E+00 -0.14796269126E+04  0.39007072729E+04  0.36091857015E+04 0.  0.
        3    1    3    3  502    0 -0.10670910370E+04 -0.20337996170E+03 -0.22972164490E+04  0.25411119837E+04  0.10100000352E+00 0. -1.
       -3    1    3    3    0  502  0.10670910370E+04  0.20337996170E+03  0.81758953642E+03  0.13595952892E+04  0.10100000352E+00 0.  1.
</event>
<event>
 5   0  0.1444091E-06  0.2248822E+04  0.7818609E-02  0.8498378E-01
       -2   -1    0    0    0  501  0.00000000000E+00  0.00000000000E+00  0.38146820951E+03  0.38146820952E+03  0.25500000920E-02 0.  1.
        2   -1    0    0  501    0  0.00000000000E+00  0.00000000000E+00 -0.33142991370E+04  0.33142991370E+04  0.25500000920E-02 0. -1.
    10030    2    1    2    0    0  0.00000000000E+00  0.00000000000E+00 -0.29328309275E+04  0.36957673465E+04  0.22488216982E+04 0.  0.
        1    1    3    3  502    0 -0.51651841389E+03 -0.46861303498E+03 -0.16928330886E+02  0.69762168606E+03  0.50400001928E-02 0.  1.
       -1    1    3    3    0  502  0.51651841389E+03  0.46861303498E+03 -0.29159025966E+04  0.29981456605E+04  0.50400001928E-02 0. -1.
</event>
<event>
 5   0  0.1505671E-06  0.3751393E+04  0.7818609E-02  0.8056667E-01
       -2   -1    0    0    0  501  0.00000000000E+00  0.00000000000E+00  0.24264152662E+04  0.24264152662E+04  0.25500000920E-02 0. -1.
        2   -1    0    0  501    0  0.00000000000E+00  0.00000000000E+00 -0.14499734530E+04  0.14499734530E+04  0.25500000920E-02 0.  1.
    10030    2    1    2    0    0  0.00000000000E+00  0.00000000000E+00  0.97644181324E+03  0.38763887192E+04  0.37513931929E+04 0.  0.
        3    1    3    3  502    0  0.17519085939E+04 -0.57806917339E+02  0.11780826620E+04  0.21119668866E+04  0.10100000352E+00 0. -1.
       -3    1    3    3    0  502 -0.17519085939E+04  0.57806917339E+02 -0.20164084879E+03  0.17644218326E+04  0.10100000352E+00 0.  1.
</event>
<event>
 5   0  0.1468942E-06  0.3331335E+04  0.7818609E-02  0.8154968E-01
       -2   -1    0    0    0  501  0.00000000000E+00  0.00000000000E+00  0.12895313029E+04  0.12895313029E+04  0.25500000920E-02 0.  1.
        2   -1    0    0  501    0  0.00000000000E+00  0.00000000000E+00 -0.21515167143E+04  0.21515167143E+04  0.25500000920E-02 0. -1.
    10030    2    1    2    0    0  0.00000000000E+00  0.00000000000E+00 -0.86198541137E+03  0.34410480172E+04  0.33313349587E+04 0.  0.
        2    1    3    3  502    0  0.57445354506E+03  0.12526106596E+04  0.53545891803E+03  0.14784270671E+04  0.25500000920E-02 0.  1.
       -2    1    3    3    0  502 -0.57445354506E+03 -0.12526106596E+04 -0.13974443294E+04  0.19626209501E+04  0.25500000920E-02 0. -1.
</event>
<event>
 5   0  0.5071661E-07  0.2763800E+04  0.7818609E-02  0.8314596E-01
        1   -1    0    0  501    0  0.00000000000E+00  0.00000000000E+00  0.22797817827E+04  0.22797817827E+04  0.50400001928E-02 0. -1.
       -1   -1    0    0    0  501  0.00000000000E+00  0.00000000000E+00 -0.83764486976E+03  0.83764486977E+03  0.50400001928E-02 0.  1.
    10030    2    1    2    0    0  0.00000000000E+00  0.00000000000E+00  0.14421369129E+04  0.31174266524E+04  0.27637999309E+04 0.  0.
        1    1    3    3  502    0  0.12786080207E+03 -0.12987298476E+04  0.20837861867E+03  0.13215404839E+04  0.50400001928E-02 0.  1.
       -1    1    3    3    0  502 -0.12786080207E+03  0.12987298476E+04  0.12337582942E+04  0.17958861686E+04  0.50400001928E-02 0. -1.
</event>
<event>
 5   0  0.1468942E-06  0.3577404E+04  0.7818609E-02  0.8095687E-01
        2   -1    0    0  501    0  0.00000000000E+00  0.00000000000E+00  0.17669945281E+04  0.17669945281E+04  0.25500000920E-02 0.  1.
       -2   -1    0    0    0  501  0.00000000000E+00  0.00000000000E+00 -0.18106764360E+04  0.18106764360E+04  0.25500000920E-02 0. -1.
    10030    2    1    2    0    0  0.00000000000E+00  0.00000000000E+00 -0.43681907917E+02  0.35776709641E+04  0.35774042850E+04 0.  0.
        2    1    3    3  502    0 -0.83263129367E+03 -0.14574000563E+04 -0.64008244287E+03  0.17963839593E+04  0.25500000920E-02 0. -1.
       -2    1    3    3    0  502  0.83263129367E+03  0.14574000563E+04  0.59640053496E+03  0.17812870048E+04  0.25500000920E-02 0.  1.
</event>
<event>
 5   0  0.5071661E-07  0.3578554E+04  0.7818609E-02  0.8095422E-01
        1   -1    0    0  501    0  0.00000000000E+00  0.00000000000E+00  0.26444823023E+04  0.26444823023E+04  0.50400001928E-02 0.  1.
       -1   -1    0    0    0  501  0.00000000000E+00  0.00000000000E+00 -0.12106382085E+04  0.12106382085E+04  0.50400001928E-02 0. -1.
    10030    2    1    2    0    0  0.00000000000E+00  0.00000000000E+00  0.14338440938E+04  0.38551205107E+04  0.35785535160E+04 0.  0.
        1    1    3    3  502    0  0.22399837840E+03 -0.25924784865E+03  0.26088149172E+04  0.26312164473E+04  0.50400001928E-02 0.  1.
       -1    1    3    3    0  502 -0.22399837840E+03  0.25924784865E+03 -0.11749708234E+04  0.12239040634E+04  0.50400001928E-02 0. -1.
</event>
<event>
 5   0  0.4811500E-07  0.3075027E+04  0.7818609E-02  0.8222625E-01
       -1   -1    0    0    0  501  0.00000000000E+00  0.00000000000E+00  0.10405815820E+04  0.10405815820E+04  0.50400001928E-02 0.  1.
        1   -1    0    0  501    0  0.00000000000E+00  0.00000000000E+00 -0.22717560998E+04  0.22717560998E+04  0.50400001928E-02 0. -1.
    10030    2    1    2    0    0  0.00000000000E+00  0.00000000000E+00 -0.12311745177E+04  0.33123376818E+04  0.30750268658E+04 0.  0.
        5    1    3    3  502    0  0.23748298523E+03 -0.95030798488E+03  0.66096206534E+03  0.11816837040E+04  0.46999998093E+01 0.  1.
       -5    1    3    3    0  502 -0.23748298523E+03  0.95030798488E+03 -0.18921365831E+04  0.21306539779E+04  0.46999998093E+01 0. -1.
</event>
<event>
 5   0  0.1379425E-06  0.3541382E+04  0.7818609E-02  0.8104052E-01
       -2   -1    0    0    0  501  0.00000000000E+00  0.00000000000E+00  0.10089412744E+04  0.10089412744E+04  0.25500000920E-02 0.  1.
        2   -1    0    0  501    0  0.00000000000E+00  0.00000000000E+00 -0.31075607766E+04  0.31075607766E+04  0.25500000920E-02 0. -1.
    10030    2    1    2    0    0  0.00000000000E+00  0.00000000000E+00 -0.20986195021E+04  0.41165020510E+04  0.35413818378E+04 0.  0.
        4    1    3    3  502    0 -0.11081938175E+04  0.12345195255E+04 -0.17688838779E+04  0.24250945925E+04  0.12699999809E+01 0. -1.
       -4    1    3    3    0  502  0.11081938175E+04 -0.12345195255E+04 -0.32973562424E+03  0.16914074586E+04  0.12699999809E+01 0.  1.
</event>
<event>
 5   0  0.5071661E-07  0.3245013E+04  0.7818609E-02  0.8177030E-01
        1   -1    0    0  501    0  0.00000000000E+00  0.00000000000E+00  0.17808695062E+04  0.17808695062E+04  0.50400001928E-02 0.  1.
       -1   -1    0    0    0  501  0.00000000000E+00  0.00000000000E+00 -0.14782255280E+04  0.14782255280E+04  0.50400001928E-02 0. -1.
    10030    2    1    2    0    0  0.00000000000E+00  0.00000000000E+00  0.30264397829E+03  0.32590950342E+04  0.32450126447E+04 0.  0.
        1    1    3    3  502    0 -0.10270557500E+04  0.58067993327E+03  0.12699301334E+04  0.17334229842E+04  0.50400001928E-02 0.  1.
       -1    1    3    3    0  502  0.10270557500E+04 -0.58067993327E+03 -0.96728615508E+03  0.15256720500E+04  0.50400001928E-02 0. -1.
</event>
<event>
 5   0  0.4811500E-07  0.3727064E+04  0.7818609E-02  0.8061990E-01
        1   -1    0    0  501    0  0.00000000000E+00  0.00000000000E+00  0.25006835938E+04  0.25006835938E+04  0.50400001928E-02 0.  1.
       -1   -1    0    0    0  501  0.00000000000E+00  0.00000000000E+00 -0.13887210456E+04  0.13887210456E+04  0.50400001928E-02 0. -1.
    10030    2    1    2    0    0  0.00000000000E+00  0.00000000000E+00  0.11119625482E+04  0.38894046395E+04  0.37270642255E+04 0.  0.
        5    1    3    3  502    0 -0.18047499839E+04  0.46408206758E+03  0.57198466947E+03  0.19492776154E+04  0.46999998093E+01 0.  1.
       -5    1    3    3    0  502  0.18047499839E+04 -0.46408206758E+03  0.53997787873E+03  0.19401270241E+04  0.46999998093E+01 0. -1.
</event>
<event>
 5   0  0.5071661E-07  0.2488144E+04  0.7818609E-02  0.8407222E-01
        1   -1    0    0  501    0  0.00000000000E+00  0.00000000000E+00  0.20578497245E+04  0.20578497245E+04  0.50400001928E-02 0. -1.
       -1   -1    0    0    0  501  0.00000000000E+00  0.00000000000E+00 -0.75210283196E+03  0.75210283197E+03  0.50400001928E-02 0.  1.
    10030    2    1    2    0    0  0.00000000000E+00  0.00000000000E+00  0.13057468926E+04  0.28099525565E+04  0.24881435695E+04 0.  0.
        1    1    3    3  502    0  0.47264510911E+02 -0.82087954289E+03  0.17072396853E+04  0.18949259883E+04  0.50400001928E-02 0. -1.
       -1    1    3    3    0  502 -0.47264510911E+02  0.82087954289E+03 -0.40149279273E+03  0.91502656823E+03  0.50400001928E-02 0.  1.
</event>
<event>
 5   0  0.4811500E-07  0.3567767E+04  0.7818609E-02  0.8097915E-01
        1   -1    0    0  501    0  0.00000000000E+00  0.00000000000E+00  0.24093136832E+04  0.24093136832E+04  0.50400001928E-02 0. -1.
       -1   -1    0    0    0  501  0.00000000000E+00  0.00000000000E+00 -0.13208078499E+04  0.13208078499E+04  0.50400001928E-02 0.  1.
    10030    2    1    2    0    0  0.00000000000E+00  0.00000000000E+00  0.10885058333E+04  0.37301215332E+04  0.35677670472E+04 0.  0.
        2    1    3    3  502    0  0.91139538654E+03 -0.14557745843E+04  0.40324236192E+02  0.17180067622E+04  0.25500000920E-02 0.  1.
       -2    1    3    3    0  502 -0.91139538654E+03  0.14557745843E+04  0.10481815971E+04  0.20121147710E+04  0.25500000920E-02 0. -1.
</event>
<event>
 5   0  0.4811500E-07  0.3530680E+04  0.7818609E-02  0.8106557E-01
        1   -1    0    0  501    0  0.00000000000E+00  0.00000000000E+00  0.26686915076E+04  0.26686915076E+04  0.50400001928E-02 0.  1.
       -1   -1    0    0    0  501  0.00000000000E+00  0.00000000000E+00 -0.11677730078E+04  0.11677730078E+04  0.50400001928E-02 0. -1.
    10030    2    1    2    0    0  0.00000000000E+00  0.00000000000E+00  0.15009184998E+04  0.38364645154E+04  0.35306803360E+04 0.  0.
        2    1    3    3  502    0 -0.13440718255E+04 -0.20688373670E+03 -0.47268460934E+03  0.14397085443E+04  0.25500000920E-02 0. -1.
       -2    1    3    3    0  502  0.13440718255E+04  0.20688373670E+03  0.19736031091E+04  0.23967559711E+04  0.25500000920E-02 0.  1.
</event>
<event>
 5   0  0.4811500E-07  0.3544602E+04  0.7818609E-02  0.8103300E-01
       -1   -1    0    0    0  501  0.00000000000E+00  0.00000000000E+00  0.14117578640E+04  0.14117578640E+04  0.50400001928E-02 0.  1.
        1   -1    0    0  501    0  0.00000000000E+00  0.00000000000E+00 -0.22249220825E+04  0.22249220825E+04  0.50400001928E-02 0. -1.
    10030    2    1    2    0    0  0.00000000000E+00  0.00000000000E+00 -0.81316421849E+03  0.36366799464E+04  0.35446022325E+04 0.  0.
        5    1    3    3  502    0  0.11306788083E+04  0.13544050312E+04 -0.23434750817E+03  0.17798281941E+04  0.46999998093E+01 0. -1.
       -5    1    3    3    0  502 -0.11306788083E+04 -0.13544050312E+04 -0.57881671032E+03  0.18568517523E+04  0.46999998093E+01 0.  1.
</event>
<event>
 5   0  0.1444091E-06  0.3622417E+04  0.7818609E-02  0.8085376E-01
        2   -1    0    0  501    0  0.00000000000E+00  0.00000000000E+00  0.16214929397E+04  0.16214929397E+04  0.25500000920E-02 0. -1.
       -2   -1    0    0    0  501  0.00000000000E+00  0.00000000000E+00 -0.20231208835E+04  0.20231208835E+04  0.25500000920E-02 0.  1.
    10030    2    1    2    0    0  0.00000000000E+00  0.00000000000E+00 -0.40162794382E+03  0.36446138231E+04  0.36224169990E+04 0.  0.
        1    1    3    3  502    0  0.10426490874E+04 -0.44597855244E+03  0.12200941086E+04  0.16657261548E+04  0.50400001928E-02 0. -1.
       -1    1    3    3    0  502 -0.10426490874E+04  0.44597855244E+03 -0.16217220524E+04  0.19788876684E+04  0.50400001928E-02 0.  1.
</event>
<event>
 5   0  0.4811500E-07  0.3661914E+04  0.7818609E-02  0.8076455E-01
        1   -1    0    0  501    0  0.00000000000E+00  0.00000000000E+00  0.22695631188E+04  0.22695631188E+04  0.50400001928E-02 0. -1.
       -1   -1    0    0    0  501  0.00000000000E+00  0.00000000000E+00 -0.14771141741E+04  0.14771141741E+04  0.50400001928E-02 0.  1.
    10030    2    1    2    0    0  0.00000000000E+00  0.00000000000E+00  0.79244894476E+03  0.37466772929E+04  0.36619141726E+04 0.  0.
        2    1    3    3  502    0 -0.13312360323E+04  0.12196789910E+04  0.84882208166E+02  0.18074875391E+04  0.25500000920E-02 0. -1.
       -2    1    3    3    0  502  0.13312360323E+04 -0.12196789910E+04  0.70756673660E+03  0.19391897538E+04  0.25500000920E-02 0.  1.
</event>
<event>
 5   0  0.1505671E-06  0.2315486E+04  0.7818609E-02  0.8471840E-01
       -2   -1    0    0    0  501  0.00000000000E+00  0.00000000000E+00  0.10778233139E+04  0.10778233139E+04  0.25500000920E-02 0. -1.
        2   -1    0    0  501    0  0.00000000000E+00  0.00000000000E+00 -0.12435890598E+04  0.12435890598E+04  0.25500000920E-02 0.  1.
    10030    2    1    2    0    0  0.00000000000E+00  0.00000000000E+00 -0.16576574590E+03  0.23214123736E+04  0.23154863692E+04 0.  0.
        3    1    3    3  502    0  0.19143234423E+03  0.27844735015E+03  0.10272857578E+04  0.10814320633E+04  0.10100000352E+00 0. -1.
       -3    1    3    3    0  502 -0.19143234423E+03 -0.27844735015E+03 -0.11930515037E+04  0.12399803103E+04  0.10100000352E+00 0.  1.
</event>
<event>
 5   0  0.4811500E-07  0.3546667E+04  0.7818609E-02  0.8102819E-01
        1   -1    0    0  501    0  0.00000000000E+00  0.00000000000E+00  0.24730110921E+04  0.24730110921E+04  0.50400001928E-02 0.  1.
       -1   -1    0    0    0  501  0.00000000000E+00  0.00000000000E+00 -0.12716123120E+04  0.12716123120E+04  0.50400001928E-02 0. -1.
    10030    2    1    2    0    0  0.00000000000E+00  0.00000000000E+00  0.12013987801E+04  0.37446234041E+04  0.35466668028E+04 0.  0.
        4    1    3    3  502    0 -0.11828457506E+04  0.82773009721E+03  0.16879572601E+04  0.22211399120E+04  0.12699999809E+01 0.  1.
       -4    1    3    3    0  502  0.11828457506E+04 -0.82773009721E+03 -0.48655848002E+03  0.15234834922E+04  0.12699999809E+01 0. -1.
</event>
<event>
 5   0  0.1444091E-06  0.3280970E+04  0.7818609E-02  0.8167754E-01
        2   -1    0    0  501    0  0.00000000000E+00  0.00000000000E+00  0.14375428861E+04  0.14375428861E+04  0.25500000920E-02 0.  1.
       -2   -1    0    0    0  501  0.00000000000E+00  0.00000000000E+00 -0.18720772872E+04  0.18720772872E+04  0.25500000920E-02 0. -1.
    10030    2    1    2    0    0  0.00000000000E+00  0.00000000000E+00 -0.43453440114E+03  0.33096201733E+04  0.32809702140E+04 0.  0.
        1    1    3    3  502    0 -0.10732149925E+04  0.11605563858E+03  0.10288057411E+04  0.14912077603E+04  0.50400001928E-02 0.  1.
       -1    1    3    3    0  502  0.10732149925E+04 -0.11605563858E+03 -0.14633401423E+04  0.18184124129E+04  0.50400001928E-02 0. -1.
</event>
<event>
 5   0  0.4811500E-07  0.3640631E+04  0.7818609E-02  0.8081248E-01
        1   -1    0    0  501    0  0.00000000000E+00  0.00000000000E+00  0.21513409934E+04  0.21513409935E+04  0.50400001928E-02 0. -1.
       -1   -1    0    0    0  501  0.00000000000E+00  0.00000000000E+00 -0.15402245788E+04  0.15402245788E+04  0.50400001928E-02 0.  1.
    10030    2    1    2    0    0  0.00000000000E+00  0.00000000000E+00  0.61111641462E+03  0.36915655723E+04  0.36406308660E+04 0.  0.
        3    1    3    3  502    0 -0.10690344053E+04  0.95509361210E+03 -0.83197021836E+03  0.16574718163E+04  0.10100000352E+00 0.  1.
       -3    1    3    3    0  502  0.10690344053E+04 -0.95509361210E+03  0.14430866330E+04  0.20340937559E+04  0.10100000352E+00 0. -1.
</event>
<event>
 5   0  0.1379425E-06  0.3605608E+04  0.7818609E-02  0.8089208E-01
        2   -1    0    0  501    0  0.00000000000E+00  0.00000000000E+00  0.17130174161E+04  0.17130174161E+04  0.25500000920E-02 0.  1.
       -2   -1    0    0    0  501  0.00000000000E+00  0.00000000000E+00 -0.18972971584E+04  0.18972971584E+04  0.25500000920E-02 0. -1.
    10030    2    1    2    0    0  0.00000000000E+00  0.00000000000E+00 -0.18427974231E+03  0.36103145746E+04  0.36056084513E+04 0.  0.
        4    1    3    3  502    0  0.59848221320E+03 -0.16835761178E+04  0.14794789747E+03  0.17929025900E+04  0.12699999809E+01 0. -1.
       -4    1    3    3    0  502 -0.59848221320E+03  0.16835761178E+04 -0.33222763977E+03  0.18174119845E+04  0.12699999809E+01 0.  1.
</event>
<event>
 5   0  0.4811500E-07  0.3603632E+04  0.7818609E-02  0.8089660E-01
        3   -1    0    0  501    0  0.00000000000E+00  0.00000000000E+00  0.13458022410E+04  0.13458022448E+04  0.10100000352E+00 0. -1.
       -3   -1    0    0    0  501  0.00000000000E+00  0.00000000000E+00 -0.24123468253E+04  0.24123468274E+04  0.10100000352E+00 0.  1.
    10030    2    1    2    0    0  0.00000000000E+00  0.00000000000E+00 -0.10665445843E+04  0.37581490721E+04  0.36036324865E+04 0.  0.
        1    1    3    3  502    0 -0.62019394969E+03  0.61606462400E+03 -0.21763813257E+04  0.23453809565E+04  0.50400001928E-02 0.  1.
       -1    1    3    3    0  502  0.62019394969E+03 -0.61606462400E+03  0.11098367414E+04  0.14127681157E+04  0.50400001928E-02 0. -1.
</event>
<event>
 5   0  0.1379425E-06  0.2847781E+04  0.7818609E-02  0.8288586E-01
       -2   -1    0    0    0  501  0.00000000000E+00  0.00000000000E+00  0.94362440956E+03  0.94362440957E+03  0.25500000920E-02 0.  1.
        2   -1    0    0  501    0  0.00000000000E+00  0.00000000000E+00 -0.21485918759E+04  0.21485918759E+04  0.25500000920E-02 0. -1.
    10030    2    1    2    0    0  0.00000000000E+00  0.00000000000E+00 -0.12049674664E+04  0.30922162855E+04  0.28477807081E+04 0.  0.
        4    1    3    3  502    0 -0.20092700886E+03  0.11019387262E+04  0.35207558095E+03  0.11741377461E+04  0.12699999809E+01 0.  1.
       -4    1    3    3    0  502  0.20092700886E+03 -0.11019387262E+04 -0.15570430473E+04  0.19180785394E+04  0.12699999809E+01 0. -1.
</event>
<event>
 5   0  0.1491854E-06  0.3562293E+04  0.7818609E-02  0.8099184E-01
       -2   -1    0    0    0  501  0.00000000000E+00  0.00000000000E+00  0.18081195427E+04  0.18081195427E+04  0.25500000920E-02 0. -1.
        2   -1    0    0  501    0  0.00000000000E+00  0.00000000000E+00 -0.17545756879E+04  0.17545756879E+04  0.25500000920E-02 0.  1.
    10030    2    1    2    0    0  0.00000000000E+00  0.00000000000E+00  0.53543854838E+02  0.35626952306E+04  0.35622928517E+04 0.  0.
        5    1    3    3  502    0 -0.44707612069E+03  0.17127949140E+04 -0.17052434134E+03  0.17783824437E+04  0.46999998093E+01 0.  1.
       -5    1    3    3    0  502  0.44707612069E+03 -0.17127949140E+04  0.22406819618E+03  0.17843127869E+04  0.46999998093E+01 0. -1.
</event>
<event>
 5   0  0.1468942E-06  0.3604719E+04  0.7818609E-02  0.8089412E-01
       -2   -1    0    0    0  501  0.00000000000E+00  0.00000000000E+00  0.32502615248E+04  0.32502615248E+04  0.25500000920E-02 0. -1.
        2   -1    0    0  501    0  0.00000000000E+00  0.00000000000E+00 -0.99945783763E+03  0.99945783763E+03  0.25500000920E-02 0.  1.
    10030    2    1    2    0    0  0.00000000000E+00  0.00000000000E+00  0.22508036872E+04  0.42497193625E+04  0.36047187715E+04 0.  0.
        2    1    3    3  502    0 -0.10510443547E+04  0.97679017894E+03  0.24112954916E+04  0.28059150445E+04  0.25500000920E-02 0. -1.
       -2    1    3    3    0  502  0.10510443547E+04 -0.97679017894E+03 -0.16049180439E+03  0.14438043180E+04  0.25500000920E-02 0.  1.
</event>
<event>
 5   0  0.1505671E-06  0.3557449E+04  0.7818609E-02  0.8100309E-01
        2   -1    0    0  501    0  0.00000000000E+00  0.00000000000E+00  0.20035492932E+04  0.20035492932E+04  0.25500000920E-02 0.  1.
       -2   -1    0    0    0  501  0.00000000000E+00  0.00000000000E+00 -0.15791277772E+04  0.15791277772E+04  0.25500000920E-02 0. -1.
    10030    2    1    2    0    0  0.00000000000E+00  0.00000000000E+00  0.42442151596E+03  0.35826770704E+04  0.35574487161E+04 0.  0.
        3    1    3    3  502    0 -0.71668204236E+03 -0.93765352819E+03 -0.11280285406E+04  0.16325672076E+04  0.10100000352E+00 0. -1.
       -3    1    3    3    0  502  0.71668204236E+03  0.93765352819E+03  0.15524500565E+04  0.19501098628E+04  0.10100000352E+00 0.  1.
</event>
<event>
 5   0  0.1505671E-06  0.3609625E+04  0.7818609E-02  0.8088290E-01
        2   -1    0    0  501    0  0.00000000000E+00  0.00000000000E+00  0.21307626618E+04  0.21307626618E+04  0.25500000920E-02 0. -1.
       -2   -1    0    0    0  501  0.00000000000E+00  0.00000000000E+00 -0.15287244081E+04  0.15287244081E+04  0.25500000920E-02 0.  1.
    10030    2    1    2    0    0  0.00000000000E+00  0.00000000000E+00  0.60203825364E+03  0.36594870699E+04  0.36096254038E+04 0.  0.
        3    1    3    3  502    0 -0.40084081713E+03  0.17443783409E+04  0.65823735718E+02  0.17910505105E+04  0.10100000352E+00 0. -1.
       -3    1    3    3    0  502  0.40084081713E+03 -0.17443783409E+04  0.53621451793E+03  0.18684365594E+04  0.10100000352E+00 0.  1.
</event>
<event>
 5   0  0.1468942E-06  0.3883189E+04  0.7818609E-02  0.8028535E-01
       -2   -1    0    0    0  501  0.00000000000E+00  0.00000000000E+00  0.28317837016E+04  0.28317837016E+04  0.25500000920E-02 0. -1.
        2   -1    0    0  501    0  0.00000000000E+00  0.00000000000E+00 -0.13312421207E+04  0.13312421207E+04  0.25500000920E-02 0.  1.
    10030    2    1    2    0    0  0.00000000000E+00  0.00000000000E+00  0.15005415810E+04  0.41630258223E+04  0.38831892770E+04 0.  0.
        2    1    3    3  502    0  0.47694891084E+03 -0.52115295704E+03 -0.11885671191E+04  0.13826686027E+04  0.25500000920E-02 0.  1.
       -2    1    3    3    0  502 -0.47694891084E+03  0.52115295704E+03  0.26891087001E+04  0.27803572197E+04  0.25500000920E-02 0. -1.
</event>
<event>
 5   0  0.4811500E-07  0.2715866E+04  0.7818609E-02  0.8329875E-01
       -3   -1    0    0    0  501  0.00000000000E+00  0.00000000000E+00  0.15310764040E+04  0.15310764073E+04  0.10100000352E+00 0.  1.
        3   -1    0    0  501    0  0.00000000000E+00  0.00000000000E+00 -0.12043700581E+04  0.12043700623E+04  0.10100000352E+00 0. -1.
    10030    2    1    2    0    0  0.00000000000E+00  0.00000000000E+00  0.32670634589E+03  0.27354464697E+04  0.27158664091E+04 0.  0.
        2    1    3    3  502    0  0.68769001169E+03  0.50757558283E+02  0.13416112502E+04  0.15084477546E+04  0.25500000920E-02 0.  1.
       -2    1    3    3    0  502 -0.68769001169E+03 -0.50757558283E+02 -0.10149049043E+04  0.12269987150E+04  0.25500000920E-02 0. -1.
</event>
<event>
 5   0  0.1491854E-06  0.3511366E+04  0.7818609E-02  0.8111102E-01
        2   -1    0    0  501    0  0.00000000000E+00  0.00000000000E+00  0.27863441198E+04  0.27863441198E+04  0.25500000920E-02 0.  1.
       -2   -1    0    0    0  501  0.00000000000E+00  0.00000000000E+00 -0.11062608385E+04  0.11062608385E+04  0.25500000920E-02 0. -1.
    10030    2    1    2    0    0  0.00000000000E+00  0.00000000000E+00  0.16800832813E+04  0.38926049583E+04  0.35113663337E+04 0.  0.
        5    1    3    3  502    0 -0.10784128643E+04 -0.67549117576E+02 -0.69398594545E+03  0.12842023873E+04  0.46999998093E+01 0. -1.
       -5    1    3    3    0  502  0.10784128643E+04  0.67549117576E+02  0.23740692268E+04  0.26084025710E+04  0.46999998093E+01 0.  1.
</event>
<event>
 5   0  0.1505671E-06  0.3911100E+04  0.7818609E-02  0.8022725E-01
        2   -1    0    0  501    0  0.00000000000E+00  0.00000000000E+00  0.24535660926E+04  0.24535660926E+04  0.25500000920E-02 0.  1.
       -2   -1    0    0    0  501  0.00000000000E+00  0.00000000000E+00 -0.15586193628E+04  0.15586193628E+04  0.25500000920E-02 0. -1.
    10030    2    1    2    0    0  0.00000000000E+00  0.00000000000E+00  0.89494672976E+03  0.40121854554E+04  0.39110999066E+04 0.  0.
        3    1    3    3  502    0 -0.12975329936E+04  0.10540570803E+04  0.14883643923E+04  0.22382709336E+04  0.10100000352E+00 0.  1.
       -3    1    3    3    0  502  0.12975329936E+04 -0.10540570803E+04 -0.59341766251E+03  0.17739145217E+04  0.10100000352E+00 0. -1.
</event>
<event>
 5   0  0.4811500E-07  0.3602135E+04  0.7818609E-02  0.8090003E-01
       -1   -1    0    0    0  501  0.00000000000E+00  0.00000000000E+00  0.23428037058E+04  0.23428037058E+04  0.50400001928E-02 0. -1.
        1   -1    0    0  501    0  0.00000000000E+00  0.00000000000E+00 -0.13845991685E+04  0.13845991685E+04  0.50400001928E-02 0.  1.
    10030    2    1    2    0    0  0.00000000000E+00  0.00000000000E+00  0.95820453727E+03  0.37274028743E+04  0.36021349575E+04 0.  0.
        4    1    3    3  502    0 -0.24845156337E+03 -0.99488328252E+03 -0.10530378326E+04  0.14698337372E+04  0.12699999809E+01 0.  1.
       -4    1    3    3    0  502  0.24845156337E+03  0.99488328252E+03  0.20112423699E+04  0.22575691371E+04  0.12699999809E+01 0. -1.
</event>
<event>
 5   0  0.1491420E-06  0.2208856E+04  0.7818609E-02  0.8514751E-01
       -2   -1    0    0    0  501  0.00000000000E+00  0.00000000000E+00  0.67178352073E+03  0.67178352073E+03  0.25500000920E-02 0.  1.
        2   -1    0    0  501    0  0.00000000000E+00  0.00000000000E+00 -0.18157049713E+04  0.18157049713E+04  0.25500000920E-02 0. -1.
    10030    2    1    2    0    0  0.00000000000E+00  0.00000000000E+00 -0.11439214506E+04  0.24874884921E+04  0.22088555211E+04 0.  0.
        1    1    3    3  502    0 -0.43431281708E+03  0.37460143631E+03 -0.16348439106E+04  0.17325323868E+04  0.50400001928E-02 0. -1.
       -1    1    3    3    0  502  0.43431281708E+03 -0.37460143631E+03  0.49092246000E+03  0.75495610529E+03  0.50400001928E-02 0.  1.
</event>
<event>
 5   0  0.1468942E-06  0.3513967E+04  0.7818609E-02  0.8110488E-01
        2   -1    0    0  501    0  0.00000000000E+00  0.00000000000E+00  0.18588264722E+04  0.18588264722E+04  0.25500000920E-02 0. -1.
       -2   -1    0    0    0  501  0.00000000000E+00  0.00000000000E+00 -0.16607200213E+04  0.16607200213E+04  0.25500000920E-02 0.  1.
    10030    2    1    2    0    0  0.00000000000E+00  0.00000000000E+00  0.19810645089E+03  0.35195464935E+04  0.35139666125E+04 0.  0.
        2    1    3    3  502    0 -0.17874570443E+03  0.81626651097E+03  0.16470653638E+04  0.18469069702E+04  0.25500000920E-02 0. -1.
       -2    1    3    3    0  502  0.17874570443E+03 -0.81626651097E+03 -0.14489589129E+04  0.16726395234E+04  0.25500000920E-02 0.  1.
</event>
<event>
 5   0  0.4811500E-07  0.2441824E+04  0.7818609E-02  0.8424009E-01
        1   -1    0    0  501    0  0.00000000000E+00  0.00000000000E+00  0.17614185266E+04  0.17614185266E+04  0.50400001928E-02 0. -1.
       -1   -1    0    0    0  501  0.00000000000E+00  0.00000000000E+00 -0.84626486122E+03  0.84626486124E+03  0.50400001928E-02 0.  1.
    10030    2    1    2    0    0  0.00000000000E+00  0.00000000000E+00  0.91515366539E+03  0.26076833879E+04  0.24418244040E+04 0.  0.
        2    1    3    3  502    0  0.39633039094E+03  0.94738890588E+03  0.11627328443E+04  0.15513127296E+04  0.25500000920E-02 0. -1.
       -2    1    3    3    0  502 -0.39633039094E+03 -0.94738890588E+03 -0.24757917894E+03  0.10563706582E+04  0.25500000920E-02 0.  1.
</event>
<event>
 5   0  0.1491854E-06  0.3277252E+04  0.7818609E-02  0.8168708E-01
       -2   -1    0    0    0  501  0.00000000000E+00  0.00000000000E+00  0.91775691053E+03  0.91775691053E+03  0.25500000920E-02 0. -1.
        2   -1    0    0  501    0  0.00000000000E+00  0.00000000000E+00 -0.29257147818E+04  0.29257147818E+04  0.25500000920E-02 0.  1.
    10030    2    1    2    0    0  0.00000000000E+00  0.00000000000E+00 -0.20079578713E+04  0.38434716924E+04  0.32772518727E+04 0.  0.
        5    1    3    3  502    0  0.16155248803E+04  0.25453309608E+03 -0.11233781077E+04  0.19841139581E+04  0.46999998093E+01 0. -1.
       -5    1    3    3    0  502 -0.16155248803E+04 -0.25453309608E+03 -0.88457976362E+03  0.18593577343E+04  0.46999998093E+01 0.  1.
</event>
<event>
 5   0  0.4811500E-07  0.3600510E+04  0.7818609E-02  0.8090375E-01
       -1   -1    0    0    0  501  0.00000000000E+00  0.00000000000E+00  0.14017518427E+04  0.14017518427E+04  0.50400001928E-02 0.  1.
        1   -1    0    0  501    0  0.00000000000E+00  0.00000000000E+00 -0.23120484062E+04  0.23120484062E+04  0.50400001928E-02 0. -1.
    10030    2    1    2    0    0  0.00000000000E+00  0.00000000000E+00 -0.91029656342E+03  0.37138002489E+04  0.36005100271E+04 0.  0.
        3    1    3    3  502    0  0.82617900949E+03  0.13979861902E+04  0.34646728141E+03  0.16604146262E+04  0.10100000352E+00 0. -1.
       -3    1    3    3    0  502 -0.82617900949E+03 -0.13979861902E+04 -0.12567638448E+04  0.20533856227E+04  0.10100000352E+00 0.  1.
</event>
<event>
 5   0  0.4811500E-07  0.3580550E+04  0.7818609E-02  0.8094962E-01
       -1   -1    0    0    0  501  0.00000000000E+00  0.00000000000E+00  0.27140780656E+04  0.27140780656E+04  0.50400001928E-02 0. -1.
        1   -1    0    0  501    0  0.00000000000E+00  0.00000000000E+00 -0.11809108777E+04  0.11809108777E+04  0.50400001928E-02 0.  1.
    10030    2    1    2    0    0  0.00000000000E+00  0.00000000000E+00  0.15331671879E+04  0.38949889434E+04  0.35805498520E+04 0.  0.
        3    1    3    3  502    0 -0.82505532549E+02  0.30395612389E+03 -0.11505367979E+04  0.11928668918E+04  0.10100000352E+00 0.  1.
       -3    1    3    3    0  502  0.82505532549E+02 -0.30395612389E+03  0.26837039857E+04  0.27021220515E+04  0.10100000352E+00 0. -1.
</event>
<event>
 5   0  0.4811500E-07  0.3596952E+04  0.7818609E-02  0.8091190E-01
        1   -1    0    0  501    0  0.00000000000E+00  0.00000000000E+00  0.20570042765E+04  0.20570042765E+04  0.50400001928E-02 0.  1.
       -1   -1    0    0    0  501  0.00000000000E+00  0.00000000000E+00 -0.15724398333E+04  0.15724398333E+04  0.50400001928E-02 0. -1.
    10030    2    1    2    0    0  0.00000000000E+00  0.00000000000E+00  0.48456444317E+03  0.36294441098E+04  0.35969517438E+04 0.  0.
        4    1    3    3  502    0  0.16454092263E+04  0.72245892531E+03  0.31501265377E+03  0.18244322420E+04  0.12699999809E+01 0. -1.
       -4    1    3    3    0  502 -0.16454092263E+04 -0.72245892531E+03  0.16955178940E+03  0.18050118678E+04  0.12699999809E+01 0.  1.
</event>
<event>
 5   0  0.1379425E-06  0.3165990E+04  0.7818609E-02  0.8197857E-01
       -2   -1    0    0    0  501  0.00000000000E+00  0.00000000000E+00  0.12107474211E+04  0.12107474211E+04  0.25500000920E-02 0.  1.
        2   -1    0    0  501    0  0.00000000000E+00  0.00000000000E+00 -0.20696911299E+04  0.20696911299E+04  0.25500000920E-02 0. -1.
    10030    2    1    2    0    0  0.00000000000E+00  0.00000000000E+00 -0.85894370883E+03  0.32804385510E+04  0.31659900176E+04 0.  0.
        4    1    3    3  502    0 -0.32662874388E+03  0.38688465860E+03  0.11245813973E+04  0.12333089667E+04  0.12699999809E+01 0.  1.
       -4    1    3    3    0  502  0.32662874388E+03 -0.38688465860E+03 -0.19835251061E+04  0.20471295843E+04  0.12699999809E+01 0. -1.
</event>
<event>
 5   0  0.1468942E-06  0.3400005E+04  0.7818609E-02  0.8137905E-01
        2   -1    0    0  501    0  0.00000000000E+00  0.00000000000E+00  0.23298999695E+04  0.23298999695E+04  0.25500000920E-02 0. -1.
       -2   -1    0    0    0  501  0.00000000000E+00  0.00000000000E+00 -0.12403999815E+04  0.12403999815E+04  0.25500000920E-02 0.  1.
    10030    2    1    2    0    0  0.00000000000E+00  0.00000000000E+00  0.10894999881E+04  0.35702999510E+04  0.34000046347E+04 0.  0.
        2    1    3    3  502    0  0.13424735983E+03 -0.75047167176E+03  0.21403214683E+04  0.22720488709E+04  0.25500000920E-02 0. -1.
       -2    1    3    3    0  502 -0.13424735983E+03  0.75047167176E+03 -0.10508214803E+04  0.12982510802E+04  0.25500000920E-02 0.  1.
</event>
<event>
 5   0  0.1379425E-06  0.3425790E+04  0.7818609E-02  0.8131606E-01
        2   -1    0    0  501    0  0.00000000000E+00  0.00000000000E+00  0.15104187400E+04  0.15104187400E+04  0.25500000920E-02 0.  1.
       -2   -1    0    0    0  501  0.00000000000E+00  0.00000000000E+00 -0.19425136707E+04  0.19425136707E+04  0.25500000920E-02 0. -1.
    10030    2    1    2    0    0  0.00000000000E+00  0.00000000000E+00 -0.43209493075E+03  0.34529324107E+04  0.34257898656E+04 0.  0.
        4    1    3    3  502    0  0.15213783971E+04  0.55886545306E+03 -0.77459017458E+03  0.17963614261E+04  0.12699999809E+01 0. -1.
       -4    1    3    3    0  502 -0.15213783971E+04 -0.55886545306E+03  0.34249524383E+03  0.16565709845E+04  0.12699999809E+01 0.  1.
</event>
<event>
 5   0  0.1444091E-06  0.3638279E+04  0.7818609E-02  0.8081779E-01
        2   -1    0    0  501    0  0.00000000000E+00  0.00000000000E+00  0.23869734607E+04  0.23869734607E+04  0.25500000920E-02 0.  1.
       -2   -1    0    0    0  501  0.00000000000E+00  0.00000000000E+00 -0.13863868655E+04  0.13863868655E+04  0.25500000920E-02 0. -1.
    10030    2    1    2    0    0  0.00000000000E+00  0.00000000000E+00  0.10005865952E+04  0.37733603263E+04  0.36382790736E+04 0.  0.
        1    1    3    3  502    0  0.15377455312E+04 -0.70390712350E+03 -0.19475419670E+03  0.17023735649E+04  0.50400001928E-02 0. -1.
       -1    1    3    3    0  502 -0.15377455312E+04  0.70390712350E+03  0.11953407919E+04  0.20709867614E+04  0.50400001928E-02 0.  1.
</event>
<event>
 5   0  0.1505671E-06  0.3580981E+04  0.7818609E-02  0.8094862E-01
        2   -1    0    0  501    0  0.00000000000E+00  0.00000000000E+00  0.21034141320E+04  0.21034141320E+04  0.25500000920E-02 0.  1.
       -2   -1    0    0    0  501  0.00000000000E+00  0.00000000000E+00 -0.15241201320E+04  0.15241201320E+04  0.25500000920E-02 0. -1.
    10030    2    1    2    0    0  0.00000000000E+00  0.00000000000E+00  0.57929400003E+03  0.36275342639E+04  0.35809807731E+04 0.  0.
        3    1    3    3  502    0 -0.28367866610E+03  0.11238851498E+04  0.16720357934E+04  0.20345257728E+04  0.10100000352E+00 0.  1.
       -3    1    3    3    0  502  0.28367866610E+03 -0.11238851498E+04 -0.10927417934E+04  0.15930084911E+04  0.10100000352E+00 0. -1.
</event>
<event>
 5   0  0.5071661E-07  0.2244187E+04  0.7818609E-02  0.8500258E-01
       -1   -1    0    0    0  501  0.00000000000E+00  0.00000000000E+00  0.16099267313E+04  0.16099267313E+04  0.50400001928E-02 0.  1.
        1   -1    0    0  501    0  0.00000000000E+00  0.00000000000E+00 -0.78208145894E+03  0.78208145896E+03  0.50400001928E-02 0. -1.
    10030    2    1    2    0    0  0.00000000000E+00  0.00000000000E+00  0.82784527237E+03  0.23920081903E+04  0.22441870215E+04 0.  0.
        1    1    3    3  502    0  0.96782902510E+03  0.14451068947E+03 -0.17135222055E+03  0.99344750476E+03  0.50400001928E-02 0. -1.
       -1    1    3    3    0  502 -0.96782902510E+03 -0.14451068947E+03  0.99919749291E+03  0.13985606855E+04  0.50400001928E-02 0.  1.
</event>
<event>
 5   0  0.1468942E-06  0.3616022E+04  0.7818609E-02  0.8086831E-01
        2   -1    0    0  501    0  0.00000000000E+00  0.00000000000E+00  0.21422062584E+04  0.21422062584E+04  0.25500000920E-02 0.  1.
       -2   -1    0    0    0  501  0.00000000000E+00  0.00000000000E+00 -0.15259522710E+04  0.15259522710E+04  0.25500000920E-02 0. -1.
    10030    2    1    2    0    0  0.00000000000E+00  0.00000000000E+00  0.61625398740E+03  0.36681585294E+04  0.36160224031E+04 0.  0.
        2    1    3    3  502    0  0.16449496606E+04 -0.57555739676E+03 -0.18024847489E+03  0.17520317394E+04  0.25500000920E-02 0.  1.
       -2    1    3    3    0  502 -0.16449496606E+04  0.57555739676E+03  0.79650246229E+03  0.19161267900E+04  0.25500000920E-02 0. -1.
</event>
<event>
 5   0  0.4811500E-07  0.2793083E+04  0.7818609E-02  0.8305419E-01
       -1   -1    0    0    0  501  0.00000000000E+00  0.00000000000E+00  0.14020797726E+04  0.14020797726E+04  0.50400001928E-02 0. -1.
        1   -1    0    0  501    0  0.00000000000E+00  0.00000000000E+00 -0.13910254288E+04  0.13910254288E+04  0.50400001928E-02 0.  1.
    10030    2    1    2    0    0  0.00000000000E+00  0.00000000000E+00  0.11054343845E+02  0.27931052014E+04  0.27930833263E+04 0.  0.
        2    1    3    3  502    0 -0.92659748103E+03 -0.31264988485E+03 -0.99147400378E+03  0.13926067437E+04  0.25500000920E-02 0.  1.
       -2    1    3    3    0  502  0.92659748103E+03  0.31264988485E+03  0.10025283476E+04  0.14004984577E+04  0.25500000920E-02 0. -1.
</event>
<event>
 5   0  0.1468942E-06  0.3591826E+04  0.7818609E-02  0.8092367E-01
       -2   -1    0    0    0  501  0.00000000000E+00  0.00000000000E+00  0.13687431907E+04  0.13687431907E+04  0.25500000920E-02 0. -1.
        2   -1    0    0  501    0  0.00000000000E+00  0.00000000000E+00 -0.23563974472E+04  0.23563974472E+04  0.25500000920E-02 0.  1.
    10030    2    1    2    0    0  0.00000000000E+00  0.00000000000E+00 -0.98765425653E+03  0.37251406379E+04  0.35918256976E+04 0.  0.
        2    1    3    3  502    0  0.16705716669E+04  0.25303501163E+02  0.18929557992E+03  0.16814525798E+04  0.25500000920E-02 0. -1.
       -2    1    3    3    0  502 -0.16705716669E+04 -0.25303501163E+02 -0.11769498364E+04  0.20436880581E+04  0.25500000920E-02 0.  1.
</event>
<event>
 5   0  0.1379425E-06  0.3571151E+04  0.7818609E-02  0.8097132E-01
        2   -1    0    0  501    0  0.00000000000E+00  0.00000000000E+00  0.16490594037E+04  0.16490594037E+04  0.25500000920E-02 0. -1.
       -2   -1    0    0    0  501  0.00000000000E+00  0.00000000000E+00 -0.19333925362E+04  0.19333925362E+04  0.25500000920E-02 0.  1.
    10030    2    1    2    0    0  0.00000000000E+00  0.00000000000E+00 -0.28433313257E+03  0.35824519399E+04  0.35711505949E+04 0.  0.
        4    1    3    3  502    0 -0.10814538234E+04  0.14098848144E+04 -0.31867784461E+03  0.18052353706E+04  0.12699999809E+01 0. -1.
       -4    1    3    3    0  502  0.10814538234E+04 -0.14098848144E+04  0.34344712034E+02  0.17772165693E+04  0.12699999809E+01 0.  1.
</event>
<event>
 5   0  0.4811500E-07  0.3653697E+04  0.7818609E-02  0.8078301E-01
       -1   -1    0    0    0  501  0.00000000000E+00  0.00000000000E+00  0.14839351163E+04  0.14839351163E+04  0.50400001928E-02 0. -1.
        1   -1    0    0  501    0  0.00000000000E+00  0.00000000000E+00 -0.22490037847E+04  0.22490037847E+04  0.50400001928E-02 0.  1.
    10030    2    1    2    0    0  0.00000000000E+00  0.00000000000E+00 -0.76506866837E+03  0.37329389010E+04  0.36536971373E+04 0.  0.
        4    1    3    3  502    0 -0.77984764074E+03 -0.75626994873E+03  0.11180843076E+04  0.15589165180E+04  0.12699999809E+01 0. -1.
       -4    1    3    3    0  502  0.77984764074E+03  0.75626994873E+03 -0.18831529760E+04  0.21740223831E+04  0.12699999809E+01 0.  1.
</event>
<event>
 5   0  0.4811500E-07  0.3651493E+04  0.7818609E-02  0.8078797E-01
        1   -1    0    0  501    0  0.00000000000E+00  0.00000000000E+00  0.24363994784E+04  0.24363994784E+04  0.50400001928E-02 0. -1.
       -1   -1    0    0    0  501  0.00000000000E+00  0.00000000000E+00 -0.13681462614E+04  0.13681462615E+04  0.50400001928E-02 0.  1.
    10030    2    1    2    0    0  0.00000000000E+00  0.00000000000E+00  0.10682532170E+04  0.38045457399E+04  0.36514933043E+04 0.  0.
        3    1    3    3  502    0 -0.13137379126E+03 -0.18013360419E+04  0.81230078628E+03  0.19803795562E+04  0.10100000352E+00 0. -1.
       -3    1    3    3    0  502  0.13137379126E+03  0.18013360419E+04  0.25595243071E+03  0.18241661837E+04  0.10100000352E+00 0.  1.
</event>
<event>
 5   0  0.1505671E-06  0.3822578E+04  0.7818609E-02  0.8041327E-01
       -2   -1    0    0    0  501  0.00000000000E+00  0.00000000000E+00  0.16171011406E+04  0.16171011406E+04  0.25500000920E-02 0. -1.
        2   -1    0    0  501    0  0.00000000000E+00  0.00000000000E+00 -0.22589967036E+04  0.22589967036E+04  0.25500000920E-02 0.  1.
    10030    2    1    2    0    0  0.00000000000E+00  0.00000000000E+00 -0.64189556294E+03  0.38760978442E+04  0.38225782639E+04 0.  0.
        3    1    3    3  502    0  0.83877400558E+03  0.65982374113E+03  0.12868487302E+04  0.16717921122E+04  0.10100000352E+00 0. -1.
       -3    1    3    3    0  502 -0.83877400558E+03 -0.65982374113E+03 -0.19287442931E+04  0.22043057320E+04  0.10100000352E+00 0.  1.
</event>
<event>
 5   0  0.4811500E-07  0.3611002E+04  0.7818609E-02  0.8087976E-01
       -1   -1    0    0    0  501  0.00000000000E+00  0.00000000000E+00  0.21318762864E+04  0.21318762864E+04  0.50400001928E-02 0.  1.
        1   -1    0    0  501    0  0.00000000000E+00  0.00000000000E+00 -0.15290914487E+04  0.15290914487E+04  0.50400001928E-02 0. -1.
    10030    2    1    2    0    0  0.00000000000E+00  0.00000000000E+00  0.60278483772E+03  0.36609677351E+04  0.36110019658E+04 0.  0.
        5    1    3    3  502    0  0.14498954758E+01 -0.25677776767E+03 -0.15104779364E+04  0.15321561965E+04  0.46999998093E+01 0. -1.
       -5    1    3    3    0  502 -0.14498954758E+01  0.25677776767E+03  0.21132627742E+04  0.21288115386E+04  0.46999998093E+01 0.  1.
</event>
<event>
 5   0  0.4811500E-07  0.3602023E+04  0.7818609E-02  0.8090028E-01
        1   -1    0    0  501    0  0.00000000000E+00  0.00000000000E+00  0.23966491785E+04  0.23966491785E+04  0.50400001928E-02 0. -1.
       -1   -1    0    0    0  501  0.00000000000E+00  0.00000000000E+00 -0.13534073647E+04  0.13534073647E+04  0.50400001928E-02 0.  1.
    10030    2    1    2    0    0  0.00000000000E+00  0.00000000000E+00  0.10432418138E+04  0.37500565432E+04  0.36020231252E+04 0.  0.
        4    1    3    3  502    0  0.54601662889E+03 -0.16300434344E+04  0.10807834774E+04  0.20305837325E+04  0.12699999809E+01 0.  1.
       -4    1    3    3    0  502 -0.54601662889E+03  0.16300434344E+04 -0.37541663546E+02  0.17194728106E+04  0.12699999809E+01 0. -1.
</event>
<event>
 5   0  0.1379425E-06  0.3576061E+04  0.7818609E-02  0.8095997E-01
        2   -1    0    0  501    0  0.00000000000E+00  0.00000000000E+00  0.13760443421E+04  0.13760443421E+04  0.25500000920E-02 0. -1.
       -2   -1    0    0    0  501  0.00000000000E+00  0.00000000000E+00 -0.23233651951E+04  0.23233651951E+04  0.25500000920E-02 0.  1.
    10030    2    1    2    0    0  0.00000000000E+00  0.00000000000E+00 -0.94732085303E+03  0.36994095372E+04  0.35760612586E+04 0.  0.
        4    1    3    3  502    0  0.75615587712E+03 -0.48683011441E+02 -0.21490629716E+04  0.22787310097E+04  0.12699999809E+01 0.  1.
       -4    1    3    3    0  502 -0.75615587712E+03  0.48683011441E+02  0.12017421185E+04  0.14206785275E+04  0.12699999809E+01 0. -1.
</event>
<event>
 5   0  0.1444091E-06  0.3516014E+04  0.7818609E-02  0.8110005E-01
        2   -1    0    0  501    0  0.00000000000E+00  0.00000000000E+00  0.21973837293E+04  0.21973837293E+04  0.25500000920E-02 0.  1.
       -2   -1    0    0    0  501  0.00000000000E+00  0.00000000000E+00 -0.14064857595E+04  0.14064857595E+04  0.25500000920E-02 0. -1.
    10030    2    1    2    0    0  0.00000000000E+00  0.00000000000E+00  0.79089796981E+03  0.36038694889E+04  0.35160141772E+04 0.  0.
        1    1    3    3  502    0  0.13275344156E+04 -0.96224327370E+03  0.10455924536E+04  0.19446139261E+04  0.50400001928E-02 0. -1.
       -1    1    3    3    0  502 -0.13275344156E+04  0.96224327370E+03 -0.25469448382E+03  0.16592555628E+04  0.50400001928E-02 0.  1.
</event>
<event>
 5   0  0.4811500E-07  0.2415662E+04  0.7818609E-02  0.8433663E-01
       -1   -1    0    0    0  501  0.00000000000E+00  0.00000000000E+00  0.12999839188E+04  0.12999839188E+04  0.50400001928E-02 0. -1.
        1   -1    0    0  501    0  0.00000000000E+00  0.00000000000E+00 -0.11222104197E+04  0.11222104198E+04  0.50400001928E-02 0.  1.
    10030    2    1    2    0    0  0.00000000000E+00  0.00000000000E+00  0.17777349910E+03  0.24221943386E+04  0.24156618135E+04 0.  0.
        2    1    3    3  502    0 -0.63437692652E+03 -0.72916227405E+03 -0.63746419479E+03  0.11577876776E+04  0.25500000920E-02 0.  1.
       -2    1    3    3    0  502  0.63437692652E+03  0.72916227405E+03  0.81523769388E+03  0.12644066610E+04  0.25500000920E-02 0. -1.
</event>
<event>
 5   0  0.1468942E-06  0.3500699E+04  0.7818609E-02  0.8113624E-01
       -2   -1    0    0    0  501  0.00000000000E+00  0.00000000000E+00  0.11872659860E+04  0.11872659860E+04  0.25500000920E-02 0.  1.
        2   -1    0    0  501    0  0.00000000000E+00  0.00000000000E+00 -0.25804865439E+04  0.25804865439E+04  0.25500000920E-02 0. -1.
    10030    2    1    2    0    0  0.00000000000E+00  0.00000000000E+00 -0.13932205579E+04  0.37677525298E+04  0.35006993020E+04 0.  0.
        2    1    3    3  502    0  0.79310724814E+03 -0.71644422227E+03 -0.21885039262E+04  0.24355411853E+04  0.25500000920E-02 0. -1.
       -2    1    3    3    0  502 -0.79310724814E+03  0.71644422227E+03  0.79528336821E+03  0.13322113445E+04  0.25500000920E-02 0.  1.
</event>
<event>
 5   0  0.1444091E-06  0.3484927E+04  0.7818609E-02  0.8117371E-01
        2   -1    0    0  501    0  0.00000000000E+00  0.00000000000E+00  0.26764884165E+04  0.26764884165E+04  0.25500000920E-02 0.  1.
       -2   -1    0    0    0  501  0.00000000000E+00  0.00000000000E+00 -0.11343891883E+04  0.11343891883E+04  0.25500000920E-02 0. -1.
    10030    2    1    2    0    0  0.00000000000E+00  0.00000000000E+00  0.15420992282E+04  0.38108776048E+04  0.34849272717E+04 0.  0.
        1    1    3    3  502    0 -0.71340644935E+03 -0.59620897232E+03 -0.84047802558E+03  0.12533224693E+04  0.50400001928E-02 0. -1.
       -1    1    3    3    0  502  0.71340644935E+03  0.59620897232E+03  0.23825772538E+04  0.25575551355E+04  0.50400001928E-02 0.  1.
</event>
<event>
 5   0  0.1505671E-06  0.2310817E+04  0.7818609E-02  0.8473668E-01
        2   -1    0    0  501    0  0.00000000000E+00  0.00000000000E+00  0.22670013476E+04  0.22670013476E+04  0.25500000920E-02 0.  1.
       -2   -1    0    0    0  501  0.00000000000E+00  0.00000000000E+00 -0.58886992767E+03  0.58886992767E+03  0.25500000920E-02 0. -1.
    10030    2    1    2    0    0  0.00000000000E+00  0.00000000000E+00  0.16781314199E+04  0.28558712752E+04  0.23108171019E+04 0.  0.
        3    1    3    3  502    0  0.70821517707E+03 -0.90056088848E+03  0.65413773715E+03  0.13192705713E+04  0.10100000352E+00 0.  1.
       -3    1    3    3    0  502 -0.70821517707E+03  0.90056088848E+03  0.10239936827E+04  0.15366007040E+04  0.10100000352E+00 0. -1.
</event>
<event>
 5   0  0.1468942E-06  0.3420238E+04  0.7818609E-02  0.8132957E-01
       -2   -1    0    0    0  501  0.00000000000E+00  0.00000000000E+00  0.98320635336E+03  0.98320635336E+03  0.25500000920E-02 0. -1.
        2   -1    0    0  501    0  0.00000000000E+00  0.00000000000E+00 -0.29744594129E+04  0.29744594129E+04  0.25500000920E-02 0.  1.
    10030    2    1    2    0    0  0.00000000000E+00  0.00000000000E+00 -0.19912530596E+04  0.39576657663E+04  0.34202382330E+04 0.  0.
        2    1    3    3  502    0 -0.28507590482E+03  0.13843349692E+04  0.11838284641E+03  0.14183321462E+04  0.25500000920E-02 0. -1.
       -2    1    3    3    0  502  0.28507590482E+03 -0.13843349692E+04 -0.21096359060E+04  0.25393336201E+04  0.25500000920E-02 0.  1.
</event>
<event>
 5   0  0.4811500E-07  0.3303894E+04  0.7818609E-02  0.8161905E-01
        1   -1    0    0  501    0  0.00000000000E+00  0.00000000000E+00  0.18181981197E+04  0.18181981197E+04  0.50400001928E-02 0. -1.
       -1   -1    0    0    0  501  0.00000000000E+00  0.00000000000E+00 -0.15008970021E+04  0.15008970021E+04  0.50400001928E-02 0.  1.
    10030    2    1    2    0    0  0.00000000000E+00  0.00000000000E+00  0.31730111762E+03  0.33190951218E+04  0.33038935256E+04 0.  0.
        5    1    3    3  502    0  0.23799556474E+03 -0.16342486057E+04  0.11979933374E+03  0.16558334350E+04  0.46999998093E+01 0. -1.
       -5    1    3    3    0  502 -0.23799556474E+03  0.16342486057E+04  0.19750178388E+03  0.16632616868E+04  0.46999998093E+01 0.  1.
</event>
<event>
 5   0  0.1379425E-06  0.3606836E+04  0.7818609E-02  0.8088928E-01
        2   -1    0    0  501    0  0.00000000000E+00  0.00000000000E+00  0.16603245156E+04  0.16603245156E+04  0.25500000920E-02 0. -1.
       -2   -1    0    0    0  501  0.00000000000E+00  0.00000000000E+00 -0.19588442890E+04  0.19588442890E+04  0.25500000920E-02 0.  1.
    10030    2    1    2    0    0  0.00000000000E+00  0.00000000000E+00 -0.29851977336E+03  0.36191688046E+04  0.36068363951E+04 0.  0.
        4    1    3    3  502    0 -0.12881176278E+04  0.69604819569E+03  0.90723399739E+03  0.17224416544E+04  0.12699999809E+01 0. -1.
       -4    1    3    3    0  502  0.12881176278E+04 -0.69604819569E+03 -0.12057537708E+04  0.18967271502E+04  0.12699999809E+01 0.  1.
</event>
<event>
 5   0  0.4811500E-07  0.3631919E+04  0.7818609E-02  0.8083219E-01
       -1   -1    0    0    0  501  0.00000000000E+00  0.00000000000E+00  0.13427362673E+04  0.13427362673E+04  0.50400001928E-02 0.  1.
        1   -1    0    0  501    0  0.00000000000E+00  0.00000000000E+00 -0.24559615193E+04  0.24559615193E+04  0.50400001928E-02 0. -1.
    10030    2    1    2    0    0  0.00000000000E+00  0.00000000000E+00 -0.11132252520E+04  0.37986977866E+04  0.36319188334E+04 0.  0.
        3    1    3    3  502    0  0.99032256921E+03 -0.10520959923E+04 -0.17071553448E+04  0.22365205453E+04  0.10100000352E+00 0. -1.
       -3    1    3    3    0  502 -0.99032256921E+03  0.10520959923E+04  0.59393009273E+03  0.15621772413E+04  0.10100000352E+00 0.  1.
</event>
<event>
 5   0  0.5071661E-07  0.3518986E+04  0.7818609E-02  0.8109305E-01
       -1   -1    0    0    0  501  0.00000000000E+00  0.00000000000E+00  0.14650884671E+04  0.14650884671E+04  0.50400001928E-02 0. -1.
        1   -1    0    0  501    0  0.00000000000E+00  0.00000000000E+00 -0.21130567904E+04  0.21130567904E+04  0.50400001928E-02 0.  1.
    10030    2    1    2    0    0  0.00000000000E+00  0.00000000000E+00 -0.64796832330E+03  0.35781452575E+04  0.35189857255E+04 0.  0.
        1    1    3    3  502    0  0.17041285322E+04  0.29487952927E+03 -0.65316602769E+03  0.18486843568E+04  0.50400001928E-02 0.  1.
       -1    1    3    3    0  502 -0.17041285322E+04 -0.29487952927E+03  0.51977043853E+01  0.17294609008E+04  0.50400001928E-02 0. -1.
</event>
<event>
 5   0  0.1505671E-06  0.3576596E+04  0.7818609E-02  0.8095874E-01
       -2   -1    0    0    0  501  0.00000000000E+00  0.00000000000E+00  0.18087725740E+04  0.18087725740E+04  0.25500000920E-02 0.  1.
        2   -1    0    0  501    0  0.00000000000E+00  0.00000000000E+00 -0.17680552241E+04  0.17680552241E+04  0.25500000920E-02 0. -1.
    10030    2    1    2    0    0  0.00000000000E+00  0.00000000000E+00  0.40717349884E+02  0.35768277980E+04  0.35765960345E+04 0.  0.
        3    1    3    3  502    0 -0.41969811827E+03  0.57153050946E+03  0.16621764072E+04  0.18071037748E+04  0.10100000352E+00 0.  1.
       -3    1    3    3    0  502  0.41969811827E+03 -0.57153050946E+03 -0.16214590574E+04  0.17697240233E+04  0.10100000352E+00 0. -1.
</event>
<event>
 5   0  0.4811500E-07  0.3562508E+04  0.7818609E-02  0.8099134E-01
        1   -1    0    0  501    0  0.00000000000E+00  0.00000000000E+00  0.12107775689E+04  0.12107775689E+04  0.50400001928E-02 0.  1.
       -1   -1    0    0    0  501  0.00000000000E+00  0.00000000000E+00 -0.26205192145E+04  0.26205192145E+04  0.50400001928E-02 0. -1.
    10030    2    1    2    0    0  0.00000000000E+00  0.00000000000E+00 -0.14097416456E+04  0.38312967834E+04  0.35625080400E+04 0.  0.
        5    1    3    3  502    0 -0.35147880444E+03 -0.14994090631E+04 -0.16674303339E+04  0.22698261821E+04  0.46999998093E+01 0. -1.
       -5    1    3    3    0  502  0.35147880444E+03  0.14994090631E+04  0.25768868832E+03  0.15614706013E+04  0.46999998093E+01 0.  1.
</event>
<event>
 5   0  0.4811500E-07  0.3007019E+04  0.7818609E-02  0.8241730E-01
        1   -1    0    0  501    0  0.00000000000E+00  0.00000000000E+00  0.16470236478E+04  0.16470236478E+04  0.50400001928E-02 0. -1.
       -1   -1    0    0    0  501  0.00000000000E+00  0.00000000000E+00 -0.13725001171E+04  0.13725001171E+04  0.50400001928E-02 0.  1.
    10030    2    1    2    0    0  0.00000000000E+00  0.00000000000E+00  0.27452353069E+03  0.30195237649E+04  0.30070185563E+04 0.  0.
        3    1    3    3  502    0  0.67398441581E+03 -0.71509176654E+03 -0.10054200278E+04  0.14058736323E+04  0.10100000352E+00 0.  1.
       -3    1    3    3    0  502 -0.67398441581E+03  0.71509176654E+03  0.12799435585E+04  0.16136501326E+04  0.10100000352E+00 0. -1.
</event>
<event>
 5   0  0.4811500E-07  0.2668602E+04  0.7818609E-02  0.8345265E-01
       -1   -1    0    0    0  501  0.00000000000E+00  0.00000000000E+00  0.99394788555E+03  0.99394788557E+03  0.50400001928E-02 0.  1.
        1   -1    0    0  501    0  0.00000000000E+00  0.00000000000E+00 -0.17912001083E+04  0.17912001083E+04  0.50400001928E-02 0. -1.
    10030    2    1    2    0    0  0.00000000000E+00  0.00000000000E+00 -0.79725222278E+03  0.27851479939E+04  0.26686023011E+04 0.  0.
        4    1    3    3  502    0 -0.15360574109E+03  0.10828059831E+04  0.39914865025E+03  0.11642099375E+04  0.12699999809E+01 0.  1.
       -4    1    3    3    0  502  0.15360574109E+03 -0.10828059831E+04 -0.11964008730E+04  0.16209380564E+04  0.12699999809E+01 0. -1.
</event>
<event>
 5   0  0.4811500E-07  0.3456408E+04  0.7818609E-02  0.8124199E-01
        1   -1    0    0  501    0  0.00000000000E+00  0.00000000000E+00  0.19490525549E+04  0.19490525549E+04  0.50400001928E-02 0.  1.
       -1   -1    0    0    0  501  0.00000000000E+00  0.00000000000E+00 -0.15323796082E+04  0.15323796082E+04  0.50400001928E-02 0. -1.
    10030    2    1    2    0    0  0.00000000000E+00  0.00000000000E+00  0.41667294667E+03  0.34814321631E+04  0.34564076094E+04 0.  0.
        5    1    3    3  502    0 -0.11877109164E+04  0.11496748002E+04  0.71622615173E+03  0.18015025278E+04  0.46999998093E+01 0.  1.
       -5    1    3    3    0  502  0.11877109164E+04 -0.11496748002E+04 -0.29955320505E+03  0.16799296354E+04  0.46999998093E+01 0. -1.
</event>
<event>
 5   0  0.4811500E-07  0.3321539E+04  0.7818609E-02  0.8157436E-01
        1   -1    0    0  501    0  0.00000000000E+00  0.00000000000E+00  0.20852702606E+04  0.20852702606E+04  0.50400001928E-02 0.  1.
       -1   -1    0    0    0  501  0.00000000000E+00  0.00000000000E+00 -0.13226845311E+04  0.13226845311E+04  0.50400001928E-02 0. -1.
    10030    2    1    2    0    0  0.00000000000E+00  0.00000000000E+00  0.76258572948E+03  0.34079547917E+04  0.33215386295E+04 0.  0.
        4    1    3    3  502    0  0.16728600181E+03 -0.10968110995E+04 -0.88664731757E+03  0.14202550028E+04  0.12699999809E+01 0. -1.
       -4    1    3    3    0  502 -0.16728600181E+03  0.10968110995E+04  0.16492330470E+04  0.19876997889E+04  0.12699999809E+01 0.  1.
</event>
<event>
 5   0  0.1444091E-06  0.3592113E+04  0.7818609E-02  0.8092301E-01
       -2   -1    0    0    0  501  0.00000000000E+00  0.00000000000E+00  0.18824213199E+04  0.18824213199E+04  0.25500000920E-02 0.  1.
        2   -1    0    0  501    0  0.00000000000E+00  0.00000000000E+00 -0.17136543133E+04  0.17136543133E+04  0.25500000920E-02 0. -1.
    10030    2    1    2    0    0  0.00000000000E+00  0.00000000000E+00  0.16876700662E+03  0.35960756332E+04  0.35921132578E+04 0.  0.
        1    1    3    3  502    0 -0.36050462946E+03 -0.12011953821E+04 -0.12027195347E+04  0.17376329339E+04  0.50400001928E-02 0. -1.
       -1    1    3    3    0  502  0.36050462946E+03  0.12011953821E+04  0.13714865413E+04  0.18584426993E+04  0.50400001928E-02 0.  1.
</event>
<event>
 5   0  0.4811500E-07  0.3595123E+04  0.7818609E-02  0.8091610E-01
       -1   -1    0    0    0  501  0.00000000000E+00  0.00000000000E+00  0.19538574893E+04  0.19538574893E+04  0.50400001928E-02 0.  1.
        1   -1    0    0  501    0  0.00000000000E+00  0.00000000000E+00 -0.16537677271E+04  0.16537677271E+04  0.50400001928E-02 0. -1.
    10030    2    1    2    0    0  0.00000000000E+00  0.00000000000E+00  0.30008976220E+03  0.36076252164E+04  0.35951225065E+04 0.  0.
        4    1    3    3  502    0 -0.78593509082E+03  0.15078930164E+04 -0.43489699883E+03  0.17551559271E+04  0.12699999809E+01 0. -1.
       -4    1    3    3    0  502  0.78593509082E+03 -0.15078930164E+04  0.73498676103E+03  0.18524692893E+04  0.12699999809E+01 0.  1.
</event>
<event>
 5   0  0.1505671E-06  0.3668213E+04  0.7818609E-02  0.8075043E-01
        2   -1    0    0  501    0  0.00000000000E+00  0.00000000000E+00  0.18529140177E+04  0.18529140177E+04  0.25500000920E-02 0.  1.
       -2   -1    0    0    0  501  0.00000000000E+00  0.00000000000E+00 -0.18154897221E+04  0.18154897221E+04  0.25500000920E-02 0. -1.
    10030    2    1    2    0    0  0.00000000000E+00  0.00000000000E+00  0.37424295587E+02  0.36684037399E+04  0.36682128374E+04 0.  0.
        3    1    3    3  502    0  0.79300869973E+03  0.44797982990E+03  0.16107741497E+04  0.18504437569E+04  0.10100000352E+00 0.  1.
       -3    1    3    3    0  502 -0.79300869973E+03 -0.44797982990E+03 -0.15733498541E+04  0.18179599829E+04  0.10100000352E+00 0. -1.
</event>
<event>
 5   0  0.1379425E-06  0.3657026E+04  0.7818609E-02  0.8077553E-01
       -2   -1    0    0    0  501  0.00000000000E+00  0.00000000000E+00  0.21458772859E+04  0.21458772859E+04  0.25500000920E-02 0.  1.
        2   -1    0    0  501    0  0.00000000000E+00  0.00000000000E+00 -0.15580853777E+04  0.15580853777E+04  0.25500000920E-02 0. -1.
    10030    2    1    2    0    0  0.00000000000E+00  0.00000000000E+00  0.58779190822E+03  0.37039626636E+04  0.36570261259E+04 0.  0.
        4    1    3    3  502    0 -0.59863229627E+03 -0.31856106150E+03  0.20138121980E+04  0.21249195179E+04  0.12699999809E+01 0.  1.
       -4    1    3    3    0  502  0.59863229627E+03  0.31856106150E+03 -0.14260202898E+04  0.15790431456E+04  0.12699999809E+01 0. -1.
</event>
<event>
 5   0  0.4811500E-07  0.3608799E+04  0.7818609E-02  0.8088479E-01
       -1   -1    0    0    0  501  0.00000000000E+00  0.00000000000E+00  0.16465604160E+04  0.16465604160E+04  0.50400001928E-02 0. -1.
        1   -1    0    0  501    0  0.00000000000E+00  0.00000000000E+00 -0.19773693617E+04  0.19773693617E+04  0.50400001928E-02 0.  1.
    10030    2    1    2    0    0  0.00000000000E+00  0.00000000000E+00 -0.33080894575E+03  0.36239297777E+04  0.36087993121E+04 0.  0.
        4    1    3    3  502    0  0.10728164358E+04 -0.32763488185E+03 -0.15846867621E+04  0.19415234914E+04  0.12699999809E+01 0.  1.
       -4    1    3    3    0  502 -0.10728164358E+04  0.32763488185E+03  0.12538778164E+04  0.16824062863E+04  0.12699999809E+01 0. -1.
</event>
<event>
 5   0  0.5071661E-07  0.3147524E+04  0.7818609E-02  0.8202815E-01
       -1   -1    0    0    0  501  0.00000000000E+00  0.00000000000E+00  0.18017096603E+04  0.18017096603E+04  0.50400001928E-02 0. -1.
        1   -1    0    0  501    0  0.00000000000E+00  0.00000000000E+00 -0.13746538358E+04  0.13746538358E+04  0.50400001928E-02 0.  1.
    10030    2    1    2    0    0  0.00000000000E+00  0.00000000000E+00  0.42705582450E+03  0.31763634961E+04  0.31475241671E+04 0.  0.
        1    1    3    3  502    0 -0.26522114828E+03 -0.13914216194E+04 -0.47856243756E+03  0.14951315618E+04  0.50400001928E-02 0. -1.
       -1    1    3    3    0  502  0.26522114828E+03  0.13914216194E+04  0.90561826206E+03  0.16812319343E+04  0.50400001928E-02 0.  1.
</event>
<event>
 5   0  0.1468942E-06  0.3644790E+04  0.7818609E-02  0.8080308E-01
        2   -1    0    0  501    0  0.00000000000E+00  0.00000000000E+00  0.12619841661E+04  0.12619841661E+04  0.25500000920E-02 0. -1.
       -2   -1    0    0    0  501  0.00000000000E+00  0.00000000000E+00 -0.26316682471E+04  0.26316682471E+04  0.25500000920E-02 0.  1.
    10030    2    1    2    0    0  0.00000000000E+00  0.00000000000E+00 -0.13696840810E+04  0.38936524131E+04  0.36447900670E+04 0.  0.
        2    1    3    3  502    0  0.63302742173E+03 -0.46679652591E+03  0.10713321399E+04  0.13290505134E+04  0.25500000920E-02 0. -1.
       -2    1    3    3    0  502 -0.63302742173E+03  0.46679652591E+03 -0.24410162209E+04  0.25646018997E+04  0.25500000920E-02 0.  1.
</event>
<event>
 5   0  0.1505671E-06  0.3642102E+04  0.7818609E-02  0.8080915E-01
        2   -1    0    0  501    0  0.00000000000E+00  0.00000000000E+00  0.23556133278E+04  0.23556133278E+04  0.25500000920E-02 0.  1.
       -2   -1    0    0    0  501  0.00000000000E+00  0.00000000000E+00 -0.14077972115E+04  0.14077972115E+04  0.25500000920E-02 0. -1.
    10030    2    1    2    0    0  0.00000000000E+00  0.00000000000E+00  0.94781611639E+03  0.37634105393E+04  0.36421015220E+04 0.  0.
        3    1    3    3  502    0 -0.98733996808E+03  0.75847929519E+03 -0.89930067442E+03  0.15358622227E+04  0.10100000352E+00 0. -1.
       -3    1    3    3    0  502  0.98733996808E+03 -0.75847929519E+03  0.18471167908E+04  0.22275483166E+04  0.10100000352E+00 0.  1.
</event>
<event>
 5   0  0.4811500E-07  0.3762866E+04  0.7818609E-02  0.8054171E-01
        1   -1    0    0  501    0  0.00000000000E+00  0.00000000000E+00  0.19657660197E+04  0.19657660197E+04  0.50400001928E-02 0.  1.
       -1   -1    0    0    0  501  0.00000000000E+00  0.00000000000E+00 -0.18007179500E+04  0.18007179500E+04  0.50400001928E-02 0. -1.
    10030    2    1    2    0    0  0.00000000000E+00  0.00000000000E+00  0.16504806971E+03  0.37664839697E+04  0.37628660125E+04 0.  0.
        4    1    3    3  502    0  0.65661585422E+02  0.11426102197E+04  0.15772511458E+04  0.19487412214E+04  0.12699999809E+01 0.  1.
       -4    1    3    3    0  502 -0.65661585422E+02 -0.11426102197E+04 -0.14122030761E+04  0.18177427483E+04  0.12699999809E+01 0. -1.
</event>
<event>
 5   0  0.4811500E-07  0.3658856E+04  0.7818609E-02  0.8077142E-01
        1   -1    0    0  501    0  0.00000000000E+00  0.00000000000E+00  0.13934344724E+04  0.13934344724E+04  0.50400001928E-02 0.  1.
       -1   -1    0    0    0  501  0.00000000000E+00  0.00000000000E+00 -0.24018398443E+04  0.24018398444E+04  0.50400001928E-02 0. -1.
    10030    2    1    2    0    0  0.00000000000E+00  0.00000000000E+00 -0.10084053719E+04  0.37952743168E+04  0.36588557973E+04 0.  0.
        2    1    3    3  502    0  0.15000191893E+04  0.67883131989E+03  0.32298658596E+03  0.16778527540E+04  0.25500000920E-02 0.  1.
       -2    1    3    3    0  502 -0.15000191893E+04 -0.67883131989E+03 -0.13313919579E+04  0.21174215628E+04  0.25500000920E-02 0. -1.
</event>
<event>
 5   0  0.5071661E-07  0.3522853E+04  0.7818609E-02  0.8108395E-01
        1   -1    0    0  501    0  0.00000000000E+00  0.00000000000E+00  0.14875281444E+04  0.14875281444E+04  0.50400001928E-02 0.  1.
       -1   -1    0    0    0  501  0.00000000000E+00  0.00000000000E+00 -0.20857580298E+04  0.20857580298E+04  0.50400001928E-02 0. -1.
    10030    2    1    2    0    0  0.00000000000E+00  0.00000000000E+00 -0.59822988539E+03  0.35732861743E+04  0.35228532594E+04 0.  0.
        1    1    3    3  502    0 -0.10329398694E+04  0.37319637442E+03 -0.16959216937E+04  0.20204926871E+04  0.50400001928E-02 0. -1.
       -1    1    3    3    0  502  0.10329398694E+04 -0.37319637442E+03  0.10976918083E+04  0.15527934871E+04  0.50400001928E-02 0.  1.
</event>
<event>
 5   0  0.1468942E-06  0.2899167E+04  0.7818609E-02  0.8273125E-01
       -2   -1    0    0    0  501  0.00000000000E+00  0.00000000000E+00  0.17961833244E+04  0.17961833244E+04  0.25500000920E-02 0.  1.
        2   -1    0    0  501    0  0.00000000000E+00  0.00000000000E+00 -0.11698653818E+04  0.11698653818E+04  0.25500000920E-02 0. -1.
    10030    2    1    2    0    0  0.00000000000E+00  0.00000000000E+00  0.62631794259E+03  0.29660487062E+04  0.28991672533E+04 0.  0.
        2    1    3    3  502    0 -0.12651498093E+04 -0.65981301695E+03  0.51654333325E+02  0.14278044080E+04  0.25500000920E-02 0.  1.
       -2    1    3    3    0  502  0.12651498093E+04  0.65981301695E+03  0.57466360926E+03  0.15382442983E+04  0.25500000920E-02 0. -1.
</event>
<event>
 5   0  0.4811500E-07  0.2483131E+04  0.7818609E-02  0.8409020E-01
        1   -1    0    0  501    0  0.00000000000E+00  0.00000000000E+00  0.15828722735E+04  0.15828722735E+04  0.50400001928E-02 0. -1.
       -1   -1    0    0    0  501  0.00000000000E+00  0.00000000000E+00 -0.97385328787E+03  0.97385328788E+03  0.50400001928E-02 0.  1.
    10030    2    1    2    0    0  0.00000000000E+00  0.00000000000E+00  0.60901898558E+03  0.25567255613E+04  0.24831313842E+04 0.  0.
        3    1    3    3  502    0  0.15378651282E+03 -0.41857782081E+02 -0.96327636324E+03  0.97637274011E+03  0.10100000352E+00 0.  1.
       -3    1    3    3    0  502 -0.15378651282E+03  0.41857782081E+02  0.15722953488E+04  0.15803528212E+04  0.10100000352E+00 0. -1.
</event>
<event>
 5   0  0.4811500E-07  0.3553445E+04  0.7818609E-02  0.8101240E-01
       -1   -1    0    0    0  501  0.00000000000E+00  0.00000000000E+00  0.20050822660E+04  0.20050822660E+04  0.50400001928E-02 0.  1.
        1   -1    0    0  501    0  0.00000000000E+00  0.00000000000E+00 -0.15743708027E+04  0.15743708027E+04  0.50400001928E-02 0. -1.
    10030    2    1    2    0    0  0.00000000000E+00  0.00000000000E+00  0.43071146328E+03  0.35794530687E+04  0.35534450758E+04 0.  0.
        3    1    3    3  502    0 -0.12754447069E+04 -0.11336969690E+04  0.71366310700E+03  0.18496872867E+04  0.10100000352E+00 0.  1.
       -3    1    3    3    0  502  0.12754447069E+04  0.11336969690E+04 -0.28295164372E+03  0.17297657821E+04  0.10100000352E+00 0. -1.
</event>
<event>
 5   0  0.1505671E-06  0.3633262E+04  0.7818609E-02  0.8082915E-01
       -2   -1    0    0    0  501  0.00000000000E+00  0.00000000000E+00  0.14019482484E+04  0.14019482484E+04  0.25500000920E-02 0. -1.
        2   -1    0    0  501    0  0.00000000000E+00  0.00000000000E+00 -0.23539726197E+04  0.23539726197E+04  0.25500000920E-02 0.  1.
    10030    2    1    2    0    0  0.00000000000E+00  0.00000000000E+00 -0.95202437128E+03  0.37559208680E+04  0.36332617802E+04 0.  0.
        3    1    3    3  502    0 -0.15410161891E+04 -0.87110558807E+03 -0.54076035305E+02  0.17710110300E+04  0.10100000352E+00 0. -1.
       -3    1    3    3    0  502  0.15410161891E+04  0.87110558807E+03 -0.89794833598E+03  0.19849098380E+04  0.10100000352E+00 0.  1.
</event>
<event>
 5   0  0.1505671E-06  0.3582671E+04  0.7818609E-02  0.8094473E-01
       -2   -1    0    0    0  501  0.00000000000E+00  0.00000000000E+00  0.12477712706E+04  0.12477712706E+04  0.25500000920E-02 0. -1.
        2   -1    0    0  501    0  0.00000000000E+00  0.00000000000E+00 -0.25716917013E+04  0.25716917013E+04  0.25500000920E-02 0.  1.
    10030    2    1    2    0    0  0.00000000000E+00  0.00000000000E+00 -0.13239204307E+04  0.38194629719E+04  0.35826710828E+04 0.  0.
        3    1    3    3  502    0 -0.15619992897E+03 -0.69155481172E+03 -0.24157528516E+04  0.25176394352E+04  0.10100000352E+00 0.  1.
       -3    1    3    3    0  502  0.15619992897E+03  0.69155481172E+03  0.10918324209E+04  0.13018235368E+04  0.10100000352E+00 0. -1.
</event>
<event>
 5   0  0.5071661E-07  0.3720198E+04  0.7818609E-02  0.8063500E-01
       -1   -1    0    0    0  501  0.00000000000E+00  0.00000000000E+00  0.13303239145E+04  0.13303239145E+04  0.50400001928E-02 0. -1.
        1   -1    0    0  501    0  0.00000000000E+00  0.00000000000E+00 -0.26008464356E+04  0.26008464356E+04  0.50400001928E-02 0.  1.
    10030    2    1    2    0    0  0.00000000000E+00  0.00000000000E+00 -0.12705225211E+04  0.39311703501E+04  0.37201979578E+04 0.  0.
        1    1    3    3  502    0  0.12974718394E+04 -0.32246473766E+03 -0.20018743215E+04  0.24072634838E+04  0.50400001928E-02 0.  1.
       -1    1    3    3    0  502 -0.12974718394E+04  0.32246473766E+03  0.73135180045E+03  0.15239068663E+04  0.50400001928E-02 0. -1.
</event>
<event>
 5   0  0.1444091E-06  0.3621634E+04  0.7818609E-02  0.8085554E-01
        2   -1    0    0  501    0  0.00000000000E+00  0.00000000000E+00  0.21046694118E+04  0.21046694118E+04  0.25500000920E-02 0.  1.
       -2   -1    0    0    0  501  0.00000000000E+00  0.00000000000E+00 -0.15579924068E+04  0.15579924068E+04  0.25500000920E-02 0. -1.
    10030    2    1    2    0    0  0.00000000000E+00  0.00000000000E+00  0.54667700493E+03  0.36626618186E+04  0.36216344169E+04 0.  0.
        1    1    3    3  502    0 -0.61025920054E+03  0.17012927479E+04  0.16142480334E+03  0.18146270341E+04  0.50400001928E-02 0. -1.
       -1    1    3    3    0  502  0.61025920054E+03 -0.17012927479E+04  0.38525220158E+03  0.18480347845E+04  0.50400001928E-02 0.  1.
</event>
<event>
 5   0  0.4811500E-07  0.3223912E+04  0.7818609E-02  0.8182531E-01
        1   -1    0    0  501    0  0.00000000000E+00  0.00000000000E+00  0.15413703420E+04  0.15413703420E+04  0.50400001928E-02 0. -1.
       -1   -1    0    0    0  501  0.00000000000E+00  0.00000000000E+00 -0.16857735440E+04  0.16857735440E+04  0.50400001928E-02 0.  1.
    10030    2    1    2    0    0  0.00000000000E+00  0.00000000000E+00 -0.14440320203E+03  0.32271438860E+04  0.32239115025E+04 0.  0.
        2    1    3    3  502    0 -0.50973848485E+02  0.67053314410E+03 -0.15386579172E+04  0.16791906434E+04  0.25500000920E-02 0.  1.
       -2    1    3    3    0  502  0.50973848485E+02 -0.67053314410E+03  0.13942547152E+04  0.15479532426E+04  0.25500000920E-02 0. -1.
</event>
<event>
 5   0  0.5071661E-07  0.2403769E+04  0.7818609E-02  0.8438094E-01
       -1   -1    0    0    0  501  0.00000000000E+00  0.00000000000E+00  0.12260671260E+04  0.12260671260E+04  0.50400001928E-02 0. -1.
        1   -1    0    0  501    0  0.00000000000E+00  0.00000000000E+00 -0.11781791488E+04  0.11781791488E+04  0.50400001928E-02 0.  1.
    10030    2    1    2    0    0  0.00000000000E+00  0.00000000000E+00  0.47887977148E+02  0.24042462748E+04  0.24037693091E+04 0.  0.
        1    1    3    3  502    0  0.50086146685E+03  0.41700150456E+03  0.10339830941E+04  0.12222411803E+04  0.50400001928E-02 0. -1.
       -1    1    3    3    0  502 -0.50086146685E+03 -0.41700150456E+03 -0.98609511696E+03  0.11820050945E+04  0.50400001928E-02 0.  1.
</event>
<event>
 5   0  0.1491854E-06  0.3578364E+04  0.7818609E-02  0.8095466E-01
        2   -1    0    0  501    0  0.00000000000E+00  0.00000000000E+00  0.13189734687E+04  0.13189734687E+04  0.25500000920E-02 0.  1.
       -2   -1    0    0    0  501  0.00000000000E+00  0.00000000000E+00 -0.24270180777E+04  0.24270180777E+04  0.25500000920E-02 0. -1.
    10030    2    1    2    0    0  0.00000000000E+00  0.00000000000E+00 -0.11080446090E+04  0.37459915464E+04  0.35783641249E+04 0.  0.
        5    1    3    3  502    0  0.55029357112E+03  0.32024512158E+03  0.11963604019E+04  0.13552417694E+04  0.46999998093E+01 0.  1.
       -5    1    3    3    0  502 -0.55029357112E+03 -0.32024512158E+03 -0.23044050109E+04  0.23907497771E+04  0.46999998093E+01 0. -1.
</event>
<event>
 5   0  0.1444091E-06  0.3455572E+04  0.7818609E-02  0.8124400E-01
        2   -1    0    0  501    0  0.00000000000E+00  0.00000000000E+00  0.18200773718E+04  0.18200773718E+04  0.25500000920E-02 0. -1.
       -2   -1    0    0    0  501  0.00000000000E+00  0.00000000000E+00 -0.16401743219E+04  0.16401743219E+04  0.25500000920E-02 0.  1.
    10030    2    1    2    0    0  0.00000000000E+00  0.00000000000E+00  0.17990304988E+03  0.34602516938E+04  0.34555718307E+04 0.  0.
        1    1    3    3  502    0  0.41540822868E+03 -0.16440492928E+04  0.42173406168E+03  0.17473756586E+04  0.50400001928E-02 0. -1.
       -1    1    3    3    0  502 -0.41540822868E+03  0.16440492928E+04 -0.24183101180E+03  0.17128760352E+04  0.50400001928E-02 0.  1.
</event>
<event>
 5   0  0.4811500E-07  0.3796501E+04  0.7818609E-02  0.8046906E-01
       -1   -1    0    0    0  501  0.00000000000E+00  0.00000000000E+00  0.16389739714E+04  0.16389739714E+04  0.50400001928E-02 0.  1.
        1   -1    0    0  501    0  0.00000000000E+00  0.00000000000E+00 -0.21985426001E+04  0.21985426001E+04  0.50400001928E-02 0. -1.
    10030    2    1    2    0    0  0.00000000000E+00  0.00000000000E+00 -0.55956862873E+03  0.38375165714E+04  0.37965005447E+04 0.  0.
        2    1    3    3  502    0  0.11780010723E+04  0.14160207478E+04  0.18403338799E+03  0.18511265685E+04  0.25500000920E-02 0.  1.
       -2    1    3    3    0  502 -0.11780010723E+04 -0.14160207478E+04 -0.74360201671E+03  0.19863900030E+04  0.25500000920E-02 0. -1.
</event>
<event>
 5   0  0.4811500E-07  0.2593859E+04  0.7818609E-02  0.8370290E-01
       -1   -1    0    0    0  501  0.00000000000E+00  0.00000000000E+00  0.93655991763E+03  0.93655991764E+03  0.50400001928E-02 0.  1.
        1   -1    0    0  501    0  0.00000000000E+00  0.00000000000E+00 -0.17959621071E+04  0.17959621072E+04  0.50400001928E-02 0. -1.
    10030    2    1    2    0    0  0.00000000000E+00  0.00000000000E+00 -0.85940218952E+03  0.27325220248E+04  0.25938589963E+04 0.  0.
        2    1    3    3  502    0 -0.12622673799E+04  0.26205670862E+03 -0.57880717662E+03  0.14131561855E+04  0.25500000920E-02 0.  1.
       -2    1    3    3    0  502  0.12622673799E+04 -0.26205670862E+03 -0.28059501290E+03  0.13193658393E+04  0.25500000920E-02 0. -1.
</event>
<event>
 5   0  0.1468942E-06  0.2408481E+04  0.7818609E-02  0.8436335E-01
        2   -1    0    0  501    0  0.00000000000E+00  0.00000000000E+00  0.99426091888E+03  0.99426091889E+03  0.25500000920E-02 0. -1.
       -2   -1    0    0    0  501  0.00000000000E+00  0.00000000000E+00 -0.14585664709E+04  0.14585664709E+04  0.25500000920E-02 0.  1.
    10030    2    1    2    0    0  0.00000000000E+00  0.00000000000E+00 -0.46430555201E+03  0.24528273898E+04  0.24084813801E+04 0.  0.
        2    1    3    3  502    0 -0.18287966733E+03 -0.11387224083E+04 -0.58503223517E+03  0.12932116656E+04  0.25500000920E-02 0.  1.
       -2    1    3    3    0  502  0.18287966733E+03  0.11387224083E+04  0.12072668317E+03  0.11596157242E+04  0.25500000920E-02 0. -1.
</event>
<event>
 5   0  0.4811500E-07  0.3614208E+04  0.7818609E-02  0.8087245E-01
        3   -1    0    0  501    0  0.00000000000E+00  0.00000000000E+00  0.14086220523E+04  0.14086220559E+04  0.10100000352E+00 0.  1.
       -3   -1    0    0    0  501  0.00000000000E+00  0.00000000000E+00 -0.23183110724E+04  0.23183110746E+04  0.10100000352E+00 0. -1.
    10030    2    1    2    0    0  0.00000000000E+00  0.00000000000E+00 -0.90968902015E+03  0.37269331305E+04  0.36142075820E+04 0.  0.
        3    1    3    3  502    0 -0.50776410103E+03  0.46737535414E+03 -0.21770730907E+04  0.22838369811E+04  0.10100000352E+00 0. -1.
       -3    1    3    3    0  502  0.50776410103E+03 -0.46737535414E+03  0.12673840705E+04  0.14430961494E+04  0.10100000352E+00 0.  1.
</event>
<event>
 5   0  0.4811500E-07  0.3523483E+04  0.7818609E-02  0.8108247E-01
        1   -1    0    0  501    0  0.00000000000E+00  0.00000000000E+00  0.27115812454E+04  0.27115812454E+04  0.50400001928E-02 0. -1.
       -1   -1    0    0    0  501  0.00000000000E+00  0.00000000000E+00 -0.11446210137E+04  0.11446210137E+04  0.50400001928E-02 0.  1.
    10030    2    1    2    0    0  0.00000000000E+00  0.00000000000E+00  0.15669602317E+04  0.38562022591E+04  0.35234828643E+04 0.  0.
        3    1    3    3  502    0  0.55413301872E+02  0.17341081592E+04  0.44877240896E+03  0.17920933087E+04  0.10100000352E+00 0.  1.
       -3    1    3    3    0  502 -0.55413301872E+02 -0.17341081592E+04  0.11181878228E+04  0.20641089504E+04  0.10100000352E+00 0. -1.
</event>
<event>
 5   0  0.1491854E-06  0.3611962E+04  0.7818609E-02  0.8087757E-01
       -2   -1    0    0    0  501  0.00000000000E+00  0.00000000000E+00  0.14275354304E+04  0.14275354304E+04  0.25500000920E-02 0. -1.
        2   -1    0    0  501    0  0.00000000000E+00  0.00000000000E+00 -0.22847546445E+04  0.22847546445E+04  0.25500000920E-02 0.  1.
    10030    2    1    2    0    0  0.00000000000E+00  0.00000000000E+00 -0.85721921414E+03  0.37122900750E+04  0.36119624610E+04 0.  0.
        5    1    3    3  502    0 -0.10462435577E+04 -0.14670383738E+04 -0.30391806921E+03  0.18273520337E+04  0.46999998093E+01 0. -1.
       -5    1    3    3    0  502  0.10462435577E+04  0.14670383738E+04 -0.55330114494E+03  0.18849380412E+04  0.46999998093E+01 0.  1.
</event>
<event>
 5   0  0.4811500E-07  0.3685345E+04  0.7818609E-02  0.8071217E-01
       -1   -1    0    0    0  501  0.00000000000E+00  0.00000000000E+00  0.15784663821E+04  0.15784663821E+04  0.50400001928E-02 0.  1.
        1   -1    0    0  501    0  0.00000000000E+00  0.00000000000E+00 -0.21511016549E+04  0.21511016549E+04  0.50400001928E-02 0. -1.
    10030    2    1    2    0    0  0.00000000000E+00  0.00000000000E+00 -0.57263527277E+03  0.37295680369E+04  0.36853448396E+04 0.  0.
        3    1    3    3  502    0 -0.37530134178E+03 -0.14231679226E+04  0.83567183654E+03  0.16925145381E+04  0.10100000352E+00 0.  1.
       -3    1    3    3    0  502  0.37530134178E+03  0.14231679226E+04 -0.14083071093E+04  0.20370534989E+04  0.10100000352E+00 0. -1.
</event>
<event>
 5   0  0.1468942E-06  0.3531315E+04  0.7818609E-02  0.8106409E-01
       -2   -1    0    0    0  501  0.00000000000E+00  0.00000000000E+00  0.15684840969E+04  0.15684840969E+04  0.25500000920E-02 0. -1.
        2   -1    0    0  501    0  0.00000000000E+00  0.00000000000E+00 -0.19876170847E+04  0.19876170847E+04  0.25500000920E-02 0.  1.
    10030    2    1    2    0    0  0.00000000000E+00  0.00000000000E+00 -0.41913298775E+03  0.35561011816E+04  0.35313146493E+04 0.  0.
        2    1    3    3  502    0 -0.83111810900E+02 -0.15731167015E+04  0.59349068258E+03  0.16833998099E+04  0.25500000920E-02 0. -1.
       -2    1    3    3    0  502  0.83111810900E+02  0.15731167015E+04 -0.10126236703E+04  0.18727013717E+04  0.25500000920E-02 0.  1.
</event>
<event>
 5   0  0.1468942E-06  0.2721898E+04  0.7818609E-02  0.8327935E-01
       -2   -1    0    0    0  501  0.00000000000E+00  0.00000000000E+00  0.84824795505E+03  0.84824795506E+03  0.25500000920E-02 0. -1.
        2   -1    0    0  501    0  0.00000000000E+00  0.00000000000E+00 -0.21835384487E+04  0.21835384487E+04  0.25500000920E-02 0.  1.
    10030    2    1    2    0    0  0.00000000000E+00  0.00000000000E+00 -0.13352904937E+04  0.30317864038E+04  0.27218978849E+04 0.  0.
        2    1    3    3  502    0 -0.29678133484E+03  0.51284886918E+02 -0.21459525899E+04  0.21669844989E+04  0.25500000920E-02 0.  1.
       -2    1    3    3    0  502  0.29678133484E+03 -0.51284886918E+02  0.81066209626E+03  0.86480190486E+03  0.25500000920E-02 0. -1.
</event>
<event>
 5   0  0.5071661E-07  0.3644637E+04  0.7818609E-02  0.8080343E-01
        1   -1    0    0  501    0  0.00000000000E+00  0.00000000000E+00  0.28070773729E+04  0.28070773729E+04  0.50400001928E-02 0. -1.
       -1   -1    0    0    0  501  0.00000000000E+00  0.00000000000E+00 -0.11830258902E+04  0.11830258902E+04  0.50400001928E-02 0.  1.
    10030    2    1    2    0    0  0.00000000000E+00  0.00000000000E+00  0.16240514826E+04  0.39901032631E+04  0.36446372703E+04 0.  0.
        1    1    3    3  502    0 -0.14864829135E+04  0.11885488910E+03 -0.33467584008E+03  0.15283212538E+04  0.50400001928E-02 0.  1.
       -1    1    3    3    0  502  0.14864829135E+04 -0.11885488910E+03  0.19587273227E+04  0.24617820093E+04  0.50400001928E-02 0. -1.
</event>
<event>
 5   0  0.1505671E-06  0.3693561E+04  0.7818609E-02  0.8069390E-01
        2   -1    0    0  501    0  0.00000000000E+00  0.00000000000E+00  0.17914878037E+04  0.17914878037E+04  0.25500000920E-02 0.  1.
       -2   -1    0    0    0  501  0.00000000000E+00  0.00000000000E+00 -0.19037797587E+04  0.19037797587E+04  0.25500000920E-02 0. -1.
    10030    2    1    2    0    0  0.00000000000E+00  0.00000000000E+00 -0.11229195499E+03  0.36952675625E+04  0.36935610019E+04 0.  0.
        3    1    3    3  502    0 -0.19292894260E+03 -0.93250437772E+03 -0.16392209781E+04  0.18957403347E+04  0.10100000352E+00 0. -1.
       -3    1    3    3    0  502  0.19292894260E+03  0.93250437772E+03  0.15269290232E+04  0.17995272277E+04  0.10100000352E+00 0.  1.
</event>
<event>
 5   0  0.1468942E-06  0.2958868E+04  0.7818609E-02  0.8255575E-01
       -2   -1    0    0    0  501  0.00000000000E+00  0.00000000000E+00  0.12207965977E+04  0.12207965977E+04  0.25500000920E-02 0.  1.
        2   -1    0    0  501    0  0.00000000000E+00  0.00000000000E+00 -0.17928663469E+04  0.17928663469E+04  0.25500000920E-02 0. -1.
    10030    2    1    2    0    0  0.00000000000E+00  0.00000000000E+00 -0.57206974919E+03  0.30136629446E+04  0.29588681190E+04 0.  0.
        2    1    3    3  502    0 -0.33003210280E+03 -0.23371607496E+03  0.11634075351E+04  0.12316904990E+04  0.25500000920E-02 0.  1.
       -2    1    3    3    0  502  0.33003210280E+03  0.23371607496E+03 -0.17354772843E+04  0.17819724456E+04  0.25500000920E-02 0. -1.
</event>
<event>
 5   0  0.4811500E-07  0.3417906E+04  0.7818609E-02  0.8133526E-01
        1   -1    0    0  501    0  0.00000000000E+00  0.00000000000E+00  0.14708779722E+04  0.14708779722E+04  0.50400001928E-02 0.  1.
       -1   -1    0    0    0  501  0.00000000000E+00  0.00000000000E+00 -0.19855621283E+04  0.19855621283E+04  0.50400001928E-02 0. -1.
    10030    2    1    2    0    0  0.00000000000E+00  0.00000000000E+00 -0.51468415606E+03  0.34564401005E+04  0.34179055557E+04 0.  0.
        3    1    3    3  502    0  0.14018854401E+04 -0.43866224593E+03 -0.11405801919E+04  0.18597393736E+04  0.10100000352E+00 0. -1.
       -3    1    3    3    0  502 -0.14018854401E+04  0.43866224593E+03  0.62589603587E+03  0.15967007269E+04  0.10100000352E+00 0.  1.
</event>
<event>
 5   0  0.4811500E-07  0.3542271E+04  0.7818609E-02  0.8103845E-01
       -1   -1    0    0    0  501  0.00000000000E+00  0.00000000000E+00  0.18688191393E+04  0.18688191393E+04  0.50400001928E-02 0.  1.
        1   -1    0    0  501    0  0.00000000000E+00  0.00000000000E+00 -0.16785582661E+04  0.16785582661E+04  0.50400001928E-02 0. -1.
    10030    2    1    2    0    0  0.00000000000E+00  0.00000000000E+00  0.19026087320E+03  0.35473774055E+04  0.35422714827E+04 0.  0.
        3    1    3    3  502    0 -0.11243335522E+04 -0.85110730013E+03 -0.97805422604E+03  0.17161292644E+04  0.10100000352E+00 0. -1.
       -3    1    3    3    0  502  0.11243335522E+04  0.85110730013E+03  0.11683150992E+04  0.18312481411E+04  0.10100000352E+00 0.  1.
</event>
<event>
 5   0  0.4811500E-07  0.3515531E+04  0.7818609E-02  0.8110119E-01
        1   -1    0    0  501    0  0.00000000000E+00  0.00000000000E+00  0.17909678861E+04  0.17909678861E+04  0.50400001928E-02 0. -1.
       -1   -1    0    0    0  501  0.00000000000E+00  0.00000000000E+00 -0.17251785527E+04  0.17251785527E+04  0.50400001928E-02 0.  1.
    10030    2    1    2    0    0  0.00000000000E+00  0.00000000000E+00  0.65789333403E+02  0.35161464387E+04  0.35155309048E+04 0.  0.
        4    1    3    3  502    0  0.32912292144E+03 -0.48210146233E+03  0.16911940310E+04  0.17891010539E+04  0.12699999809E+01 0. -1.
       -4    1    3    3    0  502 -0.32912292144E+03  0.48210146233E+03 -0.16254046976E+04  0.17270453849E+04  0.12699999809E+01 0.  1.
</event>
<event>
 5   0  0.1505671E-06  0.3607626E+04  0.7818609E-02  0.8088747E-01
        2   -1    0    0  501    0  0.00000000000E+00  0.00000000000E+00  0.27220561983E+04  0.27220561983E+04  0.25500000920E-02 0. -1.
       -2   -1    0    0    0  501  0.00000000000E+00  0.00000000000E+00 -0.11953248736E+04  0.11953248736E+04  0.25500000920E-02 0.  1.
    10030    2    1    2    0    0  0.00000000000E+00  0.00000000000E+00  0.15267313247E+04  0.39173810718E+04  0.36076260788E+04 0.  0.
        3    1    3    3  502    0  0.12992843702E+04  0.52981981895E+03 -0.46749164781E+03  0.14789852488E+04  0.10100000352E+00 0.  1.
       -3    1    3    3    0  502 -0.12992843702E+04 -0.52981981895E+03  0.19942229725E+04  0.24383958230E+04  0.10100000352E+00 0. -1.
</event>
<event>
 5   0  0.1468942E-06  0.2440261E+04  0.7818609E-02  0.8424583E-01
       -2   -1    0    0    0  501  0.00000000000E+00  0.00000000000E+00  0.10541494094E+04  0.10541494094E+04  0.25500000920E-02 0.  1.
        2   -1    0    0  501    0  0.00000000000E+00  0.00000000000E+00 -0.14122458662E+04  0.14122458662E+04  0.25500000920E-02 0. -1.
    10030    2    1    2    0    0  0.00000000000E+00  0.00000000000E+00 -0.35809645673E+03  0.24663952756E+04  0.24402607613E+04 0.  0.
        2    1    3    3  502    0  0.83769377732E+03  0.79945831937E+03 -0.56768376314E+03  0.12896237141E+04  0.25500000920E-02 0. -1.
       -2    1    3    3    0  502 -0.83769377732E+03 -0.79945831937E+03  0.20958730641E+03  0.11767715615E+04  0.25500000920E-02 0.  1.
</event>
<event>
 5   0  0.1379425E-06  0.2962431E+04  0.7818609E-02  0.8254541E-01
       -2   -1    0    0    0  501  0.00000000000E+00  0.00000000000E+00  0.85136724048E+03  0.85136724048E+03  0.25500000920E-02 0. -1.
        2   -1    0    0  501    0  0.00000000000E+00  0.00000000000E+00 -0.25770305451E+04  0.25770305451E+04  0.25500000920E-02 0.  1.
    10030    2    1    2    0    0  0.00000000000E+00  0.00000000000E+00 -0.17256633046E+04  0.34283977856E+04  0.29624310178E+04 0.  0.
        4    1    3    3  502    0 -0.13244184452E+04  0.38116802089E+03 -0.14910019299E+04  0.20303846054E+04  0.12699999809E+01 0.  1.
       -4    1    3    3    0  502  0.13244184452E+04 -0.38116802089E+03 -0.23466137474E+03  0.13980131801E+04  0.12699999809E+01 0. -1.
</event>
<event>
 5   0  0.4811500E-07  0.3715927E+04  0.7818609E-02  0.8064441E-01
        1   -1    0    0  501    0  0.00000000000E+00  0.00000000000E+00  0.21795074762E+04  0.21795074762E+04  0.50400001928E-02 0. -1.
       -1   -1    0    0    0  501  0.00000000000E+00  0.00000000000E+00 -0.15838572208E+04  0.15838572208E+04  0.50400001928E-02 0.  1.
    10030    2    1    2    0    0  0.00000000000E+00  0.00000000000E+00  0.59565025534E+03  0.37633646970E+04  0.37159271543E+04 0.  0.
        2    1    3    3  502    0  0.83201964924E+03 -0.16567524635E+04  0.42162818948E+03  0.19012774001E+04  0.25500000920E-02 0.  1.
       -2    1    3    3    0  502 -0.83201964924E+03  0.16567524635E+04  0.17402206586E+03  0.18620872969E+04  0.25500000920E-02 0. -1.
</event>
<event>
 5   0  0.4811500E-07  0.3629739E+04  0.7818609E-02  0.8083713E-01
       -1   -1    0    0    0  501  0.00000000000E+00  0.00000000000E+00  0.10784466239E+04  0.10784466239E+04  0.50400001928E-02 0.  1.
        1   -1    0    0  501    0  0.00000000000E+00  0.00000000000E+00 -0.30541625413E+04  0.30541625413E+04  0.50400001928E-02 0. -1.
    10030    2    1    2    0    0  0.00000000000E+00  0.00000000000E+00 -0.19757159174E+04  0.41326091652E+04  0.36297389886E+04 0.  0.
        5    1    3    3  502    0  0.67047193769E+02 -0.27006989329E+03  0.10540066957E+04  0.10901308536E+04  0.46999998093E+01 0.  1.
       -5    1    3    3    0  502 -0.67047193769E+02  0.27006989329E+03 -0.30297226132E+04  0.30424783115E+04  0.46999998093E+01 0. -1.
</event>
<event>
 5   0  0.1444091E-06  0.3608160E+04  0.7818609E-02  0.8088625E-01
        2   -1    0    0  501    0  0.00000000000E+00  0.00000000000E+00  0.20436828648E+04  0.20436828648E+04  0.25500000920E-02 0.  1.
       -2   -1    0    0    0  501  0.00000000000E+00  0.00000000000E+00 -0.15925687355E+04  0.15925687355E+04  0.25500000920E-02 0. -1.
    10030    2    1    2    0    0  0.00000000000E+00  0.00000000000E+00  0.45111412931E+03  0.36362516002E+04  0.36081604375E+04 0.  0.
        1    1    3    3  502    0 -0.11055537114E+04 -0.20463299301E+03  0.16474211867E+04  0.19945225586E+04  0.50400001928E-02 0.  1.
       -1    1    3    3    0  502  0.11055537114E+04  0.20463299301E+03 -0.11963070574E+04  0.16417290416E+04  0.50400001928E-02 0. -1.
</event>
<event>
 5   0  0.1468942E-06  0.2335963E+04  0.7818609E-02  0.8463875E-01
       -2   -1    0    0    0  501  0.00000000000E+00  0.00000000000E+00  0.67705456162E+03  0.67705456162E+03  0.25500000920E-02 0. -1.
        2   -1    0    0  501    0  0.00000000000E+00  0.00000000000E+00 -0.20148750765E+04  0.20148750765E+04  0.25500000920E-02 0.  1.
    10030    2    1    2    0    0  0.00000000000E+00  0.00000000000E+00 -0.13378205149E+04  0.26919296381E+04  0.23359626381E+04 0.  0.
        2    1    3    3  502    0 -0.99113784370E+03  0.57130848863E+03 -0.94022976067E+03  0.14808037065E+04  0.25500000920E-02 0. -1.
       -2    1    3    3    0  502  0.99113784370E+03 -0.57130848863E+03 -0.39759075423E+03  0.12111259316E+04  0.25500000920E-02 0.  1.
</event>
<event>
 5   0  0.5071661E-07  0.3358242E+04  0.7818609E-02  0.8148232E-01
        1   -1    0    0  501    0  0.00000000000E+00  0.00000000000E+00  0.17451250386E+04  0.17451250386E+04  0.50400001928E-02 0.  1.
       -1   -1    0    0    0  501  0.00000000000E+00  0.00000000000E+00 -0.16156137003E+04  0.16156137003E+04  0.50400001928E-02 0. -1.
    10030    2    1    2    0    0  0.00000000000E+00  0.00000000000E+00  0.12951133838E+03  0.33607387389E+04  0.33582423505E+04 0.  0.
        1    1    3    3  502    0  0.82132694026E+03 -0.14589539117E+04 -0.63102609140E+02  0.16754421502E+04  0.50400001928E-02 0. -1.
       -1    1    3    3    0  502 -0.82132694026E+03  0.14589539117E+04  0.19261394752E+03  0.16852965887E+04  0.50400001928E-02 0.  1.
</event>
<event>
 5   0  0.4811500E-07  0.3635336E+04  0.7818609E-02  0.8082445E-01
       -1   -1    0    0    0  501  0.00000000000E+00  0.00000000000E+00  0.28013638996E+04  0.28013638996E+04  0.50400001928E-02 0.  1.
        1   -1    0    0  501    0  0.00000000000E+00  0.00000000000E+00 -0.11793958031E+04  0.11793958031E+04  0.50400001928E-02 0. -1.
    10030    2    1    2    0    0  0.00000000000E+00  0.00000000000E+00  0.16219680965E+04  0.39807597026E+04  0.36353359272E+04 0.  0.
        3    1    3    3  502    0  0.69774730712E+03  0.15479437125E+04  0.10054089663E+03  0.17009084407E+04  0.10100000352E+00 0. -1.
       -3    1    3    3    0  502 -0.69774730712E+03 -0.15479437125E+04  0.15214271999E+04  0.22798512619E+04  0.10100000352E+00 0.  1.
</event>
<event>
 5   0  0.4811500E-07  0.3626319E+04  0.7818609E-02  0.8084489E-01
       -1   -1    0    0    0  501  0.00000000000E+00  0.00000000000E+00  0.15093986268E+04  0.15093986268E+04  0.50400001928E-02 0. -1.
        1   -1    0    0  501    0  0.00000000000E+00  0.00000000000E+00 -0.21780514029E+04  0.21780514029E+04  0.50400001928E-02 0.  1.
    10030    2    1    2    0    0  0.00000000000E+00  0.00000000000E+00 -0.66865277606E+03  0.36874500297E+04  0.36263192340E+04 0.  0.
        4    1    3    3  502    0  0.18018457623E+04 -0.19997265693E+03 -0.36498374005E+03  0.18492841745E+04  0.12699999809E+01 0.  1.
       -4    1    3    3    0  502 -0.18018457623E+04  0.19997265693E+03 -0.30366903601E+03  0.18381658552E+04  0.12699999809E+01 0. -1.
</event>
<event>
 5   0  0.4811500E-07  0.3407817E+04  0.7818609E-02  0.8135990E-01
        3   -1    0    0  501    0  0.00000000000E+00  0.00000000000E+00  0.23960380223E+04  0.23960380244E+04  0.10100000352E+00 0.  1.
       -3   -1    0    0    0  501  0.00000000000E+00  0.00000000000E+00 -0.12117102874E+04  0.12117102916E+04  0.10100000352E+00 0. -1.
    10030    2    1    2    0    0  0.00000000000E+00  0.00000000000E+00  0.11843277349E+04  0.36077483161E+04  0.34078168566E+04 0.  0.
        3    1    3    3  502    0 -0.86746480289E+03  0.57500261803E+03 -0.83612891500E+03  0.13350036583E+04  0.10100000352E+00 0. -1.
       -3    1    3    3    0  502  0.86746480289E+03 -0.57500261803E+03  0.20204566499E+04  0.22727446577E+04  0.10100000352E+00 0.  1.
</event>
<event>
 5   0  0.5071661E-07  0.3601137E+04  0.7818609E-02  0.8090231E-01
       -1   -1    0    0    0  501  0.00000000000E+00  0.00000000000E+00  0.16767449223E+04  0.16767449223E+04  0.50400001928E-02 0.  1.
        1   -1    0    0  501    0  0.00000000000E+00  0.00000000000E+00 -0.19335360185E+04  0.19335360185E+04  0.50400001928E-02 0. -1.
    10030    2    1    2    0    0  0.00000000000E+00  0.00000000000E+00 -0.25679109617E+03  0.36102809408E+04  0.36011368766E+04 0.  0.
        1    1    3    3  502    0  0.90625207451E+03 -0.19377230579E+03 -0.16760791359E+04  0.19152236943E+04  0.50400001928E-02 0. -1.
       -1    1    3    3    0  502 -0.90625207451E+03  0.19377230579E+03  0.14192880398E+04  0.16950572465E+04  0.50400001928E-02 0.  1.
</event>
<event>
 5   0  0.1505671E-06  0.3845710E+04  0.7818609E-02  0.8036416E-01
        2   -1    0    0  501    0  0.00000000000E+00  0.00000000000E+00  0.17890980355E+04  0.17890980355E+04  0.25500000920E-02 0.  1.
       -2   -1    0    0    0  501  0.00000000000E+00  0.00000000000E+00 -0.20666114922E+04  0.20666114922E+04  0.25500000920E-02 0. -1.
    10030    2    1    2    0    0  0.00000000000E+00  0.00000000000E+00 -0.27751345670E+03  0.38557095277E+04  0.38457095891E+04 0.  0.
        3    1    3    3  502    0 -0.10124107399E+03 -0.18958107095E+03 -0.20545314313E+04  0.20657420337E+04  0.10100000352E+00 0. -1.
       -3    1    3    3    0  502  0.10124107399E+03  0.18958107095E+03  0.17770179746E+04  0.17899674940E+04  0.10100000352E+00 0.  1.
</event>
<event>
 5   0  0.4811500E-07  0.2514745E+04  0.7818609E-02  0.8397751E-01
        1   -1    0    0  501    0  0.00000000000E+00  0.00000000000E+00  0.13595651407E+04  0.13595651407E+04  0.50400001928E-02 0. -1.
       -1   -1    0    0    0  501  0.00000000000E+00  0.00000000000E+00 -0.11628607888E+04  0.11628607888E+04  0.50400001928E-02 0.  1.
    10030    2    1    2    0    0  0.00000000000E+00  0.00000000000E+00  0.19670435187E+03  0.25224259296E+04  0.25147445135E+04 0.  0.
        2    1    3    3  502    0 -0.11039195894E+04 -0.58965806930E+03 -0.23054281601E+02  0.12517454208E+04  0.25500000920E-02 0. -1.
       -2    1    3    3    0  502  0.11039195894E+04  0.58965806930E+03  0.21975863347E+03  0.12706805088E+04  0.25500000920E-02 0.  1.
</event>
<event>
 5   0  0.1444091E-06  0.3472484E+04  0.7818609E-02  0.8120342E-01
        2   -1    0    0  501    0  0.00000000000E+00  0.00000000000E+00  0.17115455421E+04  0.17115455421E+04  0.25500000920E-02 0. -1.
       -2   -1    0    0    0  501  0.00000000000E+00  0.00000000000E+00 -0.17612951300E+04  0.17612951300E+04  0.25500000920E-02 0.  1.
    10030    2    1    2    0    0  0.00000000000E+00  0.00000000000E+00 -0.49749587891E+02  0.34728406721E+04  0.34724843142E+04 0.  0.
        1    1    3    3  502    0  0.10700557825E+03  0.12710185702E+03 -0.17533263673E+04  0.17611809749E+04  0.50400001928E-02 0.  1.
       -1    1    3    3    0  502 -0.10700557825E+03 -0.12710185702E+03  0.17035767794E+04  0.17116596973E+04  0.50400001928E-02 0. -1.
</event>
<event>
 5   0  0.4811500E-07  0.3359122E+04  0.7818609E-02  0.8148013E-01
       -1   -1    0    0    0  501  0.00000000000E+00  0.00000000000E+00  0.19038565987E+04  0.19038565987E+04  0.50400001928E-02 0.  1.
        1   -1    0    0  501    0  0.00000000000E+00  0.00000000000E+00 -0.14816897980E+04  0.14816897980E+04  0.50400001928E-02 0. -1.
    10030    2    1    2    0    0  0.00000000000E+00  0.00000000000E+00  0.42216680074E+03  0.33855463967E+04  0.33591218490E+04 0.  0.
        2    1    3    3  502    0  0.32238656227E+03  0.13182603841E+03 -0.14448917818E+04  0.14862783928E+04  0.25500000920E-02 0. -1.
       -2    1    3    3    0  502 -0.32238656227E+03 -0.13182603841E+03  0.18670585825E+04  0.18992680039E+04  0.25500000920E-02 0.  1.
</event>
<event>
 5   0  0.4811500E-07  0.3627735E+04  0.7818609E-02  0.8084168E-01
       -1   -1    0    0    0  501  0.00000000000E+00  0.00000000000E+00  0.17074576420E+04  0.17074576420E+04  0.50400001928E-02 0. -1.
        1   -1    0    0  501    0  0.00000000000E+00  0.00000000000E+00 -0.19269086463E+04  0.19269086464E+04  0.50400001928E-02 0.  1.
    10030    2    1    2    0    0  0.00000000000E+00  0.00000000000E+00 -0.21945100436E+03  0.36343662883E+04  0.36277347718E+04 0.  0.
        3    1    3    3  502    0 -0.32880074745E+03 -0.16510055733E+04  0.56692425363E+03  0.17763255485E+04  0.10100000352E+00 0. -1.
       -3    1    3    3    0  502  0.32880074745E+03  0.16510055733E+04 -0.78637525799E+03  0.18580407399E+04  0.10100000352E+00 0.  1.
</event>
<event>
 5   0  0.1379425E-06  0.3549512E+04  0.7818609E-02  0.8102155E-01
       -2   -1    0    0    0  501  0.00000000000E+00  0.00000000000E+00  0.25238706668E+04  0.25238706668E+04  0.25500000920E-02 0. -1.
        2   -1    0    0  501    0  0.00000000000E+00  0.00000000000E+00 -0.12479874318E+04  0.12479874318E+04  0.25500000920E-02 0.  1.
    10030    2    1    2    0    0  0.00000000000E+00  0.00000000000E+00  0.12758832350E+04  0.37718580987E+04  0.35495120069E+04 0.  0.
        4    1    3    3  502    0 -0.11925339846E+04  0.12808247089E+04  0.32431294042E+03  0.17798398061E+04  0.12699999809E+01 0. -1.
       -4    1    3    3    0  502  0.11925339846E+04 -0.12808247089E+04  0.95157029454E+03  0.19920182925E+04  0.12699999809E+01 0.  1.
</event>
<event>
 5   0  0.4811500E-07  0.2722829E+04  0.7818609E-02  0.8327636E-01
        1   -1    0    0  501    0  0.00000000000E+00  0.00000000000E+00  0.21627294998E+04  0.21627294998E+04  0.50400001928E-02 0.  1.
       -1   -1    0    0    0  501  0.00000000000E+00  0.00000000000E+00 -0.85699560872E+03  0.85699560874E+03  0.50400001928E-02 0. -1.
    10030    2    1    2    0    0  0.00000000000E+00  0.00000000000E+00  0.13057338911E+04  0.30197251086E+04  0.27228291788E+04 0.  0.
        4    1    3    3  502    0  0.24609535577E+03 -0.28240282001E+03  0.21044525589E+04  0.21375304588E+04  0.12699999809E+01 0.  1.
       -4    1    3    3    0  502 -0.24609535577E+03  0.28240282001E+03 -0.79871866778E+03  0.88219464975E+03  0.12699999809E+01 0. -1.
</event>
<event>
 5   0  0.1468942E-06  0.2403081E+04  0.7818609E-02  0.8438351E-01
        2   -1    0    0  501    0  0.00000000000E+00  0.00000000000E+00  0.16441890087E+04  0.16441890087E+04  0.25500000920E-02 0. -1.
       -2   -1    0    0    0  501  0.00000000000E+00  0.00000000000E+00 -0.87806204463E+03  0.87806204464E+03  0.25500000920E-02 0.  1.
    10030    2    1    2    0    0  0.00000000000E+00  0.00000000000E+00  0.76612696402E+03  0.25222510533E+04  0.24030813242E+04 0.  0.
        2    1    3    3  502    0  0.87112633152E+03 -0.53163683198E+03  0.10487066841E+04  0.14633128564E+04  0.25500000920E-02 0. -1.
       -2    1    3    3    0  502 -0.87112633152E+03  0.53163683198E+03 -0.28257972004E+03  0.10589381969E+04  0.25500000920E-02 0.  1.
</event>
<event>
 5   0  0.4811500E-07  0.2365509E+04  0.7818609E-02  0.8452530E-01
        1   -1    0    0  501    0  0.00000000000E+00  0.00000000000E+00  0.21283553500E+04  0.21283553500E+04  0.50400001928E-02 0. -1.
       -1   -1    0    0    0  501  0.00000000000E+00  0.00000000000E+00 -0.65727213047E+03  0.65727213049E+03  0.50400001928E-02 0.  1.
    10030    2    1    2    0    0  0.00000000000E+00  0.00000000000E+00  0.14710832195E+04  0.27856274805E+04  0.23655093788E+04 0.  0.
        3    1    3    3  502    0 -0.79275758957E+03 -0.87720519535E+03  0.69914830112E+03  0.13735945209E+04  0.10100000352E+00 0.  1.
       -3    1    3    3    0  502  0.79275758957E+03  0.87720519535E+03  0.77193491838E+03  0.14120329596E+04  0.10100000352E+00 0. -1.
</event>
<event>
 5   0  0.1505671E-06  0.3483939E+04  0.7818609E-02  0.8117607E-01
        2   -1    0    0  501    0  0.00000000000E+00  0.00000000000E+00  0.14758125426E+04  0.14758125426E+04  0.25500000920E-02 0.  1.
       -2   -1    0    0    0  501  0.00000000000E+00  0.00000000000E+00 -0.20561273796E+04  0.20561273796E+04  0.25500000920E-02 0. -1.
    10030    2    1    2    0    0  0.00000000000E+00  0.00000000000E+00 -0.58031483700E+03  0.35319399222E+04  0.34839394805E+04 0.  0.
        3    1    3    3  502    0  0.43270310238E+03 -0.16864482911E+04 -0.34677263358E+03  0.17752721151E+04  0.10100000352E+00 0. -1.
       -3    1    3    3    0  502 -0.43270310238E+03  0.16864482911E+04 -0.23354220342E+03  0.17566678070E+04  0.10100000352E+00 0.  1.
</event>
<event>
 5   0  0.4811500E-07  0.3444079E+04  0.7818609E-02  0.8127172E-01
       -1   -1    0    0    0  501  0.00000000000E+00  0.00000000000E+00  0.31193113424E+04  0.31193113424E+04  0.50400001928E-02 0. -1.
        1   -1    0    0  501    0  0.00000000000E+00  0.00000000000E+00 -0.95066492484E+03  0.95066492486E+03  0.50400001928E-02 0.  1.
    10030    2    1    2    0    0  0.00000000000E+00  0.00000000000E+00  0.21686464176E+04  0.40699762673E+04  0.34440789090E+04 0.  0.
        2    1    3    3  502    0 -0.10766935318E+04  0.69471100835E+02 -0.50171915809E+03  0.11898812163E+04  0.25500000920E-02 0.  1.
       -2    1    3    3    0  502  0.10766935318E+04 -0.69471100835E+02  0.26703655757E+04  0.28800950510E+04  0.25500000920E-02 0. -1.
</event>
<event>
 5   0  0.1468942E-06  0.3576242E+04  0.7818609E-02  0.8095955E-01
       -2   -1    0    0    0  501  0.00000000000E+00  0.00000000000E+00  0.13889366886E+04  0.13889366886E+04  0.25500000920E-02 0. -1.
        2   -1    0    0  501    0  0.00000000000E+00  0.00000000000E+00 -0.23020321186E+04  0.23020321186E+04  0.25500000920E-02 0.  1.
    10030    2    1    2    0    0  0.00000000000E+00  0.00000000000E+00 -0.91309543000E+03  0.36909688072E+04  0.35762420879E+04 0.  0.
        2    1    3    3  502    0 -0.41629109523E+03 -0.26822990085E+03  0.13167485550E+04  0.14067950500E+04  0.25500000920E-02 0. -1.
       -2    1    3    3    0  502  0.41629109523E+03  0.26822990085E+03 -0.22298439850E+04  0.22841737572E+04  0.25500000920E-02 0.  1.
</event>
<event>
 5   0  0.1444091E-06  0.3638393E+04  0.7818609E-02  0.8081754E-01
       -2   -1    0    0    0  501  0.00000000000E+00  0.00000000000E+00  0.14950900820E+04  0.14950900820E+04  0.25500000920E-02 0. -1.
        2   -1    0    0  501    0  0.00000000000E+00  0.00000000000E+00 -0.22135626452E+04  0.22135626452E+04  0.25500000920E-02 0.  1.
    10030    2    1    2    0    0  0.00000000000E+00  0.00000000000E+00 -0.71847256318E+03  0.37086527272E+04  0.36383928082E+04 0.  0.
        1    1    3    3  502    0  0.98429156016E+03 -0.50167722178E+03 -0.18324719770E+04  0.21397344360E+04  0.50400001928E-02 0.  1.
       -1    1    3    3    0  502 -0.98429156016E+03  0.50167722178E+03  0.11139994138E+04  0.15689182911E+04  0.50400001928E-02 0. -1.
</event>
<event>
 5   0  0.5071661E-07  0.3621173E+04  0.7818609E-02  0.8085659E-01
       -1   -1    0    0    0  501  0.00000000000E+00  0.00000000000E+00  0.10902892279E+04  0.10902892279E+04  0.50400001928E-02 0. -1.
        1   -1    0    0  501    0  0.00000000000E+00  0.00000000000E+00 -0.30067473084E+04  0.30067473084E+04  0.50400001928E-02 0.  1.
    10030    2    1    2    0    0  0.00000000000E+00  0.00000000000E+00 -0.19164580805E+04  0.40970365363E+04  0.36211734017E+04 0.  0.
        1    1    3    3  502    0 -0.99538846588E+03  0.81217613143E+03  0.48528328016E+03  0.13732909846E+04  0.50400001928E-02 0. -1.
       -1    1    3    3    0  502  0.99538846588E+03 -0.81217613143E+03 -0.24017413607E+04  0.27237455517E+04  0.50400001928E-02 0.  1.
</event>
<event>
 5   0  0.4811500E-07  0.3497989E+04  0.7818609E-02  0.8114267E-01
        1   -1    0    0  501    0  0.00000000000E+00  0.00000000000E+00  0.17533636923E+04  0.17533636923E+04  0.50400001928E-02 0.  1.
       -1   -1    0    0    0  501  0.00000000000E+00  0.00000000000E+00 -0.17446359963E+04  0.17446359963E+04  0.50400001928E-02 0. -1.
    10030    2    1    2    0    0  0.00000000000E+00  0.00000000000E+00  0.87276959292E+01  0.34979996886E+04  0.34979888005E+04 0.  0.
        2    1    3    3  502    0 -0.98908096119E+03  0.13220276108E+04 -0.57265030544E+03  0.17475601632E+04  0.25500000920E-02 0.  1.
       -2    1    3    3    0  502  0.98908096119E+03 -0.13220276108E+04  0.58137800137E+03  0.17504395254E+04  0.25500000920E-02 0. -1.
</event>
<event>
 5   0  0.1468942E-06  0.3277095E+04  0.7818609E-02  0.8168748E-01
        2   -1    0    0  501    0  0.00000000000E+00  0.00000000000E+00  0.14895078783E+04  0.14895078783E+04  0.25500000920E-02 0. -1.
       -2   -1    0    0    0  501  0.00000000000E+00  0.00000000000E+00 -0.18024995689E+04  0.18024995689E+04  0.25500000920E-02 0.  1.
    10030    2    1    2    0    0  0.00000000000E+00  0.00000000000E+00 -0.31299169062E+03  0.32920074472E+04  0.32770946330E+04 0.  0.
        2    1    3    3  502    0 -0.10967437925E+04  0.99176454328E+03  0.55268662236E+03  0.15785773210E+04  0.25500000920E-02 0. -1.
       -2    1    3    3    0  502  0.10967437925E+04 -0.99176454328E+03 -0.86567831298E+03  0.17134301262E+04  0.25500000920E-02 0.  1.
</event>
<event>
 5   0  0.1379425E-06  0.2900835E+04  0.7818609E-02  0.8272629E-01
        2   -1    0    0  501    0  0.00000000000E+00  0.00000000000E+00  0.11688724554E+04  0.11688724554E+04  0.25500000920E-02 0.  1.
       -2   -1    0    0    0  501  0.00000000000E+00  0.00000000000E+00 -0.17997776970E+04  0.17997776970E+04  0.25500000920E-02 0. -1.
    10030    2    1    2    0    0  0.00000000000E+00  0.00000000000E+00 -0.63090524167E+03  0.29686501524E+04  0.29008347598E+04 0.  0.
        4    1    3    3  502    0 -0.89523955158E+03  0.51544648638E+03  0.72646972651E+03  0.12628930325E+04  0.12699999809E+01 0.  1.
       -4    1    3    3    0  502  0.89523955158E+03 -0.51544648638E+03 -0.13573749682E+04  0.17057571199E+04  0.12699999809E+01 0. -1.
</event>
<event>
 5   0  0.1505671E-06  0.3464903E+04  0.7818609E-02  0.8122158E-01
       -2   -1    0    0    0  501  0.00000000000E+00  0.00000000000E+00  0.10622666018E+04  0.10622666018E+04  0.25500000920E-02 0.  1.
        2   -1    0    0  501    0  0.00000000000E+00  0.00000000000E+00 -0.28254568302E+04  0.28254568302E+04  0.25500000920E-02 0. -1.
    10030    2    1    2    0    0  0.00000000000E+00  0.00000000000E+00 -0.17631902284E+04  0.38877234320E+04  0.34649031303E+04 0.  0.
        3    1    3    3  502    0  0.74632912182E+01 -0.11090989318E+04  0.61168754994E+03  0.12666166785E+04  0.10100000352E+00 0.  1.
       -3    1    3    3    0  502 -0.74632912182E+01  0.11090989318E+04 -0.23748777783E+04  0.26211067535E+04  0.10100000352E+00 0. -1.
</event>
<event>
 5   0  0.1505671E-06  0.3629067E+04  0.7818609E-02  0.8083866E-01
       -2   -1    0    0    0  501  0.00000000000E+00  0.00000000000E+00  0.12742319407E+04  0.12742319407E+04  0.25500000920E-02 0. -1.
        2   -1    0    0  501    0  0.00000000000E+00  0.00000000000E+00 -0.25839343257E+04  0.25839343257E+04  0.25500000920E-02 0.  1.
    10030    2    1    2    0    0  0.00000000000E+00  0.00000000000E+00 -0.13097023851E+04  0.38581662664E+04  0.36290669052E+04 0.  0.
        3    1    3    3  502    0  0.17339798032E+04  0.37741504849E+03 -0.10574439304E+04  0.20657482307E+04  0.10100000352E+00 0.  1.
       -3    1    3    3    0  502 -0.17339798032E+04 -0.37741504849E+03 -0.25225845464E+03  0.17924180357E+04  0.10100000352E+00 0. -1.
</event>
<event>
 5   0  0.4811500E-07  0.3561088E+04  0.7818609E-02  0.8099464E-01
        1   -1    0    0  501    0  0.00000000000E+00  0.00000000000E+00  0.21145619220E+04  0.21145619220E+04  0.50400001928E-02 0.  1.
       -1   -1    0    0    0  501  0.00000000000E+00  0.00000000000E+00 -0.14992878805E+04  0.14992878805E+04  0.50400001928E-02 0. -1.
    10030    2    1    2    0    0  0.00000000000E+00  0.00000000000E+00  0.61527404154E+03  0.36138498025E+04  0.35610880709E+04 0.  0.
        4    1    3    3  502    0 -0.70088632426E+03  0.84927777115E+03 -0.11123156990E+04  0.15651716197E+04  0.12699999809E+01 0. -1.
       -4    1    3    3    0  502  0.70088632426E+03 -0.84927777115E+03  0.17275897405E+04  0.20486781828E+04  0.12699999809E+01 0.  1.
</event>
<event>
 5   0  0.4811500E-07  0.3113480E+04  0.7818609E-02  0.8212048E-01
        1   -1    0    0  501    0  0.00000000000E+00  0.00000000000E+00  0.16019995940E+04  0.16019995940E+04  0.50400001928E-02 0.  1.
       -1   -1    0    0    0  501  0.00000000000E+00  0.00000000000E+00 -0.15127593451E+04  0.15127593451E+04  0.50400001928E-02 0. -1.
    10030    2    1    2    0    0  0.00000000000E+00  0.00000000000E+00  0.89240248941E+02  0.31147589391E+04  0.31134802756E+04 0.  0.
        3    1    3    3  502    0  0.11236172285E+04 -0.96769683310E+03  0.51861530875E+03  0.15709597976E+04  0.10100000352E+00 0.  1.
       -3    1    3    3    0  502 -0.11236172285E+04  0.96769683310E+03 -0.42937505981E+03  0.15437991415E+04  0.10100000352E+00 0. -1.
</event>
<event>
 5   0  0.5071661E-07  0.3610955E+04  0.7818609E-02  0.8087987E-01
        1   -1    0    0  501    0  0.00000000000E+00  0.00000000000E+00  0.24944731106E+04  0.24944731106E+04  0.50400001928E-02 0. -1.
       -1   -1    0    0    0  501  0.00000000000E+00  0.00000000000E+00 -0.13067887931E+04  0.13067887931E+04  0.50400001928E-02 0.  1.
    10030    2    1    2    0    0  0.00000000000E+00  0.00000000000E+00  0.11876843175E+04  0.38012619038E+04  0.36109552784E+04 0.  0.
        1    1    3    3  502    0 -0.40668156656E+03  0.24531105500E+03 -0.12398503217E+04  0.13277033669E+04  0.50400001928E-02 0.  1.
       -1    1    3    3    0  502  0.40668156656E+03 -0.24531105500E+03  0.24275346392E+04  0.24735585368E+04  0.50400001928E-02 0. -1.
</event>
<event>
 5   0  0.1379425E-06  0.3594246E+04  0.7818609E-02  0.8091811E-01
       -2   -1    0    0    0  501  0.00000000000E+00  0.00000000000E+00  0.16054639818E+04  0.16054639818E+04  0.25500000920E-02 0. -1.
        2   -1    0    0  501    0  0.00000000000E+00  0.00000000000E+00 -0.20116617572E+04  0.20116617572E+04  0.25500000920E-02 0.  1.
    10030    2    1    2    0    0  0.00000000000E+00  0.00000000000E+00 -0.40619777542E+03  0.36171257390E+04  0.35942456759E+04 0.  0.
        4    1    3    3  502    0  0.42269499822E+03  0.47852174747E+03  0.14874741893E+04  0.16187140579E+04  0.12699999809E+01 0. -1.
       -4    1    3    3    0  502 -0.42269499822E+03 -0.47852174747E+03 -0.18936719647E+04  0.19984116811E+04  0.12699999809E+01 0.  1.
</event>
<event>
 5   0  0.1379425E-06  0.2747936E+04  0.7818609E-02  0.8319617E-01
        2   -1    0    0  501    0  0.00000000000E+00  0.00000000000E+00  0.11311385499E+04  0.11311385499E+04  0.25500000920E-02 0.  1.
       -2   -1    0    0    0  501  0.00000000000E+00  0.00000000000E+00 -0.16689277213E+04  0.16689277213E+04  0.25500000920E-02 0. -1.
    10030    2    1    2    0    0  0.00000000000E+00  0.00000000000E+00 -0.53778917138E+03  0.28000662712E+04  0.27479363039E+04 0.  0.
        4    1    3    3  502    0  0.39261380100E+03  0.12693711023E+04 -0.62529879870E+03  0.14684852034E+04  0.12699999809E+01 0. -1.
       -4    1    3    3    0  502 -0.39261380100E+03 -0.12693711023E+04  0.87509627320E+02  0.13315810677E+04  0.12699999809E+01 0.  1.
</event>
<event>
 5   0  0.4811500E-07  0.3601783E+04  0.7818609E-02  0.8090083E-01
       -1   -1    0    0    0  501  0.00000000000E+00  0.00000000000E+00  0.28411884674E+04  0.28411884674E+04  0.50400001928E-02 0. -1.
        1   -1    0    0  501    0  0.00000000000E+00  0.00000000000E+00 -0.11414975663E+04  0.11414975663E+04  0.50400001928E-02 0.  1.
    10030    2    1    2    0    0  0.00000000000E+00  0.00000000000E+00  0.16996909011E+04  0.39826860338E+04  0.36017827370E+04 0.  0.
        5    1    3    3  502    0 -0.14600203702E+04  0.48851008682E+02  0.20143792052E+04  0.24883310822E+04  0.46999998093E+01 0. -1.
       -5    1    3    3    0  502  0.14600203702E+04 -0.48851008682E+02 -0.31468830414E+03  0.14943549515E+04  0.46999998093E+01 0.  1.
</event>
<event>
 5   0  0.1468942E-06  0.2665374E+04  0.7818609E-02  0.8346328E-01
       -2   -1    0    0    0  501  0.00000000000E+00  0.00000000000E+00  0.12031909747E+04  0.12031909747E+04  0.25500000920E-02 0.  1.
        2   -1    0    0  501    0  0.00000000000E+00  0.00000000000E+00 -0.14761198959E+04  0.14761198959E+04  0.25500000920E-02 0. -1.
    10030    2    1    2    0    0  0.00000000000E+00  0.00000000000E+00 -0.27292892122E+03  0.26793108706E+04  0.26653736220E+04 0.  0.
        2    1    3    3  502    0 -0.64823845083E+03 -0.10888754930E+04  0.27823509585E+03  0.12974119227E+04  0.25500000920E-02 0.  1.
       -2    1    3    3    0  502  0.64823845083E+03  0.10888754930E+04 -0.55116401708E+03  0.13818989479E+04  0.25500000920E-02 0. -1.
</event>
<event>
 5   0  0.4811500E-07  0.3184545E+04  0.7818609E-02  0.8192911E-01
        1   -1    0    0  501    0  0.00000000000E+00  0.00000000000E+00  0.15008989528E+04  0.15008989528E+04  0.50400001928E-02 0.  1.
       -1   -1    0    0    0  501  0.00000000000E+00  0.00000000000E+00 -0.16892086121E+04  0.16892086121E+04  0.50400001928E-02 0. -1.
    10030    2    1    2    0    0  0.00000000000E+00  0.00000000000E+00 -0.18830965931E+03  0.31901075649E+04  0.31845448258E+04 0.  0.
        2    1    3    3  502    0 -0.31220916869E+03  0.23097198002E+03  0.14527280284E+04  0.15037424463E+04  0.25500000920E-02 0.  1.
       -2    1    3    3    0  502  0.31220916869E+03 -0.23097198002E+03 -0.16410376877E+04  0.16863651185E+04  0.25500000920E-02 0. -1.
</event>
<event>
 5   0  0.4811500E-07  0.2775641E+04  0.7818609E-02  0.8310871E-01
        1   -1    0    0  501    0  0.00000000000E+00  0.00000000000E+00  0.15235424575E+04  0.15235424575E+04  0.50400001928E-02 0.  1.
       -1   -1    0    0    0  501  0.00000000000E+00  0.00000000000E+00 -0.12641886701E+04  0.12641886701E+04  0.50400001928E-02 0. -1.
    10030    2    1    2    0    0  0.00000000000E+00  0.00000000000E+00  0.25935378745E+03  0.27877311276E+04  0.27756405482E+04 0.  0.
        3    1    3    3  502    0 -0.13463042781E+04 -0.19553932603E+03 -0.14587977463E+03  0.13682294237E+04  0.10100000352E+00 0. -1.
       -3    1    3    3    0  502  0.13463042781E+04  0.19553932603E+03  0.40523356208E+03  0.14195017038E+04  0.10100000352E+00 0.  1.
</event>
<event>
 5   0  0.1505671E-06  0.3678636E+04  0.7818609E-02  0.8072713E-01
        2   -1    0    0  501    0  0.00000000000E+00  0.00000000000E+00  0.23523439441E+04  0.23523439441E+04  0.25500000920E-02 0.  1.
       -2   -1    0    0    0  501  0.00000000000E+00  0.00000000000E+00 -0.14381784673E+04  0.14381784673E+04  0.25500000920E-02 0. -1.
    10030    2    1    2    0    0  0.00000000000E+00  0.00000000000E+00  0.91416547680E+03  0.37905224114E+04  0.36786358385E+04 0.  0.
        3    1    3    3  502    0  0.52080696309E+03  0.14841440959E+04  0.14395861275E+04  0.21322128925E+04  0.10100000352E+00 0.  1.
       -3    1    3    3    0  502 -0.52080696309E+03 -0.14841440959E+04 -0.52542065069E+03  0.16583095189E+04  0.10100000352E+00 0. -1.
</event>
<event>
 5   0  0.1444091E-06  0.3406480E+04  0.7818609E-02  0.8136318E-01
        2   -1    0    0  501    0  0.00000000000E+00  0.00000000000E+00  0.16759161097E+04  0.16759161097E+04  0.25500000920E-02 0. -1.
       -2   -1    0    0    0  501  0.00000000000E+00  0.00000000000E+00 -0.17310092475E+04  0.17310092475E+04  0.25500000920E-02 0.  1.
    10030    2    1    2    0    0  0.00000000000E+00  0.00000000000E+00 -0.55093137766E+02  0.34069253572E+04  0.34064798746E+04 0.  0.
        1    1    3    3  502    0  0.61049429104E+03  0.47777369507E+03  0.14892450846E+04  0.16789347531E+04  0.50400001928E-02 0. -1.
       -1    1    3    3    0  502 -0.61049429104E+03 -0.47777369507E+03 -0.15443382223E+04  0.17279906042E+04  0.50400001928E-02 0.  1.
</event>
<event>
 5   0  0.4811500E-07  0.3613403E+04  0.7818609E-02  0.8087428E-01
        1   -1    0    0  501    0  0.00000000000E+00  0.00000000000E+00  0.24003160981E+04  0.24003160981E+04  0.50400001928E-02 0.  1.
       -1   -1    0    0    0  501  0.00000000000E+00  0.00000000000E+00 -0.13598921005E+04  0.13598921005E+04  0.50400001928E-02 0. -1.
    10030    2    1    2    0    0  0.00000000000E+00  0.00000000000E+00  0.10404239976E+04  0.37602081986E+04  0.36134033268E+04 0.  0.
        4    1    3    3  502    0 -0.16519120139E+04  0.14685425081E+01  0.12816173217E+04  0.20907797662E+04  0.12699999809E+01 0.  1.
       -4    1    3    3    0  502  0.16519120139E+04 -0.14685425081E+01 -0.24119332412E+03  0.16694284324E+04  0.12699999809E+01 0. -1.
</event>
<event>
 5   0  0.4811500E-07  0.3560502E+04  0.7818609E-02  0.8099600E-01
        1   -1    0    0  501    0  0.00000000000E+00  0.00000000000E+00  0.25136565200E+04  0.25136565200E+04  0.50400001928E-02 0.  1.
       -1   -1    0    0    0  501  0.00000000000E+00  0.00000000000E+00 -0.12608298394E+04  0.12608298394E+04  0.50400001928E-02 0. -1.
    10030    2    1    2    0    0  0.00000000000E+00  0.00000000000E+00  0.12528266806E+04  0.37744863594E+04  0.35605017323E+04 0.  0.
        4    1    3    3  502    0  0.15286571198E+04 -0.82342622012E+03  0.20976830902E+03  0.17489504528E+04  0.12699999809E+01 0. -1.
       -4    1    3    3    0  502 -0.15286571198E+04  0.82342622012E+03  0.10430583716E+04  0.20255359067E+04  0.12699999809E+01 0.  1.
</event>
<event>
 5   0  0.4811500E-07  0.3118445E+04  0.7818609E-02  0.8210694E-01
        1   -1    0    0  501    0  0.00000000000E+00  0.00000000000E+00  0.12264094172E+04  0.12264094172E+04  0.50400001928E-02 0.  1.
       -1   -1    0    0    0  501  0.00000000000E+00  0.00000000000E+00 -0.19823519025E+04  0.19823519025E+04  0.50400001928E-02 0. -1.
    10030    2    1    2    0    0  0.00000000000E+00  0.00000000000E+00 -0.75594248527E+03  0.32087613197E+04  0.31184451520E+04 0.  0.
        3    1    3    3  502    0  0.11370244527E+03 -0.16204208430E+03  0.12134271179E+04  0.12294678783E+04  0.10100000352E+00 0.  1.
       -3    1    3    3    0  502 -0.11370244527E+03  0.16204208430E+03 -0.19693696032E+04  0.19792934414E+04  0.10100000352E+00 0. -1.
</event>
<event>
 5   0  0.1379425E-06  0.2223773E+04  0.7818609E-02  0.8508598E-01
        2   -1    0    0  501    0  0.00000000000E+00  0.00000000000E+00  0.89375296839E+03  0.89375296839E+03  0.25500000920E-02 0. -1.
       -2   -1    0    0    0  501  0.00000000000E+00  0.00000000000E+00 -0.13832581110E+04  0.13832581110E+04  0.25500000920E-02 0.  1.
    10030    2    1    2    0    0  0.00000000000E+00  0.00000000000E+00 -0.48950514260E+03  0.22770110794E+04  0.22237725088E+04 0.  0.
        4    1    3    3  502    0 -0.32258413464E+03 -0.31083943956E+03  0.79725873777E+03  0.91449701419E+03  0.12699999809E+01 0. -1.
       -4    1    3    3    0  502  0.32258413464E+03  0.31083943956E+03 -0.12867638804E+04  0.13625140652E+04  0.12699999809E+01 0.  1.
</event>
<event>
 5   0  0.4811500E-07  0.2612342E+04  0.7818609E-02  0.8364021E-01
        1   -1    0    0  501    0  0.00000000000E+00  0.00000000000E+00  0.20141247075E+04  0.20141247076E+04  0.50400001928E-02 0. -1.
       -1   -1    0    0    0  501  0.00000000000E+00  0.00000000000E+00 -0.84705918753E+03  0.84705918754E+03  0.50400001928E-02 0.  1.
    10030    2    1    2    0    0  0.00000000000E+00  0.00000000000E+00  0.11670655200E+04  0.28611838951E+04  0.26123421203E+04 0.  0.
        5    1    3    3  502    0  0.95477401332E+03 -0.47473747393E+03  0.14097739287E+04  0.17676124309E+04  0.46999998093E+01 0. -1.
       -5    1    3    3    0  502 -0.95477401332E+03  0.47473747393E+03 -0.24270840873E+03  0.10935714642E+04  0.46999998093E+01 0.  1.
</event>
<event>
 5   0  0.1505671E-06  0.2368084E+04  0.7818609E-02  0.8451550E-01
        2   -1    0    0  501    0  0.00000000000E+00  0.00000000000E+00  0.18489885367E+04  0.18489885367E+04  0.25500000920E-02 0. -1.
       -2   -1    0    0    0  501  0.00000000000E+00  0.00000000000E+00 -0.75822819920E+03  0.75822819920E+03  0.25500000920E-02 0.  1.
    10030    2    1    2    0    0  0.00000000000E+00  0.00000000000E+00  0.10907603375E+04  0.26072167359E+04  0.23680838233E+04 0.  0.
        3    1    3    3  502    0 -0.90710229587E+03 -0.56958564288E+03  0.11010137019E+04  0.15360643091E+04  0.10100000352E+00 0. -1.
       -3    1    3    3    0  502  0.90710229587E+03  0.56958564288E+03 -0.10253364408E+02  0.10711524268E+04  0.10100000352E+00 0.  1.
</event>
<event>
 5   0  0.1505671E-06  0.3435544E+04  0.7818609E-02  0.8129237E-01
       -2   -1    0    0    0  501  0.00000000000E+00  0.00000000000E+00  0.22542486102E+04  0.22542486102E+04  0.25500000920E-02 0. -1.
        2   -1    0    0  501    0  0.00000000000E+00  0.00000000000E+00 -0.13089683206E+04  0.13089683207E+04  0.25500000920E-02 0.  1.
    10030    2    1    2    0    0  0.00000000000E+00  0.00000000000E+00  0.94528028953E+03  0.35632169308E+04  0.34355436354E+04 0.  0.
        3    1    3    3  502    0 -0.60593843353E+03  0.74140064775E+03 -0.10065090713E+04  0.13892072655E+04  0.10100000352E+00 0.  1.
       -3    1    3    3    0  502  0.60593843353E+03 -0.74140064775E+03  0.19517893608E+04  0.21740096653E+04  0.10100000352E+00 0. -1.
</event>
<event>
 5   0  0.4811500E-07  0.3894558E+04  0.7818609E-02  0.8026162E-01
       -1   -1    0    0    0  501  0.00000000000E+00  0.00000000000E+00  0.29616073522E+04  0.29616073522E+04  0.50400001928E-02 0.  1.
        1   -1    0    0  501    0  0.00000000000E+00  0.00000000000E+00 -0.12803507753E+04  0.12803507753E+04  0.50400001928E-02 0. -1.
    10030    2    1    2    0    0  0.00000000000E+00  0.00000000000E+00  0.16812565769E+04  0.42419581275E+04  0.38945583931E+04 0.  0.
        5    1    3    3  502    0 -0.14475475187E+04  0.75633080531E+03 -0.31435868833E+03  0.16632118268E+04  0.46999998093E+01 0. -1.
       -5    1    3    3    0  502  0.14475475187E+04 -0.75633080531E+03  0.19956152653E+04  0.25787463006E+04  0.46999998093E+01 0.  1.
</event>
<event>
 5   0  0.4811500E-07  0.2622189E+04  0.7818609E-02  0.8360703E-01
       -1   -1    0    0    0  501  0.00000000000E+00  0.00000000000E+00  0.16800095576E+04  0.16800095576E+04  0.50400001928E-02 0.  1.
        1   -1    0    0  501    0  0.00000000000E+00  0.00000000000E+00 -0.10231900543E+04  0.10231900543E+04  0.50400001928E-02 0. -1.
    10030    2    1    2    0    0  0.00000000000E+00  0.00000000000E+00  0.65681950334E+03  0.27031996120E+04  0.26221892155E+04 0.  0.
        5    1    3    3  502    0  0.82236228096E+03 -0.99785959160E+03  0.10505160425E+03  0.12973285687E+04  0.46999998093E+01 0.  1.
       -5    1    3    3    0  502 -0.82236228096E+03  0.99785959160E+03  0.55176789909E+03  0.14058710432E+04  0.46999998093E+01 0. -1.
</event>
<event>
 5   0  0.1505671E-06  0.3632119E+04  0.7818609E-02  0.8083174E-01
        2   -1    0    0  501    0  0.00000000000E+00  0.00000000000E+00  0.24728743054E+04  0.24728743054E+04  0.25500000920E-02 0.  1.
       -2   -1    0    0    0  501  0.00000000000E+00  0.00000000000E+00 -0.13336998336E+04  0.13336998336E+04  0.25500000920E-02 0. -1.
    10030    2    1    2    0    0  0.00000000000E+00  0.00000000000E+00  0.11391744718E+04  0.38065741389E+04  0.36321189680E+04 0.  0.
        3    1    3    3  502    0 -0.15819672671E+04 -0.88755318648E+03  0.66155725357E+03  0.19308104783E+04  0.10100000352E+00 0.  1.
       -3    1    3    3    0  502  0.15819672671E+04  0.88755318648E+03  0.47761721825E+03  0.18757636606E+04  0.10100000352E+00 0. -1.
</event>
<event>
 5   0  0.4811500E-07  0.3670662E+04  0.7818609E-02  0.8074495E-01
       -3   -1    0    0    0  501  0.00000000000E+00  0.00000000000E+00  0.18578119856E+04  0.18578119884E+04  0.10100000352E+00 0.  1.
        3   -1    0    0  501    0  0.00000000000E+00  0.00000000000E+00 -0.18131220805E+04  0.18131220833E+04  0.10100000352E+00 0. -1.
    10030    2    1    2    0    0  0.00000000000E+00  0.00000000000E+00  0.44689905145E+02  0.36709340716E+04  0.36706620344E+04 0.  0.
        2    1    3    3  502    0 -0.73542519701E+03 -0.73097503961E+03 -0.14921203457E+04  0.18170299544E+04  0.25500000920E-02 0. -1.
       -2    1    3    3    0  502  0.73542519701E+03  0.73097503961E+03  0.15368102509E+04  0.18539041173E+04  0.25500000920E-02 0.  1.
</event>
<event>
 5   0  0.1468942E-06  0.3561888E+04  0.7818609E-02  0.8099278E-01
        2   -1    0    0  501    0  0.00000000000E+00  0.00000000000E+00  0.27755427021E+04  0.27755427021E+04  0.25500000920E-02 0. -1.
       -2   -1    0    0    0  501  0.00000000000E+00  0.00000000000E+00 -0.11427535118E+04  0.11427535118E+04  0.25500000920E-02 0.  1.
    10030    2    1    2    0    0  0.00000000000E+00  0.00000000000E+00  0.16327891903E+04  0.39182962139E+04  0.35618877973E+04 0.  0.
        2    1    3    3  502    0  0.11109871017E+04  0.13622133498E+04  0.11311037985E+04  0.20902902558E+04  0.25500000920E-02 0.  1.
       -2    1    3    3    0  502 -0.11109871017E+04 -0.13622133498E+04  0.50168539172E+03  0.18280059581E+04  0.25500000920E-02 0. -1.
</event>
<event>
 5   0  0.1444091E-06  0.3582983E+04  0.7818609E-02  0.8094401E-01
       -2   -1    0    0    0  501  0.00000000000E+00  0.00000000000E+00  0.26093963575E+04  0.26093963575E+04  0.25500000920E-02 0.  1.
        2   -1    0    0  501    0  0.00000000000E+00  0.00000000000E+00 -0.12299553731E+04  0.12299553731E+04  0.25500000920E-02 0. -1.
    10030    2    1    2    0    0  0.00000000000E+00  0.00000000000E+00  0.13794409844E+04  0.38393517306E+04  0.35829825958E+04 0.  0.
        1    1    3    3  502    0  0.11240400348E+04 -0.45115553979E+03 -0.72474168577E+03  0.14114736384E+04  0.50400001928E-02 0. -1.
       -1    1    3    3    0  502 -0.11240400348E+04  0.45115553979E+03  0.21041826702E+04  0.24278780921E+04  0.50400001928E-02 0.  1.
</event>
<event>
 5   0  0.5071661E-07  0.3479340E+04  0.7818609E-02  0.8118704E-01
       -1   -1    0    0    0  501  0.00000000000E+00  0.00000000000E+00  0.16650334516E+04  0.16650334516E+04  0.50400001928E-02 0.  1.
        1   -1    0    0  501    0  0.00000000000E+00  0.00000000000E+00 -0.18176525151E+04  0.18176525151E+04  0.50400001928E-02 0. -1.
    10030    2    1    2    0    0  0.00000000000E+00  0.00000000000E+00 -0.15261906353E+03  0.34826859667E+04  0.34793403059E+04 0.  0.
        1    1    3    3  502    0 -0.82229483954E+03 -0.30625613755E+03  0.14272968964E+04  0.16754515975E+04  0.50400001928E-02 0.  1.
       -1    1    3    3    0  502  0.82229483954E+03  0.30625613755E+03 -0.15799159599E+04  0.18072343692E+04  0.50400001928E-02 0. -1.
</event>
<event>
 5   0  0.1379425E-06  0.3252060E+04  0.7818609E-02  0.8175202E-01
       -2   -1    0    0    0  501  0.00000000000E+00  0.00000000000E+00  0.19405168845E+04  0.19405168845E+04  0.25500000920E-02 0.  1.
        2   -1    0    0  501    0  0.00000000000E+00  0.00000000000E+00 -0.13625100440E+04  0.13625100440E+04  0.25500000920E-02 0. -1.
    10030    2    1    2    0    0  0.00000000000E+00  0.00000000000E+00  0.57800684051E+03  0.33030269284E+04  0.32520601136E+04 0.  0.
        4    1    3    3  502    0  0.48462372362E+02  0.11186434497E+04  0.14865753837E+04  0.18610802652E+04  0.12699999809E+01 0.  1.
       -4    1    3    3    0  502 -0.48462372362E+02 -0.11186434497E+04 -0.90856854322E+03  0.14419466632E+04  0.12699999809E+01 0. -1.
</event>
<event>
 5   0  0.1379425E-06  0.3609670E+04  0.7818609E-02  0.8088280E-01
       -2   -1    0    0    0  501  0.00000000000E+00  0.00000000000E+00  0.17544507368E+04  0.17544507368E+04  0.25500000920E-02 0. -1.
        2   -1    0    0  501    0  0.00000000000E+00  0.00000000000E+00 -0.18566656835E+04  0.18566656835E+04  0.25500000920E-02 0.  1.
    10030    2    1    2    0    0  0.00000000000E+00  0.00000000000E+00 -0.10221494668E+03  0.36111164203E+04  0.36096695009E+04 0.  0.
        4    1    3    3  502    0 -0.91071428621E+02  0.12186290284E+04  0.12776102080E+04  0.17679480112E+04  0.12699999809E+01 0. -1.
       -4    1    3    3    0  502  0.91071428621E+02 -0.12186290284E+04 -0.13798251547E+04  0.18431684091E+04  0.12699999809E+01 0.  1.
</event>
<event>
 5   0  0.1505671E-06  0.3597684E+04  0.7818609E-02  0.8091022E-01
       -2   -1    0    0    0  501  0.00000000000E+00  0.00000000000E+00  0.16043872645E+04  0.16043872645E+04  0.25500000920E-02 0.  1.
        2   -1    0    0  501    0  0.00000000000E+00  0.00000000000E+00 -0.20168652842E+04  0.20168652842E+04  0.25500000920E-02 0. -1.
    10030    2    1    2    0    0  0.00000000000E+00  0.00000000000E+00 -0.41247801967E+03  0.36212525486E+04  0.35976842419E+04 0.  0.
        3    1    3    3  502    0 -0.49032121649E+03 -0.75778007407E+03 -0.17724489472E+04  0.19890250920E+04  0.10100000352E+00 0. -1.
       -3    1    3    3    0  502  0.49032121649E+03  0.75778007407E+03  0.13599709276E+04  0.16322274566E+04  0.10100000352E+00 0.  1.
</event>
<event>
 5   0  0.4811500E-07  0.3569934E+04  0.7818609E-02  0.8097414E-01
       -1   -1    0    0    0  501  0.00000000000E+00  0.00000000000E+00  0.14713348075E+04  0.14713348075E+04  0.50400001928E-02 0.  1.
        1   -1    0    0  501    0  0.00000000000E+00  0.00000000000E+00 -0.21654532362E+04  0.21654532363E+04  0.50400001928E-02 0. -1.
    10030    2    1    2    0    0  0.00000000000E+00  0.00000000000E+00 -0.69411842873E+03  0.36367880438E+04  0.35699337364E+04 0.  0.
        4    1    3    3  502    0  0.10120382444E+04 -0.10698482305E+04 -0.13745647359E+04  0.20145040260E+04  0.12699999809E+01 0. -1.
       -4    1    3    3    0  502 -0.10120382444E+04  0.10698482305E+04  0.68044630715E+03  0.16222840178E+04  0.12699999809E+01 0.  1.
</event>
<event>
 5   0  0.4811500E-07  0.3224263E+04  0.7818609E-02  0.8182438E-01
        1   -1    0    0  501    0  0.00000000000E+00  0.00000000000E+00  0.99028560018E+03  0.99028560019E+03  0.50400001928E-02 0. -1.
       -1   -1    0    0    0  501  0.00000000000E+00  0.00000000000E+00 -0.26244638418E+04  0.26244638418E+04  0.50400001928E-02 0.  1.
    10030    2    1    2    0    0  0.00000000000E+00  0.00000000000E+00 -0.16341782416E+04  0.36147494420E+04  0.32242634823E+04 0.  0.
        2    1    3    3  502    0 -0.15566890581E+04 -0.88374978562E+02 -0.35773851124E+03  0.15997086619E+04  0.25500000920E-02 0. -1.
       -2    1    3    3    0  502  0.15566890581E+04  0.88374978562E+02 -0.12764397304E+04  0.20150407802E+04  0.25500000920E-02 0.  1.
</event>
<event>
 5   0  0.1505671E-06  0.3713659E+04  0.7818609E-02  0.8064942E-01
       -2   -1    0    0    0  501  0.00000000000E+00  0.00000000000E+00  0.23020591811E+04  0.23020591811E+04  0.25500000920E-02 0. -1.
        2   -1    0    0  501    0  0.00000000000E+00  0.00000000000E+00 -0.14977093687E+04  0.14977093687E+04  0.25500000920E-02 0.  1.
    10030    2    1    2    0    0  0.00000000000E+00  0.00000000000E+00  0.80434981241E+03  0.37997685498E+04  0.37136588981E+04 0.  0.
        3    1    3    3  502    0  0.65381165135E+03  0.16356312210E+04  0.10032105010E+04  0.20271138315E+04  0.10100000352E+00 0. -1.
       -3    1    3    3    0  502 -0.65381165135E+03 -0.16356312210E+04 -0.19886068854E+03  0.17726547183E+04  0.10100000352E+00 0.  1.
</event>
<event>
 5   0  0.1379425E-06  0.3157359E+04  0.7818609E-02  0.8200170E-01
        2   -1    0    0  501    0  0.00000000000E+00  0.00000000000E+00  0.17233582917E+04  0.17233582917E+04  0.25500000920E-02 0.  1.
       -2   -1    0    0    0  501  0.00000000000E+00  0.00000000000E+00 -0.14461465736E+04  0.14461465736E+04  0.25500000920E-02 0. -1.
    10030    2    1    2    0    0  0.00000000000E+00  0.00000000000E+00  0.27721171803E+03  0.31695048653E+04  0.31573588257E+04 0.  0.
        4    1    3    3  502    0 -0.73052123661E+03  0.19101264775E+03 -0.12531184330E+04  0.14630292303E+04  0.12699999809E+01 0. -1.
       -4    1    3    3    0  502  0.73052123661E+03 -0.19101264775E+03  0.15303301510E+04  0.17064756350E+04  0.12699999809E+01 0.  1.
</event>
<event>
 5   0  0.1379425E-06  0.3810356E+04  0.7818609E-02  0.8043936E-01
        2   -1    0    0  501    0  0.00000000000E+00  0.00000000000E+00  0.27852396996E+04  0.27852396996E+04  0.25500000920E-02 0. -1.
       -2   -1    0    0    0  501  0.00000000000E+00  0.00000000000E+00 -0.13031923135E+04  0.13031923135E+04  0.25500000920E-02 0.  1.
    10030    2    1    2    0    0  0.00000000000E+00  0.00000000000E+00  0.14820473861E+04  0.40884320132E+04  0.38103558721E+04 0.  0.
        4    1    3    3  502    0 -0.86187822087E+03 -0.57541725464E+03  0.24563686441E+04  0.26660246835E+04  0.12699999809E+01 0. -1.
       -4    1    3    3    0  502  0.86187822087E+03  0.57541725464E+03 -0.97432125806E+03  0.14224073296E+04  0.12699999809E+01 0.  1.
</event>
<event>
 5   0  0.4811500E-07  0.3009961E+04  0.7818609E-02  0.8240892E-01
        1   -1    0    0  501    0  0.00000000000E+00  0.00000000000E+00  0.18693198673E+04  0.18693198673E+04  0.50400001928E-02 0.  1.
       -1   -1    0    0    0  501  0.00000000000E+00  0.00000000000E+00 -0.12116523711E+04  0.12116523711E+04  0.50400001928E-02 0. -1.
    10030    2    1    2    0    0  0.00000000000E+00  0.00000000000E+00  0.65766749625E+03  0.30809722384E+04  0.30099606972E+04 0.  0.
        3    1    3    3  502    0  0.86574605907E+02  0.57592910402E+03  0.17492966118E+04  0.18436995800E+04  0.10100000352E+00 0.  1.
       -3    1    3    3    0  502 -0.86574605907E+02 -0.57592910402E+03 -0.10916291155E+04  0.12372726584E+04  0.10100000352E+00 0. -1.
</event>
<event>
 5   0  0.5071661E-07  0.3592322E+04  0.7818609E-02  0.8092253E-01
        1   -1    0    0  501    0  0.00000000000E+00  0.00000000000E+00  0.16779637416E+04  0.16779637416E+04  0.50400001928E-02 0. -1.
       -1   -1    0    0    0  501  0.00000000000E+00  0.00000000000E+00 -0.19226841060E+04  0.19226841060E+04  0.50400001928E-02 0.  1.
    10030    2    1    2    0    0  0.00000000000E+00  0.00000000000E+00 -0.24472036440E+03  0.36006478476E+04  0.35923219324E+04 0.  0.
        1    1    3    3  502    0 -0.10145814507E+04  0.14242212889E+04 -0.53369213957E+03  0.18282803669E+04  0.50400001928E-02 0.  1.
       -1    1    3    3    0  502  0.10145814507E+04 -0.14242212889E+04  0.28897177517E+03  0.17723674807E+04  0.50400001928E-02 0. -1.
</event>
<event>
 5   0  0.4811500E-07  0.2751668E+04  0.7818609E-02  0.8318433E-01
       -1   -1    0    0    0  501  0.00000000000E+00  0.00000000000E+00  0.12414239449E+04  0.12414239449E+04  0.50400001928E-02 0. -1.
        1   -1    0    0  501    0  0.00000000000E+00  0.00000000000E+00 -0.15247963861E+04  0.15247963861E+04  0.50400001928E-02 0.  1.
    10030    2    1    2    0    0  0.00000000000E+00  0.00000000000E+00 -0.28337244114E+03  0.27662203310E+04  0.27516676724E+04 0.  0.
        2    1    3    3  502    0  0.13350603165E+03 -0.22287096408E+03  0.12165415196E+04  0.12439729080E+04  0.25500000920E-02 0. -1.
       -2    1    3    3    0  502 -0.13350603165E+03  0.22287096408E+03 -0.14999139607E+04  0.15222474229E+04  0.25500000920E-02 0.  1.
</event>
<event>
 5   0  0.1444091E-06  0.3549788E+04  0.7818609E-02  0.8102091E-01
        2   -1    0    0  501    0  0.00000000000E+00  0.00000000000E+00  0.18698571733E+04  0.18698571733E+04  0.25500000920E-02 0.  1.
       -2   -1    0    0    0  501  0.00000000000E+00  0.00000000000E+00 -0.16847535037E+04  0.16847535037E+04  0.25500000920E-02 0. -1.
    10030    2    1    2    0    0  0.00000000000E+00  0.00000000000E+00  0.18510366957E+03  0.35546106769E+04  0.35497878382E+04 0.  0.
        1    1    3    3  502    0  0.30761089930E+03  0.71056680683E+03 -0.15067150074E+04  0.16940247241E+04  0.50400001928E-02 0. -1.
       -1    1    3    3    0  502 -0.30761089930E+03 -0.71056680683E+03  0.16918186769E+04  0.18605859529E+04  0.50400001928E-02 0.  1.
</event>
<event>
 5   0  0.1379425E-06  0.3611772E+04  0.7818609E-02  0.8087800E-01
        2   -1    0    0  501    0  0.00000000000E+00  0.00000000000E+00  0.22148503024E+04  0.22148503024E+04  0.25500000920E-02 0.  1.
       -2   -1    0    0    0  501  0.00000000000E+00  0.00000000000E+00 -0.14724356734E+04  0.14724356734E+04  0.25500000920E-02 0. -1.
    10030    2    1    2    0    0  0.00000000000E+00  0.00000000000E+00  0.74241462897E+03  0.36872859758E+04  0.36117721946E+04 0.  0.
        4    1    3    3  502    0  0.23104171026E+03 -0.50311985062E+03  0.21260740114E+04  0.21969756874E+04  0.12699999809E+01 0.  1.
       -4    1    3    3    0  502 -0.23104171026E+03  0.50311985062E+03 -0.13836593825E+04  0.14903102884E+04  0.12699999809E+01 0. -1.
</event>
<event>
 5   0  0.4811500E-07  0.3652423E+04  0.7818609E-02  0.8078588E-01
        1   -1    0    0  501    0  0.00000000000E+00  0.00000000000E+00  0.28483376881E+04  0.28483376882E+04  0.50400001928E-02 0. -1.
       -1   -1    0    0    0  501  0.00000000000E+00  0.00000000000E+00 -0.11708751068E+04  0.11708751068E+04  0.50400001928E-02 0.  1.
    10030    2    1    2    0    0  0.00000000000E+00  0.00000000000E+00  0.16774625813E+04  0.40192127950E+04  0.36524225905E+04 0.  0.
        5    1    3    3  502    0  0.14830610543E+04  0.53529977465E+03 -0.17521814360E+03  0.15864234704E+04  0.46999998093E+01 0.  1.
       -5    1    3    3    0  502 -0.14830610543E+04 -0.53529977465E+03  0.18526807249E+04  0.24327893246E+04  0.46999998093E+01 0. -1.
</event>
<event>
 5   0  0.1379425E-06  0.3580141E+04  0.7818609E-02  0.8095056E-01
        2   -1    0    0  501    0  0.00000000000E+00  0.00000000000E+00  0.20914808137E+04  0.20914808137E+04  0.25500000920E-02 0.  1.
       -2   -1    0    0    0  501  0.00000000000E+00  0.00000000000E+00 -0.15320976990E+04  0.15320976990E+04  0.25500000920E-02 0. -1.
    10030    2    1    2    0    0  0.00000000000E+00  0.00000000000E+00  0.55938311470E+03  0.36235785126E+04  0.35801413056E+04 0.  0.
        4    1    3    3  502    0 -0.17502730309E+04  0.21320746044E+03 -0.32987421556E+02  0.17635200273E+04  0.12699999809E+01 0.  1.
       -4    1    3    3    0  502  0.17502730309E+04 -0.21320746044E+03  0.59237053626E+03  0.18600584853E+04  0.12699999809E+01 0. -1.
</event>
<event>
 5   0  0.4811500E-07  0.3586448E+04  0.7818609E-02  0.8093603E-01
       -1   -1    0    0    0  501  0.00000000000E+00  0.00000000000E+00  0.16376867448E+04  0.16376867449E+04  0.50400001928E-02 0.  1.
        1   -1    0    0  501    0  0.00000000000E+00  0.00000000000E+00 -0.19635329337E+04  0.19635329337E+04  0.50400001928E-02 0. -1.
    10030    2    1    2    0    0  0.00000000000E+00  0.00000000000E+00 -0.32584618882E+03  0.36012196785E+04  0.35864477459E+04 0.  0.
        3    1    3    3  502    0  0.72597018681E+03  0.14896721114E+01  0.14835307879E+04  0.16516351111E+04  0.10100000352E+00 0.  1.
       -3    1    3    3    0  502 -0.72597018681E+03 -0.14896721114E+01 -0.18093769768E+04  0.19495845674E+04  0.10100000352E+00 0. -1.
</event>
<event>
 5   0  0.4811500E-07  0.2629594E+04  0.7818609E-02  0.8358218E-01
       -1   -1    0    0    0  501  0.00000000000E+00  0.00000000000E+00  0.93468664451E+03  0.93468664452E+03  0.50400001928E-02 0.  1.
        1   -1    0    0  501    0  0.00000000000E+00  0.00000000000E+00 -0.18494878499E+04  0.18494878499E+04  0.50400001928E-02 0. -1.
    10030    2    1    2    0    0  0.00000000000E+00  0.00000000000E+00 -0.91480120541E+03  0.27841744944E+04  0.26295943357E+04 0.  0.
        5    1    3    3  502    0  0.33358733931E+03  0.43912776137E+03  0.80630941281E+03  0.97686778171E+03  0.46999998093E+01 0.  1.
       -5    1    3    3    0  502 -0.33358733931E+03 -0.43912776137E+03 -0.17211106182E+04  0.18073067127E+04  0.46999998093E+01 0. -1.
</event>
<event>
 5   0  0.4811500E-07  0.3551557E+04  0.7818609E-02  0.8101679E-01
       -1   -1    0    0    0  501  0.00000000000E+00  0.00000000000E+00  0.11119077940E+04  0.11119077940E+04  0.50400001928E-02 0. -1.
        1   -1    0    0  501    0  0.00000000000E+00  0.00000000000E+00 -0.28360171278E+04  0.28360171278E+04  0.50400001928E-02 0.  1.
    10030    2    1    2    0    0  0.00000000000E+00  0.00000000000E+00 -0.17241093337E+04  0.39479249218E+04  0.35515571506E+04 0.  0.
        5    1    3    3  502    0 -0.17639919871E+04 -0.78983298832E+02 -0.10713829008E+04  0.20653787794E+04  0.46999998093E+01 0.  1.
       -5    1    3    3    0  502  0.17639919871E+04  0.78983298832E+02 -0.65272643290E+03  0.18825461424E+04  0.46999998093E+01 0. -1.
</event>
<event>
 5   0  0.1491854E-06  0.3508564E+04  0.7818609E-02  0.8111763E-01
        2   -1    0    0  501    0  0.00000000000E+00  0.00000000000E+00  0.17901680312E+04  0.17901680312E+04  0.25500000920E-02 0. -1.
       -2   -1    0    0    0  501  0.00000000000E+00  0.00000000000E+00 -0.17191151290E+04  0.17191151290E+04  0.25500000920E-02 0.  1.
    10030    2    1    2    0    0  0.00000000000E+00  0.00000000000E+00  0.71052902156E+02  0.35092831602E+04  0.35085637779E+04 0.  0.
        5    1    3    3  502    0 -0.77630419483E+03 -0.73089172950E+03 -0.13578248376E+04  0.17264302195E+04  0.46999998093E+01 0.  1.
       -5    1    3    3    0  502  0.77630419483E+03  0.73089172950E+03  0.14288777398E+04  0.17828529407E+04  0.46999998093E+01 0. -1.
</event>
<event>
 5   0  0.1491854E-06  0.3509306E+04  0.7818609E-02  0.8111588E-01
        2   -1    0    0  501    0  0.00000000000E+00  0.00000000000E+00  0.19555549264E+04  0.19555549264E+04  0.25500000920E-02 0. -1.
       -2   -1    0    0    0  501  0.00000000000E+00  0.00000000000E+00 -0.15743901611E+04  0.15743901611E+04  0.25500000920E-02 0.  1.
    10030    2    1    2    0    0  0.00000000000E+00  0.00000000000E+00  0.38116476537E+03  0.35299450875E+04  0.35093055926E+04 0.  0.
        5    1    3    3  502    0  0.71486595396E+03 -0.14586476188E+03 -0.14145705827E+04  0.15916475378E+04  0.46999998093E+01 0.  1.
       -5    1    3    3    0  502 -0.71486595396E+03  0.14586476188E+03  0.17957353481E+04  0.19382975497E+04  0.46999998093E+01 0. -1.
</event>
<event>
 5   0  0.1468942E-06  0.3570837E+04  0.7818609E-02  0.8097205E-01
       -2   -1    0    0    0  501  0.00000000000E+00  0.00000000000E+00  0.18830077414E+04  0.18830077414E+04  0.25500000920E-02 0.  1.
        2   -1    0    0  501    0  0.00000000000E+00  0.00000000000E+00 -0.16928866866E+04  0.16928866866E+04  0.25500000920E-02 0. -1.
    10030    2    1    2    0    0  0.00000000000E+00  0.00000000000E+00  0.19012105481E+03  0.35758944280E+04  0.35708367289E+04 0.  0.
        2    1    3    3  502    0  0.10925794685E+04 -0.26433785156E+03  0.14841497239E+04  0.18618014926E+04  0.25500000920E-02 0.  1.
       -2    1    3    3    0  502 -0.10925794685E+04  0.26433785156E+03 -0.12940286691E+04  0.17140929354E+04  0.25500000920E-02 0. -1.
</event>
<event>
 5   0  0.5071661E-07  0.3745652E+04  0.7818609E-02  0.8057920E-01
       -1   -1    0    0    0  501  0.00000000000E+00  0.00000000000E+00  0.12268259051E+04  0.12268259051E+04  0.50400001928E-02 0. -1.
        1   -1    0    0  501    0  0.00000000000E+00  0.00000000000E+00 -0.28589846503E+04  0.28589846503E+04  0.50400001928E-02 0.  1.
    10030    2    1    2    0    0  0.00000000000E+00  0.00000000000E+00 -0.16321587453E+04  0.40858105554E+04  0.37456515755E+04 0.  0.
        1    1    3    3  502    0 -0.54986867786E+03  0.12109020963E+04  0.62232264562E+03  0.14683068225E+04  0.50400001928E-02 0. -1.
       -1    1    3    3    0  502  0.54986867786E+03 -0.12109020963E+04 -0.22544813909E+04  0.26175037329E+04  0.50400001928E-02 0.  1.
</event>
<event>
 5   0  0.1491854E-06  0.3387349E+04  0.7818609E-02  0.8141018E-01
        2   -1    0    0  501    0  0.00000000000E+00  0.00000000000E+00  0.24033712981E+04  0.24033712982E+04  0.25500000920E-02 0. -1.
       -2   -1    0    0    0  501  0.00000000000E+00  0.00000000000E+00 -0.11935453945E+04  0.11935453945E+04  0.25500000920E-02 0.  1.
    10030    2    1    2    0    0  0.00000000000E+00  0.00000000000E+00  0.12098259036E+04  0.35969166927E+04  0.33873486648E+04 0.  0.
        5    1    3    3  502    0  0.25643494294E+03  0.82186077510E+03  0.21536743120E+04  0.23193855104E+04  0.46999998093E+01 0. -1.
       -5    1    3    3    0  502 -0.25643494294E+03 -0.82186077510E+03 -0.94384840840E+03  0.12775311823E+04  0.46999998093E+01 0.  1.
</event>
<event>
 5   0  0.4811500E-07  0.3607793E+04  0.7818609E-02  0.8088709E-01
        1   -1    0    0  501    0  0.00000000000E+00  0.00000000000E+00  0.20823872828E+04  0.20823872828E+04  0.50400001928E-02 0.  1.
       -1   -1    0    0    0  501  0.00000000000E+00  0.00000000000E+00 -0.15626500752E+04  0.15626500752E+04  0.50400001928E-02 0. -1.
    10030    2    1    2    0    0  0.00000000000E+00  0.00000000000E+00  0.51973720765E+03  0.36450373580E+04  0.36077930340E+04 0.  0.
        5    1    3    3  502    0  0.74594973535E+03  0.91624357946E+03  0.16370534997E+04  0.20188881979E+04  0.46999998093E+01 0.  1.
       -5    1    3    3    0  502 -0.74594973535E+03 -0.91624357946E+03 -0.11173162921E+04  0.16261491602E+04  0.46999998093E+01 0. -1.
</event>
<event>
 5   0  0.1505671E-06  0.3708719E+04  0.7818609E-02  0.8066032E-01
        2   -1    0    0  501    0  0.00000000000E+00  0.00000000000E+00  0.24139716738E+04  0.24139716738E+04  0.25500000920E-02 0.  1.
       -2   -1    0    0    0  501  0.00000000000E+00  0.00000000000E+00 -0.14244781693E+04  0.14244781693E+04  0.25500000920E-02 0. -1.
    10030    2    1    2    0    0  0.00000000000E+00  0.00000000000E+00  0.98949350447E+03  0.38384498432E+04  0.37087194290E+04 0.  0.
        3    1    3    3  502    0 -0.12280536142E+04 -0.11468946052E+04  0.13065081867E+04  0.21284845705E+04  0.10100000352E+00 0. -1.
       -3    1    3    3    0  502  0.12280536142E+04  0.11468946052E+04 -0.31701468225E+03  0.17099652726E+04  0.10100000352E+00 0.  1.
</event>
<event>
 5   0  0.1491854E-06  0.4017628E+04  0.7818609E-02  0.8001000E-01
        2   -1    0    0  501    0  0.00000000000E+00  0.00000000000E+00  0.19391158598E+04  0.19391158598E+04  0.25500000920E-02 0.  1.
       -2   -1    0    0    0  501  0.00000000000E+00  0.00000000000E+00 -0.20810169635E+04  0.20810169635E+04  0.25500000920E-02 0. -1.
    10030    2    1    2    0    0  0.00000000000E+00  0.00000000000E+00 -0.14190110374E+03  0.40201328233E+04  0.40176276574E+04 0.  0.
        5    1    3    3  502    0 -0.58852501302E+03 -0.13677615792E+04 -0.14201894531E+04  0.20576913280E+04  0.46999998093E+01 0. -1.
       -5    1    3    3    0  502  0.58852501302E+03  0.13677615792E+04  0.12782883494E+04  0.19624414953E+04  0.46999998093E+01 0.  1.
</event>
<event>
 5   0  0.4811500E-07  0.3580832E+04  0.7818609E-02  0.8094897E-01
       -1   -1    0    0    0  501  0.00000000000E+00  0.00000000000E+00  0.11025122292E+04  0.11025122292E+04  0.50400001928E-02 0. -1.
        1   -1    0    0  501    0  0.00000000000E+00  0.00000000000E+00 -0.29075317743E+04  0.29075317743E+04  0.50400001928E-02 0.  1.
    10030    2    1    2    0    0  0.00000000000E+00  0.00000000000E+00 -0.18050195451E+04  0.40100440035E+04  0.35808319357E+04 0.  0.
        4    1    3    3  502    0  0.18908521687E+03 -0.87894846773E+03  0.83139384363E+03  0.12245492903E+04  0.12699999809E+01 0. -1.
       -4    1    3    3    0  502 -0.18908521687E+03  0.87894846773E+03 -0.26364133887E+04  0.27854947132E+04  0.12699999809E+01 0.  1.
</event>
<event>
 5   0  0.1505671E-06  0.3645273E+04  0.7818609E-02  0.8080199E-01
       -2   -1    0    0    0  501  0.00000000000E+00  0.00000000000E+00  0.15638145239E+04  0.15638145239E+04  0.25500000920E-02 0. -1.
        2   -1    0    0  501    0  0.00000000000E+00  0.00000000000E+00 -0.21242948582E+04  0.21242948582E+04  0.25500000920E-02 0.  1.
    10030    2    1    2    0    0  0.00000000000E+00  0.00000000000E+00 -0.56048033429E+03  0.36881093822E+04  0.36452726386E+04 0.  0.
        3    1    3    3  502    0 -0.14654824517E+04  0.84964694849E+03  0.40031914210E+03  0.17406303971E+04  0.10100000352E+00 0. -1.
       -3    1    3    3    0  502  0.14654824517E+04 -0.84964694849E+03 -0.96079947639E+03  0.19474789851E+04  0.10100000352E+00 0.  1.
</event>
<event>
 5   0  0.1468942E-06  0.3581796E+04  0.7818609E-02  0.8094674E-01
       -2   -1    0    0    0  501  0.00000000000E+00  0.00000000000E+00  0.17217828836E+04  0.17217828836E+04  0.25500000920E-02 0. -1.
        2   -1    0    0  501    0  0.00000000000E+00  0.00000000000E+00 -0.18627876217E+04  0.18627876217E+04  0.25500000920E-02 0.  1.
    10030    2    1    2    0    0  0.00000000000E+00  0.00000000000E+00 -0.14100473815E+03  0.35845705053E+04  0.35817961096E+04 0.  0.
        2    1    3    3  502    0  0.88087892314E+03 -0.65916537937E+03  0.13436984105E+04  0.17366554330E+04  0.25500000920E-02 0. -1.
       -2    1    3    3    0  502 -0.88087892314E+03  0.65916537937E+03 -0.14847031487E+04  0.18479150723E+04  0.25500000920E-02 0.  1.
</event>
<event>
 5   0  0.1379425E-06  0.3638107E+04  0.7818609E-02  0.8081818E-01
        2   -1    0    0  501    0  0.00000000000E+00  0.00000000000E+00  0.13466631930E+04  0.13466631930E+04  0.25500000920E-02 0. -1.
       -2   -1    0    0    0  501  0.00000000000E+00  0.00000000000E+00 -0.24571518007E+04  0.24571518007E+04  0.25500000920E-02 0.  1.
    10030    2    1    2    0    0  0.00000000000E+00  0.00000000000E+00 -0.11104886077E+04  0.38038149936E+04  0.36381071394E+04 0.  0.
        4    1    3    3  502    0 -0.42950602233E+03 -0.13751424952E+04  0.60595504496E+03  0.15629060863E+04  0.12699999809E+01 0. -1.
       -4    1    3    3    0  502  0.42950602233E+03  0.13751424952E+04 -0.17164436527E+04  0.22409089073E+04  0.12699999809E+01 0.  1.
</event>
<event>
 5   0  0.1505671E-06  0.3295440E+04  0.7818609E-02  0.8164057E-01
        2   -1    0    0  501    0  0.00000000000E+00  0.00000000000E+00  0.29513551186E+04  0.29513551186E+04  0.25500000920E-02 0. -1.
       -2   -1    0    0    0  501  0.00000000000E+00  0.00000000000E+00 -0.91990995927E+03  0.91990995928E+03  0.25500000920E-02 0.  1.
    10030    2    1    2    0    0  0.00000000000E+00  0.00000000000E+00  0.20314451593E+04  0.38712650779E+04  0.32954398595E+04 0.  0.
        3    1    3    3  502    0 -0.48116642845E+03  0.64378563649E+03  0.27054620631E+04  0.28223228133E+04  0.10100000352E+00 0. -1.
       -3    1    3    3    0  502  0.48116642845E+03 -0.64378563649E+03 -0.67401690376E+03  0.10489422646E+04  0.10100000352E+00 0.  1.
</event>
<event>
 5   0  0.1444091E-06  0.3603769E+04  0.7818609E-02  0.8089629E-01
        2   -1    0    0  501    0  0.00000000000E+00  0.00000000000E+00  0.14977606756E+04  0.14977606756E+04  0.25500000920E-02 0. -1.
       -2   -1    0    0    0  501  0.00000000000E+00  0.00000000000E+00 -0.21677616037E+04  0.21677616037E+04  0.25500000920E-02 0.  1.
    10030    2    1    2    0    0  0.00000000000E+00  0.00000000000E+00 -0.67000092808E+03  0.36655222793E+04  0.36037691847E+04 0.  0.
        1    1    3    3  502    0  0.14750420968E+03  0.12122658043E+04 -0.16826351013E+04  0.20790879627E+04  0.50400001928E-02 0.  1.
       -1    1    3    3    0  502 -0.14750420968E+03 -0.12122658043E+04  0.10126341733E+04  0.15864343166E+04  0.50400001928E-02 0. -1.
</event>
<event>
 5   0  0.1379425E-06  0.3670943E+04  0.7818609E-02  0.8074432E-01
        2   -1    0    0  501    0  0.00000000000E+00  0.00000000000E+00  0.19177103573E+04  0.19177103573E+04  0.25500000920E-02 0.  1.
       -2   -1    0    0    0  501  0.00000000000E+00  0.00000000000E+00 -0.17567589933E+04  0.17567589933E+04  0.25500000920E-02 0. -1.
    10030    2    1    2    0    0  0.00000000000E+00  0.00000000000E+00  0.16095136405E+03  0.36744693506E+04  0.36709426128E+04 0.  0.
        4    1    3    3  502    0 -0.21342112935E+03 -0.98618811032E+03 -0.14542415189E+04  0.17700100495E+04  0.12699999809E+01 0. -1.
       -4    1    3    3    0  502  0.21342112935E+03  0.98618811032E+03  0.16151928829E+04  0.19044593010E+04  0.12699999809E+01 0.  1.
</event>
<event>
 5   0  0.5071661E-07  0.3635221E+04  0.7818609E-02  0.8082471E-01
        1   -1    0    0  501    0  0.00000000000E+00  0.00000000000E+00  0.18163058449E+04  0.18163058449E+04  0.50400001928E-02 0.  1.
       -1   -1    0    0    0  501  0.00000000000E+00  0.00000000000E+00 -0.18189163902E+04  0.18189163902E+04  0.50400001928E-02 0. -1.
    10030    2    1    2    0    0  0.00000000000E+00  0.00000000000E+00 -0.26105453741E+01  0.36352222351E+04  0.36352212978E+04 0.  0.
        1    1    3    3  502    0  0.98185791376E+03  0.32647211237E+03  0.14930442913E+04  0.18165379872E+04  0.50400001928E-02 0.  1.
       -1    1    3    3    0  502 -0.98185791376E+03 -0.32647211237E+03 -0.14956548367E+04  0.18186842479E+04  0.50400001928E-02 0. -1.
</event>
<event>
 5   0  0.4811500E-07  0.2343530E+04  0.7818609E-02  0.8460953E-01
       -1   -1    0    0    0  501  0.00000000000E+00  0.00000000000E+00  0.80753807165E+03  0.80753807166E+03  0.50400001928E-02 0. -1.
        1   -1    0    0  501    0  0.00000000000E+00  0.00000000000E+00 -0.17002704293E+04  0.17002704293E+04  0.50400001928E-02 0.  1.
    10030    2    1    2    0    0  0.00000000000E+00  0.00000000000E+00 -0.89273235761E+03  0.25078085009E+04  0.23435299049E+04 0.  0.
        2    1    3    3  502    0  0.71590232698E+03  0.74872371647E+03  0.13968244341E+03  0.10452820339E+04  0.25500000920E-02 0. -1.
       -2    1    3    3    0  502 -0.71590232698E+03 -0.74872371647E+03 -0.10324148010E+04  0.14625264670E+04  0.25500000920E-02 0.  1.
</event>
<event>
 5   0  0.1444091E-06  0.3653282E+04  0.7818609E-02  0.8078395E-01
        2   -1    0    0  501    0  0.00000000000E+00  0.00000000000E+00  0.20102465077E+04  0.20102465077E+04  0.25500000920E-02 0. -1.
       -2   -1    0    0    0  501  0.00000000000E+00  0.00000000000E+00 -0.16598046284E+04  0.16598046284E+04  0.25500000920E-02 0.  1.
    10030    2    1    2    0    0  0.00000000000E+00  0.00000000000E+00  0.35044187925E+03  0.36700511361E+04  0.36532815155E+04 0.  0.
        1    1    3    3  502    0 -0.14041406166E+04 -0.27800943939E+03 -0.96476390831E+03  0.17261719261E+04  0.50400001928E-02 0.  1.
       -1    1    3    3    0  502  0.14041406166E+04  0.27800943939E+03  0.13152057876E+04  0.19438792101E+04  0.50400001928E-02 0. -1.
</event>
<event>
 5   0  0.4811500E-07  0.3620958E+04  0.7818609E-02  0.8085708E-01
       -1   -1    0    0    0  501  0.00000000000E+00  0.00000000000E+00  0.18464898016E+04  0.18464898016E+04  0.50400001928E-02 0. -1.
        1   -1    0    0  501    0  0.00000000000E+00  0.00000000000E+00 -0.17751703023E+04  0.17751703024E+04  0.50400001928E-02 0.  1.
    10030    2    1    2    0    0  0.00000000000E+00  0.00000000000E+00  0.71319499234E+02  0.36216601039E+04  0.36209578066E+04 0.  0.
        3    1    3    3  502    0  0.32550615262E+02 -0.17934324898E+04 -0.21009954909E+03  0.18059904399E+04  0.10100000352E+00 0. -1.
       -3    1    3    3    0  502 -0.32550615262E+02  0.17934324898E+04  0.28141904832E+03  0.18156696641E+04  0.10100000352E+00 0.  1.
</event>
<event>
 5   0  0.1505671E-06  0.3668638E+04  0.7818609E-02  0.8074948E-01
       -2   -1    0    0    0  501  0.00000000000E+00  0.00000000000E+00  0.13139551774E+04  0.13139551774E+04  0.25500000920E-02 0.  1.
        2   -1    0    0  501    0  0.00000000000E+00  0.00000000000E+00 -0.25607617815E+04  0.25607617815E+04  0.25500000920E-02 0. -1.
    10030    2    1    2    0    0  0.00000000000E+00  0.00000000000E+00 -0.12468066041E+04  0.38747169589E+04  0.36686380039E+04 0.  0.
        3    1    3    3  502    0 -0.46816508821E+03 -0.29320707547E+03  0.12240175214E+04  0.13428953205E+04  0.10100000352E+00 0.  1.
       -3    1    3    3    0  502  0.46816508821E+03  0.29320707547E+03 -0.24708241255E+04  0.25318216383E+04  0.10100000352E+00 0. -1.
</event>
<event>
 5   0  0.4811500E-07  0.3526484E+04  0.7818609E-02  0.8107542E-01
       -1   -1    0    0    0  501  0.00000000000E+00  0.00000000000E+00  0.10128790402E+04  0.10128790403E+04  0.50400001928E-02 0. -1.
        1   -1    0    0  501    0  0.00000000000E+00  0.00000000000E+00 -0.30694903248E+04  0.30694903248E+04  0.50400001928E-02 0.  1.
    10030    2    1    2    0    0  0.00000000000E+00  0.00000000000E+00 -0.20566112845E+04  0.40823693650E+04  0.35264840361E+04 0.  0.
        3    1    3    3  502    0  0.10585481465E+04 -0.82317836870E+03  0.29710701544E+03  0.13734698373E+04  0.10100000352E+00 0. -1.
       -3    1    3    3    0  502 -0.10585481465E+04  0.82317836870E+03 -0.23537183000E+04  0.27088995277E+04  0.10100000352E+00 0.  1.
</event>
<event>
 5   0  0.1468942E-06  0.2520439E+04  0.7818609E-02  0.8395740E-01
        2   -1    0    0  501    0  0.00000000000E+00  0.00000000000E+00  0.17395491082E+04  0.17395491082E+04  0.25500000920E-02 0.  1.
       -2   -1    0    0    0  501  0.00000000000E+00  0.00000000000E+00 -0.91296843992E+03  0.91296843992E+03  0.25500000920E-02 0. -1.
    10030    2    1    2    0    0  0.00000000000E+00  0.00000000000E+00  0.82658066827E+03  0.26525175481E+04  0.25204391962E+04 0.  0.
        2    1    3    3  502    0 -0.51768274687E+03 -0.75654618602E+03 -0.49677710067E+03  0.10426624793E+04  0.25500000920E-02 0. -1.
       -2    1    3    3    0  502  0.51768274687E+03  0.75654618602E+03  0.13233577689E+04  0.16098550688E+04  0.25500000920E-02 0.  1.
</event>
<event>
 5   0  0.4811500E-07  0.3628533E+04  0.7818609E-02  0.8083987E-01
        1   -1    0    0  501    0  0.00000000000E+00  0.00000000000E+00  0.17328314850E+04  0.17328314850E+04  0.50400001928E-02 0. -1.
       -1   -1    0    0    0  501  0.00000000000E+00  0.00000000000E+00 -0.18995284974E+04  0.18995284974E+04  0.50400001928E-02 0.  1.
    10030    2    1    2    0    0  0.00000000000E+00  0.00000000000E+00 -0.16669701238E+03  0.36323599824E+04  0.36285329195E+04 0.  0.
        4    1    3    3  502    0  0.33914189421E+03 -0.21460271183E+03  0.16878365908E+04  0.17348964000E+04  0.12699999809E+01 0. -1.
       -4    1    3    3    0  502 -0.33914189421E+03  0.21460271183E+03 -0.18545336032E+04  0.18974635824E+04  0.12699999809E+01 0.  1.
</event>
<event>
 5   0  0.4811500E-07  0.3591069E+04  0.7818609E-02  0.8092540E-01
        1   -1    0    0  501    0  0.00000000000E+00  0.00000000000E+00  0.16164590546E+04  0.16164590546E+04  0.50400001928E-02 0.  1.
       -1   -1    0    0    0  501  0.00000000000E+00  0.00000000000E+00 -0.19944488195E+04  0.19944488195E+04  0.50400001928E-02 0. -1.
    10030    2    1    2    0    0  0.00000000000E+00  0.00000000000E+00 -0.37798976490E+03  0.36109078741E+04  0.35910693969E+04 0.  0.
        5    1    3    3  502    0  0.16948262760E+04 -0.43343606057E+03  0.21773922340E+03  0.17628770189E+04  0.46999998093E+01 0.  1.
       -5    1    3    3    0  502 -0.16948262760E+04  0.43343606057E+03 -0.59572898830E+03  0.18480308552E+04  0.46999998093E+01 0. -1.
</event>
<event>
 5   0  0.5071661E-07  0.3679725E+04  0.7818609E-02  0.8072470E-01
        1   -1    0    0  501    0  0.00000000000E+00  0.00000000000E+00  0.13530784690E+04  0.13530784690E+04  0.50400001928E-02 0.  1.
       -1   -1    0    0    0  501  0.00000000000E+00  0.00000000000E+00 -0.25017724983E+04  0.25017724983E+04  0.50400001928E-02 0. -1.
    10030    2    1    2    0    0  0.00000000000E+00  0.00000000000E+00 -0.11486940293E+04  0.38548509672E+04  0.36797252624E+04 0.  0.
        1    1    3    3  502    0 -0.61649737120E+03 -0.35484360053E+03 -0.23518954405E+04  0.24571111397E+04  0.50400001928E-02 0. -1.
       -1    1    3    3    0  502  0.61649737120E+03  0.35484360053E+03  0.12032014112E+04  0.13977398276E+04  0.50400001928E-02 0.  1.
</event>
<event>
 5   0  0.4811500E-07  0.3593646E+04  0.7818609E-02  0.8091949E-01
        1   -1    0    0  501    0  0.00000000000E+00  0.00000000000E+00  0.26748233515E+04  0.26748233515E+04  0.50400001928E-02 0.  1.
       -1   -1    0    0    0  501  0.00000000000E+00  0.00000000000E+00 -0.12070228029E+04  0.12070228029E+04  0.50400001928E-02 0. -1.
    10030    2    1    2    0    0  0.00000000000E+00  0.00000000000E+00  0.14678005486E+04  0.38818461544E+04  0.35936459363E+04 0.  0.
        2    1    3    3  502    0 -0.77807480215E+03  0.14675557132E+04 -0.62142247609E+01  0.16610715775E+04  0.25500000920E-02 0. -1.
       -2    1    3    3    0  502  0.77807480215E+03 -0.14675557132E+04  0.14740147734E+04  0.22207745768E+04  0.25500000920E-02 0.  1.
</event>
<event>
 5   0  0.1505671E-06  0.2261219E+04  0.7818609E-02  0.8493371E-01
       -2   -1    0    0    0  501  0.00000000000E+00  0.00000000000E+00  0.93353956176E+03  0.93353956177E+03  0.25500000920E-02 0. -1.
        2   -1    0    0  501    0  0.00000000000E+00  0.00000000000E+00 -0.13692803847E+04  0.13692803847E+04  0.25500000920E-02 0.  1.
    10030    2    1    2    0    0  0.00000000000E+00  0.00000000000E+00 -0.43574082296E+03  0.23028199465E+04  0.22612186186E+04 0.  0.
        3    1    3    3  502    0  0.82163355733E+03  0.34259748912E+03  0.49196279602E+03  0.10170949538E+04  0.10100000352E+00 0. -1.
       -3    1    3    3    0  502 -0.82163355733E+03 -0.34259748912E+03 -0.92770361898E+03  0.12857249927E+04  0.10100000352E+00 0.  1.
</event>
<event>
 5   0  0.1444091E-06  0.2809331E+04  0.7818609E-02  0.8300377E-01
       -2   -1    0    0    0  501  0.00000000000E+00  0.00000000000E+00  0.16153308904E+04  0.16153308904E+04  0.25500000920E-02 0.  1.
        2   -1    0    0  501    0  0.00000000000E+00  0.00000000000E+00 -0.12214746289E+04  0.12214746289E+04  0.25500000920E-02 0. -1.
    10030    2    1    2    0    0  0.00000000000E+00  0.00000000000E+00  0.39385626151E+03  0.28368055193E+04  0.28093313794E+04 0.  0.
        1    1    3    3  502    0  0.13883818488E+04  0.12330151575E+03  0.37263639116E+03  0.14427977342E+04  0.50400001928E-02 0. -1.
       -1    1    3    3    0  502 -0.13883818488E+04 -0.12330151575E+03  0.21219870356E+02  0.13940077850E+04  0.50400001928E-02 0.  1.
</event>
<event>
 5   0  0.4811500E-07  0.3592955E+04  0.7818609E-02  0.8092107E-01
       -1   -1    0    0    0  501  0.00000000000E+00  0.00000000000E+00  0.15807265472E+04  0.15807265472E+04  0.50400001928E-02 0. -1.
        1   -1    0    0  501    0  0.00000000000E+00  0.00000000000E+00 -0.20416760306E+04  0.20416760306E+04  0.50400001928E-02 0.  1.
    10030    2    1    2    0    0  0.00000000000E+00  0.00000000000E+00 -0.46094948346E+03  0.36224025778E+04  0.35929550525E+04 0.  0.
        2    1    3    3  502    0  0.37378203210E+03  0.15103195410E+04 -0.11359185170E+04  0.19264186982E+04  0.25500000920E-02 0.  1.
       -2    1    3    3    0  502 -0.37378203210E+03 -0.15103195410E+04  0.67496903358E+03  0.16959838796E+04  0.25500000920E-02 0. -1.
</event>
<event>
 5   0  0.4811500E-07  0.3551612E+04  0.7818609E-02  0.8101666E-01
       -1   -1    0    0    0  501  0.00000000000E+00  0.00000000000E+00  0.16580291306E+04  0.16580291306E+04  0.50400001928E-02 0. -1.
        1   -1    0    0  501    0  0.00000000000E+00  0.00000000000E+00 -0.19019487982E+04  0.19019487982E+04  0.50400001928E-02 0.  1.
    10030    2    1    2    0    0  0.00000000000E+00  0.00000000000E+00 -0.24391966760E+03  0.35599779288E+04  0.35516117537E+04 0.  0.
        4    1    3    3  502    0  0.15345660106E+04  0.13820882621E+03  0.76300741894E+03  0.17193534991E+04  0.12699999809E+01 0. -1.
       -4    1    3    3    0  502 -0.15345660106E+04 -0.13820882621E+03 -0.10069270865E+04  0.18406244297E+04  0.12699999809E+01 0.  1.
</event>
<event>
 5   0  0.4811500E-07  0.3604531E+04  0.7818609E-02  0.8089455E-01
       -1   -1    0    0    0  501  0.00000000000E+00  0.00000000000E+00  0.22910266064E+04  0.22910266065E+04  0.50400001928E-02 0.  1.
        1   -1    0    0  501    0  0.00000000000E+00  0.00000000000E+00 -0.14177752976E+04  0.14177752976E+04  0.50400001928E-02 0. -1.
    10030    2    1    2    0    0  0.00000000000E+00  0.00000000000E+00  0.87325130890E+03  0.37088019040E+04  0.36045309979E+04 0.  0.
        3    1    3    3  502    0 -0.13445632191E+04  0.52884253902E+02  0.16702726420E+04  0.21448677589E+04  0.10100000352E+00 0.  1.
       -3    1    3    3    0  502  0.13445632191E+04 -0.52884253902E+02 -0.79702133313E+03  0.15639341451E+04  0.10100000352E+00 0. -1.
</event>
<event>
 5   0  0.4811500E-07  0.3559041E+04  0.7818609E-02  0.8099939E-01
        1   -1    0    0  501    0  0.00000000000E+00  0.00000000000E+00  0.17355365448E+04  0.17355365448E+04  0.50400001928E-02 0. -1.
       -1   -1    0    0    0  501  0.00000000000E+00  0.00000000000E+00 -0.18246195204E+04  0.18246195204E+04  0.50400001928E-02 0.  1.
    10030    2    1    2    0    0  0.00000000000E+00  0.00000000000E+00 -0.89082975583E+02  0.35601560652E+04  0.35590413642E+04 0.  0.
        4    1    3    3  502    0 -0.15178789580E+04  0.86496310415E+03 -0.38313611826E+03  0.17885504188E+04  0.12699999809E+01 0.  1.
       -4    1    3    3    0  502  0.15178789580E+04 -0.86496310415E+03  0.29405314268E+03  0.17716056464E+04  0.12699999809E+01 0. -1.
</event>
<event>
 5   0  0.1468942E-06  0.3519948E+04  0.7818609E-02  0.8109079E-01
        2   -1    0    0  501    0  0.00000000000E+00  0.00000000000E+00  0.15071288394E+04  0.15071288394E+04  0.25500000920E-02 0.  1.
       -2   -1    0    0    0  501  0.00000000000E+00  0.00000000000E+00 -0.20552376189E+04  0.20552376189E+04  0.25500000920E-02 0. -1.
    10030    2    1    2    0    0  0.00000000000E+00  0.00000000000E+00 -0.54810877949E+03  0.35623664583E+04  0.35199476628E+04 0.  0.
        2    1    3    3  502    0 -0.14688222597E+04 -0.19368850738E+03  0.68742270154E+03  0.16332495336E+04  0.25500000920E-02 0. -1.
       -2    1    3    3    0  502  0.14688222597E+04  0.19368850738E+03 -0.12355314810E+04  0.19291169247E+04  0.25500000920E-02 0.  1.
</event>
<event>
 5   0  0.1444091E-06  0.3640489E+04  0.7818609E-02  0.8081280E-01
        2   -1    0    0  501    0  0.00000000000E+00  0.00000000000E+00  0.11066993398E+04  0.11066993398E+04  0.25500000920E-02 0.  1.
       -2   -1    0    0    0  501  0.00000000000E+00  0.00000000000E+00 -0.29938487309E+04  0.29938487309E+04  0.25500000920E-02 0. -1.
    10030    2    1    2    0    0  0.00000000000E+00  0.00000000000E+00 -0.18871493911E+04  0.41005480707E+04  0.36404892055E+04 0.  0.
        1    1    3    3  502    0  0.10842488968E+04 -0.14558962770E+04 -0.10949483658E+04  0.21199390471E+04  0.50400001928E-02 0. -1.
       -1    1    3    3    0  502 -0.10842488968E+04  0.14558962770E+04 -0.79220102531E+03  0.19806090236E+04  0.50400001928E-02 0.  1.
</event>
<event>
 5   0  0.4811500E-07  0.3618336E+04  0.7818609E-02  0.8086304E-01
       -3   -1    0    0    0  501  0.00000000000E+00  0.00000000000E+00  0.16441137388E+04  0.16441137419E+04  0.10100000352E+00 0.  1.
        3   -1    0    0  501    0  0.00000000000E+00  0.00000000000E+00 -0.19907922210E+04  0.19907922235E+04  0.10100000352E+00 0. -1.
    10030    2    1    2    0    0  0.00000000000E+00  0.00000000000E+00 -0.34667848221E+03  0.36349059654E+04  0.36183359998E+04 0.  0.
        5    1    3    3  502    0  0.19496590654E+03 -0.85979039768E+02  0.16314577415E+04  0.16453208053E+04  0.46999998093E+01 0.  1.
       -5    1    3    3    0  502 -0.19496590654E+03  0.85979039768E+02 -0.19781362237E+04  0.19895851602E+04  0.46999998093E+01 0. -1.
</event>
<event>
 5   0  0.5071661E-07  0.3566554E+04  0.7818609E-02  0.8098196E-01
        1   -1    0    0  501    0  0.00000000000E+00  0.00000000000E+00  0.25853652239E+04  0.25853652239E+04  0.50400001928E-02 0. -1.
       -1   -1    0    0    0  501  0.00000000000E+00  0.00000000000E+00 -0.12300301571E+04  0.12300301571E+04  0.50400001928E-02 0.  1.
    10030    2    1    2    0    0  0.00000000000E+00  0.00000000000E+00  0.13553350668E+04  0.38153953810E+04  0.35665541872E+04 0.  0.
        1    1    3    3  502    0  0.10891421658E+03 -0.14371419681E+04  0.18010989230E+04  0.23067719162E+04  0.50400001928E-02 0. -1.
       -1    1    3    3    0  502 -0.10891421658E+03  0.14371419681E+04 -0.44576385621E+03  0.15086234648E+04  0.50400001928E-02 0.  1.
</event>
<event>
 5   0  0.1468942E-06  0.3447820E+04  0.7818609E-02  0.8126268E-01
       -2   -1    0    0    0  501  0.00000000000E+00  0.00000000000E+00  0.15335053982E+04  0.15335053982E+04  0.25500000920E-02 0. -1.
        2   -1    0    0  501    0  0.00000000000E+00  0.00000000000E+00 -0.19379562219E+04  0.19379562219E+04  0.25500000920E-02 0.  1.
    10030    2    1    2    0    0  0.00000000000E+00  0.00000000000E+00 -0.40445082374E+03  0.34714616202E+04  0.34478203711E+04 0.  0.
        2    1    3    3  502    0  0.16649742631E+04 -0.36055747434E+03  0.63640742466E+02  0.17047554467E+04  0.25500000920E-02 0. -1.
       -2    1    3    3    0  502 -0.16649742631E+04  0.36055747434E+03 -0.46809156620E+03  0.17667061735E+04  0.25500000920E-02 0.  1.
</event>
<event>
 5   0  0.5071661E-07  0.3419903E+04  0.7818609E-02  0.8133039E-01
        1   -1    0    0  501    0  0.00000000000E+00  0.00000000000E+00  0.18480968052E+04  0.18480968052E+04  0.50400001928E-02 0.  1.
       -1   -1    0    0    0  501  0.00000000000E+00  0.00000000000E+00 -0.15821325536E+04  0.15821325536E+04  0.50400001928E-02 0. -1.
    10030    2    1    2    0    0  0.00000000000E+00  0.00000000000E+00  0.26596425164E+03  0.34302293588E+04  0.34199029915E+04 0.  0.
        1    1    3    3  502    0  0.11843646301E+04 -0.12286197829E+04  0.24452034003E+02  0.17066997539E+04  0.50400001928E-02 0. -1.
       -1    1    3    3    0  502 -0.11843646301E+04  0.12286197829E+04  0.24151221763E+03  0.17235296050E+04  0.50400001928E-02 0.  1.
</event>
<event>
 5   0  0.1444091E-06  0.3549505E+04  0.7818609E-02  0.8102157E-01
        2   -1    0    0  501    0  0.00000000000E+00  0.00000000000E+00  0.24255417522E+04  0.24255417522E+04  0.25500000920E-02 0. -1.
       -2   -1    0    0    0  501  0.00000000000E+00  0.00000000000E+00 -0.12985746988E+04  0.12985746988E+04  0.25500000920E-02 0.  1.
    10030    2    1    2    0    0  0.00000000000E+00  0.00000000000E+00  0.11269670534E+04  0.37241164510E+04  0.35495054024E+04 0.  0.
        1    1    3    3  502    0 -0.95012183357E+03 -0.25753006093E+03 -0.98587799990E+03  0.13932008691E+04  0.50400001928E-02 0.  1.
       -1    1    3    3    0  502  0.95012183357E+03  0.25753006093E+03  0.21128450533E+04  0.23309155819E+04  0.50400001928E-02 0. -1.
</event>
<event>
 5   0  0.4811500E-07  0.3594567E+04  0.7818609E-02  0.8091737E-01
        1   -1    0    0  501    0  0.00000000000E+00  0.00000000000E+00  0.15802413305E+04  0.15802413305E+04  0.50400001928E-02 0. -1.
       -1   -1    0    0    0  501  0.00000000000E+00  0.00000000000E+00 -0.20441353229E+04  0.20441353229E+04  0.50400001928E-02 0.  1.
    10030    2    1    2    0    0  0.00000000000E+00  0.00000000000E+00 -0.46389399242E+03  0.36243766534E+04  0.35945665231E+04 0.  0.
        3    1    3    3  502    0  0.15741066318E+04  0.83909563412E+03 -0.10273944130E+02  0.17838157796E+04  0.10100000352E+00 0. -1.
       -3    1    3    3    0  502 -0.15741066318E+04 -0.83909563412E+03 -0.45362004829E+03  0.18405608737E+04  0.10100000352E+00 0.  1.
</event>
<event>
 5   0  0.1491854E-06  0.3518645E+04  0.7818609E-02  0.8109385E-01
        2   -1    0    0  501    0  0.00000000000E+00  0.00000000000E+00  0.17762433638E+04  0.17762433638E+04  0.25500000920E-02 0. -1.
       -2   -1    0    0    0  501  0.00000000000E+00  0.00000000000E+00 -0.17425632840E+04  0.17425632840E+04  0.25500000920E-02 0.  1.
    10030    2    1    2    0    0  0.00000000000E+00  0.00000000000E+00  0.33680079755E+02  0.35188066478E+04  0.35186454605E+04 0.  0.
        5    1    3    3  502    0  0.23187422513E+02 -0.11163815781E+04  0.13764422767E+04  0.17724166879E+04  0.46999998093E+01 0. -1.
       -5    1    3    3    0  502 -0.23187422513E+02  0.11163815781E+04 -0.13427621969E+04  0.17463899599E+04  0.46999998093E+01 0.  1.
</event>
<event>
 5   0  0.1444091E-06  0.3268903E+04  0.7818609E-02  0.8170853E-01
        2   -1    0    0  501    0  0.00000000000E+00  0.00000000000E+00  0.21181110680E+04  0.21181110680E+04  0.25500000920E-02 0. -1.
       -2   -1    0    0    0  501  0.00000000000E+00  0.00000000000E+00 -0.12612332059E+04  0.12612332059E+04  0.25500000920E-02 0.  1.
    10030    2    1    2    0    0  0.00000000000E+00  0.00000000000E+00  0.85687786203E+03  0.33793442739E+04  0.32689031878E+04 0.  0.
        1    1    3    3  502    0 -0.33680539111E+01 -0.36731390864E+03  0.20748865269E+04  0.21071509084E+04  0.50400001928E-02 0. -1.
       -1    1    3    3    0  502  0.33680539111E+01  0.36731390864E+03 -0.12180086649E+04  0.12721933654E+04  0.50400001928E-02 0.  1.
</event>
<event>
 5   0  0.5439978E-07  0.2260110E+04  0.7818609E-02  0.8493817E-01
       -1   -1    0    0    0  501  0.00000000000E+00  0.00000000000E+00  0.80309530997E+03  0.80309530998E+03  0.50400001928E-02 0. -1.
        1   -1    0    0  501    0  0.00000000000E+00  0.00000000000E+00 -0.15901282598E+04  0.15901282598E+04  0.50400001928E-02 0.  1.
    10030    2    1    2    0    0  0.00000000000E+00  0.00000000000E+00 -0.78703294983E+03  0.23932235698E+04  0.22601102165E+04 0.  0.
        2    1    3    3  502    0 -0.22274501841E+03 -0.88310794179E+03  0.31486063597E+03  0.96365564398E+03  0.25500000920E-02 0. -1.
       -2    1    3    3    0  502  0.22274501841E+03  0.88310794179E+03 -0.11018935858E+04  0.14295679258E+04  0.25500000920E-02 0.  1.
</event>
<event>
 5   0  0.1468942E-06  0.3485255E+04  0.7818609E-02  0.8117293E-01
       -2   -1    0    0    0  501  0.00000000000E+00  0.00000000000E+00  0.20108402601E+04  0.20108402601E+04  0.25500000920E-02 0.  1.
        2   -1    0    0  501    0  0.00000000000E+00  0.00000000000E+00 -0.15101898677E+04  0.15101898677E+04  0.25500000920E-02 0. -1.
    10030    2    1    2    0    0  0.00000000000E+00  0.00000000000E+00  0.50065039245E+03  0.35210301278E+04  0.34852549900E+04 0.  0.
        2    1    3    3  502    0  0.16571704448E+04  0.23667857411E+03  0.73956871975E+03  0.18300799222E+04  0.25500000920E-02 0.  1.
       -2    1    3    3    0  502 -0.16571704448E+04 -0.23667857411E+03 -0.23891832730E+03  0.16909502055E+04  0.25500000920E-02 0. -1.
</event>
<event>
 5   0  0.1444091E-06  0.2544777E+04  0.7818609E-02  0.8387205E-01
        2   -1    0    0  501    0  0.00000000000E+00  0.00000000000E+00  0.88387032038E+03  0.88387032038E+03  0.25500000920E-02 0. -1.
       -2   -1    0    0    0  501  0.00000000000E+00  0.00000000000E+00 -0.18316858527E+04  0.18316858527E+04  0.25500000920E-02 0.  1.
    10030    2    1    2    0    0  0.00000000000E+00  0.00000000000E+00 -0.94781553232E+03  0.27155561731E+04  0.25447772095E+04 0.  0.
        1    1    3    3  502    0 -0.89718362934E+03  0.11747138067E+02 -0.14366135072E+04  0.16937930302E+04  0.50400001928E-02 0. -1.
       -1    1    3    3    0  502  0.89718362934E+03 -0.11747138067E+02  0.48879797484E+03  0.10217631429E+04  0.50400001928E-02 0.  1.
</event>
<event>
 5   0  0.4811500E-07  0.3638143E+04  0.7818609E-02  0.8081810E-01
        1   -1    0    0  501    0  0.00000000000E+00  0.00000000000E+00  0.17213232483E+04  0.17213232483E+04  0.50400001928E-02 0. -1.
       -1   -1    0    0    0  501  0.00000000000E+00  0.00000000000E+00 -0.19223708754E+04  0.19223708754E+04  0.50400001928E-02 0.  1.
    10030    2    1    2    0    0  0.00000000000E+00  0.00000000000E+00 -0.20104762710E+03  0.36436941238E+04  0.36381433066E+04 0.  0.
        2    1    3    3  502    0  0.10810030161E+04  0.49063999579E+03  0.12798847882E+04  0.17456804397E+04  0.25500000920E-02 0. -1.
       -2    1    3    3    0  502 -0.10810030161E+04 -0.49063999579E+03 -0.14809324154E+04  0.18980136841E+04  0.25500000920E-02 0.  1.
</event>
<event>
 5   0  0.4811500E-07  0.3629162E+04  0.7818609E-02  0.8083844E-01
        1   -1    0    0  501    0  0.00000000000E+00  0.00000000000E+00  0.23761670429E+04  0.23761670429E+04  0.50400001928E-02 0.  1.
       -1   -1    0    0    0  501  0.00000000000E+00  0.00000000000E+00 -0.13857210842E+04  0.13857210842E+04  0.50400001928E-02 0. -1.
    10030    2    1    2    0    0  0.00000000000E+00  0.00000000000E+00  0.99044595874E+03  0.37618881271E+04  0.36291623115E+04 0.  0.
        4    1    3    3  502    0 -0.61869173152E+03 -0.13518208814E+03 -0.12674522823E+04  0.14168593990E+04  0.12699999809E+01 0. -1.
       -4    1    3    3    0  502  0.61869173152E+03  0.13518208814E+03  0.22578982411E+04  0.23450287281E+04  0.12699999809E+01 0.  1.
</event>
<event>
 5   0  0.1491854E-06  0.3593214E+04  0.7818609E-02  0.8092048E-01
        2   -1    0    0  501    0  0.00000000000E+00  0.00000000000E+00  0.29853950440E+04  0.29853950440E+04  0.25500000920E-02 0. -1.
       -2   -1    0    0    0  501  0.00000000000E+00  0.00000000000E+00 -0.10811961171E+04  0.10811961171E+04  0.25500000920E-02 0.  1.
    10030    2    1    2    0    0  0.00000000000E+00  0.00000000000E+00  0.19041989269E+04  0.40665911612E+04  0.35932144549E+04 0.  0.
        5    1    3    3  502    0  0.24155298288E+03  0.79258586331E+03  0.27562376932E+04  0.28780911218E+04  0.46999998093E+01 0. -1.
       -5    1    3    3    0  502 -0.24155298288E+03 -0.79258586331E+03 -0.85203876628E+03  0.11885000393E+04  0.46999998093E+01 0.  1.
</event>
<event>
 5   0  0.4811500E-07  0.3630181E+04  0.7818609E-02  0.8083613E-01
        1   -1    0    0  501    0  0.00000000000E+00  0.00000000000E+00  0.21007076551E+04  0.21007076551E+04  0.50400001928E-02 0. -1.
       -1   -1    0    0    0  501  0.00000000000E+00  0.00000000000E+00 -0.15683062959E+04  0.15683062959E+04  0.50400001928E-02 0.  1.
    10030    2    1    2    0    0  0.00000000000E+00  0.00000000000E+00  0.53240135920E+03  0.36690139510E+04  0.36301807345E+04 0.  0.
        3    1    3    3  502    0  0.97565709513E+03 -0.12415252520E+04 -0.63850684513E+03  0.17032271487E+04  0.10100000352E+00 0.  1.
       -3    1    3    3    0  502 -0.97565709513E+03  0.12415252520E+04  0.11709082043E+04  0.19657868022E+04  0.10100000352E+00 0. -1.
</event>
<event>
 5   0  0.5071661E-07  0.3624433E+04  0.7818609E-02  0.8084918E-01
        1   -1    0    0  501    0  0.00000000000E+00  0.00000000000E+00  0.14358135807E+04  0.14358135807E+04  0.50400001928E-02 0.  1.
       -1   -1    0    0    0  501  0.00000000000E+00  0.00000000000E+00 -0.22872943617E+04  0.22872943617E+04  0.50400001928E-02 0. -1.
    10030    2    1    2    0    0  0.00000000000E+00  0.00000000000E+00 -0.85148078103E+03  0.37231079424E+04  0.36244328150E+04 0.  0.
        1    1    3    3  502    0  0.93505631150E+03 -0.15518323451E+04 -0.38446722753E+03  0.18521147324E+04  0.50400001928E-02 0. -1.
       -1    1    3    3    0  502 -0.93505631150E+03  0.15518323451E+04 -0.46701355350E+03  0.18709932101E+04  0.50400001928E-02 0.  1.
</event>
<event>
 5   0  0.1505671E-06  0.3592064E+04  0.7818609E-02  0.8092312E-01
       -2   -1    0    0    0  501  0.00000000000E+00  0.00000000000E+00  0.11983354889E+04  0.11983354889E+04  0.25500000920E-02 0. -1.
        2   -1    0    0  501    0  0.00000000000E+00  0.00000000000E+00 -0.26918434711E+04  0.26918434711E+04  0.25500000920E-02 0.  1.
    10030    2    1    2    0    0  0.00000000000E+00  0.00000000000E+00 -0.14935079821E+04  0.38901789600E+04  0.35920643435E+04 0.  0.
        3    1    3    3  502    0 -0.34591460065E+03 -0.14150838066E+04 -0.18844697428E+04  0.23818785260E+04  0.10100000352E+00 0.  1.
       -3    1    3    3    0  502  0.34591460065E+03  0.14150838066E+04  0.39096176066E+03  0.15083004340E+04  0.10100000352E+00 0. -1.
</event>
<event>
 5   0  0.1491854E-06  0.3566719E+04  0.7818609E-02  0.8098158E-01
        2   -1    0    0  501    0  0.00000000000E+00  0.00000000000E+00  0.18030453713E+04  0.18030453713E+04  0.25500000920E-02 0. -1.
       -2   -1    0    0    0  501  0.00000000000E+00  0.00000000000E+00 -0.17638888850E+04  0.17638888850E+04  0.25500000920E-02 0.  1.
    10030    2    1    2    0    0  0.00000000000E+00  0.00000000000E+00  0.39156486313E+02  0.35669342563E+04  0.35667193271E+04 0.  0.
        5    1    3    3  502    0  0.67624963378E+02  0.87086691107E+03 -0.15353039502E+04  0.17663982059E+04  0.46999998093E+01 0.  1.
       -5    1    3    3    0  502 -0.67624963378E+02 -0.87086691107E+03  0.15744604365E+04  0.18005360503E+04  0.46999998093E+01 0. -1.
</event>
<event>
 5   0  0.4811500E-07  0.3626317E+04  0.7818609E-02  0.8084490E-01
        1   -1    0    0  501    0  0.00000000000E+00  0.00000000000E+00  0.11794161339E+04  0.11794161339E+04  0.50400001928E-02 0.  1.
       -1   -1    0    0    0  501  0.00000000000E+00  0.00000000000E+00 -0.27874339128E+04  0.27874339128E+04  0.50400001928E-02 0. -1.
    10030    2    1    2    0    0  0.00000000000E+00  0.00000000000E+00 -0.16080177789E+04  0.39668500466E+04  0.36263174317E+04 0.  0.
        5    1    3    3  502    0 -0.15585199002E+04 -0.85068714287E+03 -0.40227644118E+03  0.18205771940E+04  0.46999998093E+01 0.  1.
       -5    1    3    3    0  502  0.15585199002E+04  0.85068714287E+03 -0.12057413377E+04  0.21462728526E+04  0.46999998093E+01 0. -1.
</event>
<event>
 5   0  0.4811500E-07  0.3029959E+04  0.7818609E-02  0.8235227E-01
        1   -1    0    0  501    0  0.00000000000E+00  0.00000000000E+00  0.13920516055E+04  0.13920516055E+04  0.50400001928E-02 0.  1.
       -1   -1    0    0    0  501  0.00000000000E+00  0.00000000000E+00 -0.16487626377E+04  0.16487626377E+04  0.50400001928E-02 0. -1.
    10030    2    1    2    0    0  0.00000000000E+00  0.00000000000E+00 -0.25671103222E+03  0.30408142432E+04  0.30299588623E+04 0.  0.
        2    1    3    3  502    0 -0.47126091720E+03  0.10618930046E+04 -0.11041863245E+04  0.16027885215E+04  0.25500000920E-02 0. -1.
       -2    1    3    3    0  502  0.47126091720E+03 -0.10618930046E+04  0.84747529227E+03  0.14380257217E+04  0.25500000920E-02 0.  1.
</event>
<event>
 5   0  0.1379425E-06  0.3588579E+04  0.7818609E-02  0.8093113E-01
        2   -1    0    0  501    0  0.00000000000E+00  0.00000000000E+00  0.23130143776E+04  0.23130143776E+04  0.25500000920E-02 0.  1.
       -2   -1    0    0    0  501  0.00000000000E+00  0.00000000000E+00 -0.13918953360E+04  0.13918953360E+04  0.25500000920E-02 0. -1.
    10030    2    1    2    0    0  0.00000000000E+00  0.00000000000E+00  0.92111904162E+03  0.37049097137E+04  0.35885785065E+04 0.  0.
        4    1    3    3  502    0  0.30694302485E+01 -0.13109613921E+04 -0.80424330277E+03  0.15379980806E+04  0.12699999809E+01 0. -1.
       -4    1    3    3    0  502 -0.30694302485E+01  0.13109613921E+04  0.17253623444E+04  0.21669116330E+04  0.12699999809E+01 0.  1.
</event>
<event>
 5   0  0.1491854E-06  0.3613197E+04  0.7818609E-02  0.8087475E-01
        2   -1    0    0  501    0  0.00000000000E+00  0.00000000000E+00  0.14015522868E+04  0.14015522868E+04  0.25500000920E-02 0. -1.
       -2   -1    0    0    0  501  0.00000000000E+00  0.00000000000E+00 -0.23287027415E+04  0.23287027415E+04  0.25500000920E-02 0.  1.
    10030    2    1    2    0    0  0.00000000000E+00  0.00000000000E+00 -0.92715045465E+03  0.37302550283E+04  0.36131972836E+04 0.  0.
        5    1    3    3  502    0 -0.10768849815E+03 -0.86918101571E+03  0.11677118193E+04  0.14596730571E+04  0.46999998093E+01 0. -1.
       -5    1    3    3    0  502  0.10768849815E+03  0.86918101571E+03 -0.20948622740E+04  0.22705819711E+04  0.46999998093E+01 0.  1.
</event>
<event>
 5   0  0.5071661E-07  0.2677424E+04  0.7818609E-02  0.8342368E-01
       -1   -1    0    0    0  501  0.00000000000E+00  0.00000000000E+00  0.17308657839E+04  0.17308657840E+04  0.50400001928E-02 0. -1.
        1   -1    0    0  501    0  0.00000000000E+00  0.00000000000E+00 -0.10354064248E+04  0.10354064248E+04  0.50400001928E-02 0.  1.
    10030    2    1    2    0    0  0.00000000000E+00  0.00000000000E+00  0.69545935918E+03  0.27662722087E+04  0.26774238014E+04 0.  0.
        1    1    3    3  502    0 -0.11144195044E+04 -0.63100280247E+03  0.75061086129E+03  0.14844231316E+04  0.50400001928E-02 0. -1.
       -1    1    3    3    0  502  0.11144195044E+04  0.63100280247E+03 -0.55151502107E+02  0.12818490772E+04  0.50400001928E-02 0.  1.
</event>
<event>
 5   0  0.1468942E-06  0.3483737E+04  0.7818609E-02  0.8117655E-01
        2   -1    0    0  501    0  0.00000000000E+00  0.00000000000E+00  0.15006565394E+04  0.15006565394E+04  0.25500000920E-02 0.  1.
       -2   -1    0    0    0  501  0.00000000000E+00  0.00000000000E+00 -0.20218519624E+04  0.20218519624E+04  0.25500000920E-02 0. -1.
    10030    2    1    2    0    0  0.00000000000E+00  0.00000000000E+00 -0.52119542301E+03  0.35225085017E+04  0.34837367116E+04 0.  0.
        2    1    3    3  502    0 -0.15268857185E+04  0.10192766901E+03 -0.11019254743E+04  0.18857383164E+04  0.25500000920E-02 0. -1.
       -2    1    3    3    0  502  0.15268857185E+04 -0.10192766901E+03  0.58073005132E+03  0.16367701853E+04  0.25500000920E-02 0.  1.
</event>
<event>
 5   0  0.4811500E-07  0.2874742E+04  0.7818609E-02  0.8280432E-01
        1   -1    0    0  501    0  0.00000000000E+00  0.00000000000E+00  0.10209126485E+04  0.10209126485E+04  0.50400001928E-02 0.  1.
       -1   -1    0    0    0  501  0.00000000000E+00  0.00000000000E+00 -0.20237142928E+04  0.20237142928E+04  0.50400001928E-02 0. -1.
    10030    2    1    2    0    0  0.00000000000E+00  0.00000000000E+00 -0.10028016443E+04  0.30446269413E+04  0.28747420883E+04 0.  0.
        2    1    3    3  502    0 -0.29798599328E+03 -0.13099496824E+04 -0.10427548605E+04  0.17006179823E+04  0.25500000920E-02 0. -1.
       -2    1    3    3    0  502  0.29798599328E+03  0.13099496824E+04  0.39953216186E+02  0.13440089591E+04  0.25500000920E-02 0.  1.
</event>
<event>
 5   0  0.1444091E-06  0.2337170E+04  0.7818609E-02  0.8463408E-01
        2   -1    0    0  501    0  0.00000000000E+00  0.00000000000E+00  0.14709562293E+04  0.14709562293E+04  0.25500000920E-02 0. -1.
       -2   -1    0    0    0  501  0.00000000000E+00  0.00000000000E+00 -0.92836941056E+03  0.92836941056E+03  0.25500000920E-02 0.  1.
    10030    2    1    2    0    0  0.00000000000E+00  0.00000000000E+00  0.54258681870E+03  0.23993256398E+04  0.23371698847E+04 0.  0.
        1    1    3    3  502    0  0.11324701503E+04  0.43014768671E+02 -0.21334374364E+02  0.11334875682E+04  0.50400001928E-02 0.  1.
       -1    1    3    3    0  502 -0.11324701503E+04 -0.43014768671E+02  0.56392119306E+03  0.12658380717E+04  0.50400001928E-02 0. -1.
</event>
<event>
 5   0  0.5071661E-07  0.3483838E+04  0.7818609E-02  0.8117631E-01
        1   -1    0    0  501    0  0.00000000000E+00  0.00000000000E+00  0.21719783847E+04  0.21719783847E+04  0.50400001928E-02 0.  1.
       -1   -1    0    0    0  501  0.00000000000E+00  0.00000000000E+00 -0.13970124995E+04  0.13970124995E+04  0.50400001928E-02 0. -1.
    10030    2    1    2    0    0  0.00000000000E+00  0.00000000000E+00  0.77496588517E+03  0.35689908842E+04  0.34838375117E+04 0.  0.
        1    1    3    3  502    0  0.10129951434E+03  0.17426548823E+03 -0.13850247343E+04  0.13996155067E+04  0.50400001928E-02 0. -1.
       -1    1    3    3    0  502 -0.10129951434E+03 -0.17426548823E+03  0.21599906195E+04  0.21693753774E+04  0.50400001928E-02 0.  1.
</event>
<event>
 5   0  0.4811500E-07  0.2725960E+04  0.7818609E-02  0.8326631E-01
        1   -1    0    0  501    0  0.00000000000E+00  0.00000000000E+00  0.14440235704E+04  0.14440235704E+04  0.50400001928E-02 0. -1.
       -1   -1    0    0    0  501  0.00000000000E+00  0.00000000000E+00 -0.12864846566E+04  0.12864846566E+04  0.50400001928E-02 0.  1.
    10030    2    1    2    0    0  0.00000000000E+00  0.00000000000E+00  0.15753891386E+03  0.27305082270E+04  0.27259597701E+04 0.  0.
        3    1    3    3  502    0  0.26670882629E+03  0.13018283398E+04 -0.22476014025E+03  0.13477417242E+04  0.10100000352E+00 0.  1.
       -3    1    3    3    0  502 -0.26670882629E+03 -0.13018283398E+04  0.38229905411E+03  0.13827665028E+04  0.10100000352E+00 0. -1.
</event>
<event>
 5   0  0.1379425E-06  0.2214470E+04  0.7818609E-02  0.8512430E-01
        2   -1    0    0  501    0  0.00000000000E+00  0.00000000000E+00  0.13438888826E+04  0.13438888826E+04  0.25500000920E-02 0.  1.
       -2   -1    0    0    0  501  0.00000000000E+00  0.00000000000E+00 -0.91225470014E+03  0.91225470014E+03  0.25500000920E-02 0. -1.
    10030    2    1    2    0    0  0.00000000000E+00  0.00000000000E+00  0.43163418245E+03  0.22561435827E+04  0.22144696427E+04 0.  0.
        4    1    3    3  502    0  0.87525923291E+03 -0.11453249881E+03 -0.46517089767E+03  0.99778855226E+03  0.12699999809E+01 0. -1.
       -4    1    3    3    0  502 -0.87525923291E+03  0.11453249881E+03  0.89680508013E+03  0.12583550305E+04  0.12699999809E+01 0.  1.
</event>
<event>
 5   0  0.1444091E-06  0.3517096E+04  0.7818609E-02  0.8109750E-01
        2   -1    0    0  501    0  0.00000000000E+00  0.00000000000E+00  0.17455065217E+04  0.17455065217E+04  0.25500000920E-02 0. -1.
       -2   -1    0    0    0  501  0.00000000000E+00  0.00000000000E+00 -0.17716869926E+04  0.17716869926E+04  0.25500000920E-02 0.  1.
    10030    2    1    2    0    0  0.00000000000E+00  0.00000000000E+00 -0.26180470942E+02  0.35171935142E+04  0.35170960748E+04 0.  0.
        1    1    3    3  502    0 -0.66615926540E+03  0.13268524266E+04 -0.95555237544E+03  0.17656120386E+04  0.50400001928E-02 0.  1.
       -1    1    3    3    0  502  0.66615926540E+03 -0.13268524266E+04  0.92937190450E+03  0.17515814756E+04  0.50400001928E-02 0. -1.
</event>
<event>
 5   0  0.1491854E-06  0.3072879E+04  0.7818609E-02  0.8223221E-01
       -2   -1    0    0    0  501  0.00000000000E+00  0.00000000000E+00  0.12832331525E+04  0.12832331525E+04  0.25500000920E-02 0.  1.
        2   -1    0    0  501    0  0.00000000000E+00  0.00000000000E+00 -0.18396087888E+04  0.18396087888E+04  0.25500000920E-02 0. -1.
    10030    2    1    2    0    0  0.00000000000E+00  0.00000000000E+00 -0.55637563632E+03  0.31228419413E+04  0.30728794219E+04 0.  0.
        5    1    3    3  502    0 -0.24552340138E+03 -0.14402399373E+04 -0.76136758077E+03  0.16475058424E+04  0.46999998093E+01 0. -1.
       -5    1    3    3    0  502  0.24552340138E+03  0.14402399373E+04  0.20499194445E+03  0.14753360989E+04  0.46999998093E+01 0.  1.
</event>
<event>
 5   0  0.4811500E-07  0.3649369E+04  0.7818609E-02  0.8079276E-01
        1   -1    0    0  501    0  0.00000000000E+00  0.00000000000E+00  0.18144157423E+04  0.18144157423E+04  0.50400001928E-02 0.  1.
       -1   -1    0    0    0  501  0.00000000000E+00  0.00000000000E+00 -0.18350111575E+04  0.18350111575E+04  0.50400001928E-02 0. -1.
    10030    2    1    2    0    0  0.00000000000E+00  0.00000000000E+00 -0.20595415272E+02  0.36494268998E+04  0.36493687846E+04 0.  0.
        4    1    3    3  502    0  0.14725335845E+04  0.10008690046E+04  0.38892988757E+03  0.18224604227E+04  0.12699999809E+01 0.  1.
       -4    1    3    3    0  502 -0.14725335845E+04 -0.10008690046E+04 -0.40952530284E+03  0.18269664771E+04  0.12699999809E+01 0. -1.
</event>
<event>
 5   0  0.4811500E-07  0.3622655E+04  0.7818609E-02  0.8085322E-01
       -1   -1    0    0    0  501  0.00000000000E+00  0.00000000000E+00  0.12641608499E+04  0.12641608499E+04  0.50400001928E-02 0. -1.
        1   -1    0    0  501    0  0.00000000000E+00  0.00000000000E+00 -0.25953247265E+04  0.25953247265E+04  0.50400001928E-02 0.  1.
    10030    2    1    2    0    0  0.00000000000E+00  0.00000000000E+00 -0.13311638766E+04  0.38594855765E+04  0.36226553312E+04 0.  0.
        5    1    3    3  502    0 -0.86342468336E+02  0.15575155231E+03  0.12548051359E+04  0.12673877019E+04  0.46999998093E+01 0. -1.
       -5    1    3    3    0  502  0.86342468336E+02 -0.15575155231E+03 -0.25859690125E+04  0.25920978746E+04  0.46999998093E+01 0.  1.
</event>
<event>
 5   0  0.1468942E-06  0.3637371E+04  0.7818609E-02  0.8081985E-01
        2   -1    0    0  501    0  0.00000000000E+00  0.00000000000E+00  0.14312596070E+04  0.14312596070E+04  0.25500000920E-02 0.  1.
       -2   -1    0    0    0  501  0.00000000000E+00  0.00000000000E+00 -0.23109833131E+04  0.23109833131E+04  0.25500000920E-02 0. -1.
    10030    2    1    2    0    0  0.00000000000E+00  0.00000000000E+00 -0.87972370612E+03  0.37422429201E+04  0.36373710663E+04 0.  0.
        2    1    3    3  502    0 -0.15699060307E+03  0.12771018530E+04  0.88248993479E+03  0.15602639769E+04  0.25500000920E-02 0.  1.
       -2    1    3    3    0  502  0.15699060307E+03 -0.12771018530E+04 -0.17622136409E+04  0.21819789432E+04  0.25500000920E-02 0. -1.
</event>
<event>
 5   0  0.4811500E-07  0.3655967E+04  0.7818609E-02  0.8077791E-01
       -1   -1    0    0    0  501  0.00000000000E+00  0.00000000000E+00  0.14591382915E+04  0.14591382915E+04  0.50400001928E-02 0. -1.
        1   -1    0    0  501    0  0.00000000000E+00  0.00000000000E+00 -0.22900663081E+04  0.22900663081E+04  0.50400001928E-02 0.  1.
    10030    2    1    2    0    0  0.00000000000E+00  0.00000000000E+00 -0.83092801658E+03  0.37492045996E+04  0.36559668709E+04 0.  0.
        4    1    3    3  502    0 -0.57259165876E+03 -0.12379714230E+04  0.83257232696E+03  0.15980027361E+04  0.12699999809E+01 0. -1.
       -4    1    3    3    0  502  0.57259165876E+03  0.12379714230E+04 -0.16635003435E+04  0.21512018636E+04  0.12699999809E+01 0.  1.
</event>
<event>
 5   0  0.1491854E-06  0.3177421E+04  0.7818609E-02  0.8194806E-01
        2   -1    0    0  501    0  0.00000000000E+00  0.00000000000E+00  0.17960493618E+04  0.17960493618E+04  0.25500000920E-02 0. -1.
       -2   -1    0    0    0  501  0.00000000000E+00  0.00000000000E+00 -0.14053073403E+04  0.14053073403E+04  0.25500000920E-02 0.  1.
    10030    2    1    2    0    0  0.00000000000E+00  0.00000000000E+00  0.39074202154E+03  0.32013567021E+04  0.31774211881E+04 0.  0.
        5    1    3    3  502    0 -0.48525071808E+03 -0.13571435794E+04  0.86874105682E+03  0.16828666223E+04  0.46999998093E+01 0. -1.
       -5    1    3    3    0  502  0.48525071808E+03  0.13571435794E+04 -0.47799903528E+03  0.15184900798E+04  0.46999998093E+01 0.  1.
</event>
<event>
 5   0  0.4811500E-07  0.3625125E+04  0.7818609E-02  0.8084761E-01
        1   -1    0    0  501    0  0.00000000000E+00  0.00000000000E+00  0.17352439017E+04  0.17352439017E+04  0.50400001928E-02 0. -1.
       -1   -1    0    0    0  501  0.00000000000E+00  0.00000000000E+00 -0.18933258443E+04  0.18933258443E+04  0.50400001928E-02 0.  1.
    10030    2    1    2    0    0  0.00000000000E+00  0.00000000000E+00 -0.15808194262E+03  0.36285697460E+04  0.36251246187E+04 0.  0.
        5    1    3    3  502    0  0.18006906630E+04 -0.12677521356E+03  0.84825381980E+02  0.18071458862E+04  0.46999998093E+01 0. -1.
       -5    1    3    3    0  502 -0.18006906630E+04  0.12677521356E+03 -0.24290732460E+03  0.18214238598E+04  0.46999998093E+01 0.  1.
</event>
<event>
 5   0  0.5071661E-07  0.3584674E+04  0.7818609E-02  0.8094011E-01
       -1   -1    0    0    0  501  0.00000000000E+00  0.00000000000E+00  0.18234426618E+04  0.18234426618E+04  0.50400001928E-02 0.  1.
        1   -1    0    0  501    0  0.00000000000E+00  0.00000000000E+00 -0.17617615565E+04  0.17617615565E+04  0.50400001928E-02 0. -1.
    10030    2    1    2    0    0  0.00000000000E+00  0.00000000000E+00  0.61681105301E+02  0.35852042182E+04  0.35846735873E+04 0.  0.
        1    1    3    3  502    0  0.66137553324E+02 -0.91000348209E+02 -0.17582271753E+04  0.17618223632E+04  0.50400001928E-02 0. -1.
       -1    1    3    3    0  502 -0.66137553324E+02  0.91000348209E+02  0.18199082806E+04  0.18233818550E+04  0.50400001928E-02 0.  1.
</event>
<event>
 5   0  0.1468942E-06  0.3641177E+04  0.7818609E-02  0.8081124E-01
       -2   -1    0    0    0  501  0.00000000000E+00  0.00000000000E+00  0.12496009143E+04  0.12496009143E+04  0.25500000920E-02 0. -1.
        2   -1    0    0  501    0  0.00000000000E+00  0.00000000000E+00 -0.26524807577E+04  0.26524807577E+04  0.25500000920E-02 0.  1.
    10030    2    1    2    0    0  0.00000000000E+00  0.00000000000E+00 -0.14028798434E+04  0.39020816719E+04  0.36411769415E+04 0.  0.
        2    1    3    3  502    0  0.49858854583E+03  0.47959677940E+03  0.11032516758E+04  0.13022165215E+04  0.25500000920E-02 0. -1.
       -2    1    3    3    0  502 -0.49858854583E+03 -0.47959677940E+03 -0.25061315192E+04  0.25998651504E+04  0.25500000920E-02 0.  1.
</event>
<event>
 5   0  0.4811500E-07  0.2345911E+04  0.7818609E-02  0.8460036E-01
        1   -1    0    0  501    0  0.00000000000E+00  0.00000000000E+00  0.12022220123E+04  0.12022220123E+04  0.50400001928E-02 0. -1.
       -1   -1    0    0    0  501  0.00000000000E+00  0.00000000000E+00 -0.11444010328E+04  0.11444010328E+04  0.50400001928E-02 0.  1.
    10030    2    1    2    0    0  0.00000000000E+00  0.00000000000E+00  0.57820979516E+02  0.23466230452E+04  0.23459105802E+04 0.  0.
        5    1    3    3  502    0 -0.24230012999E+03 -0.27007279978E+03  0.11446654712E+04  0.12008038146E+04  0.46999998093E+01 0. -1.
       -5    1    3    3    0  502  0.24230012999E+03  0.27007279978E+03 -0.10868444917E+04  0.11458192306E+04  0.46999998093E+01 0.  1.
</event>
<event>
 5   0  0.1444091E-06  0.3373901E+04  0.7818609E-02  0.8144342E-01
       -2   -1    0    0    0  501  0.00000000000E+00  0.00000000000E+00  0.22699756559E+04  0.22699756559E+04  0.25500000920E-02 0. -1.
        2   -1    0    0  501    0  0.00000000000E+00  0.00000000000E+00 -0.12536704908E+04  0.12536704908E+04  0.25500000920E-02 0.  1.
    10030    2    1    2    0    0  0.00000000000E+00  0.00000000000E+00  0.10163051651E+04  0.35236461467E+04  0.33739007067E+04 0.  0.
        1    1    3    3  502    0  0.52041031013E+03  0.15429332952E+04  0.47756586642E+02  0.16290336816E+04  0.50400001928E-02 0.  1.
       -1    1    3    3    0  502 -0.52041031013E+03 -0.15429332952E+04  0.96854857850E+03  0.18946124652E+04  0.50400001928E-02 0. -1.
</event>
<event>
 5   0  0.5071661E-07  0.3576904E+04  0.7818609E-02  0.8095803E-01
       -1   -1    0    0    0  501  0.00000000000E+00  0.00000000000E+00  0.14760002211E+04  0.14760002211E+04  0.50400001928E-02 0. -1.
        1   -1    0    0  501    0  0.00000000000E+00  0.00000000000E+00 -0.21670462067E+04  0.21670462067E+04  0.50400001928E-02 0.  1.
    10030    2    1    2    0    0  0.00000000000E+00  0.00000000000E+00 -0.69104598563E+03  0.36430464278E+04  0.35769040693E+04 0.  0.
        1    1    3    3  502    0  0.96574550547E+03  0.11954939464E+04 -0.12771452127E+04  0.19982417400E+04  0.50400001928E-02 0. -1.
       -1    1    3    3    0  502 -0.96574550547E+03 -0.11954939464E+04  0.58609922705E+03  0.16448046878E+04  0.50400001928E-02 0.  1.
</event>
<event>
 5   0  0.4811500E-07  0.2424615E+04  0.7818609E-02  0.8430345E-01
       -1   -1    0    0    0  501  0.00000000000E+00  0.00000000000E+00  0.81007835423E+03  0.81007835424E+03  0.50400001928E-02 0.  1.
        1   -1    0    0  501    0  0.00000000000E+00  0.00000000000E+00 -0.18142556373E+04  0.18142556373E+04  0.50400001928E-02 0. -1.
    10030    2    1    2    0    0  0.00000000000E+00  0.00000000000E+00 -0.10041772831E+04  0.26243339916E+04  0.24246147907E+04 0.  0.
        2    1    3    3  502    0 -0.11399092786E+04 -0.18779843777E+03 -0.89981828242E+03  0.14643545876E+04  0.25500000920E-02 0. -1.
       -2    1    3    3    0  502  0.11399092786E+04  0.18779843777E+03 -0.10435900067E+03  0.11599794040E+04  0.25500000920E-02 0.  1.
</event>
<event>
 5   0  0.1379425E-06  0.3597904E+04  0.7818609E-02  0.8090972E-01
        2   -1    0    0  501    0  0.00000000000E+00  0.00000000000E+00  0.19645432310E+04  0.19645432310E+04  0.25500000920E-02 0.  1.
       -2   -1    0    0    0  501  0.00000000000E+00  0.00000000000E+00 -0.16473185367E+04  0.16473185367E+04  0.25500000920E-02 0. -1.
    10030    2    1    2    0    0  0.00000000000E+00  0.00000000000E+00  0.31722469433E+03  0.36118617676E+04  0.35979041013E+04 0.  0.
        4    1    3    3  502    0 -0.13586381658E+04  0.66596523105E+02  0.13404193554E+04  0.19097273165E+04  0.12699999809E+01 0.  1.
       -4    1    3    3    0  502  0.13586381658E+04 -0.66596523105E+02 -0.10231946611E+04  0.17021344511E+04  0.12699999809E+01 0. -1.
</event>
<event>
 5   0  0.1468942E-06  0.3613578E+04  0.7818609E-02  0.8087389E-01
       -2   -1    0    0    0  501  0.00000000000E+00  0.00000000000E+00  0.21399993086E+04  0.21399993086E+04  0.25500000920E-02 0. -1.
        2   -1    0    0  501    0  0.00000000000E+00  0.00000000000E+00 -0.15254613365E+04  0.15254613365E+04  0.25500000920E-02 0.  1.
    10030    2    1    2    0    0  0.00000000000E+00  0.00000000000E+00  0.61453797212E+03  0.36654606450E+04  0.36135778421E+04 0.  0.
        2    1    3    3  502    0  0.11390607564E+04 -0.99835113036E+03 -0.69192323674E+03  0.16652093417E+04  0.25500000920E-02 0.  1.
       -2    1    3    3    0  502 -0.11390607564E+04  0.99835113036E+03  0.13064612089E+04  0.20002513033E+04  0.25500000920E-02 0. -1.
</event>
<event>
 5   0  0.1379425E-06  0.3722185E+04  0.7818609E-02  0.8063063E-01
        2   -1    0    0  501    0  0.00000000000E+00  0.00000000000E+00  0.17996687913E+04  0.17996687913E+04  0.25500000920E-02 0. -1.
       -2   -1    0    0    0  501  0.00000000000E+00  0.00000000000E+00 -0.19246123991E+04  0.19246123991E+04  0.25500000920E-02 0.  1.
    10030    2    1    2    0    0  0.00000000000E+00  0.00000000000E+00 -0.12494360780E+03  0.37242811903E+04  0.37221847723E+04 0.  0.
        4    1    3    3  502    0  0.11327423298E+04 -0.13266562408E+04  0.58638499075E+03  0.18403724996E+04  0.12699999809E+01 0.  1.
       -4    1    3    3    0  502 -0.11327423298E+04  0.13266562408E+04 -0.71132859855E+03  0.18839086907E+04  0.12699999809E+01 0. -1.
</event>
<event>
 5   0  0.4811500E-07  0.3140515E+04  0.7818609E-02  0.8204706E-01
       -1   -1    0    0    0  501  0.00000000000E+00  0.00000000000E+00  0.11468788814E+04  0.11468788814E+04  0.50400001928E-02 0. -1.
        1   -1    0    0  501    0  0.00000000000E+00  0.00000000000E+00 -0.21499288399E+04  0.21499288399E+04  0.50400001928E-02 0.  1.
    10030    2    1    2    0    0  0.00000000000E+00  0.00000000000E+00 -0.10030499585E+04  0.32968077213E+04  0.31405145966E+04 0.  0.
        2    1    3    3  502    0 -0.14648189448E+04 -0.34991095074E+03 -0.34908962246E+02  0.15064364740E+04  0.25500000920E-02 0. -1.
       -2    1    3    3    0  502  0.14648189448E+04  0.34991095074E+03 -0.96814099628E+03  0.17903712473E+04  0.25500000920E-02 0.  1.
</event>
<event>
 5   0  0.1444091E-06  0.3547763E+04  0.7818609E-02  0.8102563E-01
       -2   -1    0    0    0  501  0.00000000000E+00  0.00000000000E+00  0.13745596245E+04  0.13745596245E+04  0.25500000920E-02 0.  1.
        2   -1    0    0  501    0  0.00000000000E+00  0.00000000000E+00 -0.22892104289E+04  0.22892104289E+04  0.25500000920E-02 0. -1.
    10030    2    1    2    0    0  0.00000000000E+00  0.00000000000E+00 -0.91465080440E+03  0.36637700534E+04  0.35477633673E+04 0.  0.
        1    1    3    3  502    0 -0.29510618225E+03 -0.13176744833E+04  0.73063819851E+03  0.15353129583E+04  0.50400001928E-02 0.  1.
       -1    1    3    3    0  502  0.29510618225E+03  0.13176744833E+04 -0.16452890029E+04  0.21284570951E+04  0.50400001928E-02 0. -1.
</event>
<event>
 5   0  0.4811500E-07  0.3491659E+04  0.7818609E-02  0.8115770E-01
       -1   -1    0    0    0  501  0.00000000000E+00  0.00000000000E+00  0.13528968449E+04  0.13528968449E+04  0.50400001928E-02 0.  1.
        1   -1    0    0  501    0  0.00000000000E+00  0.00000000000E+00 -0.22528843594E+04  0.22528843594E+04  0.50400001928E-02 0. -1.
    10030    2    1    2    0    0  0.00000000000E+00  0.00000000000E+00 -0.89998751456E+03  0.36057812043E+04  0.34916587129E+04 0.  0.
        4    1    3    3  502    0 -0.32991508215E+03 -0.27446375836E+02 -0.22201729107E+04  0.22447197222E+04  0.12699999809E+01 0. -1.
       -4    1    3    3    0  502  0.32991508215E+03  0.27446375836E+02  0.13201853961E+04  0.13610614821E+04  0.12699999809E+01 0.  1.
</event>
<event>
 5   0  0.4811500E-07  0.3867735E+04  0.7818609E-02  0.8031773E-01
       -1   -1    0    0    0  501  0.00000000000E+00  0.00000000000E+00  0.12318558814E+04  0.12318558814E+04  0.50400001928E-02 0. -1.
        1   -1    0    0  501    0  0.00000000000E+00  0.00000000000E+00 -0.30359422830E+04  0.30359422830E+04  0.50400001928E-02 0.  1.
    10030    2    1    2    0    0  0.00000000000E+00  0.00000000000E+00 -0.18040864017E+04  0.42677981644E+04  0.38677349221E+04 0.  0.
        2    1    3    3  502    0 -0.12263041360E+04 -0.14158334518E+04 -0.37120310864E+03  0.19095020149E+04  0.25500000920E-02 0.  1.
       -2    1    3    3    0  502  0.12263041360E+04  0.14158334518E+04 -0.14328832930E+04  0.23582961495E+04  0.25500000920E-02 0. -1.
</event>
<event>
 5   0  0.5071661E-07  0.3275702E+04  0.7818609E-02  0.8169106E-01
        1   -1    0    0  501    0  0.00000000000E+00  0.00000000000E+00  0.26844914386E+04  0.26844914387E+04  0.50400001928E-02 0. -1.
       -1   -1    0    0    0  501  0.00000000000E+00  0.00000000000E+00 -0.99927925956E+03  0.99927925957E+03  0.50400001928E-02 0.  1.
    10030    2    1    2    0    0  0.00000000000E+00  0.00000000000E+00  0.16852121791E+04  0.36837706982E+04  0.32757024390E+04 0.  0.
        1    1    3    3  502    0 -0.19343769712E+00  0.16376986496E+04  0.86774511038E+03  0.18533856806E+04  0.50400001928E-02 0. -1.
       -1    1    3    3    0  502  0.19343769712E+00 -0.16376986496E+04  0.81746706871E+03  0.18303850176E+04  0.50400001928E-02 0.  1.
</event>
<event>
 5   0  0.1379425E-06  0.3609185E+04  0.7818609E-02  0.8088391E-01
       -2   -1    0    0    0  501  0.00000000000E+00  0.00000000000E+00  0.37662279351E+04  0.37662279351E+04  0.25500000920E-02 0. -1.
        2   -1    0    0  501    0  0.00000000000E+00  0.00000000000E+00 -0.86467275014E+03  0.86467275014E+03  0.25500000920E-02 0.  1.
    10030    2    1    2    0    0  0.00000000000E+00  0.00000000000E+00  0.29015551850E+04  0.46309006853E+04  0.36091853188E+04 0.  0.
        4    1    3    3  502    0  0.18581967629E+03  0.12535095829E+04 -0.19774664487E+03  0.12825445704E+04  0.12699999809E+01 0.  1.
       -4    1    3    3    0  502 -0.18581967629E+03 -0.12535095829E+04  0.30993018299E+04  0.33483561149E+04  0.12699999809E+01 0. -1.
</event>
<event>
 5   0  0.4811500E-07  0.2427524E+04  0.7818609E-02  0.8429270E-01
       -1   -1    0    0    0  501  0.00000000000E+00  0.00000000000E+00  0.25519886584E+04  0.25519886584E+04  0.50400001928E-02 0.  1.
        1   -1    0    0  501    0  0.00000000000E+00  0.00000000000E+00 -0.57728242045E+03  0.57728242047E+03  0.50400001928E-02 0. -1.
    10030    2    1    2    0    0  0.00000000000E+00  0.00000000000E+00  0.19747062380E+04  0.31292710789E+04  0.24275239976E+04 0.  0.
        3    1    3    3  502    0 -0.37195639951E+03  0.27731242529E+03 -0.45846557580E+03  0.65226102041E+03  0.10100000352E+00 0. -1.
       -3    1    3    3    0  502  0.37195639951E+03 -0.27731242529E+03  0.24331718137E+04  0.24770100585E+04  0.10100000352E+00 0.  1.
</event>
<event>
 5   0  0.4811500E-07  0.3669184E+04  0.7818609E-02  0.8074826E-01
       -1   -1    0    0    0  501  0.00000000000E+00  0.00000000000E+00  0.89732183037E+03  0.89732183039E+03  0.50400001928E-02 0.  1.
        1   -1    0    0  501    0  0.00000000000E+00  0.00000000000E+00 -0.37508588571E+04  0.37508588571E+04  0.50400001928E-02 0. -1.
    10030    2    1    2    0    0  0.00000000000E+00  0.00000000000E+00 -0.28535370268E+04  0.46481806875E+04  0.36691838521E+04 0.  0.
        5    1    3    3  502    0 -0.18109003411E+03 -0.84774067317E+03 -0.34750370178E+04  0.35815307083E+04  0.46999998093E+01 0. -1.
       -5    1    3    3    0  502  0.18109003411E+03  0.84774067317E+03  0.62149999102E+03  0.10666499792E+04  0.46999998093E+01 0.  1.
</event>
<event>
 5   0  0.4811500E-07  0.3149282E+04  0.7818609E-02  0.8202342E-01
       -1   -1    0    0    0  501  0.00000000000E+00  0.00000000000E+00  0.12288521010E+04  0.12288521010E+04  0.50400001928E-02 0.  1.
        1   -1    0    0  501    0  0.00000000000E+00  0.00000000000E+00 -0.20177314186E+04  0.20177314186E+04  0.50400001928E-02 0. -1.
    10030    2    1    2    0    0  0.00000000000E+00  0.00000000000E+00 -0.78887931766E+03  0.32465835196E+04  0.31492815009E+04 0.  0.
        3    1    3    3  502    0  0.10285917186E+04 -0.11645811743E+04 -0.13112024288E+03  0.15593084247E+04  0.10100000352E+00 0. -1.
       -3    1    3    3    0  502 -0.10285917186E+04  0.11645811743E+04 -0.65775907478E+03  0.16872750949E+04  0.10100000352E+00 0.  1.
</event>
<event>
 5   0  0.1468942E-06  0.3271782E+04  0.7818609E-02  0.8170113E-01
        2   -1    0    0  501    0  0.00000000000E+00  0.00000000000E+00  0.16260137398E+04  0.16260137398E+04  0.25500000920E-02 0.  1.
       -2   -1    0    0    0  501  0.00000000000E+00  0.00000000000E+00 -0.16458285681E+04  0.16458285681E+04  0.25500000920E-02 0. -1.
    10030    2    1    2    0    0  0.00000000000E+00  0.00000000000E+00 -0.19814828304E+02  0.32718423079E+04  0.32717823064E+04 0.  0.
        2    1    3    3  502    0 -0.65445146672E+02  0.99969385032E+03  0.12833560344E+04  0.16280889326E+04  0.25500000920E-02 0.  1.
       -2    1    3    3    0  502  0.65445146672E+02 -0.99969385032E+03 -0.13031708627E+04  0.16437533753E+04  0.25500000920E-02 0. -1.
</event>
<event>
 5   0  0.1468942E-06  0.3038074E+04  0.7818609E-02  0.8232941E-01
        2   -1    0    0  501    0  0.00000000000E+00  0.00000000000E+00  0.22762459515E+04  0.22762459515E+04  0.25500000920E-02 0. -1.
       -2   -1    0    0    0  501  0.00000000000E+00  0.00000000000E+00 -0.10137187350E+04  0.10137187350E+04  0.25500000920E-02 0.  1.
    10030    2    1    2    0    0  0.00000000000E+00  0.00000000000E+00  0.12625272165E+04  0.32899646865E+04  0.30380738414E+04 0.  0.
        2    1    3    3  502    0  0.23903271943E+03 -0.10117542483E+03 -0.98952591142E+03  0.10230027551E+04  0.25500000920E-02 0.  1.
       -2    1    3    3    0  502 -0.23903271943E+03  0.10117542483E+03  0.22520531279E+04  0.22669619314E+04  0.25500000920E-02 0. -1.
</event>
<event>
 5   0  0.1379425E-06  0.3572042E+04  0.7818609E-02  0.8096926E-01
        2   -1    0    0  501    0  0.00000000000E+00  0.00000000000E+00  0.26850211931E+04  0.26850211931E+04  0.25500000920E-02 0. -1.
       -2   -1    0    0    0  501  0.00000000000E+00  0.00000000000E+00 -0.11880243070E+04  0.11880243070E+04  0.25500000920E-02 0.  1.
    10030    2    1    2    0    0  0.00000000000E+00  0.00000000000E+00  0.14969968861E+04  0.38730455001E+04  0.35720416807E+04 0.  0.
        4    1    3    3  502    0 -0.15314250306E+04  0.16998841136E+03  0.17277719673E+04  0.23150283515E+04  0.12699999809E+01 0. -1.
       -4    1    3    3    0  502  0.15314250306E+04 -0.16998841136E+03 -0.23077508116E+03  0.15580171486E+04  0.12699999809E+01 0.  1.
</event>
<event>
 5   0  0.4811500E-07  0.3581285E+04  0.7818609E-02  0.8094792E-01
       -1   -1    0    0    0  501  0.00000000000E+00  0.00000000000E+00  0.26837561957E+04  0.26837561957E+04  0.50400001928E-02 0. -1.
        1   -1    0    0  501    0  0.00000000000E+00  0.00000000000E+00 -0.11947436141E+04  0.11947436141E+04  0.50400001928E-02 0.  1.
    10030    2    1    2    0    0  0.00000000000E+00  0.00000000000E+00  0.14890125815E+04  0.38784998098E+04  0.35812850077E+04 0.  0.
        5    1    3    3  502    0  0.12728817704E+04  0.93951397758E+03  0.16528408114E+04  0.22879727606E+04  0.46999998093E+01 0. -1.
       -5    1    3    3    0  502 -0.12728817704E+04 -0.93951397758E+03 -0.16382822985E+03  0.15905270492E+04  0.46999998093E+01 0.  1.
</event>
<event>
 5   0  0.4811500E-07  0.2643179E+04  0.7818609E-02  0.8353681E-01
       -1   -1    0    0    0  501  0.00000000000E+00  0.00000000000E+00  0.18808548186E+04  0.18808548186E+04  0.50400001928E-02 0. -1.
        1   -1    0    0  501    0  0.00000000000E+00  0.00000000000E+00 -0.92861959011E+03  0.92861959012E+03  0.50400001928E-02 0.  1.
    10030    2    1    2    0    0  0.00000000000E+00  0.00000000000E+00  0.95223522847E+03  0.28094744087E+04  0.26431788670E+04 0.  0.
        3    1    3    3  502    0 -0.54876034539E+03  0.11336158677E+04  0.50452653412E+02  0.12604635388E+04  0.10100000352E+00 0.  1.
       -3    1    3    3    0  502  0.54876034539E+03 -0.11336158677E+04  0.90178257506E+03  0.15490108699E+04  0.10100000352E+00 0. -1.
</event>
<event>
 5   0  0.4811500E-07  0.3423616E+04  0.7818609E-02  0.8132134E-01
        1   -1    0    0  501    0  0.00000000000E+00  0.00000000000E+00  0.26094564168E+04  0.26094564168E+04  0.50400001928E-02 0. -1.
       -1   -1    0    0    0  501  0.00000000000E+00  0.00000000000E+00 -0.11229493647E+04  0.11229493647E+04  0.50400001928E-02 0.  1.
    10030    2    1    2    0    0  0.00000000000E+00  0.00000000000E+00  0.14865070521E+04  0.37324057815E+04  0.34236164654E+04 0.  0.
        4    1    3    3  502    0  0.15905544934E+04 -0.51454223025E+03  0.34170015702E+03  0.17062760367E+04  0.12699999809E+01 0.  1.
       -4    1    3    3    0  502 -0.15905544934E+04  0.51454223025E+03  0.11448068950E+04  0.20261297449E+04  0.12699999809E+01 0. -1.
</event>
<event>
 5   0  0.1491854E-06  0.3438466E+04  0.7818609E-02  0.8128529E-01
        2   -1    0    0  501    0  0.00000000000E+00  0.00000000000E+00  0.16545525758E+04  0.16545525758E+04  0.25500000920E-02 0.  1.
       -2   -1    0    0    0  501  0.00000000000E+00  0.00000000000E+00 -0.17864420858E+04  0.17864420858E+04  0.25500000920E-02 0. -1.
    10030    2    1    2    0    0  0.00000000000E+00  0.00000000000E+00 -0.13188951007E+03  0.34409946616E+04  0.34384661432E+04 0.  0.
        5    1    3    3  502    0 -0.29876947764E+03 -0.34557031687E+03  0.15926992307E+04  0.16569233459E+04  0.46999998093E+01 0.  1.
       -5    1    3    3    0  502  0.29876947764E+03  0.34557031687E+03 -0.17245887408E+04  0.17840713157E+04  0.46999998093E+01 0. -1.
</event>
<event>
 5   0  0.4811500E-07  0.3043695E+04  0.7818609E-02  0.8231362E-01
       -1   -1    0    0    0  501  0.00000000000E+00  0.00000000000E+00  0.10985493921E+04  0.10985493922E+04  0.50400001928E-02 0. -1.
        1   -1    0    0  501    0  0.00000000000E+00  0.00000000000E+00 -0.21082530139E+04  0.21082530139E+04  0.50400001928E-02 0.  1.
    10030    2    1    2    0    0  0.00000000000E+00  0.00000000000E+00 -0.10097036218E+04  0.32068024061E+04  0.30436951667E+04 0.  0.
        3    1    3    3  502    0 -0.67388801164E+03 -0.96442895745E+02  0.92918779503E+03  0.11518751030E+04  0.10100000352E+00 0. -1.
       -3    1    3    3    0  502  0.67388801164E+03  0.96442895745E+02 -0.19388914168E+04  0.20549273030E+04  0.10100000352E+00 0.  1.
</event>
<event>
 5   0  0.4811500E-07  0.2990476E+04  0.7818609E-02  0.8246456E-01
        1   -1    0    0  501    0  0.00000000000E+00  0.00000000000E+00  0.20633418401E+04  0.20633418401E+04  0.50400001928E-02 0. -1.
       -1   -1    0    0    0  501  0.00000000000E+00  0.00000000000E+00 -0.10835515578E+04  0.10835515578E+04  0.50400001928E-02 0.  1.
    10030    2    1    2    0    0  0.00000000000E+00  0.00000000000E+00  0.97979028238E+03  0.31468933979E+04  0.29904763935E+04 0.  0.
        2    1    3    3  502    0 -0.13889866044E+04 -0.50806105844E+03  0.72122864837E+03  0.16454727557E+04  0.25500000920E-02 0.  1.
       -2    1    3    3    0  502  0.13889866044E+04  0.50806105844E+03  0.25856163401E+03  0.15014206422E+04  0.25500000920E-02 0. -1.
</event>
<event>
 5   0  0.1505671E-06  0.3627285E+04  0.7818609E-02  0.8084270E-01
        2   -1    0    0  501    0  0.00000000000E+00  0.00000000000E+00  0.13689020348E+04  0.13689020348E+04  0.25500000920E-02 0.  1.
       -2   -1    0    0    0  501  0.00000000000E+00  0.00000000000E+00 -0.24028737354E+04  0.24028737354E+04  0.25500000920E-02 0. -1.
    10030    2    1    2    0    0  0.00000000000E+00  0.00000000000E+00 -0.10339717007E+04  0.37717757702E+04  0.36272847949E+04 0.  0.
        3    1    3    3  502    0 -0.52060370239E+03  0.15854443385E+04 -0.12556612858E+04  0.20883838824E+04  0.10100000352E+00 0. -1.
       -3    1    3    3    0  502  0.52060370239E+03 -0.15854443385E+04  0.22168958514E+03  0.16833918878E+04  0.10100000352E+00 0.  1.
</event>
<event>
 5   0  0.4811500E-07  0.3589529E+04  0.7818609E-02  0.8092894E-01
       -1   -1    0    0    0  501  0.00000000000E+00  0.00000000000E+00  0.14870278370E+04  0.14870278371E+04  0.50400001928E-02 0. -1.
        1   -1    0    0  501    0  0.00000000000E+00  0.00000000000E+00 -0.21661869784E+04  0.21661869784E+04  0.50400001928E-02 0.  1.
    10030    2    1    2    0    0  0.00000000000E+00  0.00000000000E+00 -0.67915914133E+03  0.36532148154E+04  0.35895294049E+04 0.  0.
        3    1    3    3  502    0  0.17865600741E+04  0.16034379374E+03 -0.27789654374E+03  0.18151400854E+04  0.10100000352E+00 0. -1.
       -3    1    3    3    0  502 -0.17865600741E+04 -0.16034379374E+03 -0.40126259759E+03  0.18380747300E+04  0.10100000352E+00 0.  1.
</event>
<event>
 5   0  0.4811500E-07  0.3585566E+04  0.7818609E-02  0.8093806E-01
        1   -1    0    0  501    0  0.00000000000E+00  0.00000000000E+00  0.14661328525E+04  0.14661328525E+04  0.50400001928E-02 0.  1.
       -1   -1    0    0    0  501  0.00000000000E+00  0.00000000000E+00 -0.21922093051E+04  0.21922093051E+04  0.50400001928E-02 0. -1.
    10030    2    1    2    0    0  0.00000000000E+00  0.00000000000E+00 -0.72607645265E+03  0.36583421577E+04  0.35855655520E+04 0.  0.
        3    1    3    3  502    0  0.65880812051E+03  0.60980404582E+03 -0.19463674001E+04  0.21434167071E+04  0.10100000352E+00 0. -1.
       -3    1    3    3    0  502 -0.65880812051E+03 -0.60980404582E+03  0.12202909475E+04  0.15149254505E+04  0.10100000352E+00 0.  1.
</event>
<event>
 5   0  0.4811500E-07  0.3416452E+04  0.7818609E-02  0.8133880E-01
        1   -1    0    0  501    0  0.00000000000E+00  0.00000000000E+00  0.27105089877E+04  0.27105089877E+04  0.50400001928E-02 0. -1.
       -1   -1    0    0    0  501  0.00000000000E+00  0.00000000000E+00 -0.10765637125E+04  0.10765637125E+04  0.50400001928E-02 0.  1.
    10030    2    1    2    0    0  0.00000000000E+00  0.00000000000E+00  0.16339452752E+04  0.37870727002E+04  0.34164517375E+04 0.  0.
        3    1    3    3  502    0 -0.65401181331E+03  0.79688681778E+03  0.23268183277E+04  0.25449643598E+04  0.10100000352E+00 0. -1.
       -3    1    3    3    0  502  0.65401181331E+03 -0.79688681778E+03 -0.69287305249E+03  0.12421083404E+04  0.10100000352E+00 0.  1.
</event>
<event>
 5   0  0.1491854E-06  0.3688312E+04  0.7818609E-02  0.8070557E-01
       -2   -1    0    0    0  501  0.00000000000E+00  0.00000000000E+00  0.15537036537E+04  0.15537036537E+04  0.25500000920E-02 0.  1.
        2   -1    0    0  501    0  0.00000000000E+00  0.00000000000E+00 -0.21889055003E+04  0.21889055003E+04  0.25500000920E-02 0. -1.
    10030    2    1    2    0    0  0.00000000000E+00  0.00000000000E+00 -0.63520184652E+03  0.37426091540E+04  0.36883115234E+04 0.  0.
        5    1    3    3  502    0 -0.11542834443E+04  0.32833212354E+03 -0.17384705834E+04  0.21124569375E+04  0.46999998093E+01 0. -1.
       -5    1    3    3    0  502  0.11542834443E+04 -0.32833212354E+03  0.11032687369E+04  0.16301522165E+04  0.46999998093E+01 0.  1.
</event>
<event>
 5   0  0.4811500E-07  0.3536913E+04  0.7818609E-02  0.8105097E-01
       -1   -1    0    0    0  501  0.00000000000E+00  0.00000000000E+00  0.15324255519E+04  0.15324255519E+04  0.50400001928E-02 0. -1.
        1   -1    0    0  501    0  0.00000000000E+00  0.00000000000E+00 -0.20408424861E+04  0.20408424861E+04  0.50400001928E-02 0.  1.
    10030    2    1    2    0    0  0.00000000000E+00  0.00000000000E+00 -0.50841693423E+03  0.35732680380E+04  0.35369134414E+04 0.  0.
        4    1    3    3  502    0  0.32147582948E+03 -0.88177136772E+03 -0.17684709102E+04  0.20020885163E+04  0.12699999809E+01 0.  1.
       -4    1    3    3    0  502 -0.32147582948E+03  0.88177136772E+03  0.12600539760E+04  0.15711795216E+04  0.12699999809E+01 0. -1.
</event>
<event>
 5   0  0.4811500E-07  0.3720082E+04  0.7818609E-02  0.8063526E-01
        1   -1    0    0  501    0  0.00000000000E+00  0.00000000000E+00  0.11774510978E+04  0.11774510978E+04  0.50400001928E-02 0. -1.
       -1   -1    0    0    0  501  0.00000000000E+00  0.00000000000E+00 -0.29383405652E+04  0.29383405652E+04  0.50400001928E-02 0.  1.
    10030    2    1    2    0    0  0.00000000000E+00  0.00000000000E+00 -0.17608894674E+04  0.41157916631E+04  0.37200818939E+04 0.  0.
        2    1    3    3  502    0 -0.18584632061E+04 -0.28604871933E+02 -0.95905626248E+03  0.20915287810E+04  0.25500000920E-02 0. -1.
       -2    1    3    3    0  502  0.18584632061E+04  0.28604871933E+02 -0.80183320494E+03  0.20242628821E+04  0.25500000920E-02 0.  1.
</event>
<event>
 5   0  0.1505671E-06  0.3457208E+04  0.7818609E-02  0.8124007E-01
        2   -1    0    0  501    0  0.00000000000E+00  0.00000000000E+00  0.20773408911E+04  0.20773408911E+04  0.25500000920E-02 0. -1.
       -2   -1    0    0    0  501  0.00000000000E+00  0.00000000000E+00 -0.14384120340E+04  0.14384120340E+04  0.25500000920E-02 0.  1.
    10030    2    1    2    0    0  0.00000000000E+00  0.00000000000E+00  0.63892885713E+03  0.35157529251E+04  0.34572082012E+04 0.  0.
        3    1    3    3  502    0  0.51343035054E+03 -0.11344097509E+04  0.15387577830E+04  0.19794624858E+04  0.10100000352E+00 0. -1.
       -3    1    3    3    0  502 -0.51343035054E+03  0.11344097509E+04 -0.89982892591E+03  0.15362904393E+04  0.10100000352E+00 0.  1.
</event>
<event>
 5   0  0.1379425E-06  0.3447126E+04  0.7818609E-02  0.8126436E-01
        2   -1    0    0  501    0  0.00000000000E+00  0.00000000000E+00  0.22252426589E+04  0.22252426589E+04  0.25500000920E-02 0.  1.
       -2   -1    0    0    0  501  0.00000000000E+00  0.00000000000E+00 -0.13349867648E+04  0.13349867648E+04  0.25500000920E-02 0. -1.
    10030    2    1    2    0    0  0.00000000000E+00  0.00000000000E+00  0.89025589415E+03  0.35602294237E+04  0.34471260482E+04 0.  0.
        4    1    3    3  502    0  0.16379148984E+04 -0.16288661192E+03  0.97314652957E+03  0.19121488027E+04  0.12699999809E+01 0.  1.
       -4    1    3    3    0  502 -0.16379148984E+04  0.16288661192E+03 -0.82890635425E+02  0.16480806210E+04  0.12699999809E+01 0. -1.
</event>
<event>
 5   0  0.1379425E-06  0.3351847E+04  0.7818609E-02  0.8149827E-01
       -2   -1    0    0    0  501  0.00000000000E+00  0.00000000000E+00  0.24390605684E+04  0.24390605684E+04  0.25500000920E-02 0. -1.
        2   -1    0    0  501    0  0.00000000000E+00  0.00000000000E+00 -0.11515581134E+04  0.11515581134E+04  0.25500000920E-02 0.  1.
    10030    2    1    2    0    0  0.00000000000E+00  0.00000000000E+00  0.12875024550E+04  0.35906186818E+04  0.33518472439E+04 0.  0.
        4    1    3    3  502    0 -0.78235881496E+02  0.37256192931E+03  0.23921298126E+04  0.24222324202E+04  0.12699999809E+01 0. -1.
       -4    1    3    3    0  502  0.78235881496E+02 -0.37256192931E+03 -0.11046273576E+04  0.11683862616E+04  0.12699999809E+01 0.  1.
</event>
<event>
 5   0  0.4811500E-07  0.3578565E+04  0.7818609E-02  0.8095419E-01
       -1   -1    0    0    0  501  0.00000000000E+00  0.00000000000E+00  0.20914930537E+04  0.20914930537E+04  0.50400001928E-02 0.  1.
        1   -1    0    0  501    0  0.00000000000E+00  0.00000000000E+00 -0.15307400814E+04  0.15307400814E+04  0.50400001928E-02 0. -1.
    10030    2    1    2    0    0  0.00000000000E+00  0.00000000000E+00  0.56075297230E+03  0.36222331351E+04  0.35785652137E+04 0.  0.
        5    1    3    3  502    0 -0.28872084541E+03 -0.12069018234E+03  0.20635731254E+04  0.20871708077E+04  0.46999998093E+01 0.  1.
       -5    1    3    3    0  502  0.28872084541E+03  0.12069018234E+03 -0.15028201531E+04  0.15350623274E+04  0.46999998093E+01 0. -1.
</event>
<event>
 5   0  0.4811500E-07  0.3598692E+04  0.7818609E-02  0.8090791E-01
        1   -1    0    0  501    0  0.00000000000E+00  0.00000000000E+00  0.27243340256E+04  0.27243340256E+04  0.50400001928E-02 0. -1.
       -1   -1    0    0    0  501  0.00000000000E+00  0.00000000000E+00 -0.11884174522E+04  0.11884174522E+04  0.50400001928E-02 0.  1.
    10030    2    1    2    0    0  0.00000000000E+00  0.00000000000E+00  0.15359165734E+04  0.39127514778E+04  0.35986920411E+04 0.  0.
        3    1    3    3  502    0  0.15513027781E+03  0.52062632546E+03  0.26330403718E+04  0.26884974955E+04  0.10100000352E+00 0. -1.
       -3    1    3    3    0  502 -0.15513027781E+03 -0.52062632546E+03 -0.10971237984E+04  0.12242539823E+04  0.10100000352E+00 0.  1.
</event>
<event>
 5   0  0.1379425E-06  0.3581576E+04  0.7818609E-02  0.8094725E-01
        2   -1    0    0  501    0  0.00000000000E+00  0.00000000000E+00  0.22311852024E+04  0.22311852024E+04  0.25500000920E-02 0.  1.
       -2   -1    0    0    0  501  0.00000000000E+00  0.00000000000E+00 -0.14373178688E+04  0.14373178688E+04  0.25500000920E-02 0. -1.
    10030    2    1    2    0    0  0.00000000000E+00  0.00000000000E+00  0.79386733361E+03  0.36685030713E+04  0.35815763904E+04 0.  0.
        4    1    3    3  502    0  0.40079605835E+03  0.17248941221E+04  0.12396310779E+03  0.17751804634E+04  0.12699999809E+01 0. -1.
       -4    1    3    3    0  502 -0.40079605835E+03 -0.17248941221E+04  0.66990422582E+03  0.18933226078E+04  0.12699999809E+01 0.  1.
</event>
<event>
 5   0  0.1491854E-06  0.3575187E+04  0.7818609E-02  0.8096199E-01
       -2   -1    0    0    0  501  0.00000000000E+00  0.00000000000E+00  0.12516601428E+04  0.12516601428E+04  0.25500000920E-02 0.  1.
        2   -1    0    0  501    0  0.00000000000E+00  0.00000000000E+00 -0.25530015272E+04  0.25530015272E+04  0.25500000920E-02 0. -1.
    10030    2    1    2    0    0  0.00000000000E+00  0.00000000000E+00 -0.13013413843E+04  0.38046616700E+04  0.35751868517E+04 0.  0.
        5    1    3    3  502    0 -0.55457701862E+03 -0.10043633617E+04  0.80814342216E+03  0.14033600082E+04  0.46999998093E+01 0.  1.
       -5    1    3    3    0  502  0.55457701862E+03  0.10043633617E+04 -0.21094848065E+04  0.24013016618E+04  0.46999998093E+01 0. -1.
</event>
<event>
 5   0  0.4811500E-07  0.2942890E+04  0.7818609E-02  0.8260230E-01
       -1   -1    0    0    0  501  0.00000000000E+00  0.00000000000E+00  0.11196659952E+04  0.11196659952E+04  0.50400001928E-02 0.  1.
        1   -1    0    0  501    0  0.00000000000E+00  0.00000000000E+00 -0.19337463576E+04  0.19337463576E+04  0.50400001928E-02 0. -1.
    10030    2    1    2    0    0  0.00000000000E+00  0.00000000000E+00 -0.81408036242E+03  0.30534123528E+04  0.29428897634E+04 0.  0.
        5    1    3    3  502    0 -0.37970710431E+03  0.67727199571E+03  0.88980210359E+03  0.11809507673E+04  0.46999998093E+01 0.  1.
       -5    1    3    3    0  502  0.37970710431E+03 -0.67727199571E+03 -0.17038824660E+04  0.18724615855E+04  0.46999998093E+01 0. -1.
</event>
<event>
 5   0  0.4811500E-07  0.3124270E+04  0.7818609E-02  0.8209109E-01
       -1   -1    0    0    0  501  0.00000000000E+00  0.00000000000E+00  0.17786360841E+04  0.17786360841E+04  0.50400001928E-02 0.  1.
        1   -1    0    0  501    0  0.00000000000E+00  0.00000000000E+00 -0.13719871252E+04  0.13719871252E+04  0.50400001928E-02 0. -1.
    10030    2    1    2    0    0  0.00000000000E+00  0.00000000000E+00  0.40664895886E+03  0.31506232093E+04  0.31242700318E+04 0.  0.
        3    1    3    3  502    0  0.13950710523E+04 -0.23637534438E+02  0.91173396122E+03  0.16667455716E+04  0.10100000352E+00 0.  1.
       -3    1    3    3    0  502 -0.13950710523E+04  0.23637534438E+02 -0.50508500237E+03  0.14838776378E+04  0.10100000352E+00 0. -1.
</event>
<event>
 5   0  0.1468942E-06  0.3789753E+04  0.7818609E-02  0.8048358E-01
       -2   -1    0    0    0  501  0.00000000000E+00  0.00000000000E+00  0.19295497555E+04  0.19295497555E+04  0.25500000920E-02 0.  1.
        2   -1    0    0  501    0  0.00000000000E+00  0.00000000000E+00 -0.18608259135E+04  0.18608259135E+04  0.25500000920E-02 0. -1.
    10030    2    1    2    0    0  0.00000000000E+00  0.00000000000E+00  0.68723842023E+02  0.37903756689E+04  0.37897525968E+04 0.  0.
        2    1    3    3  502    0 -0.13500494797E+04 -0.48798652054E+03 -0.12026889312E+04  0.18727586890E+04  0.25500000920E-02 0. -1.
       -2    1    3    3    0  502  0.13500494797E+04  0.48798652054E+03  0.12714127732E+04  0.19176169800E+04  0.25500000920E-02 0.  1.
</event>
<event>
 5   0  0.1491854E-06  0.3595668E+04  0.7818609E-02  0.8091485E-01
       -2   -1    0    0    0  501  0.00000000000E+00  0.00000000000E+00  0.12021171336E+04  0.12021171336E+04  0.25500000920E-02 0.  1.
        2   -1    0    0  501    0  0.00000000000E+00  0.00000000000E+00 -0.26887624943E+04  0.26887624943E+04  0.25500000920E-02 0. -1.
    10030    2    1    2    0    0  0.00000000000E+00  0.00000000000E+00 -0.14866453607E+04  0.38908796279E+04  0.35956682064E+04 0.  0.
        5    1    3    3  502    0 -0.58829375328E+02 -0.12940867823E+04  0.60564833454E+03  0.14300187029E+04  0.46999998093E+01 0.  1.
       -5    1    3    3    0  502  0.58829375328E+02  0.12940867823E+04 -0.20922936952E+04  0.24608609251E+04  0.46999998093E+01 0. -1.
</event>
<event>
 5   0  0.1444091E-06  0.2705335E+04  0.7818609E-02  0.8333276E-01
        2   -1    0    0  501    0  0.00000000000E+00  0.00000000000E+00  0.19687516877E+04  0.19687516877E+04  0.25500000920E-02 0. -1.
       -2   -1    0    0    0  501  0.00000000000E+00  0.00000000000E+00 -0.92937520011E+03  0.92937520011E+03  0.25500000920E-02 0.  1.
    10030    2    1    2    0    0  0.00000000000E+00  0.00000000000E+00  0.10393764876E+04  0.28981268878E+04  0.27053347251E+04 0.  0.
        1    1    3    3  502    0 -0.90267266520E+03 -0.99717093436E+03  0.67322384442E+03  0.15041270417E+04  0.50400001928E-02 0. -1.
       -1    1    3    3    0  502  0.90267266520E+03  0.99717093436E+03  0.36615264317E+03  0.13939998461E+04  0.50400001928E-02 0.  1.
</event>
<event>
 5   0  0.1379425E-06  0.3245453E+04  0.7818609E-02  0.8176915E-01
       -2   -1    0    0    0  501  0.00000000000E+00  0.00000000000E+00  0.10908052577E+04  0.10908052577E+04  0.25500000920E-02 0.  1.
        2   -1    0    0  501    0  0.00000000000E+00  0.00000000000E+00 -0.24140349453E+04  0.24140349453E+04  0.25500000920E-02 0. -1.
    10030    2    1    2    0    0  0.00000000000E+00  0.00000000000E+00 -0.13232296876E+04  0.35048402030E+04  0.32454534418E+04 0.  0.
        4    1    3    3  502    0  0.54097799643E+03  0.14154000398E+04 -0.34490989452E+02  0.15156535576E+04  0.12699999809E+01 0.  1.
       -4    1    3    3    0  502 -0.54097799643E+03 -0.14154000398E+04 -0.12887386981E+04  0.19891866454E+04  0.12699999809E+01 0. -1.
</event>
<event>
 5   0  0.1491854E-06  0.3290179E+04  0.7818609E-02  0.8165399E-01
        2   -1    0    0  501    0  0.00000000000E+00  0.00000000000E+00  0.14388927724E+04  0.14388927724E+04  0.25500000920E-02 0.  1.
       -2   -1    0    0    0  501  0.00000000000E+00  0.00000000000E+00 -0.18808352165E+04  0.18808352165E+04  0.25500000920E-02 0. -1.
    10030    2    1    2    0    0  0.00000000000E+00  0.00000000000E+00 -0.44194244417E+03  0.33197279889E+04  0.32901794475E+04 0.  0.
        5    1    3    3  502    0 -0.14879861254E+04  0.52790000149E+02  0.48488901890E+03  0.15658955726E+04  0.46999998093E+01 0.  1.
       -5    1    3    3    0  502  0.14879861254E+04 -0.52790000149E+02 -0.92683146307E+03  0.17538324163E+04  0.46999998093E+01 0. -1.
</event>
<event>
 5   0  0.1505671E-06  0.3459025E+04  0.7818609E-02  0.8123570E-01
       -2   -1    0    0    0  501  0.00000000000E+00  0.00000000000E+00  0.10700930385E+04  0.10700930385E+04  0.25500000920E-02 0. -1.
        2   -1    0    0  501    0  0.00000000000E+00  0.00000000000E+00 -0.27952838139E+04  0.27952838139E+04  0.25500000920E-02 0.  1.
    10030    2    1    2    0    0  0.00000000000E+00  0.00000000000E+00 -0.17251907754E+04  0.38653768524E+04  0.34590251516E+04 0.  0.
        3    1    3    3  502    0  0.65349886466E+03 -0.14417945402E+04 -0.84057555781E+02  0.15852122713E+04  0.10100000352E+00 0. -1.
       -3    1    3    3    0  502 -0.65349886466E+03  0.14417945402E+04 -0.16411332196E+04  0.22801645811E+04  0.10100000352E+00 0.  1.
</event>
<event>
 5   0  0.4811500E-07  0.3606988E+04  0.7818609E-02  0.8088893E-01
        1   -1    0    0  501    0  0.00000000000E+00  0.00000000000E+00  0.18894029800E+04  0.18894029800E+04  0.50400001928E-02 0.  1.
       -1   -1    0    0    0  501  0.00000000000E+00  0.00000000000E+00 -0.17214910692E+04  0.17214910692E+04  0.50400001928E-02 0. -1.
    10030    2    1    2    0    0  0.00000000000E+00  0.00000000000E+00  0.16791191076E+03  0.36108940492E+04  0.36069878604E+04 0.  0.
        2    1    3    3  502    0  0.15714436470E+04 -0.87258189673E+03 -0.63703114953E+02  0.17985806596E+04  0.25500000920E-02 0. -1.
       -2    1    3    3    0  502 -0.15714436470E+04  0.87258189673E+03  0.23161502571E+03  0.18123133897E+04  0.25500000920E-02 0.  1.
</event>
<event>
 5   0  0.1491854E-06  0.3583622E+04  0.7818609E-02  0.8094253E-01
        2   -1    0    0  501    0  0.00000000000E+00  0.00000000000E+00  0.21688674143E+04  0.21688674143E+04  0.25500000920E-02 0.  1.
       -2   -1    0    0    0  501  0.00000000000E+00  0.00000000000E+00 -0.14803060323E+04  0.14803060323E+04  0.25500000920E-02 0. -1.
    10030    2    1    2    0    0  0.00000000000E+00  0.00000000000E+00  0.68856138198E+03  0.36491734466E+04  0.35836224782E+04 0.  0.
        5    1    3    3  502    0  0.46874341992E+03 -0.15674730584E+04  0.10883122071E+04  0.19649777944E+04  0.46999998093E+01 0.  1.
       -5    1    3    3    0  502 -0.46874341992E+03  0.15674730584E+04 -0.39975082511E+03  0.16841956521E+04  0.46999998093E+01 0. -1.
</event>
<event>
 5   0  0.4811500E-07  0.3509956E+04  0.7818609E-02  0.8111434E-01
        1   -1    0    0  501    0  0.00000000000E+00  0.00000000000E+00  0.23351792870E+04  0.23351792870E+04  0.50400001928E-02 0. -1.
       -1   -1    0    0    0  501  0.00000000000E+00  0.00000000000E+00 -0.13189344033E+04  0.13189344033E+04  0.50400001928E-02 0.  1.
    10030    2    1    2    0    0  0.00000000000E+00  0.00000000000E+00  0.10162448837E+04  0.36541136903E+04  0.35099562957E+04 0.  0.
        5    1    3    3  502    0  0.12579821656E+04 -0.12216679452E+04  0.43499128358E+03  0.18067183522E+04  0.46999998093E+01 0.  1.
       -5    1    3    3    0  502 -0.12579821656E+04  0.12216679452E+04  0.58125360010E+03  0.18473953381E+04  0.46999998093E+01 0. -1.
</event>
<event>
 5   0  0.4811500E-07  0.3596428E+04  0.7818609E-02  0.8091310E-01
        1   -1    0    0  501    0  0.00000000000E+00  0.00000000000E+00  0.23894337536E+04  0.23894337536E+04  0.50400001928E-02 0. -1.
       -1   -1    0    0    0  501  0.00000000000E+00  0.00000000000E+00 -0.13532804780E+04  0.13532804780E+04  0.50400001928E-02 0.  1.
    10030    2    1    2    0    0  0.00000000000E+00  0.00000000000E+00  0.10361532757E+04  0.37427142316E+04  0.35964282571E+04 0.  0.
        5    1    3    3  502    0 -0.76748767829E+03 -0.86305449609E+03  0.19524170738E+04  0.22684476894E+04  0.46999998093E+01 0. -1.
       -5    1    3    3    0  502  0.76748767829E+03  0.86305449609E+03 -0.91626379815E+03  0.14742665422E+04  0.46999998093E+01 0.  1.
</event>
<event>
 5   0  0.4811500E-07  0.2283483E+04  0.7818609E-02  0.8484462E-01
        1   -1    0    0  501    0  0.00000000000E+00  0.00000000000E+00  0.66328195725E+03  0.66328195727E+03  0.50400001928E-02 0.  1.
       -1   -1    0    0    0  501  0.00000000000E+00  0.00000000000E+00 -0.19653380462E+04  0.19653380462E+04  0.50400001928E-02 0. -1.
    10030    2    1    2    0    0  0.00000000000E+00  0.00000000000E+00 -0.13020560889E+04  0.26286200035E+04  0.22834826612E+04 0.  0.
        5    1    3    3  502    0  0.64300849420E+02 -0.14118226203E+03 -0.19531376559E+04  0.19592947259E+04  0.46999998093E+01 0. -1.
       -5    1    3    3    0  502 -0.64300849420E+02  0.14118226203E+03  0.65108156692E+03  0.66932527752E+03  0.46999998093E+01 0.  1.
</event>
<event>
 5   0  0.4811500E-07  0.3180513E+04  0.7818609E-02  0.8193983E-01
        1   -1    0    0  501    0  0.00000000000E+00  0.00000000000E+00  0.20869634738E+04  0.20869634738E+04  0.50400001928E-02 0.  1.
       -1   -1    0    0    0  501  0.00000000000E+00  0.00000000000E+00 -0.12117677610E+04  0.12117677610E+04  0.50400001928E-02 0. -1.
    10030    2    1    2    0    0  0.00000000000E+00  0.00000000000E+00  0.87519571284E+03  0.32987312348E+04  0.31805125725E+04 0.  0.
        4    1    3    3  502    0 -0.65220263643E+03 -0.13947238396E+04  0.85024357629E+03  0.17588458203E+04  0.12699999809E+01 0.  1.
       -4    1    3    3    0  502  0.65220263643E+03  0.13947238396E+04  0.24952136546E+02  0.15398854145E+04  0.12699999809E+01 0. -1.
</event>
<event>
 5   0  0.1505671E-06  0.3614527E+04  0.7818609E-02  0.8087172E-01
       -2   -1    0    0    0  501  0.00000000000E+00  0.00000000000E+00  0.17331026348E+04  0.17331026348E+04  0.25500000920E-02 0.  1.
        2   -1    0    0  501    0  0.00000000000E+00  0.00000000000E+00 -0.18845972876E+04  0.18845972876E+04  0.25500000920E-02 0. -1.
    10030    2    1    2    0    0  0.00000000000E+00  0.00000000000E+00 -0.15149465279E+03  0.36176999225E+04  0.36145265387E+04 0.  0.
        3    1    3    3  502    0 -0.13770890808E+04 -0.79819990962E+03 -0.93247960935E+03  0.18447264470E+04  0.10100000352E+00 0. -1.
       -3    1    3    3    0  502  0.13770890808E+04  0.79819990962E+03  0.78098495656E+03  0.17729734755E+04  0.10100000352E+00 0.  1.
</event>
<event>
 5   0  0.1491854E-06  0.3285826E+04  0.7818609E-02  0.8166511E-01
       -2   -1    0    0    0  501  0.00000000000E+00  0.00000000000E+00  0.14364552012E+04  0.14364552012E+04  0.25500000920E-02 0. -1.
        2   -1    0    0  501    0  0.00000000000E+00  0.00000000000E+00 -0.18790448992E+04  0.18790448992E+04  0.25500000920E-02 0.  1.
    10030    2    1    2    0    0  0.00000000000E+00  0.00000000000E+00 -0.44258969803E+03  0.33155001005E+04  0.32858264220E+04 0.  0.
        5    1    3    3  502    0 -0.10337691180E+04  0.30656635588E+03  0.10294476677E+04  0.14907870775E+04  0.46999998093E+01 0. -1.
       -5    1    3    3    0  502  0.10337691180E+04 -0.30656635588E+03 -0.14720373658E+04  0.18247130229E+04  0.46999998093E+01 0.  1.
</event>
<event>
 5   0  0.4811500E-07  0.3015262E+04  0.7818609E-02  0.8239386E-01
        1   -1    0    0  501    0  0.00000000000E+00  0.00000000000E+00  0.15867809196E+04  0.15867809196E+04  0.50400001928E-02 0.  1.
       -1   -1    0    0    0  501  0.00000000000E+00  0.00000000000E+00 -0.14324291446E+04  0.14324291446E+04  0.50400001928E-02 0. -1.
    10030    2    1    2    0    0  0.00000000000E+00  0.00000000000E+00  0.15435177501E+03  0.30192100643E+04  0.30152620022E+04 0.  0.
        4    1    3    3  502    0  0.10877594541E+04  0.20019193595E+03  0.11030427040E+04  0.15620506589E+04  0.12699999809E+01 0.  1.
       -4    1    3    3    0  502 -0.10877594541E+04 -0.20019193595E+03 -0.94869092896E+03  0.14571594054E+04  0.12699999809E+01 0. -1.
</event>
<event>
 5   0  0.1468942E-06  0.2560707E+04  0.7818609E-02  0.8381672E-01
       -2   -1    0    0    0  501  0.00000000000E+00  0.00000000000E+00  0.13795941430E+04  0.13795941430E+04  0.25500000920E-02 0. -1.
        2   -1    0    0  501    0  0.00000000000E+00  0.00000000000E+00 -0.11882520286E+04  0.11882520286E+04  0.25500000920E-02 0.  1.
    10030    2    1    2    0    0  0.00000000000E+00  0.00000000000E+00  0.19134211446E+03  0.25678461716E+04  0.25607073547E+04 0.  0.
        2    1    3    3  502    0 -0.75465305187E+03 -0.96443773756E+03  0.47042960090E+03  0.13118480810E+04  0.25500000920E-02 0. -1.
       -2    1    3    3    0  502  0.75465305187E+03  0.96443773756E+03 -0.27908748644E+03  0.12559980905E+04  0.25500000920E-02 0.  1.
</event>
<event>
 5   0  0.1468942E-06  0.3505666E+04  0.7818609E-02  0.8112448E-01
       -2   -1    0    0    0  501  0.00000000000E+00  0.00000000000E+00  0.11860985352E+04  0.11860985352E+04  0.25500000920E-02 0.  1.
        2   -1    0    0  501    0  0.00000000000E+00  0.00000000000E+00 -0.25903613735E+04  0.25903613735E+04  0.25500000920E-02 0. -1.
    10030    2    1    2    0    0  0.00000000000E+00  0.00000000000E+00 -0.14042628383E+04  0.37764599086E+04  0.35056661738E+04 0.  0.
        2    1    3    3  502    0 -0.12817000847E+04 -0.94013704840E+03  0.93726393096E+02  0.15922931306E+04  0.25500000920E-02 0.  1.
       -2    1    3    3    0  502  0.12817000847E+04  0.94013704840E+03 -0.14979892314E+04  0.21841667780E+04  0.25500000920E-02 0. -1.
</event>
<event>
 5   0  0.4811500E-07  0.2530664E+04  0.7818609E-02  0.8392142E-01
        1   -1    0    0  501    0  0.00000000000E+00  0.00000000000E+00  0.18103516757E+04  0.18103516757E+04  0.50400001928E-02 0. -1.
       -1   -1    0    0    0  501  0.00000000000E+00  0.00000000000E+00 -0.88439479711E+03  0.88439479712E+03  0.50400001928E-02 0.  1.
    10030    2    1    2    0    0  0.00000000000E+00  0.00000000000E+00  0.92595687855E+03  0.26947464728E+04  0.25306644210E+04 0.  0.
        4    1    3    3  502    0  0.11630247110E+04 -0.11580506932E+03 -0.53250030485E+02  0.11699890901E+04  0.12699999809E+01 0.  1.
       -4    1    3    3    0  502 -0.11630247110E+04  0.11580506932E+03  0.97920690903E+03  0.15247573827E+04  0.12699999809E+01 0. -1.
</event>
<event>
 5   0  0.1491854E-06  0.3659354E+04  0.7818609E-02  0.8077030E-01
        2   -1    0    0  501    0  0.00000000000E+00  0.00000000000E+00  0.29407365418E+04  0.29407365419E+04  0.25500000920E-02 0.  1.
       -2   -1    0    0    0  501  0.00000000000E+00  0.00000000000E+00 -0.11383944202E+04  0.11383944202E+04  0.25500000920E-02 0. -1.
    10030    2    1    2    0    0  0.00000000000E+00  0.00000000000E+00  0.18023421217E+04  0.40791309620E+04  0.36593540798E+04 0.  0.
        5    1    3    3  502    0  0.13741334422E+04 -0.98406659583E+03  0.12002322228E+03  0.16944195012E+04  0.46999998093E+01 0. -1.
       -5    1    3    3    0  502 -0.13741334422E+04  0.98406659583E+03  0.16823188994E+04  0.23847114608E+04  0.46999998093E+01 0.  1.
</event>
<event>
 5   0  0.4811500E-07  0.3413944E+04  0.7818609E-02  0.8134493E-01
        1   -1    0    0  501    0  0.00000000000E+00  0.00000000000E+00  0.21572898554E+04  0.21572898554E+04  0.50400001928E-02 0. -1.
       -1   -1    0    0    0  501  0.00000000000E+00  0.00000000000E+00 -0.13506543323E+04  0.13506543323E+04  0.50400001928E-02 0.  1.
    10030    2    1    2    0    0  0.00000000000E+00  0.00000000000E+00  0.80663552310E+03  0.35079441877E+04  0.34139436956E+04 0.  0.
        3    1    3    3  502    0 -0.71288857741E+03  0.37362277626E+03 -0.11434366551E+04  0.13983030777E+04  0.10100000352E+00 0.  1.
       -3    1    3    3    0  502  0.71288857741E+03 -0.37362277626E+03  0.19500721782E+04  0.21096411100E+04  0.10100000352E+00 0. -1.
</event>
<event>
 5   0  0.1379425E-06  0.3600068E+04  0.7818609E-02  0.8090476E-01
        2   -1    0    0  501    0  0.00000000000E+00  0.00000000000E+00  0.18139903506E+04  0.18139903506E+04  0.25500000920E-02 0.  1.
       -2   -1    0    0    0  501  0.00000000000E+00  0.00000000000E+00 -0.17861846490E+04  0.17861846490E+04  0.25500000920E-02 0. -1.
    10030    2    1    2    0    0  0.00000000000E+00  0.00000000000E+00  0.27805701620E+02  0.36001749996E+04  0.36000676203E+04 0.  0.
        4    1    3    3  502    0 -0.56982819697E+03 -0.74996302627E+03 -0.15200827281E+04  0.17882398687E+04  0.12699999809E+01 0. -1.
       -4    1    3    3    0  502  0.56982819697E+03  0.74996302627E+03  0.15478884297E+04  0.18119351309E+04  0.12699999809E+01 0.  1.
</event>
<event>
 5   0  0.4811500E-07  0.3460246E+04  0.7818609E-02  0.8123276E-01
       -3   -1    0    0    0  501  0.00000000000E+00  0.00000000000E+00  0.18116916565E+04  0.18116916593E+04  0.10100000352E+00 0. -1.
        3   -1    0    0  501    0  0.00000000000E+00  0.00000000000E+00 -0.16522268545E+04  0.16522268576E+04  0.10100000352E+00 0.  1.
    10030    2    1    2    0    0  0.00000000000E+00  0.00000000000E+00  0.15946480191E+03  0.34639185169E+04  0.34602460128E+04 0.  0.
        4    1    3    3  502    0 -0.47094797204E+02  0.97616518394E+03  0.15089057230E+04  0.17977526192E+04  0.12699999809E+01 0. -1.
       -4    1    3    3    0  502  0.47094797204E+02 -0.97616518394E+03 -0.13494409211E+04  0.16661658977E+04  0.12699999809E+01 0.  1.
</event>
<event>
 5   0  0.1491854E-06  0.3607988E+04  0.7818609E-02  0.8088664E-01
        2   -1    0    0  501    0  0.00000000000E+00  0.00000000000E+00  0.21708620258E+04  0.21708620258E+04  0.25500000920E-02 0.  1.
       -2   -1    0    0    0  501  0.00000000000E+00  0.00000000000E+00 -0.14991253113E+04  0.14991253113E+04  0.25500000920E-02 0. -1.
    10030    2    1    2    0    0  0.00000000000E+00  0.00000000000E+00  0.67173671444E+03  0.36699873371E+04  0.36079879214E+04 0.  0.
        5    1    3    3  502    0 -0.79702896749E+03  0.15634293726E+04  0.76115044334E+03  0.19128352426E+04  0.46999998093E+01 0.  1.
       -5    1    3    3    0  502  0.79702896749E+03 -0.15634293726E+04 -0.89413728904E+02  0.17571520944E+04  0.46999998093E+01 0. -1.
</event>
<event>
 5   0  0.5071661E-07  0.3577369E+04  0.7818609E-02  0.8095695E-01
        1   -1    0    0  501    0  0.00000000000E+00  0.00000000000E+00  0.18192375444E+04  0.18192375444E+04  0.50400001928E-02 0. -1.
       -1   -1    0    0    0  501  0.00000000000E+00  0.00000000000E+00 -0.17586442734E+04  0.17586442734E+04  0.50400001928E-02 0.  1.
    10030    2    1    2    0    0  0.00000000000E+00  0.00000000000E+00  0.60593270975E+02  0.35778818178E+04  0.35773686918E+04 0.  0.
        1    1    3    3  502    0 -0.45324682553E+03  0.14699326381E+04  0.94325671145E+03  0.18044023579E+04  0.50400001928E-02 0. -1.
       -1    1    3    3    0  502  0.45324682553E+03 -0.14699326381E+04 -0.88266344047E+03  0.17734794599E+04  0.50400001928E-02 0.  1.
</event>
<event>
 5   0  0.5071661E-07  0.3590836E+04  0.7818609E-02  0.8092594E-01
       -1   -1    0    0    0  501  0.00000000000E+00  0.00000000000E+00  0.13775226261E+04  0.13775226261E+04  0.50400001928E-02 0.  1.
        1   -1    0    0  501    0  0.00000000000E+00  0.00000000000E+00 -0.23400894319E+04  0.23400894319E+04  0.50400001928E-02 0. -1.
    10030    2    1    2    0    0  0.00000000000E+00  0.00000000000E+00 -0.96256680579E+03  0.37176120580E+04  0.35908361920E+04 0.  0.
        1    1    3    3  502    0  0.48349275822E+03 -0.14930754587E+04 -0.13841305870E+04  0.20925718756E+04  0.50400001928E-02 0.  1.
       -1    1    3    3    0  502 -0.48349275822E+03  0.14930754587E+04  0.42156378123E+03  0.16250401824E+04  0.50400001928E-02 0. -1.
</event>
<event>
 5   0  0.4811500E-07  0.3662826E+04  0.7818609E-02  0.8076250E-01
       -1   -1    0    0    0  501  0.00000000000E+00  0.00000000000E+00  0.20974103857E+04  0.20974103857E+04  0.50400001928E-02 0. -1.
        1   -1    0    0  501    0  0.00000000000E+00  0.00000000000E+00 -0.15991501898E+04  0.15991501898E+04  0.50400001928E-02 0.  1.
    10030    2    1    2    0    0  0.00000000000E+00  0.00000000000E+00  0.49826019586E+03  0.36965605755E+04  0.36628263494E+04 0.  0.
        3    1    3    3  502    0 -0.45721555638E+03  0.59171032175E+03  0.19363247152E+04  0.20756976135E+04  0.10100000352E+00 0. -1.
       -3    1    3    3    0  502  0.45721555638E+03 -0.59171032175E+03 -0.14380645193E+04  0.16208629621E+04  0.10100000352E+00 0.  1.
</event>
<event>
 5   0  0.1379425E-06  0.3596793E+04  0.7818609E-02  0.8091227E-01
       -2   -1    0    0    0  501  0.00000000000E+00  0.00000000000E+00  0.12848897552E+04  0.12848897552E+04  0.25500000920E-02 0.  1.
        2   -1    0    0  501    0  0.00000000000E+00  0.00000000000E+00 -0.25171267773E+04  0.25171267773E+04  0.25500000920E-02 0. -1.
    10030    2    1    2    0    0  0.00000000000E+00  0.00000000000E+00 -0.12322370221E+04  0.38020165324E+04  0.35967932432E+04 0.  0.
        4    1    3    3  502    0 -0.70316328410E+03 -0.15286883740E+04 -0.12870810355E+04  0.21184678317E+04  0.12699999809E+01 0. -1.
       -4    1    3    3    0  502  0.70316328410E+03  0.15286883740E+04  0.54844013429E+02  0.16835487007E+04  0.12699999809E+01 0.  1.
</event>
<event>
 5   0  0.1444091E-06  0.3652318E+04  0.7818609E-02  0.8078612E-01
       -2   -1    0    0    0  501  0.00000000000E+00  0.00000000000E+00  0.11562238376E+04  0.11562238376E+04  0.25500000920E-02 0. -1.
        2   -1    0    0  501    0  0.00000000000E+00  0.00000000000E+00 -0.28842650975E+04  0.28842650975E+04  0.25500000920E-02 0.  1.
    10030    2    1    2    0    0  0.00000000000E+00  0.00000000000E+00 -0.17280412599E+04  0.40404889351E+04  0.36523176531E+04 0.  0.
        1    1    3    3  502    0  0.16160009031E+04 -0.54660697619E+03 -0.14313800780E+03  0.17119365042E+04  0.50400001928E-02 0.  1.
       -1    1    3    3    0  502 -0.16160009031E+04  0.54660697619E+03 -0.15849032521E+04  0.23285524309E+04  0.50400001928E-02 0. -1.
</event>
<event>
 5   0  0.1491854E-06  0.3458958E+04  0.7818609E-02  0.8123586E-01
       -2   -1    0    0    0  501  0.00000000000E+00  0.00000000000E+00  0.16702088329E+04  0.16702088329E+04  0.25500000920E-02 0.  1.
        2   -1    0    0  501    0  0.00000000000E+00  0.00000000000E+00 -0.17908528682E+04  0.17908528682E+04  0.25500000920E-02 0. -1.
    10030    2    1    2    0    0  0.00000000000E+00  0.00000000000E+00 -0.12064403524E+03  0.34610617011E+04  0.34589583860E+04 0.  0.
        5    1    3    3  502    0  0.78967332045E+03  0.26353048586E+03 -0.15771738716E+04  0.17834045478E+04  0.46999998093E+01 0. -1.
       -5    1    3    3    0  502 -0.78967332045E+03 -0.26353048586E+03  0.14565298363E+04  0.16776571533E+04  0.46999998093E+01 0.  1.
</event>
<event>
 5   0  0.4811500E-07  0.3564507E+04  0.7818609E-02  0.8098671E-01
       -1   -1    0    0    0  501  0.00000000000E+00  0.00000000000E+00  0.22922820596E+04  0.22922820596E+04  0.50400001928E-02 0.  1.
        1   -1    0    0  501    0  0.00000000000E+00  0.00000000000E+00 -0.13857052935E+04  0.13857052935E+04  0.50400001928E-02 0. -1.
    10030    2    1    2    0    0  0.00000000000E+00  0.00000000000E+00  0.90657676603E+03  0.36779873531E+04  0.35645069136E+04 0.  0.
        2    1    3    3  502    0 -0.93898664723E+03 -0.65832302971E+03  0.18610330403E+04  0.21859847008E+04  0.25500000920E-02 0.  1.
       -2    1    3    3    0  502  0.93898664723E+03  0.65832302971E+03 -0.95445627423E+03  0.14920026523E+04  0.25500000920E-02 0. -1.
</event>
<event>
 5   0  0.4811500E-07  0.2406481E+04  0.7818609E-02  0.8437081E-01
        1   -1    0    0  501    0  0.00000000000E+00  0.00000000000E+00  0.10872736796E+04  0.10872736796E+04  0.50400001928E-02 0.  1.
       -1   -1    0    0    0  501  0.00000000000E+00  0.00000000000E+00 -0.13315757324E+04  0.13315757325E+04  0.50400001928E-02 0. -1.
    10030    2    1    2    0    0  0.00000000000E+00  0.00000000000E+00 -0.24430205284E+03  0.24188494121E+04  0.24064806222E+04 0.  0.
        5    1    3    3  502    0 -0.28298122404E+03 -0.10127741965E+04  0.46564111494E+03  0.11500581220E+04  0.46999998093E+01 0.  1.
       -5    1    3    3    0  502  0.28298122404E+03  0.10127741965E+04 -0.70994316777E+03  0.12687912900E+04  0.46999998093E+01 0. -1.
</event>
<event>
 5   0  0.1379425E-06  0.2348794E+04  0.7818609E-02  0.8458927E-01
       -2   -1    0    0    0  501  0.00000000000E+00  0.00000000000E+00  0.25771626764E+04  0.25771626765E+04  0.25500000920E-02 0.  1.
        2   -1    0    0  501    0  0.00000000000E+00  0.00000000000E+00 -0.53516525349E+03  0.53516525349E+03  0.25500000920E-02 0. -1.
    10030    2    1    2    0    0  0.00000000000E+00  0.00000000000E+00  0.20419974230E+04  0.31123279299E+04  0.23487936623E+04 0.  0.
        4    1    3    3  502    0 -0.81148066221E+03  0.44679548965E+03  0.64482434430E+02  0.92859392199E+03  0.12699999809E+01 0. -1.
       -4    1    3    3    0  502  0.81148066221E+03 -0.44679548965E+03  0.19775149885E+04  0.21837340080E+04  0.12699999809E+01 0.  1.
</event>
<event>
 5   0  0.4811500E-07  0.3682996E+04  0.7818609E-02  0.8071741E-01
        1   -1    0    0  501    0  0.00000000000E+00  0.00000000000E+00  0.29328813853E+04  0.29328813853E+04  0.50400001928E-02 0.  1.
       -1   -1    0    0    0  501  0.00000000000E+00  0.00000000000E+00 -0.11562399101E+04  0.11562399102E+04  0.50400001928E-02 0. -1.
    10030    2    1    2    0    0  0.00000000000E+00  0.00000000000E+00  0.17766414752E+04  0.40891212955E+04  0.36829957966E+04 0.  0.
        3    1    3    3  502    0 -0.12537901343E+04 -0.83640264339E+03  0.20630872760E+04  0.25549732291E+04  0.10100000352E+00 0.  1.
       -3    1    3    3    0  502  0.12537901343E+04  0.83640264339E+03 -0.28644580079E+03  0.15341480664E+04  0.10100000352E+00 0. -1.
</event>
<event>
 5   0  0.1379425E-06  0.3435340E+04  0.7818609E-02  0.8129287E-01
       -2   -1    0    0    0  501  0.00000000000E+00  0.00000000000E+00  0.19837404088E+04  0.19837404088E+04  0.25500000920E-02 0.  1.
        2   -1    0    0  501    0  0.00000000000E+00  0.00000000000E+00 -0.14872861053E+04  0.14872861053E+04  0.25500000920E-02 0. -1.
    10030    2    1    2    0    0  0.00000000000E+00  0.00000000000E+00  0.49645430341E+03  0.34710265141E+04  0.34353396027E+04 0.  0.
        4    1    3    3  502    0 -0.34004481104E+03  0.14745980949E+04  0.10692680602E+04  0.18529451725E+04  0.12699999809E+01 0.  1.
       -4    1    3    3    0  502  0.34004481104E+03 -0.14745980949E+04 -0.57281375676E+03  0.16180813416E+04  0.12699999809E+01 0. -1.
</event>
<event>
 5   0  0.5071661E-07  0.3626135E+04  0.7818609E-02  0.8084531E-01
        1   -1    0    0  501    0  0.00000000000E+00  0.00000000000E+00  0.20487512423E+04  0.20487512423E+04  0.50400001928E-02 0.  1.
       -1   -1    0    0    0  501  0.00000000000E+00  0.00000000000E+00 -0.16044958887E+04  0.16044958887E+04  0.50400001928E-02 0. -1.
    10030    2    1    2    0    0  0.00000000000E+00  0.00000000000E+00  0.44425535362E+03  0.36532471310E+04  0.36261345509E+04 0.  0.
        1    1    3    3  502    0  0.10703835044E+04  0.92511297167E+03  0.13644742420E+04  0.19655393188E+04  0.50400001928E-02 0.  1.
       -1    1    3    3    0  502 -0.10703835044E+04 -0.92511297167E+03 -0.92021888837E+03  0.16877078122E+04  0.50400001928E-02 0. -1.
</event>
<event>
 5   0  0.5071661E-07  0.3624389E+04  0.7818609E-02  0.8084928E-01
       -1   -1    0    0    0  501  0.00000000000E+00  0.00000000000E+00  0.30345309893E+04  0.30345309893E+04  0.50400001928E-02 0.  1.
        1   -1    0    0  501    0  0.00000000000E+00  0.00000000000E+00 -0.10822259999E+04  0.10822259999E+04  0.50400001928E-02 0. -1.
    10030    2    1    2    0    0  0.00000000000E+00  0.00000000000E+00  0.19523049894E+04  0.41167569893E+04  0.36243886846E+04 0.  0.
        1    1    3    3  502    0  0.81445487059E+03 -0.14267394222E+04  0.10730161507E+03  0.16463401081E+04  0.50400001928E-02 0. -1.
       -1    1    3    3    0  502 -0.81445487059E+03  0.14267394222E+04  0.18450033744E+04  0.24704168811E+04  0.50400001928E-02 0.  1.
</event>
<event>
 5   0  0.1379425E-06  0.3402083E+04  0.7818609E-02  0.8137395E-01
        2   -1    0    0  501    0  0.00000000000E+00  0.00000000000E+00  0.23899397600E+04  0.23899397600E+04  0.25500000920E-02 0. -1.
       -2   -1    0    0    0  501  0.00000000000E+00  0.00000000000E+00 -0.12107177842E+04  0.12107177842E+04  0.25500000920E-02 0.  1.
    10030    2    1    2    0    0  0.00000000000E+00  0.00000000000E+00  0.11792219757E+04  0.36006575442E+04  0.34020832268E+04 0.  0.
        4    1    3    3  502    0 -0.42933665980E+03 -0.28604547039E+03 -0.11259219905E+04  0.12384885628E+04  0.12699999809E+01 0.  1.
       -4    1    3    3    0  502  0.42933665980E+03  0.28604547039E+03  0.23051439662E+04  0.23621689814E+04  0.12699999809E+01 0. -1.
</event>
<event>
 5   0  0.1444091E-06  0.3499557E+04  0.7818609E-02  0.8113895E-01
        2   -1    0    0  501    0  0.00000000000E+00  0.00000000000E+00  0.14541377371E+04  0.14541377371E+04  0.25500000920E-02 0. -1.
       -2   -1    0    0    0  501  0.00000000000E+00  0.00000000000E+00 -0.21055261546E+04  0.21055261546E+04  0.25500000920E-02 0.  1.
    10030    2    1    2    0    0  0.00000000000E+00  0.00000000000E+00 -0.65138841746E+03  0.35596638917E+04  0.34995571365E+04 0.  0.
        1    1    3    3  502    0 -0.28790339923E+03 -0.64044828289E+03 -0.19559263135E+04  0.20781506476E+04  0.50400001928E-02 0.  1.
       -1    1    3    3    0  502  0.28790339923E+03  0.64044828289E+03  0.13045378960E+04  0.14815132441E+04  0.50400001928E-02 0. -1.
</event>
<event>
 5   0  0.1468942E-06  0.2878743E+04  0.7818609E-02  0.8279230E-01
       -2   -1    0    0    0  501  0.00000000000E+00  0.00000000000E+00  0.19433386023E+04  0.19433386023E+04  0.25500000920E-02 0. -1.
        2   -1    0    0  501    0  0.00000000000E+00  0.00000000000E+00 -0.10660987043E+04  0.10660987043E+04  0.25500000920E-02 0.  1.
    10030    2    1    2    0    0  0.00000000000E+00  0.00000000000E+00  0.87723989795E+03  0.30094373066E+04  0.28787433132E+04 0.  0.
        2    1    3    3  502    0  0.88698359559E+03  0.10046714378E+04 -0.11027577496E+03  0.13447175701E+04  0.25500000920E-02 0.  1.
       -2    1    3    3    0  502 -0.88698359559E+03 -0.10046714378E+04  0.98751567291E+03  0.16647197365E+04  0.25500000920E-02 0. -1.
</event>
<event>
 5   0  0.1379425E-06  0.3660956E+04  0.7818609E-02  0.8076670E-01
        2   -1    0    0  501    0  0.00000000000E+00  0.00000000000E+00  0.19753126034E+04  0.19753126034E+04  0.25500000920E-02 0.  1.
       -2   -1    0    0    0  501  0.00000000000E+00  0.00000000000E+00 -0.16962626087E+04  0.16962626087E+04  0.25500000920E-02 0. -1.
    10030    2    1    2    0    0  0.00000000000E+00  0.00000000000E+00  0.27904999467E+03  0.36715752121E+04  0.36609555636E+04 0.  0.
        4    1    3    3  502    0 -0.12072617398E+04 -0.20074447774E+03 -0.12256245115E+04  0.17320324217E+04  0.12699999809E+01 0. -1.
       -4    1    3    3    0  502  0.12072617398E+04  0.20074447774E+03  0.15046745062E+04  0.19395427904E+04  0.12699999809E+01 0.  1.
</event>
<event>
 5   0  0.5071661E-07  0.3544767E+04  0.7818609E-02  0.8103262E-01
        1   -1    0    0  501    0  0.00000000000E+00  0.00000000000E+00  0.24687204226E+04  0.24687204226E+04  0.50400001928E-02 0. -1.
       -1   -1    0    0    0  501  0.00000000000E+00  0.00000000000E+00 -0.12724582890E+04  0.12724582890E+04  0.50400001928E-02 0.  1.
    10030    2    1    2    0    0  0.00000000000E+00  0.00000000000E+00  0.11962621336E+04  0.37411787117E+04  0.35447672787E+04 0.  0.
        1    1    3    3  502    0 -0.91130179541E+03  0.32230059497E+03 -0.96977995716E+03  0.13692413232E+04  0.50400001928E-02 0.  1.
       -1    1    3    3    0  502  0.91130179541E+03 -0.32230059497E+03  0.21660420907E+04  0.23719373885E+04  0.50400001928E-02 0. -1.
</event>
<event>
 5   0  0.4811500E-07  0.3650526E+04  0.7818609E-02  0.8079015E-01
       -1   -1    0    0    0  501  0.00000000000E+00  0.00000000000E+00  0.17034114718E+04  0.17034114718E+04  0.50400001928E-02 0.  1.
        1   -1    0    0  501    0  0.00000000000E+00  0.00000000000E+00 -0.19558314082E+04  0.19558314082E+04  0.50400001928E-02 0. -1.
    10030    2    1    2    0    0  0.00000000000E+00  0.00000000000E+00 -0.25241993638E+03  0.36592428800E+04  0.36505263498E+04 0.  0.
        3    1    3    3  502    0 -0.13133179292E+04 -0.11994491199E+04  0.28477325315E+03  0.18012712151E+04  0.10100000352E+00 0.  1.
       -3    1    3    3    0  502  0.13133179292E+04  0.11994491199E+04 -0.53719318952E+03  0.18579716649E+04  0.10100000352E+00 0. -1.
</event>
<event>
 5   0  0.1468942E-06  0.2932883E+04  0.7818609E-02  0.8263160E-01
       -2   -1    0    0    0  501  0.00000000000E+00  0.00000000000E+00  0.22042603800E+04  0.22042603800E+04  0.25500000920E-02 0. -1.
        2   -1    0    0  501    0  0.00000000000E+00  0.00000000000E+00 -0.97558839802E+03  0.97558839802E+03  0.25500000920E-02 0.  1.
    10030    2    1    2    0    0  0.00000000000E+00  0.00000000000E+00  0.12286719820E+04  0.31798487780E+04  0.29328831227E+04 0.  0.
        2    1    3    3  502    0 -0.23592287142E+03  0.65118853008E+03  0.20157509958E+04  0.21314216336E+04  0.25500000920E-02 0. -1.
       -2    1    3    3    0  502  0.23592287142E+03 -0.65118853008E+03 -0.78707901389E+03  0.10484271444E+04  0.25500000920E-02 0.  1.
</event>
<event>
 5   0  0.4811500E-07  0.3592414E+04  0.7818609E-02  0.8092231E-01
        1   -1    0    0  501    0  0.00000000000E+00  0.00000000000E+00  0.19832059470E+04  0.19832059470E+04  0.50400001928E-02 0.  1.
       -1   -1    0    0    0  501  0.00000000000E+00  0.00000000000E+00 -0.16268408019E+04  0.16268408019E+04  0.50400001928E-02 0. -1.
    10030    2    1    2    0    0  0.00000000000E+00  0.00000000000E+00  0.35636514511E+03  0.36100467489E+04  0.35924144266E+04 0.  0.
        2    1    3    3  502    0 -0.11636721338E+04 -0.31295845475E+03 -0.11603779928E+04  0.16728875980E+04  0.25500000920E-02 0. -1.
       -2    1    3    3    0  502  0.11636721338E+04  0.31295845475E+03  0.15167431380E+04  0.19371591509E+04  0.25500000920E-02 0.  1.
</event>
<event>
 5   0  0.4811500E-07  0.3470825E+04  0.7818609E-02  0.8120739E-01
       -1   -1    0    0    0  501  0.00000000000E+00  0.00000000000E+00  0.10539193428E+04  0.10539193428E+04  0.50400001928E-02 0. -1.
        1   -1    0    0  501    0  0.00000000000E+00  0.00000000000E+00 -0.28575783294E+04  0.28575783294E+04  0.50400001928E-02 0.  1.
    10030    2    1    2    0    0  0.00000000000E+00  0.00000000000E+00 -0.18036589865E+04  0.39114976722E+04  0.34708253053E+04 0.  0.
        2    1    3    3  502    0 -0.12601178406E+03  0.58689756022E+03 -0.27368552372E+04  0.28019108311E+04  0.25500000920E-02 0.  1.
       -2    1    3    3    0  502  0.12601178406E+03 -0.58689756022E+03  0.93319625063E+03  0.11095868412E+04  0.25500000920E-02 0. -1.
</event>
<event>
 5   0  0.4811500E-07  0.3733745E+04  0.7818609E-02  0.8060524E-01
        1   -1    0    0  501    0  0.00000000000E+00  0.00000000000E+00  0.16428692993E+04  0.16428692993E+04  0.50400001928E-02 0.  1.
       -1   -1    0    0    0  501  0.00000000000E+00  0.00000000000E+00 -0.21214186881E+04  0.21214186881E+04  0.50400001928E-02 0. -1.
    10030    2    1    2    0    0  0.00000000000E+00  0.00000000000E+00 -0.47854938876E+03  0.37642879874E+04  0.37337453762E+04 0.  0.
        4    1    3    3  502    0 -0.16123689783E+04  0.71853728169E+03  0.37329947755E+03  0.18042681785E+04  0.12699999809E+01 0.  1.
       -4    1    3    3    0  502  0.16123689783E+04 -0.71853728169E+03 -0.85184886631E+03  0.19600198089E+04  0.12699999809E+01 0. -1.
</event>
<event>
 5   0  0.1468942E-06  0.2469779E+04  0.7818609E-02  0.8413832E-01
        2   -1    0    0  501    0  0.00000000000E+00  0.00000000000E+00  0.13546253968E+04  0.13546253968E+04  0.25500000920E-02 0.  1.
       -2   -1    0    0    0  501  0.00000000000E+00  0.00000000000E+00 -0.11257368818E+04  0.11257368818E+04  0.25500000920E-02 0. -1.
    10030    2    1    2    0    0  0.00000000000E+00  0.00000000000E+00  0.22888851502E+03  0.24803622785E+04  0.24697787513E+04 0.  0.
        2    1    3    3  502    0 -0.19732060632E+03  0.31870212301E+02  0.13382722660E+04  0.13531163254E+04  0.25500000920E-02 0.  1.
       -2    1    3    3    0  502  0.19732060632E+03 -0.31870212301E+02 -0.11093837509E+04  0.11272459532E+04  0.25500000920E-02 0. -1.
</event>
<event>
 5   0  0.5071661E-07  0.3626622E+04  0.7818609E-02  0.8084421E-01
        1   -1    0    0  501    0  0.00000000000E+00  0.00000000000E+00  0.23947826293E+04  0.23947826293E+04  0.50400001928E-02 0. -1.
       -1   -1    0    0    0  501  0.00000000000E+00  0.00000000000E+00 -0.13730254814E+04  0.13730254814E+04  0.50400001928E-02 0.  1.
    10030    2    1    2    0    0  0.00000000000E+00  0.00000000000E+00  0.10217571479E+04  0.37678081108E+04  0.36266224356E+04 0.  0.
        1    1    3    3  502    0  0.78463865401E+03 -0.90343516418E+03 -0.90460241662E+03  0.15000528142E+04  0.50400001928E-02 0.  1.
       -1    1    3    3    0  502 -0.78463865401E+03  0.90343516418E+03  0.19263595645E+04  0.22677552966E+04  0.50400001928E-02 0. -1.
</event>
<event>
 5   0  0.1468942E-06  0.3600117E+04  0.7818609E-02  0.8090465E-01
        2   -1    0    0  501    0  0.00000000000E+00  0.00000000000E+00  0.11071880611E+04  0.11071880611E+04  0.25500000920E-02 0. -1.
       -2   -1    0    0    0  501  0.00000000000E+00  0.00000000000E+00 -0.29265221046E+04  0.29265221046E+04  0.25500000920E-02 0.  1.
    10030    2    1    2    0    0  0.00000000000E+00  0.00000000000E+00 -0.18193340434E+04  0.40337101657E+04  0.36001168508E+04 0.  0.
        2    1    3    3  502    0  0.65000228730E+03 -0.12425839684E+04 -0.21741715198E+04  0.25871876023E+04  0.25500000920E-02 0.  1.
       -2    1    3    3    0  502 -0.65000228730E+03  0.12425839684E+04  0.35483747634E+03  0.14465225634E+04  0.25500000920E-02 0. -1.
</event>
<event>
 5   0  0.1468942E-06  0.2534513E+04  0.7818609E-02  0.8390792E-01
       -2   -1    0    0    0  501  0.00000000000E+00  0.00000000000E+00  0.12164122889E+04  0.12164122889E+04  0.25500000920E-02 0.  1.
        2   -1    0    0  501    0  0.00000000000E+00  0.00000000000E+00 -0.13202255888E+04  0.13202255888E+04  0.25500000920E-02 0. -1.
    10030    2    1    2    0    0  0.00000000000E+00  0.00000000000E+00 -0.10381329989E+03  0.25366378778E+04  0.25345126793E+04 0.  0.
        2    1    3    3  502    0  0.82664120483E+03 -0.38265613947E+03  0.82984128944E+03  0.12322329197E+04  0.25500000920E-02 0.  1.
       -2    1    3    3    0  502 -0.82664120483E+03  0.38265613947E+03 -0.93365458933E+03  0.13044049581E+04  0.25500000920E-02 0. -1.
</event>
<event>
 5   0  0.1468942E-06  0.3190479E+04  0.7818609E-02  0.8191336E-01
       -2   -1    0    0    0  501  0.00000000000E+00  0.00000000000E+00  0.15500016839E+04  0.15500016839E+04  0.25500000920E-02 0.  1.
        2   -1    0    0  501    0  0.00000000000E+00  0.00000000000E+00 -0.16417980614E+04  0.16417980614E+04  0.25500000920E-02 0. -1.
    10030    2    1    2    0    0  0.00000000000E+00  0.00000000000E+00 -0.91796377555E+02  0.31917997453E+04  0.31904794372E+04 0.  0.
        2    1    3    3  502    0 -0.41615751243E+02 -0.28905898460E+03  0.15230310108E+04  0.15507773623E+04  0.25500000920E-02 0.  1.
       -2    1    3    3    0  502  0.41615751243E+02  0.28905898460E+03 -0.16148273884E+04  0.16410223830E+04  0.25500000920E-02 0. -1.
</event>
<event>
 5   0  0.1444091E-06  0.2377812E+04  0.7818609E-02  0.8447858E-01
        2   -1    0    0  501    0  0.00000000000E+00  0.00000000000E+00  0.10479728541E+04  0.10479728541E+04  0.25500000920E-02 0. -1.
       -2   -1    0    0    0  501  0.00000000000E+00  0.00000000000E+00 -0.13487915748E+04  0.13487915748E+04  0.25500000920E-02 0.  1.
    10030    2    1    2    0    0  0.00000000000E+00  0.00000000000E+00 -0.30081872065E+03  0.23967644289E+04  0.23778115621E+04 0.  0.
        1    1    3    3  502    0 -0.59892021529E+03  0.54913134503E+03  0.72440603839E+03  0.10885838355E+04  0.50400001928E-02 0. -1.
       -1    1    3    3    0  502  0.59892021529E+03 -0.54913134503E+03 -0.10252247590E+04  0.13081805934E+04  0.50400001928E-02 0.  1.
</event>
<event>
 5   0  0.4811500E-07  0.3610111E+04  0.7818609E-02  0.8088180E-01
       -1   -1    0    0    0  501  0.00000000000E+00  0.00000000000E+00  0.19302199439E+04  0.19302199440E+04  0.50400001928E-02 0. -1.
        1   -1    0    0  501    0  0.00000000000E+00  0.00000000000E+00 -0.16880071334E+04  0.16880071334E+04  0.50400001928E-02 0.  1.
    10030    2    1    2    0    0  0.00000000000E+00  0.00000000000E+00  0.24221281051E+03  0.36182270774E+04  0.36101108207E+04 0.  0.
        2    1    3    3  502    0  0.32747708441E+03  0.41289569336E+03 -0.16091876560E+04  0.16932834986E+04  0.25500000920E-02 0.  1.
       -2    1    3    3    0  502 -0.32747708441E+03 -0.41289569336E+03  0.18514004665E+04  0.19249435788E+04  0.25500000920E-02 0. -1.
</event>
<event>
 5   0  0.1379425E-06  0.2258539E+04  0.7818609E-02  0.8494450E-01
        2   -1    0    0  501    0  0.00000000000E+00  0.00000000000E+00  0.23394532980E+04  0.23394532980E+04  0.25500000920E-02 0.  1.
       -2   -1    0    0    0  501  0.00000000000E+00  0.00000000000E+00 -0.54510582880E+03  0.54510582881E+03  0.25500000920E-02 0. -1.
    10030    2    1    2    0    0  0.00000000000E+00  0.00000000000E+00  0.17943474691E+04  0.28845591268E+04  0.22585390224E+04 0.  0.
        4    1    3    3  502    0  0.11263307341E+03 -0.50843947322E+03  0.21769373446E+04  0.22383598286E+04  0.12699999809E+01 0.  1.
       -4    1    3    3    0  502 -0.11263307341E+03  0.50843947322E+03 -0.38258987549E+03  0.64619929811E+03  0.12699999809E+01 0. -1.
</event>
<event>
 5   0  0.1491854E-06  0.3210071E+04  0.7818609E-02  0.8186163E-01
       -2   -1    0    0    0  501  0.00000000000E+00  0.00000000000E+00  0.16163009440E+04  0.16163009440E+04  0.25500000920E-02 0. -1.
        2   -1    0    0  501    0  0.00000000000E+00  0.00000000000E+00 -0.15938485484E+04  0.15938485484E+04  0.25500000920E-02 0.  1.
    10030    2    1    2    0    0  0.00000000000E+00  0.00000000000E+00  0.22452395624E+02  0.32101494925E+04  0.32100709733E+04 0.  0.
        5    1    3    3  502    0  0.78995045092E+03 -0.73018303886E+03 -0.11799905137E+04  0.15967431502E+04  0.46999998093E+01 0.  1.
       -5    1    3    3    0  502 -0.78995045092E+03  0.73018303886E+03  0.12024429093E+04  0.16134063423E+04  0.46999998093E+01 0. -1.
</event>
<event>
 5   0  0.4811500E-07  0.3309986E+04  0.7818609E-02  0.8160359E-01
       -1   -1    0    0    0  501  0.00000000000E+00  0.00000000000E+00  0.96761388574E+03  0.96761388575E+03  0.50400001928E-02 0.  1.
        1   -1    0    0  501    0  0.00000000000E+00  0.00000000000E+00 -0.28306772161E+04  0.28306772161E+04  0.50400001928E-02 0. -1.
    10030    2    1    2    0    0  0.00000000000E+00  0.00000000000E+00 -0.18630633304E+04  0.37982911019E+04  0.33099864534E+04 0.  0.
        3    1    3    3  502    0 -0.13442210358E+04 -0.29447779149E+03 -0.19866025676E+04  0.24166582577E+04  0.10100000352E+00 0. -1.
       -3    1    3    3    0  502  0.13442210358E+04  0.29447779149E+03  0.12353923724E+03  0.13816328442E+04  0.10100000352E+00 0.  1.
</event>
<event>
 5   0  0.1491854E-06  0.2354061E+04  0.7818609E-02  0.8456905E-01
       -2   -1    0    0    0  501  0.00000000000E+00  0.00000000000E+00  0.21142522754E+04  0.21142522754E+04  0.25500000920E-02 0.  1.
        2   -1    0    0  501    0  0.00000000000E+00  0.00000000000E+00 -0.65526760512E+03  0.65526760512E+03  0.25500000920E-02 0. -1.
    10030    2    1    2    0    0  0.00000000000E+00  0.00000000000E+00  0.14589846702E+04  0.27695198805E+04  0.23540611930E+04 0.  0.
        5    1    3    3  502    0 -0.11436427123E+04  0.27275210456E+03  0.66434250852E+03  0.13504389740E+04  0.46999998093E+01 0.  1.
       -5    1    3    3    0  502  0.11436427123E+04 -0.27275210456E+03  0.79464216172E+03  0.14190809065E+04  0.46999998093E+01 0. -1.
</event>
<event>
 5   0  0.4811500E-07  0.3513755E+04  0.7818609E-02  0.8110538E-01
       -1   -1    0    0    0  501  0.00000000000E+00  0.00000000000E+00  0.16660597019E+04  0.16660597019E+04  0.50400001928E-02 0. -1.
        1   -1    0    0  501    0  0.00000000000E+00  0.00000000000E+00 -0.18526457101E+04  0.18526457101E+04  0.50400001928E-02 0.  1.
    10030    2    1    2    0    0  0.00000000000E+00  0.00000000000E+00 -0.18658600813E+03  0.35187054120E+04  0.35137548915E+04 0.  0.
        5    1    3    3  502    0  0.12169752741E+04 -0.18916923157E+03 -0.13479678203E+04  0.18258842106E+04  0.46999998093E+01 0. -1.
       -5    1    3    3    0  502 -0.12169752741E+04  0.18916923157E+03  0.11613818122E+04  0.16928212013E+04  0.46999998093E+01 0.  1.
</event>
<event>
 5   0  0.1505671E-06  0.3578353E+04  0.7818609E-02  0.8095468E-01
       -2   -1    0    0    0  501  0.00000000000E+00  0.00000000000E+00  0.20222098109E+04  0.20222098109E+04  0.25500000920E-02 0.  1.
        2   -1    0    0  501    0  0.00000000000E+00  0.00000000000E+00 -0.15829968900E+04  0.15829968900E+04  0.25500000920E-02 0. -1.
    10030    2    1    2    0    0  0.00000000000E+00  0.00000000000E+00  0.43921292085E+03  0.36052067009E+04  0.35783526051E+04 0.  0.
        3    1    3    3  502    0  0.11390985085E+04  0.87041179108E+03 -0.85893637946E+03  0.16712072918E+04  0.10100000352E+00 0. -1.
       -3    1    3    3    0  502 -0.11390985085E+04 -0.87041179108E+03  0.12981493003E+04  0.19339994090E+04  0.10100000352E+00 0.  1.
</event>
<event>
 5   0  0.1468942E-06  0.3679575E+04  0.7818609E-02  0.8072503E-01
        2   -1    0    0  501    0  0.00000000000E+00  0.00000000000E+00  0.28037244851E+04  0.28037244851E+04  0.25500000920E-02 0.  1.
       -2   -1    0    0    0  501  0.00000000000E+00  0.00000000000E+00 -0.12072579316E+04  0.12072579316E+04  0.25500000920E-02 0. -1.
    10030    2    1    2    0    0  0.00000000000E+00  0.00000000000E+00  0.15964665534E+04  0.40109824167E+04  0.36795753139E+04 0.  0.
        2    1    3    3  502    0  0.14917900079E+02 -0.18390334073E+04  0.74316380468E+03  0.19835722466E+04  0.25500000920E-02 0.  1.
       -2    1    3    3    0  502 -0.14917900079E+02  0.18390334073E+04  0.85330274876E+03  0.20274101701E+04  0.25500000920E-02 0. -1.
</event>
<event>
 5   0  0.5071661E-07  0.3377152E+04  0.7818609E-02  0.8143537E-01
       -1   -1    0    0    0  501  0.00000000000E+00  0.00000000000E+00  0.16639475935E+04  0.16639475935E+04  0.50400001928E-02 0. -1.
        1   -1    0    0  501    0  0.00000000000E+00  0.00000000000E+00 -0.17135688495E+04  0.17135688495E+04  0.50400001928E-02 0.  1.
    10030    2    1    2    0    0  0.00000000000E+00  0.00000000000E+00 -0.49621256064E+02  0.33775164430E+04  0.33771519145E+04 0.  0.
        1    1    3    3  502    0 -0.68131031768E+03  0.82134918531E+03 -0.13335734948E+04  0.17079860945E+04  0.50400001928E-02 0.  1.
       -1    1    3    3    0  502  0.68131031768E+03 -0.82134918531E+03  0.12839522387E+04  0.16695303485E+04  0.50400001928E-02 0. -1.
</event>
<event>
 5   0  0.5071661E-07  0.3492831E+04  0.7818609E-02  0.8115491E-01
       -1   -1    0    0    0  501  0.00000000000E+00  0.00000000000E+00  0.16865071206E+04  0.16865071206E+04  0.50400001928E-02 0.  1.
        1   -1    0    0  501    0  0.00000000000E+00  0.00000000000E+00 -0.18084520771E+04  0.18084520771E+04  0.50400001928E-02 0. -1.
    10030    2    1    2    0    0  0.00000000000E+00  0.00000000000E+00 -0.12194495652E+03  0.34949591977E+04  0.34928311183E+04 0.  0.
        1    1    3    3  502    0  0.47146116867E+03 -0.16576731647E+04 -0.34365363070E+03  0.17573428158E+04  0.50400001928E-02 0. -1.
       -1    1    3    3    0  502 -0.47146116867E+03  0.16576731647E+04  0.22170867418E+03  0.17376163819E+04  0.50400001928E-02 0.  1.
</event>
<event>
 5   0  0.1379425E-06  0.3660430E+04  0.7818609E-02  0.8076788E-01
       -2   -1    0    0    0  501  0.00000000000E+00  0.00000000000E+00  0.19812538830E+04  0.19812538830E+04  0.25500000920E-02 0. -1.
        2   -1    0    0  501    0  0.00000000000E+00  0.00000000000E+00 -0.16906905550E+04  0.16906905550E+04  0.25500000920E-02 0.  1.
    10030    2    1    2    0    0  0.00000000000E+00  0.00000000000E+00  0.29056332795E+03  0.36719444380E+04  0.36604301535E+04 0.  0.
        4    1    3    3  502    0 -0.52361235382E+03  0.61110954065E+03  0.17942470489E+04  0.19664559118E+04  0.12699999809E+01 0. -1.
       -4    1    3    3    0  502  0.52361235382E+03 -0.61110954065E+03 -0.15036837209E+04  0.17054885263E+04  0.12699999809E+01 0.  1.
</event>
<event>
 5   0  0.1379425E-06  0.3567846E+04  0.7818609E-02  0.8097897E-01
       -2   -1    0    0    0  501  0.00000000000E+00  0.00000000000E+00  0.14617600840E+04  0.14617600840E+04  0.25500000920E-02 0.  1.
        2   -1    0    0  501    0  0.00000000000E+00  0.00000000000E+00 -0.21770882358E+04  0.21770882358E+04  0.25500000920E-02 0. -1.
    10030    2    1    2    0    0  0.00000000000E+00  0.00000000000E+00 -0.71532815185E+03  0.36388483198E+04  0.35678456706E+04 0.  0.
        4    1    3    3  502    0 -0.44087748101E+03  0.93910908561E+03  0.11224505475E+04  0.15284618649E+04  0.12699999809E+01 0.  1.
       -4    1    3    3    0  502  0.44087748101E+03 -0.93910908561E+03 -0.18377786994E+04  0.21103864548E+04  0.12699999809E+01 0. -1.
</event>
<event>
 5   0  0.1444091E-06  0.3552068E+04  0.7818609E-02  0.8101560E-01
        2   -1    0    0  501    0  0.00000000000E+00  0.00000000000E+00  0.31661038177E+04  0.31661038177E+04  0.25500000920E-02 0. -1.
       -2   -1    0    0    0  501  0.00000000000E+00  0.00000000000E+00 -0.99627098554E+03  0.99627098554E+03  0.25500000920E-02 0.  1.
    10030    2    1    2    0    0  0.00000000000E+00  0.00000000000E+00  0.21698328322E+04  0.41623748032E+04  0.35520683387E+04 0.  0.
        1    1    3    3  502    0 -0.11148733228E+04 -0.84672078399E+03 -0.19575636426E+03  0.14135767281E+04  0.50400001928E-02 0.  1.
       -1    1    3    3    0  502  0.11148733228E+04  0.84672078399E+03  0.23655891964E+04  0.27487980752E+04  0.50400001928E-02 0. -1.
</event>
<event>
 5   0  0.1491854E-06  0.2509044E+04  0.7818609E-02  0.8399771E-01
       -2   -1    0    0    0  501  0.00000000000E+00  0.00000000000E+00  0.11501926621E+04  0.11501926621E+04  0.25500000920E-02 0. -1.
        2   -1    0    0  501    0  0.00000000000E+00  0.00000000000E+00 -0.13683150191E+04  0.13683150191E+04  0.25500000920E-02 0.  1.
    10030    2    1    2    0    0  0.00000000000E+00  0.00000000000E+00 -0.21812235699E+03  0.25185076811E+04  0.25090443554E+04 0.  0.
        5    1    3    3  502    0 -0.10685892733E+03  0.35858782719E+03  0.10928688626E+04  0.11551573490E+04  0.46999998093E+01 0. -1.
       -5    1    3    3    0  502  0.10685892733E+03 -0.35858782719E+03 -0.13109912196E+04  0.13633503321E+04  0.46999998093E+01 0.  1.
</event>
<event>
 5   0  0.4811500E-07  0.3594510E+04  0.7818609E-02  0.8091750E-01
       -1   -1    0    0    0  501  0.00000000000E+00  0.00000000000E+00  0.15265818439E+04  0.15265818439E+04  0.50400001928E-02 0.  1.
        1   -1    0    0  501    0  0.00000000000E+00  0.00000000000E+00 -0.21159201182E+04  0.21159201182E+04  0.50400001928E-02 0. -1.
    10030    2    1    2    0    0  0.00000000000E+00  0.00000000000E+00 -0.58933827439E+03  0.36425019621E+04  0.35945098334E+04 0.  0.
        3    1    3    3  502    0  0.50166822937E+03  0.93811925262E+02  0.14516073654E+04  0.15387123328E+04  0.10100000352E+00 0.  1.
       -3    1    3    3    0  502 -0.50166822937E+03 -0.93811925262E+02 -0.20409456398E+04  0.21037896293E+04  0.10100000352E+00 0. -1.
</event>
<event>
 5   0  0.5071661E-07  0.3581791E+04  0.7818609E-02  0.8094676E-01
        1   -1    0    0  501    0  0.00000000000E+00  0.00000000000E+00  0.22951956048E+04  0.22951956048E+04  0.50400001928E-02 0. -1.
       -1   -1    0    0    0  501  0.00000000000E+00  0.00000000000E+00 -0.13973998437E+04  0.13973998437E+04  0.50400001928E-02 0.  1.
    10030    2    1    2    0    0  0.00000000000E+00  0.00000000000E+00  0.89779576108E+03  0.36925954485E+04  0.35817906022E+04 0.  0.
        1    1    3    3  502    0 -0.76672479637E+03  0.80924401942E+03 -0.99609110892E+03  0.14949716698E+04  0.50400001928E-02 0.  1.
       -1    1    3    3    0  502  0.76672479637E+03 -0.80924401942E+03  0.18938868700E+04  0.21976237787E+04  0.50400001928E-02 0. -1.
</event>
<event>
 5   0  0.1468942E-06  0.3597656E+04  0.7818609E-02  0.8091029E-01
       -2   -1    0    0    0  501  0.00000000000E+00  0.00000000000E+00  0.15185720716E+04  0.15185720716E+04  0.25500000920E-02 0. -1.
        2   -1    0    0  501    0  0.00000000000E+00  0.00000000000E+00 -0.21308056394E+04  0.21308056394E+04  0.25500000920E-02 0.  1.
    10030    2    1    2    0    0  0.00000000000E+00  0.00000000000E+00 -0.61223356783E+03  0.36493777110E+04  0.35976558668E+04 0.  0.
        2    1    3    3  502    0 -0.13449584357E+04 -0.62820627717E+03  0.72447461187E+03  0.16517928997E+04  0.25500000920E-02 0. -1.
       -2    1    3    3    0  502  0.13449584357E+04  0.62820627717E+03 -0.13367081797E+04  0.19975848112E+04  0.25500000920E-02 0.  1.
</event>
<event>
 5   0  0.4811500E-07  0.3310179E+04  0.7818609E-02  0.8160310E-01
       -1   -1    0    0    0  501  0.00000000000E+00  0.00000000000E+00  0.17359540366E+04  0.17359540366E+04  0.50400001928E-02 0. -1.
        1   -1    0    0  501    0  0.00000000000E+00  0.00000000000E+00 -0.15779914587E+04  0.15779914587E+04  0.50400001928E-02 0.  1.
    10030    2    1    2    0    0  0.00000000000E+00  0.00000000000E+00  0.15796257789E+03  0.33139454954E+04  0.33101786312E+04 0.  0.
        5    1    3    3  502    0 -0.10673894388E+04 -0.15989263895E+03 -0.11772026034E+04  0.15970954666E+04  0.46999998093E+01 0.  1.
       -5    1    3    3    0  502  0.10673894388E+04  0.15989263895E+03  0.13351651813E+04  0.17168500288E+04  0.46999998093E+01 0. -1.
</event>
<event>
 5   0  0.5071661E-07  0.3668823E+04  0.7818609E-02  0.8074906E-01
        1   -1    0    0  501    0  0.00000000000E+00  0.00000000000E+00  0.16391530311E+04  0.16391530312E+04  0.50400001928E-02 0. -1.
       -1   -1    0    0    0  501  0.00000000000E+00  0.00000000000E+00 -0.20529291935E+04  0.20529291935E+04  0.50400001928E-02 0.  1.
    10030    2    1    2    0    0  0.00000000000E+00  0.00000000000E+00 -0.41377616232E+03  0.36920822246E+04  0.36688227595E+04 0.  0.
        1    1    3    3  502    0 -0.25259975903E+03 -0.49076211645E+03 -0.19673819270E+04  0.20433418069E+04  0.50400001928E-02 0.  1.
       -1    1    3    3    0  502  0.25259975903E+03  0.49076211645E+03  0.15536057646E+04  0.16487404178E+04  0.50400001928E-02 0. -1.
</event>
<event>
 5   0  0.4811500E-07  0.3579833E+04  0.7818609E-02  0.8095127E-01
        1   -1    0    0  501    0  0.00000000000E+00  0.00000000000E+00  0.19858580791E+04  0.19858580791E+04  0.50400001928E-02 0. -1.
       -1   -1    0    0    0  501  0.00000000000E+00  0.00000000000E+00 -0.16133084971E+04  0.16133084971E+04  0.50400001928E-02 0.  1.
    10030    2    1    2    0    0  0.00000000000E+00  0.00000000000E+00  0.37254958200E+03  0.35991665763E+04  0.35798333554E+04 0.  0.
        2    1    3    3  502    0 -0.80133676605E+03 -0.53890555960E+03 -0.13289282468E+04  0.16427446850E+04  0.25500000920E-02 0.  1.
       -2    1    3    3    0  502  0.80133676605E+03  0.53890555960E+03  0.17014778288E+04  0.19564218913E+04  0.25500000920E-02 0. -1.
</event>
<event>
 5   0  0.1468942E-06  0.3659575E+04  0.7818609E-02  0.8076980E-01
        2   -1    0    0  501    0  0.00000000000E+00  0.00000000000E+00  0.19010850178E+04  0.19010850178E+04  0.25500000920E-02 0.  1.
       -2   -1    0    0    0  501  0.00000000000E+00  0.00000000000E+00 -0.17611637659E+04  0.17611637659E+04  0.25500000920E-02 0. -1.
    10030    2    1    2    0    0  0.00000000000E+00  0.00000000000E+00  0.13992125192E+03  0.36622487836E+04  0.36595748655E+04 0.  0.
        2    1    3    3  502    0  0.33122145377E+03  0.17975971627E+04 -0.14117655447E+02  0.18279120654E+04  0.25500000920E-02 0. -1.
       -2    1    3    3    0  502 -0.33122145377E+03 -0.17975971627E+04  0.15403890737E+03  0.18343367182E+04  0.25500000920E-02 0.  1.
</event>
<event>
 5   0  0.1505671E-06  0.3031136E+04  0.7818609E-02  0.8234895E-01
       -2   -1    0    0    0  501  0.00000000000E+00  0.00000000000E+00  0.10218659097E+04  0.10218659097E+04  0.25500000920E-02 0.  1.
        2   -1    0    0  501    0  0.00000000000E+00  0.00000000000E+00 -0.22477963564E+04  0.22477963565E+04  0.25500000920E-02 0. -1.
    10030    2    1    2    0    0  0.00000000000E+00  0.00000000000E+00 -0.12259304468E+04  0.32696622661E+04  0.30311360699E+04 0.  0.
        3    1    3    3  502    0  0.10350535816E+03 -0.75382441660E+03  0.80089588432E+03  0.11047166324E+04  0.10100000352E+00 0.  1.
       -3    1    3    3    0  502 -0.10350535816E+03  0.75382441660E+03 -0.20268263311E+04  0.21649456337E+04  0.10100000352E+00 0. -1.
</event>
<event>
 5   0  0.4811500E-07  0.3539212E+04  0.7818609E-02  0.8104560E-01
       -1   -1    0    0    0  501  0.00000000000E+00  0.00000000000E+00  0.27253245353E+04  0.27253245353E+04  0.50400001928E-02 0.  1.
        1   -1    0    0  501    0  0.00000000000E+00  0.00000000000E+00 -0.11490396147E+04  0.11490396147E+04  0.50400001928E-02 0. -1.
    10030    2    1    2    0    0  0.00000000000E+00  0.00000000000E+00  0.15762849206E+04  0.38743641500E+04  0.35392122592E+04 0.  0.
        5    1    3    3  502    0  0.58891974620E+02 -0.14447689831E+02 -0.11478951287E+04  0.11495052488E+04  0.46999998093E+01 0. -1.
       -5    1    3    3    0  502 -0.58891974620E+02  0.14447689831E+02  0.27241800494E+04  0.27248589013E+04  0.46999998093E+01 0.  1.
</event>
<event>
 5   0  0.5071661E-07  0.3774908E+04  0.7818609E-02  0.8051561E-01
       -1   -1    0    0    0  501  0.00000000000E+00  0.00000000000E+00  0.13915981430E+04  0.13915981430E+04  0.50400001928E-02 0.  1.
        1   -1    0    0  501    0  0.00000000000E+00  0.00000000000E+00 -0.25599936820E+04  0.25599936820E+04  0.50400001928E-02 0. -1.
    10030    2    1    2    0    0  0.00000000000E+00  0.00000000000E+00 -0.11683955390E+04  0.39515918250E+04  0.37749079215E+04 0.  0.
        1    1    3    3  502    0 -0.29084025911E+03 -0.16502849094E+04 -0.14934453029E+04  0.22446396618E+04  0.50400001928E-02 0. -1.
       -1    1    3    3    0  502  0.29084025911E+03  0.16502849094E+04  0.32504976388E+03  0.17069521632E+04  0.50400001928E-02 0.  1.
</event>
<event>
 5   0  0.4811500E-07  0.3510700E+04  0.7818609E-02  0.8111259E-01
        1   -1    0    0  501    0  0.00000000000E+00  0.00000000000E+00  0.23375504659E+04  0.23375504659E+04  0.50400001928E-02 0.  1.
       -1   -1    0    0    0  501  0.00000000000E+00  0.00000000000E+00 -0.13181550735E+04  0.13181550735E+04  0.50400001928E-02 0. -1.
    10030    2    1    2    0    0  0.00000000000E+00  0.00000000000E+00  0.10193953923E+04  0.36557055394E+04  0.35107002186E+04 0.  0.
        3    1    3    3  502    0 -0.29888261337E+03  0.93637104337E+02 -0.12888227936E+04  0.13263343951E+04  0.10100000352E+00 0. -1.
       -3    1    3    3    0  502  0.29888261337E+03 -0.93637104337E+02  0.23082181860E+04  0.23293711444E+04  0.10100000352E+00 0.  1.
</event>
<event>
 5   0  0.1491854E-06  0.3405749E+04  0.7818609E-02  0.8136497E-01
       -2   -1    0    0    0  501  0.00000000000E+00  0.00000000000E+00  0.20402588298E+04  0.20402588298E+04  0.25500000920E-02 0.  1.
        2   -1    0    0  501    0  0.00000000000E+00  0.00000000000E+00 -0.14212815213E+04  0.14212815213E+04  0.25500000920E-02 0. -1.
    10030    2    1    2    0    0  0.00000000000E+00  0.00000000000E+00  0.61897730849E+03  0.34615403511E+04  0.34057493587E+04 0.  0.
        5    1    3    3  502    0 -0.15836978517E+03  0.15540877183E+04  0.99845017017E+03  0.18539672212E+04  0.46999998093E+01 0.  1.
       -5    1    3    3    0  502  0.15836978517E+03 -0.15540877183E+04 -0.37947286168E+03  0.16075731299E+04  0.46999998093E+01 0. -1.
</event>
<event>
 5   0  0.4811500E-07  0.2243875E+04  0.7818609E-02  0.8500385E-01
       -1   -1    0    0    0  501  0.00000000000E+00  0.00000000000E+00  0.69098393524E+03  0.69098393526E+03  0.50400001928E-02 0.  1.
        1   -1    0    0  501    0  0.00000000000E+00  0.00000000000E+00 -0.18216680244E+04  0.18216680244E+04  0.50400001928E-02 0. -1.
    10030    2    1    2    0    0  0.00000000000E+00  0.00000000000E+00 -0.11306840891E+04  0.25126519596E+04  0.22438746313E+04 0.  0.
        5    1    3    3  502    0  0.79242566120E+03 -0.79199197455E+03 -0.49879704297E+03  0.12263809752E+04  0.46999998093E+01 0.  1.
       -5    1    3    3    0  502 -0.79242566120E+03  0.79199197455E+03 -0.63188704615E+03  0.12862709844E+04  0.46999998093E+01 0. -1.
</event>
<event>
 5   0  0.1468942E-06  0.3582929E+04  0.7818609E-02  0.8094413E-01
       -2   -1    0    0    0  501  0.00000000000E+00  0.00000000000E+00  0.10381153078E+04  0.10381153078E+04  0.25500000920E-02 0.  1.
        2   -1    0    0  501    0  0.00000000000E+00  0.00000000000E+00 -0.30915108898E+04  0.30915108898E+04  0.25500000920E-02 0. -1.
    10030    2    1    2    0    0  0.00000000000E+00  0.00000000000E+00 -0.20533955820E+04  0.41296261976E+04  0.35829288461E+04 0.  0.
        2    1    3    3  502    0 -0.76502975814E+03 -0.34909394234E+02 -0.28933342664E+04  0.29929704933E+04  0.25500000920E-02 0. -1.
       -2    1    3    3    0  502  0.76502975814E+03  0.34909394234E+02  0.83993868439E+03  0.11366557043E+04  0.25500000920E-02 0.  1.
</event>
<event>
 5   0  0.1468942E-06  0.3712208E+04  0.7818609E-02  0.8065262E-01
       -2   -1    0    0    0  501  0.00000000000E+00  0.00000000000E+00  0.18751677201E+04  0.18751677201E+04  0.25500000920E-02 0.  1.
        2   -1    0    0  501    0  0.00000000000E+00  0.00000000000E+00 -0.18372339369E+04  0.18372339369E+04  0.25500000920E-02 0. -1.
    10030    2    1    2    0    0  0.00000000000E+00  0.00000000000E+00  0.37933783179E+02  0.37124016570E+04  0.37122078459E+04 0.  0.
        2    1    3    3  502    0  0.10836109362E+04  0.14108278119E+04 -0.51065871618E+03  0.18507890480E+04  0.25500000920E-02 0. -1.
       -2    1    3    3    0  502 -0.10836109362E+04 -0.14108278119E+04  0.54859249936E+03  0.18616126090E+04  0.25500000920E-02 0.  1.
</event>
<event>
 5   0  0.1491854E-06  0.3661349E+04  0.7818609E-02  0.8076582E-01
       -2   -1    0    0    0  501  0.00000000000E+00  0.00000000000E+00  0.20558002149E+04  0.20558002149E+04  0.25500000920E-02 0. -1.
        2   -1    0    0  501    0  0.00000000000E+00  0.00000000000E+00 -0.16302020092E+04  0.16302020092E+04  0.25500000920E-02 0.  1.
    10030    2    1    2    0    0  0.00000000000E+00  0.00000000000E+00  0.42559820572E+03  0.36860022241E+04  0.36613492818E+04 0.  0.
        5    1    3    3  502    0 -0.66551984509E+03 -0.38598368533E+03 -0.14595444417E+04  0.16499067055E+04  0.46999998093E+01 0.  1.
       -5    1    3    3    0  502  0.66551984509E+03  0.38598368533E+03  0.18851426475E+04  0.20360955186E+04  0.46999998093E+01 0. -1.
</event>
<event>
 5   0  0.1379425E-06  0.2958223E+04  0.7818609E-02  0.8255762E-01
       -2   -1    0    0    0  501  0.00000000000E+00  0.00000000000E+00  0.81001002352E+03  0.81001002352E+03  0.25500000920E-02 0. -1.
        2   -1    0    0  501    0  0.00000000000E+00  0.00000000000E+00 -0.27009189221E+04  0.27009189221E+04  0.25500000920E-02 0.  1.
    10030    2    1    2    0    0  0.00000000000E+00  0.00000000000E+00 -0.18909088986E+04  0.35109289456E+04  0.29582233855E+04 0.  0.
        4    1    3    3  502    0 -0.21247752400E+02  0.10820622506E+04  0.25111011289E+03  0.11110211892E+04  0.12699999809E+01 0. -1.
       -4    1    3    3    0  502  0.21247752400E+02 -0.10820622506E+04 -0.21420190114E+04  0.23999077564E+04  0.12699999809E+01 0.  1.
</event>
<event>
 5   0  0.1468942E-06  0.3509151E+04  0.7818609E-02  0.8111625E-01
       -2   -1    0    0    0  501  0.00000000000E+00  0.00000000000E+00  0.25731432696E+04  0.25731432696E+04  0.25500000920E-02 0. -1.
        2   -1    0    0  501    0  0.00000000000E+00  0.00000000000E+00 -0.11964105409E+04  0.11964105409E+04  0.25500000920E-02 0.  1.
    10030    2    1    2    0    0  0.00000000000E+00  0.00000000000E+00  0.13767327286E+04  0.37695538105E+04  0.35091513111E+04 0.  0.
        2    1    3    3  502    0 -0.10682735184E+04 -0.46273770303E+03 -0.72175291850E+03  0.13697670485E+04  0.25500000920E-02 0.  1.
       -2    1    3    3    0  502  0.10682735184E+04  0.46273770303E+03  0.20984856471E+04  0.23997867620E+04  0.25500000920E-02 0. -1.
</event>
<event>
 5   0  0.1444091E-06  0.3553694E+04  0.7818609E-02  0.8101182E-01
        2   -1    0    0  501    0  0.00000000000E+00  0.00000000000E+00  0.16730373092E+04  0.16730373092E+04  0.25500000920E-02 0. -1.
       -2   -1    0    0    0  501  0.00000000000E+00  0.00000000000E+00 -0.18870981831E+04  0.18870981831E+04  0.25500000920E-02 0.  1.
    10030    2    1    2    0    0  0.00000000000E+00  0.00000000000E+00 -0.21406087392E+03  0.35601354923E+04  0.35536942279E+04 0.  0.
        1    1    3    3  502    0 -0.14868371780E+04 -0.94449283075E+03  0.12670375781E+03  0.17660139704E+04  0.50400001928E-02 0. -1.
       -1    1    3    3    0  502  0.14868371780E+04  0.94449283075E+03 -0.34076463172E+03  0.17941215219E+04  0.50400001928E-02 0.  1.
</event>
<event>
 5   0  0.4811500E-07  0.3491412E+04  0.7818609E-02  0.8115828E-01
        1   -1    0    0  501    0  0.00000000000E+00  0.00000000000E+00  0.27868921619E+04  0.27868921619E+04  0.50400001928E-02 0. -1.
       -1   -1    0    0    0  501  0.00000000000E+00  0.00000000000E+00 -0.10935085038E+04  0.10935085038E+04  0.50400001928E-02 0.  1.
    10030    2    1    2    0    0  0.00000000000E+00  0.00000000000E+00  0.16933836581E+04  0.38804006657E+04  0.34914124810E+04 0.  0.
        4    1    3    3  502    0 -0.74184231761E+03  0.64060928493E+03  0.24522039001E+04  0.26408362048E+04  0.12699999809E+01 0. -1.
       -4    1    3    3    0  502  0.74184231761E+03 -0.64060928493E+03 -0.75882024198E+03  0.12395644609E+04  0.12699999809E+01 0.  1.
</event>
<event>
 5   0  0.4811500E-07  0.3554866E+04  0.7818609E-02  0.8100909E-01
       -1   -1    0    0    0  501  0.00000000000E+00  0.00000000000E+00  0.20185365309E+04  0.20185365309E+04  0.50400001928E-02 0. -1.
        1   -1    0    0  501    0  0.00000000000E+00  0.00000000000E+00 -0.15651283074E+04  0.15651283074E+04  0.50400001928E-02 0.  1.
    10030    2    1    2    0    0  0.00000000000E+00  0.00000000000E+00  0.45340822349E+03  0.35836648383E+04  0.35548663345E+04 0.  0.
        4    1    3    3  502    0 -0.10322638614E+04  0.11178436124E+04 -0.69950114553E+03  0.16746481681E+04  0.12699999809E+01 0.  1.
       -4    1    3    3    0  502  0.10322638614E+04 -0.11178436124E+04  0.11529093690E+04  0.19090166703E+04  0.12699999809E+01 0. -1.
</event>
<event>
 5   0  0.4811500E-07  0.3440190E+04  0.7818609E-02  0.8128112E-01
        1   -1    0    0  501    0  0.00000000000E+00  0.00000000000E+00  0.20827780380E+04  0.20827780380E+04  0.50400001928E-02 0. -1.
       -1   -1    0    0    0  501  0.00000000000E+00  0.00000000000E+00 -0.14205671048E+04  0.14205671048E+04  0.50400001928E-02 0.  1.
    10030    2    1    2    0    0  0.00000000000E+00  0.00000000000E+00  0.66221093323E+03  0.35033451428E+04  0.34401895107E+04 0.  0.
        4    1    3    3  502    0 -0.36266209008E+02  0.14887763942E+04  0.12076947784E+04  0.19173676436E+04  0.12699999809E+01 0. -1.
       -4    1    3    3    0  502  0.36266209008E+02 -0.14887763942E+04 -0.54548384515E+03  0.15859774993E+04  0.12699999809E+01 0.  1.
</event>
<event>
 5   0  0.1379425E-06  0.3587310E+04  0.7818609E-02  0.8093405E-01
       -2   -1    0    0    0  501  0.00000000000E+00  0.00000000000E+00  0.15413541555E+04  0.15413541555E+04  0.25500000920E-02 0. -1.
        2   -1    0    0  501    0  0.00000000000E+00  0.00000000000E+00 -0.20872538432E+04  0.20872538432E+04  0.25500000920E-02 0.  1.
    10030    2    1    2    0    0  0.00000000000E+00  0.00000000000E+00 -0.54589968765E+03  0.36286079987E+04  0.35873095126E+04 0.  0.
        4    1    3    3  502    0  0.13090076354E+04  0.34357365429E+03  0.91773898583E+03  0.16351728668E+04  0.12699999809E+01 0. -1.
       -4    1    3    3    0  502 -0.13090076354E+04 -0.34357365429E+03 -0.14636386735E+04  0.19934351318E+04  0.12699999809E+01 0.  1.
</event>
<event>
 5   0  0.4811500E-07  0.3592249E+04  0.7818609E-02  0.8092269E-01
        1   -1    0    0  501    0  0.00000000000E+00  0.00000000000E+00  0.12382820277E+04  0.12382820277E+04  0.50400001928E-02 0. -1.
       -1   -1    0    0    0  501  0.00000000000E+00  0.00000000000E+00 -0.26052740714E+04  0.26052740714E+04  0.50400001928E-02 0.  1.
    10030    2    1    2    0    0  0.00000000000E+00  0.00000000000E+00 -0.13669920437E+04  0.38435560992E+04  0.35922494679E+04 0.  0.
        5    1    3    3  502    0 -0.99054551948E+03  0.43543104982E+03 -0.22174073761E+04  0.24673261209E+04  0.46999998093E+01 0.  1.
       -5    1    3    3    0  502  0.99054551948E+03 -0.43543104982E+03  0.85041533245E+03  0.13762299782E+04  0.46999998093E+01 0. -1.
</event>
<event>
 5   0  0.4811500E-07  0.2306674E+04  0.7818609E-02  0.8475294E-01
       -1   -1    0    0    0  501  0.00000000000E+00  0.00000000000E+00  0.15543898083E+04  0.15543898084E+04  0.50400001928E-02 0.  1.
        1   -1    0    0  501    0  0.00000000000E+00  0.00000000000E+00 -0.85576075609E+03  0.85576075611E+03  0.50400001928E-02 0. -1.
    10030    2    1    2    0    0  0.00000000000E+00  0.00000000000E+00  0.69862905225E+03  0.24101505645E+04  0.23066736203E+04 0.  0.
        2    1    3    3  502    0 -0.10186197445E+04 -0.41437610781E+03 -0.13978369746E+02  0.10997677652E+04  0.25500000920E-02 0.  1.
       -2    1    3    3    0  502  0.10186197445E+04  0.41437610781E+03  0.71260742200E+03  0.13103827992E+04  0.25500000920E-02 0. -1.
</event>
<event>
 5   0  0.4811500E-07  0.3349215E+04  0.7818609E-02  0.8150484E-01
        1   -1    0    0  501    0  0.00000000000E+00  0.00000000000E+00  0.14273779758E+04  0.14273779758E+04  0.50400001928E-02 0. -1.
       -1   -1    0    0    0  501  0.00000000000E+00  0.00000000000E+00 -0.19646580534E+04  0.19646580534E+04  0.50400001928E-02 0.  1.
    10030    2    1    2    0    0  0.00000000000E+00  0.00000000000E+00 -0.53728007767E+03  0.33920360292E+04  0.33492146156E+04 0.  0.
        4    1    3    3  502    0 -0.16303447417E+04 -0.29654380543E+03 -0.51327715123E+03  0.17347672041E+04  0.12699999809E+01 0.  1.
       -4    1    3    3    0  502  0.16303447417E+04  0.29654380543E+03 -0.24002926432E+02  0.16572688251E+04  0.12699999809E+01 0. -1.
</event>
<event>
 5   0  0.4811500E-07  0.2858208E+04  0.7818609E-02  0.8285422E-01
       -1   -1    0    0    0  501  0.00000000000E+00  0.00000000000E+00  0.12191000368E+04  0.12191000368E+04  0.50400001928E-02 0. -1.
        1   -1    0    0  501    0  0.00000000000E+00  0.00000000000E+00 -0.16752832015E+04  0.16752832015E+04  0.50400001928E-02 0.  1.
    10030    2    1    2    0    0  0.00000000000E+00  0.00000000000E+00 -0.45618316467E+03  0.28943832383E+04  0.28582076990E+04 0.  0.
        4    1    3    3  502    0  0.36228743211E+03 -0.10696373756E+04 -0.11149383326E+04  0.15869673585E+04  0.12699999809E+01 0.  1.
       -4    1    3    3    0  502 -0.36228743211E+03  0.10696373756E+04  0.65875516788E+03  0.13074158798E+04  0.12699999809E+01 0. -1.
</event>
<event>
 5   0  0.1505671E-06  0.2277317E+04  0.7818609E-02  0.8486919E-01
        2   -1    0    0  501    0  0.00000000000E+00  0.00000000000E+00  0.13648472841E+04  0.13648472841E+04  0.25500000920E-02 0.  1.
       -2   -1    0    0    0  501  0.00000000000E+00  0.00000000000E+00 -0.94995481093E+03  0.94995481094E+03  0.25500000920E-02 0. -1.
    10030    2    1    2    0    0  0.00000000000E+00  0.00000000000E+00  0.41489247318E+03  0.23148020951E+04  0.22773170563E+04 0.  0.
        3    1    3    3  502    0 -0.10506055682E+04  0.34508754034E+03  0.48336558817E+03  0.12068553237E+04  0.10100000352E+00 0. -1.
       -3    1    3    3    0  502  0.10506055682E+04 -0.34508754034E+03 -0.68473114987E+02  0.11079467713E+04  0.10100000352E+00 0.  1.
</event>
<event>
 5   0  0.4811500E-07  0.3582791E+04  0.7818609E-02  0.8094445E-01
       -1   -1    0    0    0  501  0.00000000000E+00  0.00000000000E+00  0.17794815827E+04  0.17794815827E+04  0.50400001928E-02 0.  1.
        1   -1    0    0  501    0  0.00000000000E+00  0.00000000000E+00 -0.18033894215E+04  0.18033894215E+04  0.50400001928E-02 0. -1.
    10030    2    1    2    0    0  0.00000000000E+00  0.00000000000E+00 -0.23907838716E+02  0.35828710042E+04  0.35827912370E+04 0.  0.
        2    1    3    3  502    0 -0.15475460721E+04  0.21026539007E+03  0.86555515115E+03  0.17855800456E+04  0.25500000920E-02 0.  1.
       -2    1    3    3    0  502  0.15475460721E+04 -0.21026539007E+03 -0.88946298986E+03  0.17972909586E+04  0.25500000920E-02 0. -1.
</event>
<event>
 5   0  0.1505671E-06  0.3625468E+04  0.7818609E-02  0.8084683E-01
       -2   -1    0    0    0  501  0.00000000000E+00  0.00000000000E+00  0.17979378731E+04  0.17979378731E+04  0.25500000920E-02 0. -1.
        2   -1    0    0  501    0  0.00000000000E+00  0.00000000000E+00 -0.18276521633E+04  0.18276521633E+04  0.25500000920E-02 0.  1.
    10030    2    1    2    0    0  0.00000000000E+00  0.00000000000E+00 -0.29714290132E+02  0.36255900364E+04  0.36254682695E+04 0.  0.
        3    1    3    3  502    0  0.15710432925E+04 -0.64827432893E+03  0.61569428574E+03  0.18076272006E+04  0.10100000352E+00 0. -1.
       -3    1    3    3    0  502 -0.15710432925E+04  0.64827432893E+03 -0.64540857587E+03  0.18179628359E+04  0.10100000352E+00 0.  1.
</event>
<event>
 5   0  0.4811500E-07  0.3556079E+04  0.7818609E-02  0.8100627E-01
       -1   -1    0    0    0  501  0.00000000000E+00  0.00000000000E+00  0.25363235050E+04  0.25363235050E+04  0.50400001928E-02 0.  1.
        1   -1    0    0  501    0  0.00000000000E+00  0.00000000000E+00 -0.12464596711E+04  0.12464596711E+04  0.50400001928E-02 0. -1.
    10030    2    1    2    0    0  0.00000000000E+00  0.00000000000E+00  0.12898638339E+04  0.37827831761E+04  0.35560792803E+04 0.  0.
        5    1    3    3  502    0 -0.10126353111E+04 -0.71117276261E+02 -0.90789507104E+03  0.13619043616E+04  0.46999998093E+01 0. -1.
       -5    1    3    3    0  502  0.10126353111E+04  0.71117276261E+02  0.21977589049E+04  0.24208788145E+04  0.46999998093E+01 0.  1.
</event>
<event>
 5   0  0.1505671E-06  0.3569737E+04  0.7818609E-02  0.8097459E-01
       -2   -1    0    0    0  501  0.00000000000E+00  0.00000000000E+00  0.14538079386E+04  0.14538079386E+04  0.25500000920E-02 0. -1.
        2   -1    0    0  501    0  0.00000000000E+00  0.00000000000E+00 -0.21913178291E+04  0.21913178291E+04  0.25500000920E-02 0.  1.
    10030    2    1    2    0    0  0.00000000000E+00  0.00000000000E+00 -0.73750989048E+03  0.36451257676E+04  0.35697368283E+04 0.  0.
        3    1    3    3  502    0  0.45804058832E+02 -0.12125911442E+04  0.96781128467E+03  0.15521385208E+04  0.10100000352E+00 0. -1.
       -3    1    3    3    0  502 -0.45804058832E+02  0.12125911442E+04 -0.17053211751E+04  0.20929872468E+04  0.10100000352E+00 0.  1.
</event>
<event>
 5   0  0.5071661E-07  0.3523640E+04  0.7818609E-02  0.8108210E-01
        1   -1    0    0  501    0  0.00000000000E+00  0.00000000000E+00  0.26091943274E+04  0.26091943274E+04  0.50400001928E-02 0.  1.
       -1   -1    0    0    0  501  0.00000000000E+00  0.00000000000E+00 -0.11896432145E+04  0.11896432145E+04  0.50400001928E-02 0. -1.
    10030    2    1    2    0    0  0.00000000000E+00  0.00000000000E+00  0.14195511129E+04  0.37988375419E+04  0.35236403487E+04 0.  0.
        1    1    3    3  502    0  0.25723727724E+03 -0.23858330577E+03 -0.11516004514E+04  0.12038590492E+04  0.50400001928E-02 0. -1.
       -1    1    3    3    0  502 -0.25723727724E+03  0.23858330577E+03  0.25711515643E+04  0.25949784927E+04  0.50400001928E-02 0.  1.
</event>
<event>
 5   0  0.4811500E-07  0.3678576E+04  0.7818609E-02  0.8072726E-01
       -1   -1    0    0    0  501  0.00000000000E+00  0.00000000000E+00  0.10556782821E+04  0.10556782821E+04  0.50400001928E-02 0. -1.
        1   -1    0    0  501    0  0.00000000000E+00  0.00000000000E+00 -0.32045559054E+04  0.32045559054E+04  0.50400001928E-02 0.  1.
    10030    2    1    2    0    0  0.00000000000E+00  0.00000000000E+00 -0.21488776233E+04  0.42602341875E+04  0.36785758511E+04 0.  0.
        5    1    3    3  502    0  0.12960797316E+04  0.12882799217E+04 -0.13159011249E+04  0.22519115630E+04  0.46999998093E+01 0. -1.
       -5    1    3    3    0  502 -0.12960797316E+04 -0.12882799217E+04 -0.83297649846E+03  0.20083226245E+04  0.46999998093E+01 0.  1.
</event>
<event>
 5   0  0.1505671E-06  0.3864068E+04  0.7818609E-02  0.8032544E-01
        2   -1    0    0  501    0  0.00000000000E+00  0.00000000000E+00  0.13791388416E+04  0.13791388416E+04  0.25500000920E-02 0.  1.
       -2   -1    0    0    0  501  0.00000000000E+00  0.00000000000E+00 -0.27065840755E+04  0.27065840755E+04  0.25500000920E-02 0. -1.
    10030    2    1    2    0    0  0.00000000000E+00  0.00000000000E+00 -0.13274452338E+04  0.40857229171E+04  0.38640679221E+04 0.  0.
        3    1    3    3  502    0  0.19040732288E+04  0.15880004228E+01 -0.10100115962E+04  0.21553702274E+04  0.10100000352E+00 0. -1.
       -3    1    3    3    0  502 -0.19040732288E+04 -0.15880004228E+01 -0.31743363768E+03  0.19303526898E+04  0.10100000352E+00 0.  1.
</event>
<event>
 5   0  0.5071661E-07  0.3582979E+04  0.7818609E-02  0.8094402E-01
        1   -1    0    0  501    0  0.00000000000E+00  0.00000000000E+00  0.17557484881E+04  0.17557484881E+04  0.50400001928E-02 0. -1.
       -1   -1    0    0    0  501  0.00000000000E+00  0.00000000000E+00 -0.18279575720E+04  0.18279575720E+04  0.50400001928E-02 0.  1.
    10030    2    1    2    0    0  0.00000000000E+00  0.00000000000E+00 -0.72209083963E+02  0.35837060601E+04  0.35829785059E+04 0.  0.
        1    1    3    3  502    0 -0.16590257356E+04  0.60528713890E+03 -0.33732151998E+03  0.17979223342E+04  0.50400001928E-02 0.  1.
       -1    1    3    3    0  502  0.16590257356E+04 -0.60528713890E+03  0.26511243602E+03  0.17857837259E+04  0.50400001928E-02 0. -1.
</event>
<event>
 5   0  0.4811500E-07  0.3468733E+04  0.7818609E-02  0.8121240E-01
        1   -1    0    0  501    0  0.00000000000E+00  0.00000000000E+00  0.25790035631E+04  0.25790035631E+04  0.50400001928E-02 0. -1.
       -1   -1    0    0    0  501  0.00000000000E+00  0.00000000000E+00 -0.11663524512E+04  0.11663524512E+04  0.50400001928E-02 0.  1.
    10030    2    1    2    0    0  0.00000000000E+00  0.00000000000E+00  0.14126511118E+04  0.37453560143E+04  0.34687329834E+04 0.  0.
        2    1    3    3  502    0 -0.74408236411E+03  0.14960682243E+04  0.20433184114E+03  0.16833390026E+04  0.25500000920E-02 0. -1.
       -2    1    3    3    0  502  0.74408236411E+03 -0.14960682243E+04  0.12083192707E+04  0.20620170117E+04  0.25500000920E-02 0.  1.
</event>
<event>
 5   0  0.1468942E-06  0.3705793E+04  0.7818609E-02  0.8066679E-01
        2   -1    0    0  501    0  0.00000000000E+00  0.00000000000E+00  0.28121088782E+04  0.28121088782E+04  0.25500000920E-02 0. -1.
       -2   -1    0    0    0  501  0.00000000000E+00  0.00000000000E+00 -0.12208722973E+04  0.12208722973E+04  0.25500000920E-02 0.  1.
    10030    2    1    2    0    0  0.00000000000E+00  0.00000000000E+00  0.15912365809E+04  0.40329811755E+04  0.37057932086E+04 0.  0.
        2    1    3    3  502    0  0.18140940271E+04 -0.37083911000E+03  0.72047858484E+03  0.19868437724E+04  0.25500000920E-02 0.  1.
       -2    1    3    3    0  502 -0.18140940271E+04  0.37083911000E+03  0.87075799609E+03  0.20461374031E+04  0.25500000920E-02 0. -1.
</event>
<event>
 5   0  0.1468942E-06  0.3616048E+04  0.7818609E-02  0.8086826E-01
       -2   -1    0    0    0  501  0.00000000000E+00  0.00000000000E+00  0.14702181791E+04  0.14702181791E+04  0.25500000920E-02 0. -1.
        2   -1    0    0  501    0  0.00000000000E+00  0.00000000000E+00 -0.22234459236E+04  0.22234459236E+04  0.25500000920E-02 0.  1.
    10030    2    1    2    0    0  0.00000000000E+00  0.00000000000E+00 -0.75322774454E+03  0.36936641027E+04  0.36160479073E+04 0.  0.
        2    1    3    3  502    0 -0.43521069217E+03  0.17300164093E+04 -0.67718398385E+03  0.19081255910E+04  0.25500000920E-02 0.  1.
       -2    1    3    3    0  502  0.43521069217E+03 -0.17300164093E+04 -0.76043760685E+02  0.17855385117E+04  0.25500000920E-02 0. -1.
</event>
<event>
 5   0  0.1379425E-06  0.3491982E+04  0.7818609E-02  0.8115693E-01
       -2   -1    0    0    0  501  0.00000000000E+00  0.00000000000E+00  0.18938496165E+04  0.18938496165E+04  0.25500000920E-02 0. -1.
        2   -1    0    0  501    0  0.00000000000E+00  0.00000000000E+00 -0.16096758314E+04  0.16096758314E+04  0.25500000920E-02 0.  1.
    10030    2    1    2    0    0  0.00000000000E+00  0.00000000000E+00  0.28417378508E+03  0.35035254479E+04  0.34919816471E+04 0.  0.
        4    1    3    3  502    0  0.10126562448E+03 -0.10118738074E+02 -0.16066970597E+04  0.16099174420E+04  0.12699999809E+01 0.  1.
       -4    1    3    3    0  502 -0.10126562448E+03  0.10118738074E+02  0.18908708448E+04  0.18936080059E+04  0.12699999809E+01 0. -1.
</event>
<event>
 5   0  0.1444091E-06  0.3712016E+04  0.7818609E-02  0.8065304E-01
       -2   -1    0    0    0  501  0.00000000000E+00  0.00000000000E+00  0.12116574660E+04  0.12116574660E+04  0.25500000920E-02 0.  1.
        2   -1    0    0  501    0  0.00000000000E+00  0.00000000000E+00 -0.28430194862E+04  0.28430194862E+04  0.25500000920E-02 0. -1.
    10030    2    1    2    0    0  0.00000000000E+00  0.00000000000E+00 -0.16313620202E+04  0.40546769522E+04  0.37120160486E+04 0.  0.
        1    1    3    3  502    0 -0.17887159309E+04 -0.69365807559E+02 -0.13513029314E+04  0.22428410352E+04  0.50400001928E-02 0. -1.
       -1    1    3    3    0  502  0.17887159309E+04  0.69365807559E+02 -0.28005908880E+03  0.18118359170E+04  0.50400001928E-02 0.  1.
</event>
<event>
 5   0  0.1491854E-06  0.3543679E+04  0.7818609E-02  0.8103516E-01
       -2   -1    0    0    0  501  0.00000000000E+00  0.00000000000E+00  0.19376101019E+04  0.19376101019E+04  0.25500000920E-02 0. -1.
        2   -1    0    0  501    0  0.00000000000E+00  0.00000000000E+00 -0.16202512724E+04  0.16202512724E+04  0.25500000920E-02 0.  1.
    10030    2    1    2    0    0  0.00000000000E+00  0.00000000000E+00  0.31735882954E+03  0.35578613743E+04  0.35436790109E+04 0.  0.
        5    1    3    3  502    0  0.67758819496E+03 -0.16368272430E+04  0.12593050780E+03  0.17760095068E+04  0.46999998093E+01 0. -1.
       -5    1    3    3    0  502 -0.67758819496E+03  0.16368272430E+04  0.19142832174E+03  0.17818518675E+04  0.46999998093E+01 0.  1.
</event>
<event>
 5   0  0.1468942E-06  0.3678815E+04  0.7818609E-02  0.8072673E-01
        2   -1    0    0  501    0  0.00000000000E+00  0.00000000000E+00  0.15091625144E+04  0.15091625144E+04  0.25500000920E-02 0.  1.
       -2   -1    0    0    0  501  0.00000000000E+00  0.00000000000E+00 -0.22419188596E+04  0.22419188596E+04  0.25500000920E-02 0. -1.
    10030    2    1    2    0    0  0.00000000000E+00  0.00000000000E+00 -0.73275634521E+03  0.37510813740E+04  0.36788149740E+04 0.  0.
        2    1    3    3  502    0  0.31660432565E+03 -0.93603695766E+03  0.12155547567E+04  0.15665174278E+04  0.25500000920E-02 0.  1.
       -2    1    3    3    0  502 -0.31660432565E+03  0.93603695766E+03 -0.19483111019E+04  0.21845639462E+04  0.25500000920E-02 0. -1.
</event>
<event>
 5   0  0.1444091E-06  0.2650424E+04  0.7818609E-02  0.8351272E-01
        2   -1    0    0  501    0  0.00000000000E+00  0.00000000000E+00  0.12979065290E+04  0.12979065290E+04  0.25500000920E-02 0.  1.
       -2   -1    0    0    0  501  0.00000000000E+00  0.00000000000E+00 -0.13530922295E+04  0.13530922295E+04  0.25500000920E-02 0. -1.
    10030    2    1    2    0    0  0.00000000000E+00  0.00000000000E+00 -0.55185700529E+02  0.26509987585E+04  0.26504242973E+04 0.  0.
        1    1    3    3  502    0 -0.96469749996E+03  0.90826899449E+03 -0.51958059448E+02  0.13260065885E+04  0.50400001928E-02 0. -1.
       -1    1    3    3    0  502  0.96469749996E+03 -0.90826899449E+03 -0.32276410808E+01  0.13249921700E+04  0.50400001928E-02 0.  1.
</event>
<event>
 5   0  0.4811500E-07  0.3645791E+04  0.7818609E-02  0.8080083E-01
        3   -1    0    0  501    0  0.00000000000E+00  0.00000000000E+00  0.12668423423E+04  0.12668423464E+04  0.10100000352E+00 0. -1.
       -3   -1    0    0    0  501  0.00000000000E+00  0.00000000000E+00 -0.26230158586E+04  0.26230158605E+04  0.10100000352E+00 0.  1.
    10030    2    1    2    0    0  0.00000000000E+00  0.00000000000E+00 -0.13561735163E+04  0.38898582069E+04  0.36457907597E+04 0.  0.
        2    1    3    3  502    0 -0.10407092133E+04 -0.14480324620E+04 -0.27451364909E+03  0.18042259895E+04  0.25500000920E-02 0. -1.
       -2    1    3    3    0  502  0.10407092133E+04  0.14480324620E+04 -0.10816598672E+04  0.20856322174E+04  0.25500000920E-02 0.  1.
</event>
<event>
 5   0  0.4811500E-07  0.3443209E+04  0.7818609E-02  0.8127382E-01
       -1   -1    0    0    0  501  0.00000000000E+00  0.00000000000E+00  0.14849625166E+04  0.14849625166E+04  0.50400001928E-02 0.  1.
        1   -1    0    0  501    0  0.00000000000E+00  0.00000000000E+00 -0.19959573798E+04  0.19959573798E+04  0.50400001928E-02 0. -1.
    10030    2    1    2    0    0  0.00000000000E+00  0.00000000000E+00 -0.51099486314E+03  0.34809198964E+04  0.34432089067E+04 0.  0.
        5    1    3    3  502    0 -0.74268926968E+03  0.15362623814E+04 -0.24499043324E+02  0.17065496620E+04  0.46999998093E+01 0. -1.
       -5    1    3    3    0  502  0.74268926968E+03 -0.15362623814E+04 -0.48649581982E+03  0.17743702344E+04  0.46999998093E+01 0.  1.
</event>
<event>
 5   0  0.4811500E-07  0.3636411E+04  0.7818609E-02  0.8082202E-01
        1   -1    0    0  501    0  0.00000000000E+00  0.00000000000E+00  0.21573236555E+04  0.21573236555E+04  0.50400001928E-02 0. -1.
       -1   -1    0    0    0  501  0.00000000000E+00  0.00000000000E+00 -0.15323946736E+04  0.15323946736E+04  0.50400001928E-02 0.  1.
    10030    2    1    2    0    0  0.00000000000E+00  0.00000000000E+00  0.62492898185E+03  0.36897183291E+04  0.36364110213E+04 0.  0.
        3    1    3    3  502    0 -0.14318311833E+04  0.94437996458E+03 -0.29960069623E+03  0.17411934535E+04  0.10100000352E+00 0.  1.
       -3    1    3    3    0  502  0.14318311833E+04 -0.94437996458E+03  0.92452967809E+03  0.19485248756E+04  0.10100000352E+00 0. -1.
</event>
<event>
 5   0  0.1491854E-06  0.2348868E+04  0.7818609E-02  0.8458899E-01
        2   -1    0    0  501    0  0.00000000000E+00  0.00000000000E+00  0.14735057038E+04  0.14735057038E+04  0.25500000920E-02 0. -1.
       -2   -1    0    0    0  501  0.00000000000E+00  0.00000000000E+00 -0.93606374177E+03  0.93606374177E+03  0.25500000920E-02 0.  1.
    10030    2    1    2    0    0  0.00000000000E+00  0.00000000000E+00  0.53744196207E+03  0.24095694456E+04  0.23488680360E+04 0.  0.
        5    1    3    3  502    0  0.87107484959E+03 -0.65813525426E+03 -0.17531585294E+03  0.11057446110E+04  0.46999998093E+01 0.  1.
       -5    1    3    3    0  502 -0.87107484959E+03  0.65813525426E+03  0.71275781501E+03  0.13038248346E+04  0.46999998093E+01 0. -1.
</event>
<event>
 5   0  0.4811500E-07  0.3605760E+04  0.7818609E-02  0.8089173E-01
        1   -1    0    0  501    0  0.00000000000E+00  0.00000000000E+00  0.22727922559E+04  0.22727922559E+04  0.50400001928E-02 0.  1.
       -1   -1    0    0    0  501  0.00000000000E+00  0.00000000000E+00 -0.14301250090E+04  0.14301250090E+04  0.50400001928E-02 0. -1.
    10030    2    1    2    0    0  0.00000000000E+00  0.00000000000E+00  0.84266724689E+03  0.37029172649E+04  0.36057604166E+04 0.  0.
        4    1    3    3  502    0 -0.14426495897E+04 -0.26281842317E+03  0.14984338865E+04  0.20965727002E+04  0.12699999809E+01 0.  1.
       -4    1    3    3    0  502  0.14426495897E+04  0.26281842317E+03 -0.65576663964E+03  0.16063445647E+04  0.12699999809E+01 0. -1.
</event>
<event>
 5   0  0.1444091E-06  0.3598937E+04  0.7818609E-02  0.8090735E-01
       -2   -1    0    0    0  501  0.00000000000E+00  0.00000000000E+00  0.12394248489E+04  0.12394248489E+04  0.25500000920E-02 0. -1.
        2   -1    0    0  501    0  0.00000000000E+00  0.00000000000E+00 -0.26125715583E+04  0.26125715583E+04  0.25500000920E-02 0.  1.
    10030    2    1    2    0    0  0.00000000000E+00  0.00000000000E+00 -0.13731467094E+04  0.38519964072E+04  0.35989365701E+04 0.  0.
        1    1    3    3  502    0 -0.95449655293E+03  0.99485727998E+03  0.55114858186E+03  0.14847792551E+04  0.50400001928E-02 0. -1.
       -1    1    3    3    0  502  0.95449655293E+03 -0.99485727998E+03 -0.19242952913E+04  0.23672171521E+04  0.50400001928E-02 0.  1.
</event>
<event>
 5   0  0.4811500E-07  0.2670687E+04  0.7818609E-02  0.8344579E-01
        3   -1    0    0  501    0  0.00000000000E+00  0.00000000000E+00  0.21824754405E+04  0.21824754428E+04  0.10100000352E+00 0.  1.
       -3   -1    0    0    0  501  0.00000000000E+00  0.00000000000E+00 -0.81702712923E+03  0.81702713547E+03  0.10100000352E+00 0. -1.
    10030    2    1    2    0    0  0.00000000000E+00  0.00000000000E+00  0.13654483112E+04  0.29995025783E+04  0.26706865459E+04 0.  0.
        5    1    3    3  502    0  0.42121841852E+03 -0.10251961755E+04  0.15191792807E+04  0.18805265037E+04  0.46999998093E+01 0.  1.
       -5    1    3    3    0  502 -0.42121841852E+03  0.10251961755E+04 -0.15373096942E+03  0.11189760745E+04  0.46999998093E+01 0. -1.
</event>
<event>
 5   0  0.1468942E-06  0.3539478E+04  0.7818609E-02  0.8104497E-01
        2   -1    0    0  501    0  0.00000000000E+00  0.00000000000E+00  0.17926927576E+04  0.17926927576E+04  0.25500000920E-02 0. -1.
       -2   -1    0    0    0  501  0.00000000000E+00  0.00000000000E+00 -0.17470787878E+04  0.17470787878E+04  0.25500000920E-02 0.  1.
    10030    2    1    2    0    0  0.00000000000E+00  0.00000000000E+00  0.45613969760E+02  0.35397715454E+04  0.35394776393E+04 0.  0.
        2    1    3    3  502    0 -0.13526468296E+04 -0.71609929522E+03  0.91143230960E+03  0.17813367175E+04  0.25500000920E-02 0. -1.
       -2    1    3    3    0  502  0.13526468296E+04  0.71609929522E+03 -0.86581833984E+03  0.17584348279E+04  0.25500000920E-02 0.  1.
</event>
<event>
 5   0  0.4811500E-07  0.3616095E+04  0.7818609E-02  0.8086815E-01
        1   -1    0    0  501    0  0.00000000000E+00  0.00000000000E+00  0.15781054715E+04  0.15781054715E+04  0.50400001928E-02 0. -1.
       -1   -1    0    0    0  501  0.00000000000E+00  0.00000000000E+00 -0.20714937522E+04  0.20714937522E+04  0.50400001928E-02 0.  1.
    10030    2    1    2    0    0  0.00000000000E+00  0.00000000000E+00 -0.49338828071E+03  0.36495992236E+04  0.36160949237E+04 0.  0.
        5    1    3    3  502    0  0.61934924953E+03  0.21646830849E+03  0.14537192185E+04  0.15949212136E+04  0.46999998093E+01 0. -1.
       -5    1    3    3    0  502 -0.61934924953E+03 -0.21646830849E+03 -0.19471074992E+04  0.20546780100E+04  0.46999998093E+01 0.  1.
</event>
<event>
 5   0  0.1379425E-06  0.3567056E+04  0.7818609E-02  0.8098080E-01
        2   -1    0    0  501    0  0.00000000000E+00  0.00000000000E+00  0.16749885317E+04  0.16749885317E+04  0.25500000920E-02 0. -1.
       -2   -1    0    0    0  501  0.00000000000E+00  0.00000000000E+00 -0.18991003727E+04  0.18991003727E+04  0.25500000920E-02 0.  1.
    10030    2    1    2    0    0  0.00000000000E+00  0.00000000000E+00 -0.22411184097E+03  0.35740889044E+04  0.35670555616E+04 0.  0.
        4    1    3    3  502    0 -0.49471672896E+03  0.98018363150E+03 -0.15203396514E+04  0.18753503304E+04  0.12699999809E+01 0.  1.
       -4    1    3    3    0  502  0.49471672896E+03 -0.98018363150E+03  0.12962278104E+04  0.16987385740E+04  0.12699999809E+01 0. -1.
</event>
<event>
 5   0  0.1505671E-06  0.3490680E+04  0.7818609E-02  0.8116002E-01
        2   -1    0    0  501    0  0.00000000000E+00  0.00000000000E+00  0.14516175880E+04  0.14516175880E+04  0.25500000920E-02 0.  1.
       -2   -1    0    0    0  501  0.00000000000E+00  0.00000000000E+00 -0.20984945516E+04  0.20984945516E+04  0.25500000920E-02 0. -1.
    10030    2    1    2    0    0  0.00000000000E+00  0.00000000000E+00 -0.64687696368E+03  0.35501121396E+04  0.34906799334E+04 0.  0.
        3    1    3    3  502    0  0.56100552524E+03  0.13708399168E+04 -0.12623480826E+04  0.19461377055E+04  0.10100000352E+00 0. -1.
       -3    1    3    3    0  502 -0.56100552524E+03 -0.13708399168E+04  0.61547111891E+03  0.16039744341E+04  0.10100000352E+00 0.  1.
</event>
<event>
 5   0  0.4811500E-07  0.3524763E+04  0.7818609E-02  0.8107946E-01
        1   -1    0    0  501    0  0.00000000000E+00  0.00000000000E+00  0.18170491738E+04  0.18170491738E+04  0.50400001928E-02 0. -1.
       -1   -1    0    0    0  501  0.00000000000E+00  0.00000000000E+00 -0.17093589076E+04  0.17093589076E+04  0.50400001928E-02 0.  1.
    10030    2    1    2    0    0  0.00000000000E+00  0.00000000000E+00  0.10769026616E+03  0.35264080814E+04  0.35247633627E+04 0.  0.
        4    1    3    3  502    0 -0.12920293826E+04  0.94732024853E+03  0.78851196054E+03  0.17856394663E+04  0.12699999809E+01 0. -1.
       -4    1    3    3    0  502  0.12920293826E+04 -0.94732024853E+03 -0.68082169438E+03  0.17407686151E+04  0.12699999809E+01 0.  1.
</event>
<event>
 5   0  0.1444091E-06  0.3529386E+04  0.7818609E-02  0.8106861E-01
       -2   -1    0    0    0  501  0.00000000000E+00  0.00000000000E+00  0.13522846838E+04  0.13522846838E+04  0.25500000920E-02 0. -1.
        2   -1    0    0  501    0  0.00000000000E+00  0.00000000000E+00 -0.23028747559E+04  0.23028747559E+04  0.25500000920E-02 0.  1.
    10030    2    1    2    0    0  0.00000000000E+00  0.00000000000E+00 -0.95059007216E+03  0.36551594397E+04  0.35293864969E+04 0.  0.
        1    1    3    3  502    0 -0.15341231331E+04  0.92126343109E+02  0.42285941020E+03  0.15939984729E+04  0.50400001928E-02 0. -1.
       -1    1    3    3    0  502  0.15341231331E+04 -0.92126343109E+02 -0.13734494824E+04  0.20611609669E+04  0.50400001928E-02 0.  1.
</event>
<event>
 5   0  0.4811500E-07  0.3457865E+04  0.7818609E-02  0.8123849E-01
        1   -1    0    0  501    0  0.00000000000E+00  0.00000000000E+00  0.10648950886E+04  0.10648950886E+04  0.50400001928E-02 0. -1.
       -1   -1    0    0    0  501  0.00000000000E+00  0.00000000000E+00 -0.28070435398E+04  0.28070435398E+04  0.50400001928E-02 0.  1.
    10030    2    1    2    0    0  0.00000000000E+00  0.00000000000E+00 -0.17421484511E+04  0.38719386284E+04  0.34578645891E+04 0.  0.
        5    1    3    3  502    0  0.54301183409E+03 -0.15413995246E+04 -0.15029244353E+04  0.22202653658E+04  0.46999998093E+01 0. -1.
       -5    1    3    3    0  502 -0.54301183409E+03  0.15413995246E+04 -0.23922401585E+03  0.16516732626E+04  0.46999998093E+01 0.  1.
</event>
<event>
 5   0  0.4811500E-07  0.3614604E+04  0.7818609E-02  0.8087155E-01
       -1   -1    0    0    0  501  0.00000000000E+00  0.00000000000E+00  0.16666112470E+04  0.16666112470E+04  0.50400001928E-02 0. -1.
        1   -1    0    0  501    0  0.00000000000E+00  0.00000000000E+00 -0.19598690195E+04  0.19598690195E+04  0.50400001928E-02 0.  1.
    10030    2    1    2    0    0  0.00000000000E+00  0.00000000000E+00 -0.29325777248E+03  0.36264802665E+04  0.36146035747E+04 0.  0.
        3    1    3    3  502    0 -0.17169198683E+04  0.52583818354E+03  0.59032728743E+02  0.17966091681E+04  0.10100000352E+00 0. -1.
       -3    1    3    3    0  502  0.17169198683E+04 -0.52583818354E+03 -0.35229050123E+03  0.18298710984E+04  0.10100000352E+00 0.  1.
</event>
<event>
 5   0  0.4811500E-07  0.3566410E+04  0.7818609E-02  0.8098229E-01
        1   -1    0    0  501    0  0.00000000000E+00  0.00000000000E+00  0.15625839551E+04  0.15625839551E+04  0.50400001928E-02 0. -1.
       -1   -1    0    0    0  501  0.00000000000E+00  0.00000000000E+00 -0.20349760244E+04  0.20349760244E+04  0.50400001928E-02 0.  1.
    10030    2    1    2    0    0  0.00000000000E+00  0.00000000000E+00 -0.47239206929E+03  0.35975599796E+04  0.35664104558E+04 0.  0.
        3    1    3    3  502    0  0.87592826306E+03  0.90192719851E+03  0.10394031791E+04  0.16312823092E+04  0.10100000352E+00 0. -1.
       -3    1    3    3    0  502 -0.87592826306E+03 -0.90192719851E+03 -0.15117952484E+04  0.19662776703E+04  0.10100000352E+00 0.  1.
</event>
<event>
 5   0  0.4811500E-07  0.3601400E+04  0.7818609E-02  0.8090171E-01
        1   -1    0    0  501    0  0.00000000000E+00  0.00000000000E+00  0.24589824884E+04  0.24589824884E+04  0.50400001928E-02 0. -1.
       -1   -1    0    0    0  501  0.00000000000E+00  0.00000000000E+00 -0.13186429459E+04  0.13186429459E+04  0.50400001928E-02 0.  1.
    10030    2    1    2    0    0  0.00000000000E+00  0.00000000000E+00  0.11403395425E+04  0.37776254343E+04  0.36013996792E+04 0.  0.
        4    1    3    3  502    0 -0.17937526874E+04 -0.12199016685E+03  0.46481602016E+03  0.18570099219E+04  0.12699999809E+01 0. -1.
       -4    1    3    3    0  502  0.17937526874E+04  0.12199016685E+03  0.67552352233E+03  0.19206155124E+04  0.12699999809E+01 0.  1.
</event>
<event>
 5   0  0.1505671E-06  0.3615368E+04  0.7818609E-02  0.8086981E-01
        2   -1    0    0  501    0  0.00000000000E+00  0.00000000000E+00  0.18297641392E+04  0.18297641392E+04  0.25500000920E-02 0. -1.
       -2   -1    0    0    0  501  0.00000000000E+00  0.00000000000E+00 -0.17858700540E+04  0.17858700540E+04  0.25500000920E-02 0.  1.
    10030    2    1    2    0    0  0.00000000000E+00  0.00000000000E+00  0.43894085178E+02  0.36156341933E+04  0.36153677446E+04 0.  0.
        3    1    3    3  502    0 -0.76374847896E+03 -0.92077794805E+03 -0.13333565842E+04  0.17913636034E+04  0.10100000352E+00 0.  1.
       -3    1    3    3    0  502  0.76374847896E+03  0.92077794805E+03  0.13772506693E+04  0.18242705899E+04  0.10100000352E+00 0. -1.
</event>
<event>
 5   0  0.4811500E-07  0.3607681E+04  0.7818609E-02  0.8088734E-01
        1   -1    0    0  501    0  0.00000000000E+00  0.00000000000E+00  0.17955040262E+04  0.17955040262E+04  0.50400001928E-02 0. -1.
       -1   -1    0    0    0  501  0.00000000000E+00  0.00000000000E+00 -0.18122161479E+04  0.18122161479E+04  0.50400001928E-02 0.  1.
    10030    2    1    2    0    0  0.00000000000E+00  0.00000000000E+00 -0.16712121686E+02  0.36077201742E+04  0.36076814660E+04 0.  0.
        5    1    3    3  502    0 -0.13595832056E+04  0.50198739454E+03 -0.10823142596E+04  0.18088350073E+04  0.46999998093E+01 0.  1.
       -5    1    3    3    0  502  0.13595832056E+04 -0.50198739454E+03  0.10656021379E+04  0.17988851668E+04  0.46999998093E+01 0. -1.
</event>
<event>
 5   0  0.1505671E-06  0.3103358E+04  0.7818609E-02  0.8214817E-01
       -2   -1    0    0    0  501  0.00000000000E+00  0.00000000000E+00  0.15254572253E+04  0.15254572253E+04  0.25500000920E-02 0. -1.
        2   -1    0    0  501    0  0.00000000000E+00  0.00000000000E+00 -0.15783517755E+04  0.15783517755E+04  0.25500000920E-02 0.  1.
    10030    2    1    2    0    0  0.00000000000E+00  0.00000000000E+00 -0.52894550206E+02  0.31038090008E+04  0.31033582584E+04 0.  0.
        3    1    3    3  502    0 -0.63185037816E+03  0.11116321485E+04  0.85274079633E+03  0.15369215367E+04  0.10100000352E+00 0. -1.
       -3    1    3    3    0  502  0.63185037816E+03 -0.11116321485E+04 -0.90563534653E+03  0.15668874641E+04  0.10100000352E+00 0.  1.
</event>
<event>
 5   0  0.1491854E-06  0.3606270E+04  0.7818609E-02  0.8089057E-01
        2   -1    0    0  501    0  0.00000000000E+00  0.00000000000E+00  0.16592820728E+04  0.16592820728E+04  0.25500000920E-02 0. -1.
       -2   -1    0    0    0  501  0.00000000000E+00  0.00000000000E+00 -0.19594591603E+04  0.19594591603E+04  0.25500000920E-02 0.  1.
    10030    2    1    2    0    0  0.00000000000E+00  0.00000000000E+00 -0.30017708744E+03  0.36187412331E+04  0.36062697941E+04 0.  0.
        5    1    3    3  502    0 -0.29202151502E+03 -0.10399653249E+04 -0.15988504803E+04  0.19295464209E+04  0.46999998093E+01 0.  1.
       -5    1    3    3    0  502  0.29202151502E+03  0.10399653249E+04  0.12986733928E+04  0.16891948122E+04  0.46999998093E+01 0. -1.
</event>
<event>
 5   0  0.4811500E-07  0.3596800E+04  0.7818609E-02  0.8091225E-01
       -1   -1    0    0    0  501  0.00000000000E+00  0.00000000000E+00  0.14072268438E+04  0.14072268438E+04  0.50400001928E-02 0.  1.
        1   -1    0    0  501    0  0.00000000000E+00  0.00000000000E+00 -0.22983092958E+04  0.22983092958E+04  0.50400001928E-02 0. -1.
    10030    2    1    2    0    0  0.00000000000E+00  0.00000000000E+00 -0.89108245203E+03  0.37055361396E+04  0.35967999868E+04 0.  0.
        2    1    3    3  502    0  0.26502224680E+03 -0.57715141357E+03  0.12878523479E+04  0.14359332211E+04  0.25500000920E-02 0.  1.
       -2    1    3    3    0  502 -0.26502224680E+03  0.57715141357E+03 -0.21789347999E+04  0.22696029185E+04  0.25500000920E-02 0. -1.
</event>
<event>
 5   0  0.4811500E-07  0.3644741E+04  0.7818609E-02  0.8080319E-01
        1   -1    0    0  501    0  0.00000000000E+00  0.00000000000E+00  0.19259335550E+04  0.19259335550E+04  0.50400001928E-02 0. -1.
       -1   -1    0    0    0  501  0.00000000000E+00  0.00000000000E+00 -0.17243762044E+04  0.17243762044E+04  0.50400001928E-02 0.  1.
    10030    2    1    2    0    0  0.00000000000E+00  0.00000000000E+00  0.20155735053E+03  0.36503097594E+04  0.36447408652E+04 0.  0.
        4    1    3    3  502    0  0.17071093980E+04  0.21796491311E+03 -0.49955455760E+03  0.17920065762E+04  0.12699999809E+01 0.  1.
       -4    1    3    3    0  502 -0.17071093980E+04 -0.21796491311E+03  0.70111190813E+03  0.18583031832E+04  0.12699999809E+01 0. -1.
</event>
<event>
 5   0  0.1468942E-06  0.3573633E+04  0.7818609E-02  0.8096558E-01
       -2   -1    0    0    0  501  0.00000000000E+00  0.00000000000E+00  0.26662730580E+04  0.26662730580E+04  0.25500000920E-02 0.  1.
        2   -1    0    0  501    0  0.00000000000E+00  0.00000000000E+00 -0.11974444413E+04  0.11974444413E+04  0.25500000920E-02 0. -1.
    10030    2    1    2    0    0  0.00000000000E+00  0.00000000000E+00  0.14688286167E+04  0.38637174993E+04  0.35736333624E+04 0.  0.
        2    1    3    3  502    0  0.17673155465E+04  0.24470134387E+03  0.62941870736E+03  0.18919436825E+04  0.25500000920E-02 0. -1.
       -2    1    3    3    0  502 -0.17673155465E+04 -0.24470134387E+03  0.83940990938E+03  0.19717738168E+04  0.25500000920E-02 0.  1.
</event>
<event>
 5   0  0.1505671E-06  0.3150602E+04  0.7818609E-02  0.8201986E-01
       -2   -1    0    0    0  501  0.00000000000E+00  0.00000000000E+00  0.12179933041E+04  0.12179933041E+04  0.25500000920E-02 0.  1.
        2   -1    0    0  501    0  0.00000000000E+00  0.00000000000E+00 -0.20374278622E+04  0.20374278622E+04  0.25500000920E-02 0. -1.
    10030    2    1    2    0    0  0.00000000000E+00  0.00000000000E+00 -0.81943455805E+03  0.32554211663E+04  0.31506021607E+04 0.  0.
        3    1    3    3  502    0  0.70860251857E+03 -0.14062206389E+04 -0.45592036030E+03  0.16393405381E+04  0.10100000352E+00 0. -1.
       -3    1    3    3    0  502 -0.70860251857E+03  0.14062206389E+04 -0.36351419776E+03  0.16160806282E+04  0.10100000352E+00 0.  1.
</event>
<event>
 5   0  0.5071661E-07  0.3555322E+04  0.7818609E-02  0.8100803E-01
        1   -1    0    0  501    0  0.00000000000E+00  0.00000000000E+00  0.10237300867E+04  0.10237300867E+04  0.50400001928E-02 0.  1.
       -1   -1    0    0    0  501  0.00000000000E+00  0.00000000000E+00 -0.30868271516E+04  0.30868271516E+04  0.50400001928E-02 0. -1.
    10030    2    1    2    0    0  0.00000000000E+00  0.00000000000E+00 -0.20630970649E+04  0.41105572383E+04  0.35553215481E+04 0.  0.
        1    1    3    3  502    0  0.38794471286E+03 -0.15051129521E+04 -0.20289501543E+04  0.25558765282E+04  0.50400001928E-02 0. -1.
       -1    1    3    3    0  502 -0.38794471286E+03  0.15051129521E+04 -0.34146910590E+02  0.15546807101E+04  0.50400001928E-02 0.  1.
</event>
<event>
 5   0  0.1491854E-06  0.3595119E+04  0.7818609E-02  0.8091611E-01
        2   -1    0    0  501    0  0.00000000000E+00  0.00000000000E+00  0.23876420187E+04  0.23876420187E+04  0.25500000920E-02 0. -1.
       -2   -1    0    0    0  501  0.00000000000E+00  0.00000000000E+00 -0.13533097703E+04  0.13533097703E+04  0.25500000920E-02 0.  1.
    10030    2    1    2    0    0  0.00000000000E+00  0.00000000000E+00  0.10343322484E+04  0.37409517890E+04  0.35951185081E+04 0.  0.
        5    1    3    3  502    0 -0.26668946686E+03 -0.45486649969E+03  0.23053540256E+04  0.23648902887E+04  0.46999998093E+01 0. -1.
       -5    1    3    3    0  502  0.26668946686E+03  0.45486649969E+03 -0.12710217772E+04  0.13760615003E+04  0.46999998093E+01 0.  1.
</event>
<event>
 5   0  0.4811500E-07  0.3695455E+04  0.7818609E-02  0.8068970E-01
       -1   -1    0    0    0  501  0.00000000000E+00  0.00000000000E+00  0.32078027927E+04  0.32078027927E+04  0.50400001928E-02 0. -1.
        1   -1    0    0  501    0  0.00000000000E+00  0.00000000000E+00 -0.10643101996E+04  0.10643101996E+04  0.50400001928E-02 0.  1.
    10030    2    1    2    0    0  0.00000000000E+00  0.00000000000E+00  0.21434925931E+04  0.42721129923E+04  0.36954551712E+04 0.  0.
        4    1    3    3  502    0 -0.81314613627E+03 -0.64693975139E+03  0.28380220896E+04  0.30222687959E+04  0.12699999809E+01 0. -1.
       -4    1    3    3    0  502  0.81314613627E+03  0.64693975139E+03 -0.69452949648E+03  0.12498441964E+04  0.12699999809E+01 0.  1.
</event>
<event>
 5   0  0.4811500E-07  0.3643045E+04  0.7818609E-02  0.8080702E-01
       -1   -1    0    0    0  501  0.00000000000E+00  0.00000000000E+00  0.16705895202E+04  0.16705895202E+04  0.50400001928E-02 0.  1.
        1   -1    0    0  501    0  0.00000000000E+00  0.00000000000E+00 -0.19860915249E+04  0.19860915249E+04  0.50400001928E-02 0. -1.
    10030    2    1    2    0    0  0.00000000000E+00  0.00000000000E+00 -0.31550200466E+03  0.36566810451E+04  0.36430447089E+04 0.  0.
        5    1    3    3  502    0  0.84219232991E+03 -0.17003764211E+03 -0.17699139615E+04  0.19674395140E+04  0.46999998093E+01 0. -1.
       -5    1    3    3    0  502 -0.84219232991E+03  0.17003764211E+03  0.14544119568E+04  0.16892415311E+04  0.46999998093E+01 0.  1.
</event>
<event>
 5   0  0.1468942E-06  0.3641423E+04  0.7818609E-02  0.8081069E-01
        2   -1    0    0  501    0  0.00000000000E+00  0.00000000000E+00  0.26035532822E+04  0.26035532822E+04  0.25500000920E-02 0. -1.
       -2   -1    0    0    0  501  0.00000000000E+00  0.00000000000E+00 -0.12732559921E+04  0.12732559921E+04  0.25500000920E-02 0.  1.
    10030    2    1    2    0    0  0.00000000000E+00  0.00000000000E+00  0.13302972901E+04  0.38768092743E+04  0.36414226986E+04 0.  0.
        2    1    3    3  502    0  0.62391390489E+03  0.38484226628E+03 -0.11092025166E+04  0.13295496807E+04  0.25500000920E-02 0.  1.
       -2    1    3    3    0  502 -0.62391390489E+03 -0.38484226628E+03  0.24394998067E+04  0.25472595936E+04  0.25500000920E-02 0. -1.
</event>
<event>
 5   0  0.5071661E-07  0.3129259E+04  0.7818609E-02  0.8207754E-01
        1   -1    0    0  501    0  0.00000000000E+00  0.00000000000E+00  0.19773279899E+04  0.19773279899E+04  0.50400001928E-02 0.  1.
       -1   -1    0    0    0  501  0.00000000000E+00  0.00000000000E+00 -0.12380672198E+04  0.12380672198E+04  0.50400001928E-02 0. -1.
    10030    2    1    2    0    0  0.00000000000E+00  0.00000000000E+00  0.73926077011E+03  0.32153952098E+04  0.31292586772E+04 0.  0.
        1    1    3    3  502    0  0.54322038066E+03  0.10053348691E+04  0.14678239003E+04  0.18601864378E+04  0.50400001928E-02 0.  1.
       -1    1    3    3    0  502 -0.54322038066E+03 -0.10053348691E+04 -0.72856313022E+03  0.13552087720E+04  0.50400001928E-02 0. -1.
</event>
<event>
 5   0  0.4811500E-07  0.3107329E+04  0.7818609E-02  0.8213729E-01
       -1   -1    0    0    0  501  0.00000000000E+00  0.00000000000E+00  0.14877900054E+04  0.14877900054E+04  0.50400001928E-02 0.  1.
        1   -1    0    0  501    0  0.00000000000E+00  0.00000000000E+00 -0.16224561765E+04  0.16224561765E+04  0.50400001928E-02 0. -1.
    10030    2    1    2    0    0  0.00000000000E+00  0.00000000000E+00 -0.13466617109E+03  0.31102461819E+04  0.31073294537E+04 0.  0.
        2    1    3    3  502    0 -0.79787998633E+03 -0.13249656350E+04 -0.21487455774E+03  0.15615112814E+04  0.25500000920E-02 0. -1.
       -2    1    3    3    0  502  0.79787998633E+03  0.13249656350E+04  0.80208386658E+02  0.15487349004E+04  0.25500000920E-02 0.  1.
</event>
<event>
 5   0  0.1491854E-06  0.3602711E+04  0.7818609E-02  0.8089871E-01
       -2   -1    0    0    0  501  0.00000000000E+00  0.00000000000E+00  0.17722235831E+04  0.17722235831E+04  0.25500000920E-02 0. -1.
        2   -1    0    0  501    0  0.00000000000E+00  0.00000000000E+00 -0.18309659543E+04  0.18309659543E+04  0.25500000920E-02 0.  1.
    10030    2    1    2    0    0  0.00000000000E+00  0.00000000000E+00 -0.58742371236E+02  0.36031895374E+04  0.36027106706E+04 0.  0.
        5    1    3    3  502    0 -0.42039980730E+03  0.75414575052E+03 -0.16105263382E+04  0.18273721534E+04  0.46999998093E+01 0.  1.
       -5    1    3    3    0  502  0.42039980730E+03 -0.75414575052E+03  0.15517839670E+04  0.17758173840E+04  0.46999998093E+01 0. -1.
</event>
<event>
 5   0  0.1379425E-06  0.3654683E+04  0.7818609E-02  0.8078079E-01
       -2   -1    0    0    0  501  0.00000000000E+00  0.00000000000E+00  0.14795840339E+04  0.14795840339E+04  0.25500000920E-02 0.  1.
        2   -1    0    0  501    0  0.00000000000E+00  0.00000000000E+00 -0.22568351247E+04  0.22568351247E+04  0.25500000920E-02 0. -1.
    10030    2    1    2    0    0  0.00000000000E+00  0.00000000000E+00 -0.77725109084E+03  0.37364191586E+04  0.36546831423E+04 0.  0.
        4    1    3    3  502    0  0.59039246175E+01 -0.10056525725E+04 -0.19484618813E+04  0.21926872255E+04  0.12699999809E+01 0. -1.
       -4    1    3    3    0  502 -0.59039246175E+01  0.10056525725E+04  0.11712107905E+04  0.15437319332E+04  0.12699999809E+01 0.  1.
</event>
<event>
 5   0  0.4811500E-07  0.3591602E+04  0.7818609E-02  0.8092418E-01
        1   -1    0    0  501    0  0.00000000000E+00  0.00000000000E+00  0.23898642767E+04  0.23898642767E+04  0.50400001928E-02 0. -1.
       -1   -1    0    0    0  501  0.00000000000E+00  0.00000000000E+00 -0.13494076668E+04  0.13494076668E+04  0.50400001928E-02 0.  1.
    10030    2    1    2    0    0  0.00000000000E+00  0.00000000000E+00  0.10404566099E+04  0.37392719435E+04  0.35916019699E+04 0.  0.
        2    1    3    3  502    0  0.93492541607E+03  0.13735757676E+04 -0.18903434867E+03  0.16722828433E+04  0.25500000920E-02 0.  1.
       -2    1    3    3    0  502 -0.93492541607E+03 -0.13735757676E+04  0.12294909586E+04  0.20669891002E+04  0.25500000920E-02 0. -1.
</event>
<event>
 5   0  0.4811500E-07  0.3600311E+04  0.7818609E-02  0.8090420E-01
       -1   -1    0    0    0  501  0.00000000000E+00  0.00000000000E+00  0.21792799309E+04  0.21792799309E+04  0.50400001928E-02 0. -1.
        1   -1    0    0  501    0  0.00000000000E+00  0.00000000000E+00 -0.14869864971E+04  0.14869864971E+04  0.50400001928E-02 0.  1.
    10030    2    1    2    0    0  0.00000000000E+00  0.00000000000E+00  0.69229343381E+03  0.36662664279E+04  0.36003110035E+04 0.  0.
        3    1    3    3  502    0 -0.35292519551E+03  0.14605283504E+04  0.13557016593E+04  0.20237653656E+04  0.10100000352E+00 0. -1.
       -3    1    3    3    0  502  0.35292519551E+03 -0.14605283504E+04 -0.66340822545E+03  0.16425010623E+04  0.10100000352E+00 0.  1.
</event>
<event>
 5   0  0.4811500E-07  0.3614823E+04  0.7818609E-02  0.8087105E-01
        1   -1    0    0  501    0  0.00000000000E+00  0.00000000000E+00  0.12902199947E+04  0.12902199947E+04  0.50400001928E-02 0.  1.
       -1   -1    0    0    0  501  0.00000000000E+00  0.00000000000E+00 -0.25319216341E+04  0.25319216341E+04  0.50400001928E-02 0. -1.
    10030    2    1    2    0    0  0.00000000000E+00  0.00000000000E+00 -0.12417016395E+04  0.38221416288E+04  0.36148227715E+04 0.  0.
        2    1    3    3  502    0  0.16622057262E+04 -0.84818296108E+02  0.12427429344E+03  0.16690015338E+04  0.25500000920E-02 0.  1.
       -2    1    3    3    0  502 -0.16622057262E+04  0.84818296108E+02 -0.13659759329E+04  0.21531400951E+04  0.25500000920E-02 0. -1.
</event>
<event>
 5   0  0.1505671E-06  0.3780111E+04  0.7818609E-02  0.8050437E-01
        2   -1    0    0  501    0  0.00000000000E+00  0.00000000000E+00  0.22224900225E+04  0.22224900225E+04  0.25500000920E-02 0.  1.
       -2   -1    0    0    0  501  0.00000000000E+00  0.00000000000E+00 -0.16073454599E+04  0.16073454599E+04  0.25500000920E-02 0. -1.
    10030    2    1    2    0    0  0.00000000000E+00  0.00000000000E+00  0.61514456255E+03  0.38298354824E+04  0.37801107112E+04 0.  0.
        3    1    3    3  502    0  0.16738681034E+04 -0.72699860191E+03  0.80592459109E+03  0.19949626191E+04  0.10100000352E+00 0. -1.
       -3    1    3    3    0  502 -0.16738681034E+04  0.72699860191E+03 -0.19078002854E+03  0.18348728633E+04  0.10100000352E+00 0.  1.
</event>
<event>
 5   0  0.4811500E-07  0.3525147E+04  0.7818609E-02  0.8107856E-01
        1   -1    0    0  501    0  0.00000000000E+00  0.00000000000E+00  0.11176115994E+04  0.11176115994E+04  0.50400001928E-02 0.  1.
       -1   -1    0    0    0  501  0.00000000000E+00  0.00000000000E+00 -0.27797362778E+04  0.27797362779E+04  0.50400001928E-02 0. -1.
    10030    2    1    2    0    0  0.00000000000E+00  0.00000000000E+00 -0.16621246785E+04  0.38973478772E+04  0.35251470933E+04 0.  0.
        5    1    3    3  502    0 -0.93859152705E+02 -0.17499838293E+04 -0.10390488255E+04  0.20373751484E+04  0.46999998093E+01 0. -1.
       -5    1    3    3    0  502  0.93859152705E+02  0.17499838293E+04 -0.62307585300E+03  0.18599727289E+04  0.46999998093E+01 0.  1.
</event>
<event>
 5   0  0.4811500E-07  0.3587113E+04  0.7818609E-02  0.8093450E-01
        1   -1    0    0  501    0  0.00000000000E+00  0.00000000000E+00  0.16392704728E+04  0.16392704728E+04  0.50400001928E-02 0.  1.
       -1   -1    0    0    0  501  0.00000000000E+00  0.00000000000E+00 -0.19623639822E+04  0.19623639822E+04  0.50400001928E-02 0. -1.
    10030    2    1    2    0    0  0.00000000000E+00  0.00000000000E+00 -0.32309350937E+03  0.36016344550E+04  0.35871132309E+04 0.  0.
        4    1    3    3  502    0 -0.90080835053E+03 -0.11254615858E+04 -0.12329768277E+04  0.18969325070E+04  0.12699999809E+01 0. -1.
       -4    1    3    3    0  502  0.90080835053E+03  0.11254615858E+04  0.90988331835E+03  0.17047019480E+04  0.12699999809E+01 0.  1.
</event>
<event>
 5   0  0.5071661E-07  0.3617115E+04  0.7818609E-02  0.8086582E-01
       -1   -1    0    0    0  501  0.00000000000E+00  0.00000000000E+00  0.14963960434E+04  0.14963960434E+04  0.50400001928E-02 0. -1.
        1   -1    0    0  501    0  0.00000000000E+00  0.00000000000E+00 -0.21858389762E+04  0.21858389762E+04  0.50400001928E-02 0.  1.
    10030    2    1    2    0    0  0.00000000000E+00  0.00000000000E+00 -0.68944293279E+03  0.36822350196E+04  0.36171153123E+04 0.  0.
        1    1    3    3  502    0 -0.48198426983E+03  0.15542043821E+04 -0.11482483052E+04  0.19915657830E+04  0.50400001928E-02 0.  1.
       -1    1    3    3    0  502  0.48198426983E+03 -0.15542043821E+04  0.45880537236E+03  0.16906692366E+04  0.50400001928E-02 0. -1.
</event>
<event>
 5   0  0.1444091E-06  0.3558813E+04  0.7818609E-02  0.8099992E-01
       -2   -1    0    0    0  501  0.00000000000E+00  0.00000000000E+00  0.15763960269E+04  0.15763960269E+04  0.25500000920E-02 0. -1.
        2   -1    0    0  501    0  0.00000000000E+00  0.00000000000E+00 -0.20085613545E+04  0.20085613545E+04  0.25500000920E-02 0.  1.
    10030    2    1    2    0    0  0.00000000000E+00  0.00000000000E+00 -0.43216532753E+03  0.35849573814E+04  0.35588133635E+04 0.  0.
        1    1    3    3  502    0 -0.17150352151E+03  0.17642065832E+04 -0.37359571900E+03  0.18114668331E+04  0.50400001928E-02 0. -1.
       -1    1    3    3    0  502  0.17150352151E+03 -0.17642065832E+04 -0.58569608534E+02  0.17734905484E+04  0.50400001928E-02 0.  1.
</event>
<event>
 5   0  0.5071661E-07  0.3600067E+04  0.7818609E-02  0.8090476E-01
       -1   -1    0    0    0  501  0.00000000000E+00  0.00000000000E+00  0.15364754379E+04  0.15364754379E+04  0.50400001928E-02 0.  1.
        1   -1    0    0  501    0  0.00000000000E+00  0.00000000000E+00 -0.21088003255E+04  0.21088003255E+04  0.50400001928E-02 0. -1.
    10030    2    1    2    0    0  0.00000000000E+00  0.00000000000E+00 -0.57232488755E+03  0.36452757634E+04  0.36000666125E+04 0.  0.
        1    1    3    3  502    0  0.12019737213E+04 -0.30647399137E+03  0.10346154775E+04  0.16152697361E+04  0.50400001928E-02 0.  1.
       -1    1    3    3    0  502 -0.12019737213E+04  0.30647399137E+03 -0.16069403650E+04  0.20300060273E+04  0.50400001928E-02 0. -1.
</event>
<event>
 5   0  0.1505671E-06  0.3511353E+04  0.7818609E-02  0.8111105E-01
        2   -1    0    0  501    0  0.00000000000E+00  0.00000000000E+00  0.15565522375E+04  0.15565522375E+04  0.25500000920E-02 0.  1.
       -2   -1    0    0    0  501  0.00000000000E+00  0.00000000000E+00 -0.19802739337E+04  0.19802739337E+04  0.25500000920E-02 0. -1.
    10030    2    1    2    0    0  0.00000000000E+00  0.00000000000E+00 -0.42372169620E+03  0.35368261711E+04  0.35113529143E+04 0.  0.
        3    1    3    3  502    0 -0.69920487760E+03  0.11690587200E+03 -0.18297027235E+04  0.19622350803E+04  0.10100000352E+00 0. -1.
       -3    1    3    3    0  502  0.69920487760E+03 -0.11690587200E+03  0.14059810273E+04  0.15745910908E+04  0.10100000352E+00 0.  1.
</event>
<event>
 5   0  0.1505671E-06  0.3617462E+04  0.7818609E-02  0.8086503E-01
        2   -1    0    0  501    0  0.00000000000E+00  0.00000000000E+00  0.25717278484E+04  0.25717278484E+04  0.25500000920E-02 0. -1.
       -2   -1    0    0    0  501  0.00000000000E+00  0.00000000000E+00 -0.12721051637E+04  0.12721051637E+04  0.25500000920E-02 0.  1.
    10030    2    1    2    0    0  0.00000000000E+00  0.00000000000E+00  0.12996226848E+04  0.38438330121E+04  0.36174622461E+04 0.  0.
        3    1    3    3  502    0  0.11892961927E+03 -0.12747998206E+04  0.20073548830E+04  0.23809100095E+04  0.10100000352E+00 0. -1.
       -3    1    3    3    0  502 -0.11892961927E+03  0.12747998206E+04 -0.70773219822E+03  0.14629230026E+04  0.10100000352E+00 0.  1.
</event>
<event>
 5   0  0.1379425E-06  0.3552330E+04  0.7818609E-02  0.8101499E-01
        2   -1    0    0  501    0  0.00000000000E+00  0.00000000000E+00  0.12562788400E+04  0.12562788400E+04  0.25500000920E-02 0.  1.
       -2   -1    0    0    0  501  0.00000000000E+00  0.00000000000E+00 -0.25111953816E+04  0.25111953816E+04  0.25500000920E-02 0. -1.
    10030    2    1    2    0    0  0.00000000000E+00  0.00000000000E+00 -0.12549165416E+04  0.37674742216E+04  0.35523297263E+04 0.  0.
        4    1    3    3  502    0 -0.53027213957E+03  0.13231900451E+03  0.11648838954E+04  0.12867217896E+04  0.12699999809E+01 0.  1.
       -4    1    3    3    0  502  0.53027213957E+03 -0.13231900451E+03 -0.24198004371E+04  0.24807524321E+04  0.12699999809E+01 0. -1.
</event>
<event>
 5   0  0.4811500E-07  0.3693069E+04  0.7818609E-02  0.8069500E-01
        1   -1    0    0  501    0  0.00000000000E+00  0.00000000000E+00  0.22027319850E+04  0.22027319850E+04  0.50400001928E-02 0.  1.
       -1   -1    0    0    0  501  0.00000000000E+00  0.00000000000E+00 -0.15479364123E+04  0.15479364123E+04  0.50400001928E-02 0. -1.
    10030    2    1    2    0    0  0.00000000000E+00  0.00000000000E+00  0.65479557272E+03  0.37506683973E+04  0.36930686677E+04 0.  0.
        3    1    3    3  502    0 -0.66319410286E+03  0.15657013054E+04 -0.40386149565E+03  0.17476701959E+04  0.10100000352E+00 0.  1.
       -3    1    3    3    0  502  0.66319410286E+03 -0.15657013054E+04  0.10586570684E+04  0.20029982013E+04  0.10100000352E+00 0. -1.
</event>
<event>
 5   0  0.1379425E-06  0.2351645E+04  0.7818609E-02  0.8457832E-01
        2   -1    0    0  501    0  0.00000000000E+00  0.00000000000E+00  0.10171070472E+04  0.10171070472E+04  0.25500000920E-02 0.  1.
       -2   -1    0    0    0  501  0.00000000000E+00  0.00000000000E+00 -0.13593054108E+04  0.13593054108E+04  0.25500000920E-02 0. -1.
    10030    2    1    2    0    0  0.00000000000E+00  0.00000000000E+00 -0.34219836360E+03  0.23764124581E+04  0.23516454773E+04 0.  0.
        4    1    3    3  502    0 -0.99092386560E+03 -0.23703997110E+03  0.42197143843E+03  0.11028053151E+04  0.12699999809E+01 0.  1.
       -4    1    3    3    0  502  0.99092386560E+03  0.23703997110E+03 -0.76416980203E+03  0.12736071429E+04  0.12699999809E+01 0. -1.
</event>
<event>
 5   0  0.4811500E-07  0.3566872E+04  0.7818609E-02  0.8098122E-01
        1   -1    0    0  501    0  0.00000000000E+00  0.00000000000E+00  0.15715563801E+04  0.15715563801E+04  0.50400001928E-02 0. -1.
       -1   -1    0    0    0  501  0.00000000000E+00  0.00000000000E+00 -0.20238818756E+04  0.20238818756E+04  0.50400001928E-02 0.  1.
    10030    2    1    2    0    0  0.00000000000E+00  0.00000000000E+00 -0.45232549550E+03  0.35954382557E+04  0.35668722849E+04 0.  0.
        5    1    3    3  502    0 -0.10217058774E+04  0.47363784692E+03  0.11678103778E+04  0.16223498015E+04  0.46999998093E+01 0. -1.
       -5    1    3    3    0  502  0.10217058774E+04 -0.47363784692E+03 -0.16201358733E+04  0.19730884542E+04  0.46999998093E+01 0.  1.
</event>
<event>
 5   0  0.1444091E-06  0.3660678E+04  0.7818609E-02  0.8076732E-01
       -2   -1    0    0    0  501  0.00000000000E+00  0.00000000000E+00  0.13389717350E+04  0.13389717350E+04  0.25500000920E-02 0. -1.
        2   -1    0    0  501    0  0.00000000000E+00  0.00000000000E+00 -0.25020253840E+04  0.25020253840E+04  0.25500000920E-02 0.  1.
    10030    2    1    2    0    0  0.00000000000E+00  0.00000000000E+00 -0.11630536491E+04  0.38409971190E+04  0.36606782265E+04 0.  0.
        1    1    3    3  502    0 -0.24395361861E+03  0.14249793037E+04 -0.17593453012E+04  0.22771419088E+04  0.50400001928E-02 0.  1.
       -1    1    3    3    0  502  0.24395361861E+03 -0.14249793037E+04  0.59629165214E+03  0.15638552102E+04  0.50400001928E-02 0. -1.
</event>
<event>
 5   0  0.4811500E-07  0.3606232E+04  0.7818609E-02  0.8089066E-01
        1   -1    0    0  501    0  0.00000000000E+00  0.00000000000E+00  0.22338701567E+04  0.22338701567E+04  0.50400001928E-02 0.  1.
       -1   -1    0    0    0  501  0.00000000000E+00  0.00000000000E+00 -0.14554233236E+04  0.14554233236E+04  0.50400001928E-02 0. -1.
    10030    2    1    2    0    0  0.00000000000E+00  0.00000000000E+00  0.77844683312E+03  0.36892934803E+04  0.36062316775E+04 0.  0.
        2    1    3    3  502    0  0.14345888177E+04  0.10911143029E+04  0.44189947625E+03  0.18557614731E+04  0.25500000920E-02 0. -1.
       -2    1    3    3    0  502 -0.14345888177E+04 -0.10911143029E+04  0.33654735687E+03  0.18335320072E+04  0.25500000920E-02 0.  1.
</event>
<event>
 5   0  0.1491854E-06  0.3579598E+04  0.7818609E-02  0.8095181E-01
       -2   -1    0    0    0  501  0.00000000000E+00  0.00000000000E+00  0.12881466069E+04  0.12881466069E+04  0.25500000920E-02 0. -1.
        2   -1    0    0  501    0  0.00000000000E+00  0.00000000000E+00 -0.24868131699E+04  0.24868131699E+04  0.25500000920E-02 0.  1.
    10030    2    1    2    0    0  0.00000000000E+00  0.00000000000E+00 -0.11986665630E+04  0.37749597768E+04  0.35795977130E+04 0.  0.
        5    1    3    3  502    0 -0.15306799106E+04  0.54959575533E+03 -0.13873224239E+04  0.21376908291E+04  0.46999998093E+01 0.  1.
       -5    1    3    3    0  502  0.15306799106E+04 -0.54959575533E+03  0.18865586091E+03  0.16372689477E+04  0.46999998093E+01 0. -1.
</event>
<event>
 5   0  0.4811500E-07  0.3492077E+04  0.7818609E-02  0.8115670E-01
       -1   -1    0    0    0  501  0.00000000000E+00  0.00000000000E+00  0.13598940617E+04  0.13598940617E+04  0.50400001928E-02 0.  1.
        1   -1    0    0  501    0  0.00000000000E+00  0.00000000000E+00 -0.22418288678E+04  0.22418288678E+04  0.50400001928E-02 0. -1.
    10030    2    1    2    0    0  0.00000000000E+00  0.00000000000E+00 -0.88193480605E+03  0.36017229295E+04  0.34920766112E+04 0.  0.
        3    1    3    3  502    0  0.18184116549E+03 -0.16659285147E+04  0.64592302226E+02  0.16770677390E+04  0.10100000352E+00 0.  1.
       -3    1    3    3    0  502 -0.18184116549E+03  0.16659285147E+04 -0.94652710827E+03  0.19246551905E+04  0.10100000352E+00 0. -1.
</event>
<event>
 5   0  0.4811500E-07  0.2479967E+04  0.7818609E-02  0.8410157E-01
       -1   -1    0    0    0  501  0.00000000000E+00  0.00000000000E+00  0.15241574783E+04  0.15241574783E+04  0.50400001928E-02 0. -1.
        1   -1    0    0  501    0  0.00000000000E+00  0.00000000000E+00 -0.10087926949E+04  0.10087926949E+04  0.50400001928E-02 0.  1.
    10030    2    1    2    0    0  0.00000000000E+00  0.00000000000E+00  0.51536478339E+03  0.25329501732E+04  0.24799668788E+04 0.  0.
        3    1    3    3  502    0  0.75006933156E+02 -0.93155321273E+03 -0.57467736131E+03  0.10971196416E+04  0.10100000352E+00 0.  1.
       -3    1    3    3    0  502 -0.75006933156E+02  0.93155321273E+03  0.10900421447E+04  0.14358305316E+04  0.10100000352E+00 0. -1.
</event>
<event>
 5   0  0.4811500E-07  0.3587796E+04  0.7818609E-02  0.8093293E-01
        1   -1    0    0  501    0  0.00000000000E+00  0.00000000000E+00  0.18123765339E+04  0.18123765339E+04  0.50400001928E-02 0.  1.
       -1   -1    0    0    0  501  0.00000000000E+00  0.00000000000E+00 -0.17756082234E+04  0.17756082234E+04  0.50400001928E-02 0. -1.
    10030    2    1    2    0    0  0.00000000000E+00  0.00000000000E+00  0.36768310467E+02  0.35879847573E+04  0.35877963585E+04 0.  0.
        5    1    3    3  502    0 -0.90830882134E+03 -0.14518188612E+04  0.55249615172E+03  0.17994657563E+04  0.46999998093E+01 0.  1.
       -5    1    3    3    0  502  0.90830882134E+03  0.14518188612E+04 -0.51572784126E+03  0.17885190010E+04  0.46999998093E+01 0. -1.
</event>
<event>
 5   0  0.5071661E-07  0.2314301E+04  0.7818609E-02  0.8472304E-01
       -1   -1    0    0    0  501  0.00000000000E+00  0.00000000000E+00  0.87316399616E+03  0.87316399617E+03  0.50400001928E-02 0.  1.
        1   -1    0    0  501    0  0.00000000000E+00  0.00000000000E+00 -0.15335002694E+04  0.15335002694E+04  0.50400001928E-02 0. -1.
    10030    2    1    2    0    0  0.00000000000E+00  0.00000000000E+00 -0.66033627326E+03  0.24066642656E+04  0.23143009514E+04 0.  0.
        1    1    3    3  502    0 -0.12832608137E+03 -0.11173393264E+04 -0.47124495626E+02  0.11256711205E+04  0.50400001928E-02 0.  1.
       -1    1    3    3    0  502  0.12832608137E+03  0.11173393264E+04 -0.61321177764E+03  0.12809931451E+04  0.50400001928E-02 0. -1.
</event>
<event>
 5   0  0.4811500E-07  0.3571058E+04  0.7818609E-02  0.8097154E-01
        1   -1    0    0  501    0  0.00000000000E+00  0.00000000000E+00  0.13036286296E+04  0.13036286296E+04  0.50400001928E-02 0.  1.
       -1   -1    0    0    0  501  0.00000000000E+00  0.00000000000E+00 -0.24455684107E+04  0.24455684107E+04  0.50400001928E-02 0. -1.
    10030    2    1    2    0    0  0.00000000000E+00  0.00000000000E+00 -0.11419397811E+04  0.37491970403E+04  0.35710575441E+04 0.  0.
        2    1    3    3  502    0 -0.50150133357E+03  0.13873024605E+04 -0.16271353258E+04  0.21962880214E+04  0.25500000920E-02 0. -1.
       -2    1    3    3    0  502  0.50150133357E+03 -0.13873024605E+04  0.48519554473E+03  0.15529090189E+04  0.25500000920E-02 0.  1.
</event>
<event>
 5   0  0.4811500E-07  0.3615712E+04  0.7818609E-02  0.8086902E-01
        1   -1    0    0  501    0  0.00000000000E+00  0.00000000000E+00  0.20819657214E+04  0.20819657214E+04  0.50400001928E-02 0. -1.
       -1   -1    0    0    0  501  0.00000000000E+00  0.00000000000E+00 -0.15698352911E+04  0.15698352911E+04  0.50400001928E-02 0.  1.
    10030    2    1    2    0    0  0.00000000000E+00  0.00000000000E+00  0.51213043031E+03  0.36518010125E+04  0.36157119711E+04 0.  0.
        5    1    3    3  502    0  0.16278273676E+04  0.30684929782E+03 -0.47527744787E+03  0.17233366395E+04  0.46999998093E+01 0.  1.
       -5    1    3    3    0  502 -0.16278273676E+04 -0.30684929782E+03  0.98740787817E+03  0.19284643731E+04  0.46999998093E+01 0. -1.
</event>
<event>
 5   0  0.1491854E-06  0.3624306E+04  0.7818609E-02  0.8084947E-01
       -2   -1    0    0    0  501  0.00000000000E+00  0.00000000000E+00  0.15196557309E+04  0.15196557309E+04  0.25500000920E-02 0. -1.
        2   -1    0    0  501    0  0.00000000000E+00  0.00000000000E+00 -0.21609484495E+04  0.21609484495E+04  0.25500000920E-02 0.  1.
    10030    2    1    2    0    0  0.00000000000E+00  0.00000000000E+00 -0.64129271864E+03  0.36806041804E+04  0.36243055586E+04 0.  0.
        5    1    3    3  502    0  0.14587439442E+04 -0.10574068246E+04 -0.12311914727E+03  0.18058857942E+04  0.46999998093E+01 0.  1.
       -5    1    3    3    0  502 -0.14587439442E+04  0.10574068246E+04 -0.51817357137E+03  0.18747183862E+04  0.46999998093E+01 0. -1.
</event>
<event>
 5   0  0.4811500E-07  0.3347280E+04  0.7818609E-02  0.8150968E-01
        1   -1    0    0  501    0  0.00000000000E+00  0.00000000000E+00  0.24486003765E+04  0.24486003765E+04  0.50400001928E-02 0. -1.
       -1   -1    0    0    0  501  0.00000000000E+00  0.00000000000E+00 -0.11439476685E+04  0.11439476686E+04  0.50400001928E-02 0.  1.
    10030    2    1    2    0    0  0.00000000000E+00  0.00000000000E+00  0.13046527079E+04  0.35925480450E+04  0.33472799058E+04 0.  0.
        5    1    3    3  502    0  0.11683798858E+02  0.90052760402E+03 -0.86169834407E+03  0.12464479945E+04  0.46999998093E+01 0.  1.
       -5    1    3    3    0  502 -0.11683798858E+02 -0.90052760402E+03  0.21663510520E+04  0.23461000506E+04  0.46999998093E+01 0. -1.
</event>
<event>
 5   0  0.1444091E-06  0.2280633E+04  0.7818609E-02  0.8485596E-01
        2   -1    0    0  501    0  0.00000000000E+00  0.00000000000E+00  0.12637655844E+04  0.12637655844E+04  0.25500000920E-02 0.  1.
       -2   -1    0    0    0  501  0.00000000000E+00  0.00000000000E+00 -0.10289266668E+04  0.10289266668E+04  0.25500000920E-02 0. -1.
    10030    2    1    2    0    0  0.00000000000E+00  0.00000000000E+00  0.23483891758E+03  0.22926922512E+04  0.22806333422E+04 0.  0.
        1    1    3    3  502    0 -0.46574813502E+03  0.56370408598E+03 -0.76221487529E+03  0.10562457754E+04  0.50400001928E-02 0. -1.
       -1    1    3    3    0  502  0.46574813502E+03 -0.56370408598E+03  0.99705379287E+03  0.12364464759E+04  0.50400001928E-02 0.  1.
</event>
<event>
 5   0  0.5071661E-07  0.3618946E+04  0.7818609E-02  0.8086166E-01
        1   -1    0    0  501    0  0.00000000000E+00  0.00000000000E+00  0.22695215141E+04  0.22695215141E+04  0.50400001928E-02 0.  1.
       -1   -1    0    0    0  501  0.00000000000E+00  0.00000000000E+00 -0.14426796142E+04  0.14426796142E+04  0.50400001928E-02 0. -1.
    10030    2    1    2    0    0  0.00000000000E+00  0.00000000000E+00  0.82684189986E+03  0.37122011283E+04  0.36189459363E+04 0.  0.
        1    1    3    3  502    0  0.37545111340E+03  0.11826662881E+04 -0.93753201188E+03  0.15551943161E+04  0.50400001928E-02 0. -1.
       -1    1    3    3    0  502 -0.37545111340E+03 -0.11826662881E+04  0.17643739117E+04  0.21570068122E+04  0.50400001928E-02 0.  1.
</event>
<event>
 5   0  0.1379425E-06  0.3652573E+04  0.7818609E-02  0.8078554E-01
       -2   -1    0    0    0  501  0.00000000000E+00  0.00000000000E+00  0.19908492770E+04  0.19908492770E+04  0.25500000920E-02 0. -1.
        2   -1    0    0  501    0  0.00000000000E+00  0.00000000000E+00 -0.16753261282E+04  0.16753261282E+04  0.25500000920E-02 0.  1.
    10030    2    1    2    0    0  0.00000000000E+00  0.00000000000E+00  0.31552314883E+03  0.36661754052E+04  0.36525726884E+04 0.  0.
        4    1    3    3  502    0  0.45849555451E+03 -0.45752694606E+03 -0.15561605583E+04  0.16855819102E+04  0.12699999809E+01 0.  1.
       -4    1    3    3    0  502 -0.45849555451E+03  0.45752694606E+03  0.18716837071E+04  0.19805934950E+04  0.12699999809E+01 0. -1.
</event>
<event>
 5   0  0.1505671E-06  0.3546904E+04  0.7818609E-02  0.8102763E-01
       -2   -1    0    0    0  501  0.00000000000E+00  0.00000000000E+00  0.26467304270E+04  0.26467304270E+04  0.25500000920E-02 0. -1.
        2   -1    0    0  501    0  0.00000000000E+00  0.00000000000E+00 -0.11883085698E+04  0.11883085698E+04  0.25500000920E-02 0.  1.
    10030    2    1    2    0    0  0.00000000000E+00  0.00000000000E+00  0.14584218571E+04  0.38350389968E+04  0.35469042549E+04 0.  0.
        3    1    3    3  502    0 -0.31941683003E+03 -0.45101030120E+03  0.25512436422E+04  0.26104178851E+04  0.10100000352E+00 0. -1.
       -3    1    3    3    0  502  0.31941683003E+03  0.45101030120E+03 -0.10928217850E+04  0.12246211117E+04  0.10100000352E+00 0.  1.
</event>
<event>
 5   0  0.4811500E-07  0.3648633E+04  0.7818609E-02  0.8079442E-01
       -1   -1    0    0    0  501  0.00000000000E+00  0.00000000000E+00  0.18585596471E+04  0.18585596471E+04  0.50400001928E-02 0. -1.
        1   -1    0    0  501    0  0.00000000000E+00  0.00000000000E+00 -0.17907042670E+04  0.17907042670E+04  0.50400001928E-02 0.  1.
    10030    2    1    2    0    0  0.00000000000E+00  0.00000000000E+00  0.67855380035E+02  0.36492639141E+04  0.36486329991E+04 0.  0.
        3    1    3    3  502    0  0.51801567242E+03 -0.11732080454E+04 -0.12637454383E+04  0.18005026791E+04  0.10100000352E+00 0.  1.
       -3    1    3    3    0  502 -0.51801567242E+03  0.11732080454E+04  0.13316008183E+04  0.18487612350E+04  0.10100000352E+00 0. -1.
</event>
<event>
 5   0  0.4811500E-07  0.3583684E+04  0.7818609E-02  0.8094239E-01
       -1   -1    0    0    0  501  0.00000000000E+00  0.00000000000E+00  0.20307397107E+04  0.20307397107E+04  0.50400001928E-02 0.  1.
        1   -1    0    0  501    0  0.00000000000E+00  0.00000000000E+00 -0.15810484957E+04  0.15810484958E+04  0.50400001928E-02 0. -1.
    10030    2    1    2    0    0  0.00000000000E+00  0.00000000000E+00  0.44969121494E+03  0.36117882065E+04  0.35836841183E+04 0.  0.
        5    1    3    3  502    0 -0.83939831101E+03 -0.14099091231E+04 -0.50069064019E+03  0.17155601030E+04  0.46999998093E+01 0. -1.
       -5    1    3    3    0  502  0.83939831101E+03  0.14099091231E+04  0.95038185513E+03  0.18962281035E+04  0.46999998093E+01 0.  1.
</event>
<event>
 5   0  0.4811500E-07  0.3129240E+04  0.7818609E-02  0.8207759E-01
       -3   -1    0    0    0  501  0.00000000000E+00  0.00000000000E+00  0.12452102738E+04  0.12452102779E+04  0.10100000352E+00 0. -1.
        3   -1    0    0  501    0  0.00000000000E+00  0.00000000000E+00 -0.19659621448E+04  0.19659621474E+04  0.10100000352E+00 0.  1.
    10030    2    1    2    0    0  0.00000000000E+00  0.00000000000E+00 -0.72075187102E+03  0.32111724253E+04  0.31292403368E+04 0.  0.
        4    1    3    3  502    0 -0.50131941277E+03 -0.14553970022E+04 -0.72801023310E+02  0.15410396457E+04  0.12699999809E+01 0.  1.
       -4    1    3    3    0  502  0.50131941277E+03  0.14553970022E+04 -0.64795084771E+03  0.16701327796E+04  0.12699999809E+01 0. -1.
</event>
<event>
 5   0  0.4811500E-07  0.3651581E+04  0.7818609E-02  0.8078778E-01
       -1   -1    0    0    0  501  0.00000000000E+00  0.00000000000E+00  0.22912266154E+04  0.22912266154E+04  0.50400001928E-02 0.  1.
        1   -1    0    0  501    0  0.00000000000E+00  0.00000000000E+00 -0.14549024283E+04  0.14549024283E+04  0.50400001928E-02 0. -1.
    10030    2    1    2    0    0  0.00000000000E+00  0.00000000000E+00  0.83632418710E+03  0.37461290438E+04  0.36515811187E+04 0.  0.
        2    1    3    3  502    0 -0.60343746171E+03  0.16461742438E+04 -0.10442382714E+03  0.17563970926E+04  0.25500000920E-02 0. -1.
       -2    1    3    3    0  502  0.60343746171E+03 -0.16461742438E+04  0.94074801424E+03  0.19897319512E+04  0.25500000920E-02 0.  1.
</event>
<event>
 5   0  0.1505671E-06  0.2403766E+04  0.7818609E-02  0.8438095E-01
        2   -1    0    0  501    0  0.00000000000E+00  0.00000000000E+00  0.17702530429E+04  0.17702530429E+04  0.25500000920E-02 0. -1.
       -2   -1    0    0    0  501  0.00000000000E+00  0.00000000000E+00 -0.81599786240E+03  0.81599786240E+03  0.25500000920E-02 0.  1.
    10030    2    1    2    0    0  0.00000000000E+00  0.00000000000E+00  0.95425518046E+03  0.25862509053E+04  0.24037659611E+04 0.  0.
        3    1    3    3  502    0  0.10026209359E+04 -0.60843494563E+03  0.19434194736E+03  0.11887853578E+04  0.10100000352E+00 0.  1.
       -3    1    3    3    0  502 -0.10026209359E+04  0.60843494563E+03  0.75991323309E+03  0.13974655474E+04  0.10100000352E+00 0. -1.
</event>
<event>
 5   0  0.1468942E-06  0.3605166E+04  0.7818609E-02  0.8089309E-01
       -2   -1    0    0    0  501  0.00000000000E+00  0.00000000000E+00  0.28865379571E+04  0.28865379571E+04  0.25500000920E-02 0. -1.
        2   -1    0    0  501    0  0.00000000000E+00  0.00000000000E+00 -0.11256758523E+04  0.11256758523E+04  0.25500000920E-02 0.  1.
    10030    2    1    2    0    0  0.00000000000E+00  0.00000000000E+00  0.17608621048E+04  0.40122138094E+04  0.36051663347E+04 0.  0.
        2    1    3    3  502    0  0.11951683516E+04 -0.71855983463E+03 -0.39069670072E+03  0.14482401516E+04  0.25500000920E-02 0.  1.
       -2    1    3    3    0  502 -0.11951683516E+04  0.71855983463E+03  0.21515588055E+04  0.25639736579E+04  0.25500000920E-02 0. -1.
</event>
<event>
 5   0  0.1505671E-06  0.3619804E+04  0.7818609E-02  0.8085970E-01
       -2   -1    0    0    0  501  0.00000000000E+00  0.00000000000E+00  0.17177678476E+04  0.17177678476E+04  0.25500000920E-02 0.  1.
        2   -1    0    0  501    0  0.00000000000E+00  0.00000000000E+00 -0.19069776501E+04  0.19069776501E+04  0.25500000920E-02 0. -1.
    10030    2    1    2    0    0  0.00000000000E+00  0.00000000000E+00 -0.18920980246E+03  0.36247454977E+04  0.36198038032E+04 0.  0.
        3    1    3    3  502    0  0.64492034293E+03  0.13770869515E+04 -0.10775019155E+04  0.18636794544E+04  0.10100000352E+00 0. -1.
       -3    1    3    3    0  502 -0.64492034293E+03 -0.13770869515E+04  0.88829211300E+03  0.17610660433E+04  0.10100000352E+00 0.  1.
</event>
<event>
 5   0  0.1468942E-06  0.3563459E+04  0.7818609E-02  0.8098913E-01
       -2   -1    0    0    0  501  0.00000000000E+00  0.00000000000E+00  0.16785654567E+04  0.16785654567E+04  0.25500000920E-02 0.  1.
        2   -1    0    0  501    0  0.00000000000E+00  0.00000000000E+00 -0.18912340433E+04  0.18912340433E+04  0.25500000920E-02 0. -1.
    10030    2    1    2    0    0  0.00000000000E+00  0.00000000000E+00 -0.21266858666E+03  0.35697995000E+04  0.35634590698E+04 0.  0.
        2    1    3    3  502    0  0.11794946501E+04 -0.81499888795E+03  0.95343708516E+03  0.17217645287E+04  0.25500000920E-02 0.  1.
       -2    1    3    3    0  502 -0.11794946501E+04  0.81499888795E+03 -0.11661056718E+04  0.18480349712E+04  0.25500000920E-02 0. -1.
</event>
<event>
 5   0  0.1505671E-06  0.3558026E+04  0.7818609E-02  0.8100174E-01
        2   -1    0    0  501    0  0.00000000000E+00  0.00000000000E+00  0.20484342146E+04  0.20484342146E+04  0.25500000920E-02 0. -1.
       -2   -1    0    0    0  501  0.00000000000E+00  0.00000000000E+00 -0.15450278646E+04  0.15450278646E+04  0.25500000920E-02 0.  1.
    10030    2    1    2    0    0  0.00000000000E+00  0.00000000000E+00  0.50340635005E+03  0.35934620792E+04  0.35580263857E+04 0.  0.
        3    1    3    3  502    0  0.85207339868E+03  0.60848021031E+03  0.17042939570E+04  0.20002237738E+04  0.10100000352E+00 0. -1.
       -3    1    3    3    0  502 -0.85207339868E+03 -0.60848021031E+03 -0.12008876070E+04  0.15932383054E+04  0.10100000352E+00 0.  1.
</event>
<event>
 5   0  0.1491854E-06  0.3695359E+04  0.7818609E-02  0.8068991E-01
       -2   -1    0    0    0  501  0.00000000000E+00  0.00000000000E+00  0.13162093431E+04  0.13162093431E+04  0.25500000920E-02 0. -1.
        2   -1    0    0  501    0  0.00000000000E+00  0.00000000000E+00 -0.25937506278E+04  0.25937506278E+04  0.25500000920E-02 0.  1.
    10030    2    1    2    0    0  0.00000000000E+00  0.00000000000E+00 -0.12775412847E+04  0.39099599709E+04  0.36953586077E+04 0.  0.
        5    1    3    3  502    0  0.63218755128E+03  0.13250010910E+04  0.54825723504E+03  0.15671302042E+04  0.46999998093E+01 0. -1.
       -5    1    3    3    0  502 -0.63218755128E+03 -0.13250010910E+04 -0.18257985197E+04  0.23428297667E+04  0.46999998093E+01 0.  1.
</event>
<event>
 5   0  0.1379425E-06  0.3651423E+04  0.7818609E-02  0.8078813E-01
        2   -1    0    0  501    0  0.00000000000E+00  0.00000000000E+00  0.23479112361E+04  0.23479112361E+04  0.25500000920E-02 0. -1.
       -2   -1    0    0    0  501  0.00000000000E+00  0.00000000000E+00 -0.14196545578E+04  0.14196545578E+04  0.25500000920E-02 0.  1.
    10030    2    1    2    0    0  0.00000000000E+00  0.00000000000E+00  0.92825667832E+03  0.37675657939E+04  0.36514232226E+04 0.  0.
        4    1    3    3  502    0 -0.88191358210E+03 -0.86261179723E+03  0.18528011457E+04  0.22259255103E+04  0.12699999809E+01 0. -1.
       -4    1    3    3    0  502  0.88191358210E+03  0.86261179723E+03 -0.92454446733E+03  0.15416402836E+04  0.12699999809E+01 0.  1.
</event>
<event>
 5   0  0.1379425E-06  0.3797577E+04  0.7818609E-02  0.8046675E-01
       -2   -1    0    0    0  501  0.00000000000E+00  0.00000000000E+00  0.17744480698E+04  0.17744480698E+04  0.25500000920E-02 0. -1.
        2   -1    0    0  501    0  0.00000000000E+00  0.00000000000E+00 -0.20318422232E+04  0.20318422232E+04  0.25500000920E-02 0.  1.
    10030    2    1    2    0    0  0.00000000000E+00  0.00000000000E+00 -0.25739415340E+03  0.38062902929E+04  0.37975773914E+04 0.  0.
        4    1    3    3  502    0 -0.14141231163E+04  0.12389374030E+04  0.13778285030E+03  0.18851248774E+04  0.12699999809E+01 0. -1.
       -4    1    3    3    0  502  0.14141231163E+04 -0.12389374030E+04 -0.39517700370E+03  0.19211654155E+04  0.12699999809E+01 0.  1.
</event>
<event>
 5   0  0.5071661E-07  0.3588464E+04  0.7818609E-02  0.8093139E-01
        1   -1    0    0  501    0  0.00000000000E+00  0.00000000000E+00  0.22541424601E+04  0.22541424602E+04  0.50400001928E-02 0. -1.
       -1   -1    0    0    0  501  0.00000000000E+00  0.00000000000E+00 -0.14281566177E+04  0.14281566177E+04  0.50400001928E-02 0.  1.
    10030    2    1    2    0    0  0.00000000000E+00  0.00000000000E+00  0.82598584249E+03  0.36822990778E+04  0.35884640010E+04 0.  0.
        1    1    3    3  502    0 -0.17719103766E+04  0.24502949146E+03  0.26946904133E+03  0.18089553335E+04  0.50400001928E-02 0. -1.
       -1    1    3    3    0  502  0.17719103766E+04 -0.24502949146E+03  0.55651680116E+03  0.18733437443E+04  0.50400001928E-02 0.  1.
</event>
<event>
 5   0  0.1468942E-06  0.2289296E+04  0.7818609E-02  0.8482154E-01
        2   -1    0    0  501    0  0.00000000000E+00  0.00000000000E+00  0.12591457353E+04  0.12591457353E+04  0.25500000920E-02 0.  1.
       -2   -1    0    0    0  501  0.00000000000E+00  0.00000000000E+00 -0.10405615666E+04  0.10405615666E+04  0.25500000920E-02 0. -1.
    10030    2    1    2    0    0  0.00000000000E+00  0.00000000000E+00  0.21858416868E+03  0.22997073019E+04  0.22892956636E+04 0.  0.
        2    1    3    3  502    0  0.10260302044E+04 -0.39125667587E+03  0.43386974329E+03  0.11807043326E+04  0.25500000920E-02 0. -1.
       -2    1    3    3    0  502 -0.10260302044E+04  0.39125667587E+03 -0.21528557462E+03  0.11190029693E+04  0.25500000920E-02 0.  1.
</event>
<event>
 5   0  0.4811500E-07  0.3225107E+04  0.7818609E-02  0.8182218E-01
        1   -1    0    0  501    0  0.00000000000E+00  0.00000000000E+00  0.12181916765E+04  0.12181916765E+04  0.50400001928E-02 0.  1.
       -1   -1    0    0    0  501  0.00000000000E+00  0.00000000000E+00 -0.21345807422E+04  0.21345807422E+04  0.50400001928E-02 0. -1.
    10030    2    1    2    0    0  0.00000000000E+00  0.00000000000E+00 -0.91638906564E+03  0.33527724187E+04  0.32251068156E+04 0.  0.
        5    1    3    3  502    0 -0.97108340257E+03  0.65415986918E+03  0.69446950182E+03  0.13613368753E+04  0.46999998093E+01 0.  1.
       -5    1    3    3    0  502  0.97108340257E+03 -0.65415986918E+03 -0.16108585675E+04  0.19914355434E+04  0.46999998093E+01 0. -1.
</event>
<event>
 5   0  0.4811500E-07  0.3633748E+04  0.7818609E-02  0.8082805E-01
        1   -1    0    0  501    0  0.00000000000E+00  0.00000000000E+00  0.17341485680E+04  0.17341485680E+04  0.50400001928E-02 0.  1.
       -1   -1    0    0    0  501  0.00000000000E+00  0.00000000000E+00 -0.19035455638E+04  0.19035455638E+04  0.50400001928E-02 0. -1.
    10030    2    1    2    0    0  0.00000000000E+00  0.00000000000E+00 -0.16939699576E+03  0.36376941318E+04  0.36337478248E+04 0.  0.
        4    1    3    3  502    0  0.44961075206E+03  0.15170006305E+04  0.80934948028E+03  0.17772138125E+04  0.12699999809E+01 0.  1.
       -4    1    3    3    0  502 -0.44961075206E+03 -0.15170006305E+04 -0.97874647604E+03  0.18604803193E+04  0.12699999809E+01 0. -1.
</event>
<event>
 5   0  0.4811500E-07  0.3595786E+04  0.7818609E-02  0.8091458E-01
       -1   -1    0    0    0  501  0.00000000000E+00  0.00000000000E+00  0.20125149277E+04  0.20125149277E+04  0.50400001928E-02 0.  1.
        1   -1    0    0  501    0  0.00000000000E+00  0.00000000000E+00 -0.16061587195E+04  0.16061587195E+04  0.50400001928E-02 0. -1.
    10030    2    1    2    0    0  0.00000000000E+00  0.00000000000E+00  0.40635620818E+03  0.36186736471E+04  0.35957855326E+04 0.  0.
        5    1    3    3  502    0 -0.92130943558E+03 -0.77785578999E+03 -0.11389244342E+04  0.16586264386E+04  0.46999998093E+01 0. -1.
       -5    1    3    3    0  502  0.92130943558E+03  0.77785578999E+03  0.15452806423E+04  0.19600472085E+04  0.46999998093E+01 0.  1.
</event>
<event>
 5   0  0.1444091E-06  0.3614467E+04  0.7818609E-02  0.8087186E-01
       -2   -1    0    0    0  501  0.00000000000E+00  0.00000000000E+00  0.14771071283E+04  0.14771071283E+04  0.25500000920E-02 0.  1.
        2   -1    0    0  501    0  0.00000000000E+00  0.00000000000E+00 -0.22111419107E+04  0.22111419107E+04  0.25500000920E-02 0. -1.
    10030    2    1    2    0    0  0.00000000000E+00  0.00000000000E+00 -0.73403478234E+03  0.36882490390E+04  0.36144673068E+04 0.  0.
        1    1    3    3  502    0 -0.74635457939E+03 -0.84108053153E+03 -0.18106877494E+04  0.21314435823E+04  0.50400001928E-02 0. -1.
       -1    1    3    3    0  502  0.74635457939E+03  0.84108053153E+03  0.10766529670E+04  0.15568054567E+04  0.50400001928E-02 0.  1.
</event>
<event>
 5   0  0.1505671E-06  0.3596051E+04  0.7818609E-02  0.8091397E-01
        2   -1    0    0  501    0  0.00000000000E+00  0.00000000000E+00  0.23797367928E+04  0.23797367928E+04  0.25500000920E-02 0. -1.
       -2   -1    0    0    0  501  0.00000000000E+00  0.00000000000E+00 -0.13585097043E+04  0.13585097043E+04  0.25500000920E-02 0.  1.
    10030    2    1    2    0    0  0.00000000000E+00  0.00000000000E+00  0.10212270885E+04  0.37382464971E+04  0.35960509044E+04 0.  0.
        3    1    3    3  502    0 -0.15509210587E+04  0.74588678067E+03 -0.30739743448E+02  0.17212344878E+04  0.10100000352E+00 0.  1.
       -3    1    3    3    0  502  0.15509210587E+04 -0.74588678067E+03  0.10519668319E+04  0.20170120093E+04  0.10100000352E+00 0. -1.
</event>
<event>
 5   0  0.1491854E-06  0.2719267E+04  0.7818609E-02  0.8328780E-01
       -2   -1    0    0    0  501  0.00000000000E+00  0.00000000000E+00  0.13211285914E+04  0.13211285914E+04  0.25500000920E-02 0.  1.
        2   -1    0    0  501    0  0.00000000000E+00  0.00000000000E+00 -0.13992607199E+04  0.13992607199E+04  0.25500000920E-02 0. -1.
    10030    2    1    2    0    0  0.00000000000E+00  0.00000000000E+00 -0.78132128485E+02  0.27203893113E+04  0.27192670659E+04 0.  0.
        5    1    3    3  502    0 -0.58358701316E+03  0.10018942758E+04 -0.74944031677E+03  0.13805972694E+04  0.46999998093E+01 0. -1.
       -5    1    3    3    0  502  0.58358701316E+03 -0.10018942758E+04  0.67130818829E+03  0.13397920419E+04  0.46999998093E+01 0.  1.
</event>
<event>
 5   0  0.4811500E-07  0.3360310E+04  0.7818609E-02  0.8147717E-01
       -1   -1    0    0    0  501  0.00000000000E+00  0.00000000000E+00  0.13444423433E+04  0.13444423433E+04  0.50400001928E-02 0. -1.
        1   -1    0    0  501    0  0.00000000000E+00  0.00000000000E+00 -0.20996970202E+04  0.20996970202E+04  0.50400001928E-02 0.  1.
    10030    2    1    2    0    0  0.00000000000E+00  0.00000000000E+00 -0.75525467687E+03  0.34441393635E+04  0.33603104512E+04 0.  0.
        5    1    3    3  502    0  0.14819860764E+04  0.54802436872E+03  0.20783716464E+03  0.15936849803E+04  0.46999998093E+01 0. -1.
       -5    1    3    3    0  502 -0.14819860764E+04 -0.54802436872E+03 -0.96309184152E+03  0.18504543832E+04  0.46999998093E+01 0.  1.
</event>
<event>
 5   0  0.1505671E-06  0.3559468E+04  0.7818609E-02  0.8099840E-01
       -2   -1    0    0    0  501  0.00000000000E+00  0.00000000000E+00  0.15982520930E+04  0.15982520930E+04  0.25500000920E-02 0. -1.
        2   -1    0    0  501    0  0.00000000000E+00  0.00000000000E+00 -0.19818229401E+04  0.19818229401E+04  0.25500000920E-02 0.  1.
    10030    2    1    2    0    0  0.00000000000E+00  0.00000000000E+00 -0.38357084713E+03  0.35800750331E+04  0.35594677478E+04 0.  0.
        3    1    3    3  502    0  0.14640179296E+04  0.64480391645E+03 -0.97625737525E+03  0.18740861938E+04  0.10100000352E+00 0.  1.
       -3    1    3    3    0  502 -0.14640179296E+04 -0.64480391645E+03  0.59268652811E+03  0.17059888393E+04  0.10100000352E+00 0. -1.
</event>
<event>
 5   0  0.1379425E-06  0.2575714E+04  0.7818609E-02  0.8376498E-01
        2   -1    0    0  501    0  0.00000000000E+00  0.00000000000E+00  0.12552429278E+04  0.12552429278E+04  0.25500000920E-02 0.  1.
       -2   -1    0    0    0  501  0.00000000000E+00  0.00000000000E+00 -0.13213186298E+04  0.13213186298E+04  0.25500000920E-02 0. -1.
    10030    2    1    2    0    0  0.00000000000E+00  0.00000000000E+00 -0.66075702022E+02  0.25765615576E+04  0.25757141654E+04 0.  0.
        4    1    3    3  502    0  0.81250728418E+03  0.80189572546E+03  0.56328695803E+03  0.12729880798E+04  0.12699999809E+01 0.  1.
       -4    1    3    3    0  502 -0.81250728418E+03 -0.80189572546E+03 -0.62936266005E+03  0.13035734778E+04  0.12699999809E+01 0. -1.
</event>
<event>
 5   0  0.1491854E-06  0.3695085E+04  0.7818609E-02  0.8069052E-01
        2   -1    0    0  501    0  0.00000000000E+00  0.00000000000E+00  0.17194679960E+04  0.17194679960E+04  0.25500000920E-02 0. -1.
       -2   -1    0    0    0  501  0.00000000000E+00  0.00000000000E+00 -0.19851570304E+04  0.19851570304E+04  0.25500000920E-02 0.  1.
    10030    2    1    2    0    0  0.00000000000E+00  0.00000000000E+00 -0.26568903438E+03  0.37046250264E+04  0.36950853742E+04 0.  0.
        5    1    3    3  502    0 -0.11008278978E+04 -0.11989202792E+04  0.74357477292E+03  0.17894573002E+04  0.46999998093E+01 0. -1.
       -5    1    3    3    0  502  0.11008278978E+04  0.11989202792E+04 -0.10092638073E+04  0.19151677261E+04  0.46999998093E+01 0.  1.
</event>
<event>
 5   0  0.4811500E-07  0.2932640E+04  0.7818609E-02  0.8263232E-01
        1   -1    0    0  501    0  0.00000000000E+00  0.00000000000E+00  0.17496732490E+04  0.17496732490E+04  0.50400001928E-02 0. -1.
       -1   -1    0    0    0  501  0.00000000000E+00  0.00000000000E+00 -0.12288551558E+04  0.12288551558E+04  0.50400001928E-02 0.  1.
    10030    2    1    2    0    0  0.00000000000E+00  0.00000000000E+00  0.52081809323E+03  0.29785284048E+04  0.29326404437E+04 0.  0.
        5    1    3    3  502    0  0.11844055578E+04 -0.67685900043E+03  0.80651975907E+03  0.15847557678E+04  0.46999998093E+01 0. -1.
       -5    1    3    3    0  502 -0.11844055578E+04  0.67685900043E+03 -0.28570166584E+03  0.13937726370E+04  0.46999998093E+01 0.  1.
</event>
<event>
 5   0  0.1505671E-06  0.3504949E+04  0.7818609E-02  0.8112618E-01
        2   -1    0    0  501    0  0.00000000000E+00  0.00000000000E+00  0.17273351106E+04  0.17273351106E+04  0.25500000920E-02 0. -1.
       -2   -1    0    0    0  501  0.00000000000E+00  0.00000000000E+00 -0.17779801620E+04  0.17779801620E+04  0.25500000920E-02 0.  1.
    10030    2    1    2    0    0  0.00000000000E+00  0.00000000000E+00 -0.50645051370E+02  0.35053152726E+04  0.35049493918E+04 0.  0.
        3    1    3    3  502    0 -0.44970530425E+03  0.76362310713E+02  0.16669242868E+04  0.17282079306E+04  0.10100000352E+00 0. -1.
       -3    1    3    3    0  502  0.44970530425E+03 -0.76362310713E+02 -0.17175693382E+04  0.17771073420E+04  0.10100000352E+00 0.  1.
</event>
<event>
 5   0  0.1444091E-06  0.3263777E+04  0.7818609E-02  0.8172174E-01
        2   -1    0    0  501    0  0.00000000000E+00  0.00000000000E+00  0.24111675385E+04  0.24111675385E+04  0.25500000920E-02 0. -1.
       -2   -1    0    0    0  501  0.00000000000E+00  0.00000000000E+00 -0.11044688873E+04  0.11044688873E+04  0.25500000920E-02 0.  1.
    10030    2    1    2    0    0  0.00000000000E+00  0.00000000000E+00  0.13066986512E+04  0.35156364258E+04  0.32637766642E+04 0.  0.
        1    1    3    3  502    0 -0.11257986541E+03  0.18286734793E+03  0.23958815036E+04  0.24054859950E+04  0.50400001928E-02 0. -1.
       -1    1    3    3    0  502  0.11257986541E+03 -0.18286734793E+03 -0.10891828524E+04  0.11101504308E+04  0.50400001928E-02 0.  1.
</event>
<event>
 5   0  0.1379425E-06  0.3098308E+04  0.7818609E-02  0.8216202E-01
       -2   -1    0    0    0  501  0.00000000000E+00  0.00000000000E+00  0.17008773667E+04  0.17008773667E+04  0.25500000920E-02 0.  1.
        2   -1    0    0  501    0  0.00000000000E+00  0.00000000000E+00 -0.14109651413E+04  0.14109651413E+04  0.25500000920E-02 0. -1.
    10030    2    1    2    0    0  0.00000000000E+00  0.00000000000E+00  0.28991222538E+03  0.31118425080E+04  0.30983083604E+04 0.  0.
        4    1    3    3  502    0  0.12803867448E+04  0.61887485068E+03 -0.47212234134E+03  0.14984316518E+04  0.12699999809E+01 0. -1.
       -4    1    3    3    0  502 -0.12803867448E+04 -0.61887485068E+03  0.76203456672E+03  0.16134108562E+04  0.12699999809E+01 0.  1.
</event>
<event>
 5   0  0.1444091E-06  0.2824358E+04  0.7818609E-02  0.8295746E-01
       -2   -1    0    0    0  501  0.00000000000E+00  0.00000000000E+00  0.83885437112E+03  0.83885437113E+03  0.25500000920E-02 0. -1.
        2   -1    0    0  501    0  0.00000000000E+00  0.00000000000E+00 -0.23773483028E+04  0.23773483028E+04  0.25500000920E-02 0.  1.
    10030    2    1    2    0    0  0.00000000000E+00  0.00000000000E+00 -0.15384939317E+04  0.32162026739E+04  0.28243576370E+04 0.  0.
        1    1    3    3  502    0  0.37100511100E+03  0.95934941690E+03 -0.18710914763E+04  0.21351766692E+04  0.50400001928E-02 0.  1.
       -1    1    3    3    0  502 -0.37100511100E+03 -0.95934941690E+03  0.33259754464E+03  0.10810260047E+04  0.50400001928E-02 0. -1.
</event>
<event>
 5   0  0.1505671E-06  0.2360401E+04  0.7818609E-02  0.8454479E-01
       -2   -1    0    0    0  501  0.00000000000E+00  0.00000000000E+00  0.12973842440E+04  0.12973842440E+04  0.25500000920E-02 0.  1.
        2   -1    0    0  501    0  0.00000000000E+00  0.00000000000E+00 -0.10736014727E+04  0.10736014727E+04  0.25500000920E-02 0. -1.
    10030    2    1    2    0    0  0.00000000000E+00  0.00000000000E+00  0.22378277133E+03  0.23709857168E+04  0.23604013515E+04 0.  0.
        3    1    3    3  502    0  0.18246692926E+03 -0.80435032700E+03 -0.73605030927E+03  0.11054608527E+04  0.10100000352E+00 0. -1.
       -3    1    3    3    0  502 -0.18246692926E+03  0.80435032700E+03  0.95983308059E+03  0.12655248641E+04  0.10100000352E+00 0.  1.
</event>
<event>
 5   0  0.1468942E-06  0.3041430E+04  0.7818609E-02  0.8231998E-01
        2   -1    0    0  501    0  0.00000000000E+00  0.00000000000E+00  0.16671587569E+04  0.16671587569E+04  0.25500000920E-02 0. -1.
       -2   -1    0    0    0  501  0.00000000000E+00  0.00000000000E+00 -0.13871349799E+04  0.13871349799E+04  0.25500000920E-02 0.  1.
    10030    2    1    2    0    0  0.00000000000E+00  0.00000000000E+00  0.28002377706E+03  0.30542937368E+04  0.30414300773E+04 0.  0.
        2    1    3    3  502    0  0.21207476189E+03  0.14940825951E+04 -0.48707715359E+02  0.15098446765E+04  0.25500000920E-02 0. -1.
       -2    1    3    3    0  502 -0.21207476189E+03 -0.14940825951E+04  0.32873149242E+03  0.15444490603E+04  0.25500000920E-02 0.  1.
</event>
<event>
 5   0  0.1444091E-06  0.3523342E+04  0.7818609E-02  0.8108280E-01
       -2   -1    0    0    0  501  0.00000000000E+00  0.00000000000E+00  0.23958657525E+04  0.23958657525E+04  0.25500000920E-02 0.  1.
        2   -1    0    0  501    0  0.00000000000E+00  0.00000000000E+00 -0.12953501416E+04  0.12953501416E+04  0.25500000920E-02 0. -1.
    10030    2    1    2    0    0  0.00000000000E+00  0.00000000000E+00  0.11005156109E+04  0.36912158942E+04  0.35233421871E+04 0.  0.
        1    1    3    3  502    0 -0.15187480393E+04  0.31220272931E+03 -0.32590195301E+03  0.15843857592E+04  0.50400001928E-02 0. -1.
       -1    1    3    3    0  502  0.15187480393E+04 -0.31220272931E+03  0.14264175639E+04  0.21068301350E+04  0.50400001928E-02 0.  1.
</event>
<event>
 5   0  0.1468942E-06  0.3647598E+04  0.7818609E-02  0.8079675E-01
        2   -1    0    0  501    0  0.00000000000E+00  0.00000000000E+00  0.14254990187E+04  0.14254990187E+04  0.25500000920E-02 0. -1.
       -2   -1    0    0    0  501  0.00000000000E+00  0.00000000000E+00 -0.23333877908E+04  0.23333877908E+04  0.25500000920E-02 0.  1.
    10030    2    1    2    0    0  0.00000000000E+00  0.00000000000E+00 -0.90788877213E+03  0.37588868095E+04  0.36475975688E+04 0.  0.
        2    1    3    3  502    0 -0.13249335214E+04  0.78407086849E+03 -0.14615421431E+04  0.21228097887E+04  0.25500000920E-02 0.  1.
       -2    1    3    3    0  502  0.13249335214E+04 -0.78407086849E+03  0.55365337093E+03  0.16360770208E+04  0.25500000920E-02 0. -1.
</event>
<event>
 5   0  0.5071661E-07  0.3566889E+04  0.7818609E-02  0.8098119E-01
       -1   -1    0    0    0  501  0.00000000000E+00  0.00000000000E+00  0.16430391742E+04  0.16430391742E+04  0.50400001928E-02 0.  1.
        1   -1    0    0  501    0  0.00000000000E+00  0.00000000000E+00 -0.19358476010E+04  0.19358476010E+04  0.50400001928E-02 0. -1.
    10030    2    1    2    0    0  0.00000000000E+00  0.00000000000E+00 -0.29280842685E+03  0.35788867752E+04  0.35668885285E+04 0.  0.
        1    1    3    3  502    0 -0.15767023556E+04 -0.76383226320E+03  0.18824942215E+03  0.17620635316E+04  0.50400001928E-02 0. -1.
       -1    1    3    3    0  502  0.15767023556E+04  0.76383226320E+03 -0.48105784900E+03  0.18168232436E+04  0.50400001928E-02 0.  1.
</event>
<event>
 5   0  0.4811500E-07  0.2308985E+04  0.7818609E-02  0.8474387E-01
       -1   -1    0    0    0  501  0.00000000000E+00  0.00000000000E+00  0.86078638282E+03  0.86078638284E+03  0.50400001928E-02 0.  1.
        1   -1    0    0  501    0  0.00000000000E+00  0.00000000000E+00 -0.15484128436E+04  0.15484128436E+04  0.50400001928E-02 0. -1.
    10030    2    1    2    0    0  0.00000000000E+00  0.00000000000E+00 -0.68762646074E+03  0.24091992264E+04  0.23089847906E+04 0.  0.
        2    1    3    3  502    0 -0.16754820465E+03 -0.10780217474E+04 -0.73789525028E+03  0.13170773285E+04  0.25500000920E-02 0. -1.
       -2    1    3    3    0  502  0.16754820465E+03  0.10780217474E+04  0.50268789538E+02  0.10921218979E+04  0.25500000920E-02 0.  1.
</event>
<event>
 5   0  0.4811500E-07  0.3645187E+04  0.7818609E-02  0.8080219E-01
        1   -1    0    0  501    0  0.00000000000E+00  0.00000000000E+00  0.24566970761E+04  0.24566970761E+04  0.50400001928E-02 0. -1.
       -1   -1    0    0    0  501  0.00000000000E+00  0.00000000000E+00 -0.13521598101E+04  0.13521598101E+04  0.50400001928E-02 0.  1.
    10030    2    1    2    0    0  0.00000000000E+00  0.00000000000E+00  0.11045372660E+04  0.38088568862E+04  0.36451869921E+04 0.  0.
        4    1    3    3  502    0  0.17533220390E+04  0.35539231635E+03  0.91634338987E+03  0.20100071373E+04  0.12699999809E+01 0.  1.
       -4    1    3    3    0  502 -0.17533220390E+04 -0.35539231635E+03  0.18819387618E+03  0.17988497489E+04  0.12699999809E+01 0. -1.
</event>
<event>
 5   0  0.4811500E-07  0.3633178E+04  0.7818609E-02  0.8082934E-01
        1   -1    0    0  501    0  0.00000000000E+00  0.00000000000E+00  0.23521370736E+04  0.23521370736E+04  0.50400001928E-02 0.  1.
       -1   -1    0    0    0  501  0.00000000000E+00  0.00000000000E+00 -0.14029776137E+04  0.14029776137E+04  0.50400001928E-02 0. -1.
    10030    2    1    2    0    0  0.00000000000E+00  0.00000000000E+00  0.94915945989E+03  0.37551146873E+04  0.36331780350E+04 0.  0.
        5    1    3    3  502    0 -0.67468896983E+03 -0.15953880712E+04  0.10402179619E+04  0.20205305744E+04  0.46999998093E+01 0.  1.
       -5    1    3    3    0  502  0.67468896983E+03  0.15953880712E+04 -0.91058502025E+02  0.17345841129E+04  0.46999998093E+01 0. -1.
</event>
<event>
 5   0  0.1505671E-06  0.3643021E+04  0.7818609E-02  0.8080708E-01
        2   -1    0    0  501    0  0.00000000000E+00  0.00000000000E+00  0.27362328722E+04  0.27362328722E+04  0.25500000920E-02 0. -1.
       -2   -1    0    0    0  501  0.00000000000E+00  0.00000000000E+00 -0.12125794395E+04  0.12125794395E+04  0.25500000920E-02 0.  1.
    10030    2    1    2    0    0  0.00000000000E+00  0.00000000000E+00  0.15236534327E+04  0.39488123117E+04  0.36430205722E+04 0.  0.
        3    1    3    3  502    0 -0.11675416783E+04 -0.10574257178E+04 -0.22960547913E+03  0.15918609881E+04  0.10100000352E+00 0.  1.
       -3    1    3    3    0  502  0.11675416783E+04  0.10574257178E+04  0.17532589119E+04  0.23569513235E+04  0.10100000352E+00 0. -1.
</event>
<event>
 5   0  0.4811500E-07  0.3602218E+04  0.7818609E-02  0.8089984E-01
        3   -1    0    0  501    0  0.00000000000E+00  0.00000000000E+00  0.13982289420E+04  0.13982289457E+04  0.10100000352E+00 0. -1.
       -3   -1    0    0    0  501  0.00000000000E+00  0.00000000000E+00 -0.23200736829E+04  0.23200736851E+04  0.10100000352E+00 0.  1.
    10030    2    1    2    0    0  0.00000000000E+00  0.00000000000E+00 -0.92184474091E+03  0.37183026308E+04  0.36022183065E+04 0.  0.
        4    1    3    3  502    0 -0.31089368628E+03  0.13419543389E+04 -0.16587029767E+04  0.21561060989E+04  0.12699999809E+01 0.  1.
       -4    1    3    3    0  502  0.31089368628E+03 -0.13419543389E+04  0.73685823580E+03  0.15621965319E+04  0.12699999809E+01 0. -1.
</event>
<event>
 5   0  0.1505671E-06  0.3391126E+04  0.7818609E-02  0.8140088E-01
       -2   -1    0    0    0  501  0.00000000000E+00  0.00000000000E+00  0.12153444599E+04  0.12153444599E+04  0.25500000920E-02 0.  1.
        2   -1    0    0  501    0  0.00000000000E+00  0.00000000000E+00 -0.23655297884E+04  0.23655297884E+04  0.25500000920E-02 0. -1.
    10030    2    1    2    0    0  0.00000000000E+00  0.00000000000E+00 -0.11501853286E+04  0.35808742483E+04  0.33911257854E+04 0.  0.
        3    1    3    3  502    0  0.13254813536E+04 -0.55971388949E+03  0.37218323487E+03  0.14861698515E+04  0.10100000352E+00 0.  1.
       -3    1    3    3    0  502 -0.13254813536E+04  0.55971388949E+03 -0.15223685634E+04  0.20947043968E+04  0.10100000352E+00 0. -1.
</event>
<event>
 5   0  0.4811500E-07  0.2739344E+04  0.7818609E-02  0.8322351E-01
       -1   -1    0    0    0  501  0.00000000000E+00  0.00000000000E+00  0.12759268051E+04  0.12759268051E+04  0.50400001928E-02 0. -1.
        1   -1    0    0  501    0  0.00000000000E+00  0.00000000000E+00 -0.14703049456E+04  0.14703049456E+04  0.50400001928E-02 0.  1.
    10030    2    1    2    0    0  0.00000000000E+00  0.00000000000E+00 -0.19437814055E+03  0.27462317507E+04  0.27393440760E+04 0.  0.
        3    1    3    3  502    0 -0.43775400694E+03  0.43384386268E+03 -0.13234376500E+04  0.14599096861E+04  0.10100000352E+00 0.  1.
       -3    1    3    3    0  502  0.43775400694E+03 -0.43384386268E+03  0.11290595095E+04  0.12863220646E+04  0.10100000352E+00 0. -1.
</event>
<event>
 5   0  0.4811500E-07  0.3648875E+04  0.7818609E-02  0.8079387E-01
       -1   -1    0    0    0  501  0.00000000000E+00  0.00000000000E+00  0.20473303179E+04  0.20473303179E+04  0.50400001928E-02 0.  1.
        1   -1    0    0  501    0  0.00000000000E+00  0.00000000000E+00 -0.16258108368E+04  0.16258108368E+04  0.50400001928E-02 0. -1.
    10030    2    1    2    0    0  0.00000000000E+00  0.00000000000E+00  0.42151948107E+03  0.36731411547E+04  0.36488747950E+04 0.  0.
        4    1    3    3  502    0 -0.12495298891E+04 -0.58394416517E+03  0.14129609659E+04  0.19745318523E+04  0.12699999809E+01 0.  1.
       -4    1    3    3    0  502  0.12495298891E+04  0.58394416517E+03 -0.99144148480E+03  0.16986093024E+04  0.12699999809E+01 0. -1.
</event>
<event>
 5   0  0.4811500E-07  0.3513033E+04  0.7818609E-02  0.8110708E-01
       -1   -1    0    0    0  501  0.00000000000E+00  0.00000000000E+00  0.23385915494E+04  0.23385915494E+04  0.50400001928E-02 0.  1.
        1   -1    0    0  501    0  0.00000000000E+00  0.00000000000E+00 -0.13193195080E+04  0.13193195080E+04  0.50400001928E-02 0. -1.
    10030    2    1    2    0    0  0.00000000000E+00  0.00000000000E+00  0.10192720415E+04  0.36579110574E+04  0.35130325660E+04 0.  0.
        5    1    3    3  502    0 -0.12469077612E+04  0.11886595180E+04  0.86676314702E+03  0.19284685265E+04  0.46999998093E+01 0.  1.
       -5    1    3    3    0  502  0.12469077612E+04 -0.11886595180E+04  0.15250889444E+03  0.17294425309E+04  0.46999998093E+01 0. -1.
</event>
<event>
 5   0  0.1379425E-06  0.3577986E+04  0.7818609E-02  0.8095553E-01
        2   -1    0    0  501    0  0.00000000000E+00  0.00000000000E+00  0.19039370644E+04  0.19039370644E+04  0.25500000920E-02 0.  1.
       -2   -1    0    0    0  501  0.00000000000E+00  0.00000000000E+00 -0.16809878525E+04  0.16809878525E+04  0.25500000920E-02 0. -1.
    10030    2    1    2    0    0  0.00000000000E+00  0.00000000000E+00  0.22294921187E+03  0.35849249168E+04  0.35779855098E+04 0.  0.
        4    1    3    3  502    0 -0.11398706552E+04  0.13748218427E+04  0.61362426371E+01  0.17859113853E+04  0.12699999809E+01 0.  1.
       -4    1    3    3    0  502  0.11398706552E+04 -0.13748218427E+04  0.21681296924E+03  0.17990135315E+04  0.12699999809E+01 0. -1.
</event>
<event>
 5   0  0.1379425E-06  0.2953192E+04  0.7818609E-02  0.8257225E-01
       -2   -1    0    0    0  501  0.00000000000E+00  0.00000000000E+00  0.10352016369E+04  0.10352016369E+04  0.25500000920E-02 0.  1.
        2   -1    0    0  501    0  0.00000000000E+00  0.00000000000E+00 -0.21061944825E+04  0.21061944825E+04  0.25500000920E-02 0. -1.
    10030    2    1    2    0    0  0.00000000000E+00  0.00000000000E+00 -0.10709928456E+04  0.31413961194E+04  0.29531921549E+04 0.  0.
        4    1    3    3  502    0  0.11466648566E+04 -0.60989141821E+02  0.45198239805E+03  0.12340379531E+04  0.12699999809E+01 0.  1.
       -4    1    3    3    0  502 -0.11466648566E+04  0.60989141821E+02 -0.15229752436E+04  0.19073581663E+04  0.12699999809E+01 0. -1.
</event>
<event>
 5   0  0.1505671E-06  0.2936844E+04  0.7818609E-02  0.8261999E-01
       -2   -1    0    0    0  501  0.00000000000E+00  0.00000000000E+00  0.11387185869E+04  0.11387185869E+04  0.25500000920E-02 0.  1.
        2   -1    0    0  501    0  0.00000000000E+00  0.00000000000E+00 -0.18935870666E+04  0.18935870666E+04  0.25500000920E-02 0. -1.
    10030    2    1    2    0    0  0.00000000000E+00  0.00000000000E+00 -0.75486847975E+03  0.30323056535E+04  0.29368437402E+04 0.  0.
        3    1    3    3  502    0 -0.83250223959E+03  0.11451016299E+04  0.25037530102E+02  0.14159606667E+04  0.10100000352E+00 0. -1.
       -3    1    3    3    0  502  0.83250223959E+03 -0.11451016299E+04 -0.77990600985E+03  0.16163449867E+04  0.10100000352E+00 0.  1.
</event>
<event>
 5   0  0.5071661E-07  0.2616008E+04  0.7818609E-02  0.8362784E-01
        1   -1    0    0  501    0  0.00000000000E+00  0.00000000000E+00  0.15108140986E+04  0.15108140986E+04  0.50400001928E-02 0.  1.
       -1   -1    0    0    0  501  0.00000000000E+00  0.00000000000E+00 -0.11324191364E+04  0.11324191364E+04  0.50400001928E-02 0. -1.
    10030    2    1    2    0    0  0.00000000000E+00  0.00000000000E+00  0.37839496216E+03  0.26432332350E+04  0.26160082544E+04 0.  0.
        1    1    3    3  502    0  0.33469738771E+03  0.16833207517E+03 -0.10770472904E+04  0.11403459539E+04  0.50400001928E-02 0. -1.
       -1    1    3    3    0  502 -0.33469738771E+03 -0.16833207517E+03  0.14554422526E+04  0.15028872810E+04  0.50400001928E-02 0.  1.
</event>
<event>
 5   0  0.1379425E-06  0.3616380E+04  0.7818609E-02  0.8086750E-01
        2   -1    0    0  501    0  0.00000000000E+00  0.00000000000E+00  0.23640486424E+04  0.23640486424E+04  0.25500000920E-02 0. -1.
       -2   -1    0    0    0  501  0.00000000000E+00  0.00000000000E+00 -0.13830301441E+04  0.13830301441E+04  0.25500000920E-02 0.  1.
    10030    2    1    2    0    0  0.00000000000E+00  0.00000000000E+00  0.98101849827E+03  0.37470787865E+04  0.36163797005E+04 0.  0.
        4    1    3    3  502    0 -0.26946694214E+03  0.25266447259E+03  0.23245362828E+04  0.23537039558E+04  0.12699999809E+01 0. -1.
       -4    1    3    3    0  502  0.26946694214E+03 -0.25266447259E+03 -0.13435177845E+04  0.13933748307E+04  0.12699999809E+01 0.  1.
</event>
<event>
 5   0  0.4811500E-07  0.3580294E+04  0.7818609E-02  0.8095021E-01
       -1   -1    0    0    0  501  0.00000000000E+00  0.00000000000E+00  0.19924437732E+04  0.19924437732E+04  0.50400001928E-02 0. -1.
        1   -1    0    0  501    0  0.00000000000E+00  0.00000000000E+00 -0.16083899690E+04  0.16083899690E+04  0.50400001928E-02 0.  1.
    10030    2    1    2    0    0  0.00000000000E+00  0.00000000000E+00  0.38405380422E+03  0.36008337422E+04  0.35802941659E+04 0.  0.
        4    1    3    3  502    0 -0.97020744751E+03 -0.65428979539E+03 -0.11704504557E+04  0.16550992447E+04  0.12699999809E+01 0.  1.
       -4    1    3    3    0  502  0.97020744751E+03  0.65428979539E+03  0.15545042600E+04  0.19457344975E+04  0.12699999809E+01 0. -1.
</event>
<event>
 5   0  0.1444091E-06  0.3604752E+04  0.7818609E-02  0.8089404E-01
        2   -1    0    0  501    0  0.00000000000E+00  0.00000000000E+00  0.13658024978E+04  0.13658024978E+04  0.25500000920E-02 0. -1.
       -2   -1    0    0    0  501  0.00000000000E+00  0.00000000000E+00 -0.23784980219E+04  0.23784980219E+04  0.25500000920E-02 0.  1.
    10030    2    1    2    0    0  0.00000000000E+00  0.00000000000E+00 -0.10126955241E+04  0.37443005198E+04  0.36047516083E+04 0.  0.
        1    1    3    3  502    0  0.68746198968E+03  0.58291179788E+02 -0.22359075180E+04  0.23399325370E+04  0.50400001928E-02 0.  1.
       -1    1    3    3    0  502 -0.68746198968E+03 -0.58291179788E+02  0.12232119939E+04  0.14043679827E+04  0.50400001928E-02 0. -1.
</event>
<event>
 5   0  0.1491854E-06  0.2602331E+04  0.7818609E-02  0.8367410E-01
        2   -1    0    0  501    0  0.00000000000E+00  0.00000000000E+00  0.72703285792E+03  0.72703285793E+03  0.25500000920E-02 0.  1.
       -2   -1    0    0    0  501  0.00000000000E+00  0.00000000000E+00 -0.23286865333E+04  0.23286865333E+04  0.25500000920E-02 0. -1.
    10030    2    1    2    0    0  0.00000000000E+00  0.00000000000E+00 -0.16016536754E+04  0.30557193912E+04  0.26023309747E+04 0.  0.
        5    1    3    3  502    0  0.11681633542E+03  0.77394513011E+03  0.41967287795E+03  0.88813542612E+03  0.46999998093E+01 0.  1.
       -5    1    3    3    0  502 -0.11681633542E+03 -0.77394513011E+03 -0.20213265533E+04  0.21675839651E+04  0.46999998093E+01 0. -1.
</event>
<event>
 5   0  0.4811500E-07  0.3616187E+04  0.7818609E-02  0.8086794E-01
       -1   -1    0    0    0  501  0.00000000000E+00  0.00000000000E+00  0.11715396566E+04  0.11715396566E+04  0.50400001928E-02 0. -1.
        1   -1    0    0  501    0  0.00000000000E+00  0.00000000000E+00 -0.27905170204E+04  0.27905170204E+04  0.50400001928E-02 0.  1.
    10030    2    1    2    0    0  0.00000000000E+00  0.00000000000E+00 -0.16189773639E+04  0.39620566770E+04  0.36161865836E+04 0.  0.
        4    1    3    3  502    0 -0.15370571532E+04  0.38756922175E+03  0.14343599415E+03  0.15916438330E+04  0.12699999809E+01 0. -1.
       -4    1    3    3    0  502  0.15370571532E+04 -0.38756922175E+03 -0.17624133580E+04  0.23704128440E+04  0.12699999809E+01 0.  1.
</event>
<event>
 5   0  0.5071661E-07  0.3511738E+04  0.7818609E-02  0.8111014E-01
       -1   -1    0    0    0  501  0.00000000000E+00  0.00000000000E+00  0.10796490815E+04  0.10796490815E+04  0.50400001928E-02 0.  1.
        1   -1    0    0  501    0  0.00000000000E+00  0.00000000000E+00 -0.28556283270E+04  0.28556283270E+04  0.50400001928E-02 0. -1.
    10030    2    1    2    0    0  0.00000000000E+00  0.00000000000E+00 -0.17759792455E+04  0.39352774085E+04  0.35117383161E+04 0.  0.
        1    1    3    3  502    0 -0.16885488100E+04  0.44324264128E+03 -0.10988762996E+04  0.20628112480E+04  0.50400001928E-02 0. -1.
       -1    1    3    3    0  502  0.16885488100E+04 -0.44324264128E+03 -0.67710294589E+03  0.18724661605E+04  0.50400001928E-02 0.  1.
</event>
<event>
 5   0  0.4811500E-07  0.3508738E+04  0.7818609E-02  0.8111722E-01
       -1   -1    0    0    0  501  0.00000000000E+00  0.00000000000E+00  0.21935477513E+04  0.21935477513E+04  0.50400001928E-02 0. -1.
        1   -1    0    0  501    0  0.00000000000E+00  0.00000000000E+00 -0.14031200507E+04  0.14031200507E+04  0.50400001928E-02 0.  1.
    10030    2    1    2    0    0  0.00000000000E+00  0.00000000000E+00  0.79042770062E+03  0.35966678020E+04  0.35087381389E+04 0.  0.
        4    1    3    3  502    0  0.42149003325E+03 -0.23441665317E+03  0.21242580302E+04  0.21783201801E+04  0.12699999809E+01 0. -1.
       -4    1    3    3    0  502 -0.42149003325E+03  0.23441665317E+03 -0.13338303296E+04  0.14183476218E+04  0.12699999809E+01 0.  1.
</event>
<event>
 5   0  0.1379425E-06  0.3329458E+04  0.7818609E-02  0.8155440E-01
        2   -1    0    0  501    0  0.00000000000E+00  0.00000000000E+00  0.13434101490E+04  0.13434101490E+04  0.25500000920E-02 0. -1.
       -2   -1    0    0    0  501  0.00000000000E+00  0.00000000000E+00 -0.20629014418E+04  0.20629014418E+04  0.25500000920E-02 0.  1.
    10030    2    1    2    0    0  0.00000000000E+00  0.00000000000E+00 -0.71949129281E+03  0.34063115908E+04  0.33294580540E+04 0.  0.
        4    1    3    3  502    0  0.56628671020E+03  0.14475523957E+04  0.25002595949E+03  0.15743580183E+04  0.12699999809E+01 0.  1.
       -4    1    3    3    0  502 -0.56628671020E+03 -0.14475523957E+04 -0.96951725230E+03  0.18319535725E+04  0.12699999809E+01 0. -1.
</event>
<event>
 5   0  0.5071661E-07  0.3606475E+04  0.7818609E-02  0.8089010E-01
        1   -1    0    0  501    0  0.00000000000E+00  0.00000000000E+00  0.23696880822E+04  0.23696880822E+04  0.50400001928E-02 0. -1.
       -1   -1    0    0    0  501  0.00000000000E+00  0.00000000000E+00 -0.13721915438E+04  0.13721915438E+04  0.50400001928E-02 0.  1.
    10030    2    1    2    0    0  0.00000000000E+00  0.00000000000E+00  0.99749653839E+03  0.37418796260E+04  0.36064752586E+04 0.  0.
        1    1    3    3  502    0  0.10308980761E+04 -0.13818718251E+03 -0.10295870509E+04  0.14635217922E+04  0.50400001928E-02 0.  1.
       -1    1    3    3    0  502 -0.10308980761E+04  0.13818718251E+03  0.20270835893E+04  0.22783578338E+04  0.50400001928E-02 0. -1.
</event>
<event>
 5   0  0.1379425E-06  0.3704519E+04  0.7818609E-02  0.8066961E-01
       -2   -1    0    0    0  501  0.00000000000E+00  0.00000000000E+00  0.13242897743E+04  0.13242897743E+04  0.25500000920E-02 0.  1.
        2   -1    0    0  501    0  0.00000000000E+00  0.00000000000E+00 -0.25907205313E+04  0.25907205313E+04  0.25500000920E-02 0. -1.
    10030    2    1    2    0    0  0.00000000000E+00  0.00000000000E+00 -0.12664307570E+04  0.39150103056E+04  0.37045187043E+04 0.  0.
        4    1    3    3  502    0  0.15439164034E+04  0.40817353602E+03  0.35849629972E+03  0.16367054426E+04  0.12699999809E+01 0.  1.
       -4    1    3    3    0  502 -0.15439164034E+04 -0.40817353602E+03 -0.16249270567E+04  0.22783048630E+04  0.12699999809E+01 0. -1.
</event>
<event>
 5   0  0.4811500E-07  0.3552638E+04  0.7818609E-02  0.8101427E-01
       -1   -1    0    0    0  501  0.00000000000E+00  0.00000000000E+00  0.11883056964E+04  0.11883056964E+04  0.50400001928E-02 0.  1.
        1   -1    0    0  501    0  0.00000000000E+00  0.00000000000E+00 -0.26553009273E+04  0.26553009273E+04  0.50400001928E-02 0. -1.
    10030    2    1    2    0    0  0.00000000000E+00  0.00000000000E+00 -0.14669952308E+04  0.38436066237E+04  0.35526380157E+04 0.  0.
        5    1    3    3  502    0 -0.27277780585E+03 -0.54092114891E+03  0.10730792934E+04  0.12322843343E+04  0.46999998093E+01 0.  1.
       -5    1    3    3    0  502  0.27277780585E+03  0.54092114891E+03 -0.25400745242E+04  0.26113222894E+04  0.46999998093E+01 0. -1.
</event>
<event>
 5   0  0.4811500E-07  0.3564545E+04  0.7818609E-02  0.8098662E-01
       -1   -1    0    0    0  501  0.00000000000E+00  0.00000000000E+00  0.16894508962E+04  0.16894508963E+04  0.50400001928E-02 0. -1.
        1   -1    0    0  501    0  0.00000000000E+00  0.00000000000E+00 -0.18801935974E+04  0.18801935974E+04  0.50400001928E-02 0.  1.
    10030    2    1    2    0    0  0.00000000000E+00  0.00000000000E+00 -0.19074270113E+03  0.35696444936E+04  0.35645447161E+04 0.  0.
        5    1    3    3  502    0  0.76580084792E+03  0.68552606449E+03  0.13627597989E+04  0.17069075204E+04  0.46999998093E+01 0. -1.
       -5    1    3    3    0  502 -0.76580084792E+03 -0.68552606449E+03 -0.15535025000E+04  0.18627369732E+04  0.46999998093E+01 0.  1.
</event>
<event>
 5   0  0.1505671E-06  0.3614861E+04  0.7818609E-02  0.8087096E-01
        2   -1    0    0  501    0  0.00000000000E+00  0.00000000000E+00  0.17116709953E+04  0.17116709953E+04  0.25500000920E-02 0.  1.
       -2   -1    0    0    0  501  0.00000000000E+00  0.00000000000E+00 -0.19085468924E+04  0.19085468924E+04  0.25500000920E-02 0. -1.
    10030    2    1    2    0    0  0.00000000000E+00  0.00000000000E+00 -0.19687589713E+03  0.36202178877E+04  0.36148606384E+04 0.  0.
        3    1    3    3  502    0 -0.14513625688E+04  0.79752244070E+03 -0.82360290220E+03  0.18495451063E+04  0.10100000352E+00 0.  1.
       -3    1    3    3    0  502  0.14513625688E+04 -0.79752244070E+03  0.62672700508E+03  0.17706727814E+04  0.10100000352E+00 0. -1.
</event>
<event>
 5   0  0.5071661E-07  0.3414221E+04  0.7818609E-02  0.8134425E-01
        1   -1    0    0  501    0  0.00000000000E+00  0.00000000000E+00  0.11979737061E+04  0.11979737061E+04  0.50400001928E-02 0.  1.
       -1   -1    0    0    0  501  0.00000000000E+00  0.00000000000E+00 -0.24326291203E+04  0.24326291203E+04  0.50400001928E-02 0. -1.
    10030    2    1    2    0    0  0.00000000000E+00  0.00000000000E+00 -0.12346554142E+04  0.36306028265E+04  0.34142206858E+04 0.  0.
        1    1    3    3  502    0  0.12366718076E+04 -0.34424537201E+03  0.57932017485E+03  0.14083585839E+04  0.50400001928E-02 0.  1.
       -1    1    3    3    0  502 -0.12366718076E+04  0.34424537201E+03 -0.18139755891E+04  0.22222442426E+04  0.50400001928E-02 0. -1.
</event>
<event>
 5   0  0.4811500E-07  0.3635558E+04  0.7818609E-02  0.8082395E-01
       -1   -1    0    0    0  501  0.00000000000E+00  0.00000000000E+00  0.17230388079E+04  0.17230388080E+04  0.50400001928E-02 0. -1.
        1   -1    0    0  501    0  0.00000000000E+00  0.00000000000E+00 -0.19177279632E+04  0.19177279632E+04  0.50400001928E-02 0.  1.
    10030    2    1    2    0    0  0.00000000000E+00  0.00000000000E+00 -0.19468915521E+03  0.36407667711E+04  0.36355575658E+04 0.  0.
        5    1    3    3  502    0  0.13982022497E+03  0.58732144086E+02 -0.19113755589E+04  0.19173882698E+04  0.46999998093E+01 0.  1.
       -5    1    3    3    0  502 -0.13982022497E+03 -0.58732144086E+02  0.17166864037E+04  0.17233785013E+04  0.46999998093E+01 0. -1.
</event>
<event>
 5   0  0.4811500E-07  0.3580071E+04  0.7818609E-02  0.8095072E-01
       -3   -1    0    0    0  501  0.00000000000E+00  0.00000000000E+00  0.15841768561E+04  0.15841768593E+04  0.10100000352E+00 0.  1.
        3   -1    0    0  501    0  0.00000000000E+00  0.00000000000E+00 -0.20226449008E+04  0.20226449033E+04  0.10100000352E+00 0. -1.
    10030    2    1    2    0    0  0.00000000000E+00  0.00000000000E+00 -0.43846804470E+03  0.36068217626E+04  0.35800710888E+04 0.  0.
        3    1    3    3  502    0 -0.29253952719E+03  0.62841944542E+03 -0.18819405642E+04  0.20055399950E+04  0.10100000352E+00 0. -1.
       -3    1    3    3    0  502  0.29253952719E+03 -0.62841944542E+03  0.14434725195E+04  0.16012817675E+04  0.10100000352E+00 0.  1.
</event>
<event>
 5   0  0.1505671E-06  0.2602215E+04  0.7818609E-02  0.8367449E-01
        2   -1    0    0  501    0  0.00000000000E+00  0.00000000000E+00  0.16915981892E+04  0.16915981892E+04  0.25500000920E-02 0. -1.
       -2   -1    0    0    0  501  0.00000000000E+00  0.00000000000E+00 -0.10007585110E+04  0.10007585110E+04  0.25500000920E-02 0.  1.
    10030    2    1    2    0    0  0.00000000000E+00  0.00000000000E+00  0.69083967828E+03  0.26923567002E+04  0.26022154292E+04 0.  0.
        3    1    3    3  502    0  0.12067672725E+04  0.50751972851E+02  0.84593152825E+03  0.14746061079E+04  0.10100000352E+00 0. -1.
       -3    1    3    3    0  502 -0.12067672725E+04 -0.50751972851E+02 -0.15509184997E+03  0.12177505923E+04  0.10100000352E+00 0.  1.
</event>
<event>
 5   0  0.5071661E-07  0.2450958E+04  0.7818609E-02  0.8420668E-01
       -1   -1    0    0    0  501  0.00000000000E+00  0.00000000000E+00  0.73107286690E+03  0.73107286692E+03  0.50400001928E-02 0.  1.
        1   -1    0    0  501    0  0.00000000000E+00  0.00000000000E+00 -0.20542403098E+04  0.20542403098E+04  0.50400001928E-02 0. -1.
    10030    2    1    2    0    0  0.00000000000E+00  0.00000000000E+00 -0.13231674429E+04  0.27853131767E+04  0.24509584677E+04 0.  0.
        1    1    3    3  502    0  0.96845543287E+03  0.67922677402E+03 -0.29767363673E+03  0.12197805253E+04  0.50400001928E-02 0. -1.
       -1    1    3    3    0  502 -0.96845543287E+03 -0.67922677402E+03 -0.10254938062E+04  0.15655326514E+04  0.50400001928E-02 0.  1.
</event>
<event>
 5   0  0.4811500E-07  0.3380241E+04  0.7818609E-02  0.8142773E-01
       -1   -1    0    0    0  501  0.00000000000E+00  0.00000000000E+00  0.13152071381E+04  0.13152071381E+04  0.50400001928E-02 0. -1.
        1   -1    0    0  501    0  0.00000000000E+00  0.00000000000E+00 -0.21719072769E+04  0.21719072769E+04  0.50400001928E-02 0.  1.
    10030    2    1    2    0    0  0.00000000000E+00  0.00000000000E+00 -0.85670013874E+03  0.34871144150E+04  0.33802413842E+04 0.  0.
        5    1    3    3  502    0  0.38585910419E+03 -0.11409183185E+04  0.79484667610E+03  0.14430471878E+04  0.46999998093E+01 0. -1.
       -5    1    3    3    0  502 -0.38585910419E+03  0.11409183185E+04 -0.16515468148E+04  0.20440672272E+04  0.46999998093E+01 0.  1.
</event>
<event>
 5   0  0.4811500E-07  0.3634870E+04  0.7818609E-02  0.8082551E-01
       -1   -1    0    0    0  501  0.00000000000E+00  0.00000000000E+00  0.22573294614E+04  0.22573294614E+04  0.50400001928E-02 0.  1.
        1   -1    0    0  501    0  0.00000000000E+00  0.00000000000E+00 -0.14632647078E+04  0.14632647078E+04  0.50400001928E-02 0. -1.
    10030    2    1    2    0    0  0.00000000000E+00  0.00000000000E+00  0.79406475354E+03  0.37205941692E+04  0.36348703057E+04 0.  0.
        3    1    3    3  502    0 -0.10810124741E+04  0.48871262340E+03  0.18063263774E+04  0.21610744987E+04  0.10100000352E+00 0.  1.
       -3    1    3    3    0  502  0.10810124741E+04 -0.48871262340E+03 -0.10122616238E+04  0.15595196705E+04  0.10100000352E+00 0. -1.
</event>
<event>
 5   0  0.1379425E-06  0.3668862E+04  0.7818609E-02  0.8074898E-01
        2   -1    0    0  501    0  0.00000000000E+00  0.00000000000E+00  0.22858381191E+04  0.22858381191E+04  0.25500000920E-02 0. -1.
       -2   -1    0    0    0  501  0.00000000000E+00  0.00000000000E+00 -0.14721679771E+04  0.14721679771E+04  0.25500000920E-02 0.  1.
    10030    2    1    2    0    0  0.00000000000E+00  0.00000000000E+00  0.81367014204E+03  0.37580060962E+04  0.36688623194E+04 0.  0.
        4    1    3    3  502    0  0.43618282284E+03 -0.13450026108E+04 -0.79025642332E+03  0.16198130464E+04  0.12699999809E+01 0.  1.
       -4    1    3    3    0  502 -0.43618282284E+03  0.13450026108E+04  0.16039265654E+04  0.21381930497E+04  0.12699999809E+01 0. -1.
</event>
<event>
 5   0  0.4811500E-07  0.3538108E+04  0.7818609E-02  0.8104818E-01
        1   -1    0    0  501    0  0.00000000000E+00  0.00000000000E+00  0.25093483255E+04  0.25093483255E+04  0.50400001928E-02 0. -1.
       -1   -1    0    0    0  501  0.00000000000E+00  0.00000000000E+00 -0.12471576109E+04  0.12471576109E+04  0.50400001928E-02 0.  1.
    10030    2    1    2    0    0  0.00000000000E+00  0.00000000000E+00  0.12621907146E+04  0.37565059364E+04  0.35381084565E+04 0.  0.
        2    1    3    3  502    0 -0.70372504379E+03  0.92704645206E+03  0.20455888680E+04  0.23535245651E+04  0.25500000920E-02 0. -1.
       -2    1    3    3    0  502  0.70372504379E+03 -0.92704645206E+03 -0.78339815342E+03  0.14029813713E+04  0.25500000920E-02 0.  1.
</event>
<event>
 5   0  0.4811500E-07  0.3605874E+04  0.7818609E-02  0.8089147E-01
       -1   -1    0    0    0  501  0.00000000000E+00  0.00000000000E+00  0.20361431369E+04  0.20361431369E+04  0.50400001928E-02 0. -1.
        1   -1    0    0  501    0  0.00000000000E+00  0.00000000000E+00 -0.15964407631E+04  0.15964407631E+04  0.50400001928E-02 0.  1.
    10030    2    1    2    0    0  0.00000000000E+00  0.00000000000E+00  0.43970237383E+03  0.36325839001E+04  0.36058740429E+04 0.  0.
        5    1    3    3  502    0 -0.68725001246E+03  0.85440229740E+03  0.16616210444E+04  0.19908094963E+04  0.46999998093E+01 0. -1.
       -5    1    3    3    0  502  0.68725001246E+03 -0.85440229740E+03 -0.12219186706E+04  0.16417744038E+04  0.46999998093E+01 0.  1.
</event>
<event>
 5   0  0.1444091E-06  0.3603072E+04  0.7818609E-02  0.8089788E-01
       -2   -1    0    0    0  501  0.00000000000E+00  0.00000000000E+00  0.11327245162E+04  0.11327245162E+04  0.25500000920E-02 0. -1.
        2   -1    0    0  501    0  0.00000000000E+00  0.00000000000E+00 -0.28652437653E+04  0.28652437653E+04  0.25500000920E-02 0.  1.
    10030    2    1    2    0    0  0.00000000000E+00  0.00000000000E+00 -0.17325192491E+04  0.39979682815E+04  0.36030719437E+04 0.  0.
        1    1    3    3  502    0 -0.49215867145E+03 -0.88272707431E+03 -0.25210539224E+04  0.27160891232E+04  0.50400001928E-02 0.  1.
       -1    1    3    3    0  502  0.49215867145E+03  0.88272707431E+03  0.78853467328E+03  0.12818791583E+04  0.50400001928E-02 0. -1.
</event>
<event>
 5   0  0.1379425E-06  0.3444886E+04  0.7818609E-02  0.8126977E-01
        2   -1    0    0  501    0  0.00000000000E+00  0.00000000000E+00  0.22148732622E+04  0.22148732622E+04  0.25500000920E-02 0. -1.
       -2   -1    0    0    0  501  0.00000000000E+00  0.00000000000E+00 -0.13394945818E+04  0.13394945818E+04  0.25500000920E-02 0.  1.
    10030    2    1    2    0    0  0.00000000000E+00  0.00000000000E+00  0.87537868043E+03  0.35543678439E+04  0.34448864910E+04 0.  0.
        4    1    3    3  502    0  0.12164922049E+04 -0.21311551426E+01  0.16958492031E+04  0.20870467074E+04  0.12699999809E+01 0. -1.
       -4    1    3    3    0  502 -0.12164922049E+04  0.21311551426E+01 -0.82047052267E+03  0.14673211366E+04  0.12699999809E+01 0.  1.
</event>
<event>
 5   0  0.1379425E-06  0.3682871E+04  0.7818609E-02  0.8071769E-01
       -2   -1    0    0    0  501  0.00000000000E+00  0.00000000000E+00  0.30886026723E+04  0.30886026723E+04  0.25500000920E-02 0.  1.
        2   -1    0    0  501    0  0.00000000000E+00  0.00000000000E+00 -0.10978699395E+04  0.10978699395E+04  0.25500000920E-02 0. -1.
    10030    2    1    2    0    0  0.00000000000E+00  0.00000000000E+00  0.19907327329E+04  0.41864726118E+04  0.36828706352E+04 0.  0.
        4    1    3    3  502    0  0.16137982010E+04 -0.27786126491E+03  0.19527505089E+04  0.25484873315E+04  0.12699999809E+01 0. -1.
       -4    1    3    3    0  502 -0.16137982010E+04  0.27786126491E+03  0.37982223986E+02  0.16379852803E+04  0.12699999809E+01 0.  1.
</event>
<event>
 5   0  0.1468942E-06  0.3619829E+04  0.7818609E-02  0.8085965E-01
        2   -1    0    0  501    0  0.00000000000E+00  0.00000000000E+00  0.12778934185E+04  0.12778934185E+04  0.25500000920E-02 0. -1.
       -2   -1    0    0    0  501  0.00000000000E+00  0.00000000000E+00 -0.25634305764E+04  0.25634305764E+04  0.25500000920E-02 0.  1.
    10030    2    1    2    0    0  0.00000000000E+00  0.00000000000E+00 -0.12855371579E+04  0.38413239949E+04  0.36198293122E+04 0.  0.
        2    1    3    3  502    0 -0.13969576616E+04 -0.51687979680E+03  0.44831545803E+03  0.15555199074E+04  0.25500000920E-02 0. -1.
       -2    1    3    3    0  502  0.13969576616E+04  0.51687979680E+03 -0.17338526159E+04  0.22858040875E+04  0.25500000920E-02 0.  1.
</event>
<event>
 5   0  0.1505671E-06  0.3632877E+04  0.7818609E-02  0.8083002E-01
       -2   -1    0    0    0  501  0.00000000000E+00  0.00000000000E+00  0.26179991770E+04  0.26179991770E+04  0.25500000920E-02 0.  1.
        2   -1    0    0  501    0  0.00000000000E+00  0.00000000000E+00 -0.12602940645E+04  0.12602940645E+04  0.25500000920E-02 0. -1.
    10030    2    1    2    0    0  0.00000000000E+00  0.00000000000E+00  0.13577051125E+04  0.38782932415E+04  0.36328769997E+04 0.  0.
        3    1    3    3  502    0  0.15839238199E+02 -0.17635210593E+04  0.11431974255E+04  0.21017035404E+04  0.10100000352E+00 0.  1.
       -3    1    3    3    0  502 -0.15839238199E+02  0.17635210593E+04  0.21450768708E+03  0.17765897011E+04  0.10100000352E+00 0. -1.
</event>
<event>
 5   0  0.4811500E-07  0.3393444E+04  0.7818609E-02  0.8139517E-01
        1   -1    0    0  501    0  0.00000000000E+00  0.00000000000E+00  0.14535344631E+04  0.14535344631E+04  0.50400001928E-02 0. -1.
       -1   -1    0    0    0  501  0.00000000000E+00  0.00000000000E+00 -0.19805963041E+04  0.19805963041E+04  0.50400001928E-02 0.  1.
    10030    2    1    2    0    0  0.00000000000E+00  0.00000000000E+00 -0.52706184101E+03  0.34341307672E+04  0.33934436701E+04 0.  0.
        3    1    3    3  502    0  0.70047878895E+03  0.27941803633E+03  0.12746005369E+04  0.14809967967E+04  0.10100000352E+00 0. -1.
       -3    1    3    3    0  502 -0.70047878895E+03 -0.27941803633E+03 -0.18016623779E+04  0.19531339706E+04  0.10100000352E+00 0.  1.
</event>
<event>
 5   0  0.4811500E-07  0.3398771E+04  0.7818609E-02  0.8138208E-01
       -1   -1    0    0    0  501  0.00000000000E+00  0.00000000000E+00  0.19619113294E+04  0.19619113294E+04  0.50400001928E-02 0.  1.
        1   -1    0    0  501    0  0.00000000000E+00  0.00000000000E+00 -0.14719882864E+04  0.14719882864E+04  0.50400001928E-02 0. -1.
    10030    2    1    2    0    0  0.00000000000E+00  0.00000000000E+00  0.48992304301E+03  0.34338996157E+04  0.33987706576E+04 0.  0.
        4    1    3    3  502    0 -0.35529367734E+03  0.75787984963E+02 -0.14322967477E+04  0.14776511774E+04  0.12699999809E+01 0. -1.
       -4    1    3    3    0  502  0.35529367734E+03 -0.75787984963E+02  0.19222197907E+04  0.19562484383E+04  0.12699999809E+01 0.  1.
</event>
<event>
 5   0  0.1505671E-06  0.3633705E+04  0.7818609E-02  0.8082814E-01
       -2   -1    0    0    0  501  0.00000000000E+00  0.00000000000E+00  0.14011745380E+04  0.14011745380E+04  0.25500000920E-02 0.  1.
        2   -1    0    0  501    0  0.00000000000E+00  0.00000000000E+00 -0.23558472817E+04  0.23558472817E+04  0.25500000920E-02 0. -1.
    10030    2    1    2    0    0  0.00000000000E+00  0.00000000000E+00 -0.95467274376E+03  0.37570218197E+04  0.36337051210E+04 0.  0.
        3    1    3    3  502    0 -0.24779487250E+03  0.11971946040E+04  0.91225174592E+03  0.15254115762E+04  0.10100000352E+00 0.  1.
       -3    1    3    3    0  502  0.24779487250E+03 -0.11971946040E+04 -0.18669244897E+04  0.22316102435E+04  0.10100000352E+00 0. -1.
</event>
<event>
 5   0  0.1468942E-06  0.3579172E+04  0.7818609E-02  0.8095279E-01
       -2   -1    0    0    0  501  0.00000000000E+00  0.00000000000E+00  0.13800113269E+04  0.13800113269E+04  0.25500000920E-02 0. -1.
        2   -1    0    0  501    0  0.00000000000E+00  0.00000000000E+00 -0.23207183384E+04  0.23207183384E+04  0.25500000920E-02 0.  1.
    10030    2    1    2    0    0  0.00000000000E+00  0.00000000000E+00 -0.94070701157E+03  0.37007296653E+04  0.35791717442E+04 0.  0.
        2    1    3    3  502    0 -0.23026643477E+03  0.17308001477E+04 -0.64695035144E+02  0.17472484740E+04  0.25500000920E-02 0.  1.
       -2    1    3    3    0  502  0.23026643477E+03 -0.17308001477E+04 -0.87601197643E+03  0.19534811914E+04  0.25500000920E-02 0. -1.
</event>
<event>
 5   0  0.5071661E-07  0.3347624E+04  0.7818609E-02  0.8150882E-01
        1   -1    0    0  501    0  0.00000000000E+00  0.00000000000E+00  0.24033285827E+04  0.24033285827E+04  0.50400001928E-02 0. -1.
       -1   -1    0    0    0  501  0.00000000000E+00  0.00000000000E+00 -0.11657359493E+04  0.11657359494E+04  0.50400001928E-02 0.  1.
    10030    2    1    2    0    0  0.00000000000E+00  0.00000000000E+00  0.12375926334E+04  0.35690645321E+04  0.33476239496E+04 0.  0.
        1    1    3    3  502    0 -0.31973995357E+03 -0.12253103963E+04  0.17857432190E+04  0.21891774824E+04  0.50400001928E-02 0. -1.
       -1    1    3    3    0  502  0.31973995357E+03  0.12253103963E+04 -0.54815058568E+03  0.13798870496E+04  0.50400001928E-02 0.  1.
</event>
<event>
 5   0  0.1444091E-06  0.3588380E+04  0.7818609E-02  0.8093158E-01
        2   -1    0    0  501    0  0.00000000000E+00  0.00000000000E+00  0.21234930967E+04  0.21234930967E+04  0.25500000920E-02 0.  1.
       -2   -1    0    0    0  501  0.00000000000E+00  0.00000000000E+00 -0.15159543216E+04  0.15159543216E+04  0.25500000920E-02 0. -1.
    10030    2    1    2    0    0  0.00000000000E+00  0.00000000000E+00  0.60753877510E+03  0.36394474183E+04  0.35883804351E+04 0.  0.
        1    1    3    3  502    0  0.13722789981E+03  0.12599678320E+04  0.15917903517E+04  0.20347351076E+04  0.50400001928E-02 0.  1.
       -1    1    3    3    0  502 -0.13722789981E+03 -0.12599678320E+04 -0.98425157663E+03  0.16047123107E+04  0.50400001928E-02 0. -1.
</event>
<event>
 5   0  0.4811500E-07  0.3497251E+04  0.7818609E-02  0.8114442E-01
       -1   -1    0    0    0  501  0.00000000000E+00  0.00000000000E+00  0.13756674774E+04  0.13756674774E+04  0.50400001928E-02 0.  1.
        1   -1    0    0  501    0  0.00000000000E+00  0.00000000000E+00 -0.22226970170E+04  0.22226970170E+04  0.50400001928E-02 0. -1.
    10030    2    1    2    0    0  0.00000000000E+00  0.00000000000E+00 -0.84702953965E+03  0.35983644944E+04  0.34972514913E+04 0.  0.
        2    1    3    3  502    0  0.26568247008E+03  0.15428327358E+04 -0.12249917349E+04  0.19878442535E+04  0.25500000920E-02 0. -1.
       -2    1    3    3    0  502 -0.26568247008E+03 -0.15428327358E+04  0.37796219521E+03  0.16105202410E+04  0.25500000920E-02 0.  1.
</event>
<event>
 5   0  0.1491854E-06  0.3526556E+04  0.7818609E-02  0.8107525E-01
        2   -1    0    0  501    0  0.00000000000E+00  0.00000000000E+00  0.22160622940E+04  0.22160622940E+04  0.25500000920E-02 0.  1.
       -2   -1    0    0    0  501  0.00000000000E+00  0.00000000000E+00 -0.14030064246E+04  0.14030064246E+04  0.25500000920E-02 0. -1.
    10030    2    1    2    0    0  0.00000000000E+00  0.00000000000E+00  0.81305586938E+03  0.36190687187E+04  0.35265561875E+04 0.  0.
        5    1    3    3  502    0 -0.17305621539E+04  0.33731895226E+03  0.38362426491E+03  0.18043888469E+04  0.46999998093E+01 0.  1.
       -5    1    3    3    0  502  0.17305621539E+04 -0.33731895226E+03  0.42943160447E+03  0.18146798718E+04  0.46999998093E+01 0. -1.
</event>
<event>
 5   0  0.4811500E-07  0.3690350E+04  0.7818609E-02  0.8070104E-01
       -1   -1    0    0    0  501  0.00000000000E+00  0.00000000000E+00  0.14867279075E+04  0.14867279076E+04  0.50400001928E-02 0.  1.
        1   -1    0    0  501    0  0.00000000000E+00  0.00000000000E+00 -0.22900430446E+04  0.22900430446E+04  0.50400001928E-02 0. -1.
    10030    2    1    2    0    0  0.00000000000E+00  0.00000000000E+00 -0.80331513707E+03  0.37767709522E+04  0.36903500668E+04 0.  0.
        2    1    3    3  502    0 -0.11892123242E+04 -0.13709094569E+04 -0.60608639420E+02  0.18158447341E+04  0.25500000920E-02 0.  1.
       -2    1    3    3    0  502  0.11892123242E+04  0.13709094569E+04 -0.74270649765E+03  0.19609262181E+04  0.25500000920E-02 0. -1.
</event>
<event>
 5   0  0.5071661E-07  0.2305399E+04  0.7818609E-02  0.8475795E-01
       -1   -1    0    0    0  501  0.00000000000E+00  0.00000000000E+00  0.80369069003E+03  0.80369069005E+03  0.50400001928E-02 0.  1.
        1   -1    0    0  501    0  0.00000000000E+00  0.00000000000E+00 -0.16532680147E+04  0.16532680147E+04  0.50400001928E-02 0. -1.
    10030    2    1    2    0    0  0.00000000000E+00  0.00000000000E+00 -0.84957732462E+03  0.24569587047E+04  0.23053989777E+04 0.  0.
        1    1    3    3  502    0 -0.60214260357E+03  0.95812707537E+03 -0.19097343417E+03  0.11476297574E+04  0.50400001928E-02 0.  1.
       -1    1    3    3    0  502  0.60214260357E+03 -0.95812707537E+03 -0.65860389045E+03  0.13093289473E+04  0.50400001928E-02 0. -1.
</event>
<event>
 5   0  0.4811500E-07  0.3601700E+04  0.7818609E-02  0.8090103E-01
        1   -1    0    0  501    0  0.00000000000E+00  0.00000000000E+00  0.15137802424E+04  0.15137802424E+04  0.50400001928E-02 0. -1.
       -1   -1    0    0    0  501  0.00000000000E+00  0.00000000000E+00 -0.21423584055E+04  0.21423584055E+04  0.50400001928E-02 0.  1.
    10030    2    1    2    0    0  0.00000000000E+00  0.00000000000E+00 -0.62857816317E+03  0.36561386479E+04  0.36016995024E+04 0.  0.
        5    1    3    3  502    0  0.65177607329E+03  0.16594682365E+04 -0.56700095344E+02  0.17837835823E+04  0.46999998093E+01 0. -1.
       -5    1    3    3    0  502 -0.65177607329E+03 -0.16594682365E+04 -0.57187806782E+03  0.18723550657E+04  0.46999998093E+01 0.  1.
</event>
<event>
 5   0  0.1444091E-06  0.3617989E+04  0.7818609E-02  0.8086383E-01
        2   -1    0    0  501    0  0.00000000000E+00  0.00000000000E+00  0.25160887407E+04  0.25160887407E+04  0.25500000920E-02 0.  1.
       -2   -1    0    0    0  501  0.00000000000E+00  0.00000000000E+00 -0.13006145667E+04  0.13006145667E+04  0.25500000920E-02 0. -1.
    10030    2    1    2    0    0  0.00000000000E+00  0.00000000000E+00  0.12154741741E+04  0.38167033074E+04  0.36179893130E+04 0.  0.
        1    1    3    3  502    0  0.13128430027E+04 -0.67779192641E+03  0.17088588370E+04  0.22590168592E+04  0.50400001928E-02 0.  1.
       -1    1    3    3    0  502 -0.13128430027E+04  0.67779192641E+03 -0.49338466294E+03  0.15576864482E+04  0.50400001928E-02 0. -1.
</event>
<event>
 5   0  0.4811500E-07  0.2402788E+04  0.7818609E-02  0.8438460E-01
        1   -1    0    0  501    0  0.00000000000E+00  0.00000000000E+00  0.88981482638E+03  0.88981482639E+03  0.50400001928E-02 0.  1.
       -1   -1    0    0    0  501  0.00000000000E+00  0.00000000000E+00 -0.16220765295E+04  0.16220765295E+04  0.50400001928E-02 0. -1.
    10030    2    1    2    0    0  0.00000000000E+00  0.00000000000E+00 -0.73226170313E+03  0.25118913559E+04  0.24027881684E+04 0.  0.
        3    1    3    3  502    0  0.26104991928E+03  0.71225438640E+03 -0.13400407968E+04  0.15398580189E+04  0.10100000352E+00 0. -1.
       -3    1    3    3    0  502 -0.26104991928E+03 -0.71225438640E+03  0.60777909364E+03  0.97203333697E+03  0.10100000352E+00 0.  1.
</event>
<event>
 5   0  0.1468942E-06  0.2214499E+04  0.7818609E-02  0.8512417E-01
        2   -1    0    0  501    0  0.00000000000E+00  0.00000000000E+00  0.15591647368E+04  0.15591647368E+04  0.25500000920E-02 0.  1.
       -2   -1    0    0    0  501  0.00000000000E+00  0.00000000000E+00 -0.78631960130E+03  0.78631960131E+03  0.25500000920E-02 0. -1.
    10030    2    1    2    0    0  0.00000000000E+00  0.00000000000E+00  0.77284513552E+03  0.23454843381E+04  0.22144993061E+04 0.  0.
        2    1    3    3  502    0  0.79409534934E+03 -0.72117504807E+03  0.67710233112E+03  0.12685221483E+04  0.25500000920E-02 0.  1.
       -2    1    3    3    0  502 -0.79409534934E+03  0.72117504807E+03  0.95742804394E+02  0.10769621899E+04  0.25500000920E-02 0. -1.
</event>
<event>
 5   0  0.4811500E-07  0.3592202E+04  0.7818609E-02  0.8092280E-01
       -1   -1    0    0    0  501  0.00000000000E+00  0.00000000000E+00  0.17621429439E+04  0.17621429439E+04  0.50400001928E-02 0.  1.
        1   -1    0    0  501    0  0.00000000000E+00  0.00000000000E+00 -0.18307130475E+04  0.18307130475E+04  0.50400001928E-02 0. -1.
    10030    2    1    2    0    0  0.00000000000E+00  0.00000000000E+00 -0.68570103679E+02  0.35928559914E+04  0.35922015973E+04 0.  0.
        4    1    3    3  502    0  0.69372268053E+02 -0.16074101383E+04  0.76423160610E+03  0.17811882059E+04  0.12699999809E+01 0.  1.
       -4    1    3    3    0  502 -0.69372268053E+02  0.16074101383E+04 -0.83280170978E+03  0.18116677855E+04  0.12699999809E+01 0. -1.
</event>
<event>
 5   0  0.4811500E-07  0.3597394E+04  0.7818609E-02  0.8091089E-01
        1   -1    0    0  501    0  0.00000000000E+00  0.00000000000E+00  0.18043063943E+04  0.18043063943E+04  0.50400001928E-02 0. -1.
       -1   -1    0    0    0  501  0.00000000000E+00  0.00000000000E+00 -0.17931047857E+04  0.17931047857E+04  0.50400001928E-02 0.  1.
    10030    2    1    2    0    0  0.00000000000E+00  0.00000000000E+00  0.11201608593E+02  0.35974111800E+04  0.35973937401E+04 0.  0.
        5    1    3    3  502    0  0.62563378087E+03 -0.16826589480E+04 -0.10633533327E+03  0.17983570436E+04  0.46999998093E+01 0. -1.
       -5    1    3    3    0  502 -0.62563378087E+03  0.16826589480E+04  0.11753694186E+03  0.17990541364E+04  0.46999998093E+01 0.  1.
</event>
<event>
 5   0  0.1491854E-06  0.3648698E+04  0.7818609E-02  0.8079427E-01
       -2   -1    0    0    0  501  0.00000000000E+00  0.00000000000E+00  0.21174449433E+04  0.21174449433E+04  0.25500000920E-02 0. -1.
        2   -1    0    0  501    0  0.00000000000E+00  0.00000000000E+00 -0.15718231091E+04  0.15718231091E+04  0.25500000920E-02 0.  1.
    10030    2    1    2    0    0  0.00000000000E+00  0.00000000000E+00  0.54562183417E+03  0.36892680525E+04  0.36486977919E+04 0.  0.
        5    1    3    3  502    0  0.14826470778E+04 -0.65957833167E+03  0.11157112870E+04  0.19692942134E+04  0.46999998093E+01 0. -1.
       -5    1    3    3    0  502 -0.14826470778E+04  0.65957833167E+03 -0.57008945287E+03  0.17199738391E+04  0.46999998093E+01 0.  1.
</event>
<event>
 5   0  0.4811500E-07  0.3389730E+04  0.7818609E-02  0.8140431E-01
       -1   -1    0    0    0  501  0.00000000000E+00  0.00000000000E+00  0.20630659942E+04  0.20630659942E+04  0.50400001928E-02 0.  1.
        1   -1    0    0  501    0  0.00000000000E+00  0.00000000000E+00 -0.13923779409E+04  0.13923779409E+04  0.50400001928E-02 0. -1.
    10030    2    1    2    0    0  0.00000000000E+00  0.00000000000E+00  0.67068805323E+03  0.34554439351E+04  0.33897301255E+04 0.  0.
        5    1    3    3  502    0  0.51826389662E+03 -0.15633553992E+04  0.74293015084E+03  0.18068328284E+04  0.46999998093E+01 0.  1.
       -5    1    3    3    0  502 -0.51826389662E+03  0.15633553992E+04 -0.72242097609E+02  0.16486111067E+04  0.46999998093E+01 0. -1.
</event>
<event>
 5   0  0.4811500E-07  0.2854703E+04  0.7818609E-02  0.8286484E-01
        1   -1    0    0  501    0  0.00000000000E+00  0.00000000000E+00  0.21684777205E+04  0.21684777205E+04  0.50400001928E-02 0.  1.
       -1   -1    0    0    0  501  0.00000000000E+00  0.00000000000E+00 -0.93952157770E+03  0.93952157771E+03  0.50400001928E-02 0. -1.
    10030    2    1    2    0    0  0.00000000000E+00  0.00000000000E+00  0.12289561428E+04  0.31079992982E+04  0.28547025128E+04 0.  0.
        2    1    3    3  502    0 -0.15602089250E+03 -0.11231197279E+04 -0.32938911585E+03  0.11807784008E+04  0.25500000920E-02 0. -1.
       -2    1    3    3    0  502  0.15602089250E+03  0.11231197279E+04  0.15583452586E+04  0.19272208974E+04  0.25500000920E-02 0.  1.
</event>
<event>
 5   0  0.1444091E-06  0.3532120E+04  0.7818609E-02  0.8106220E-01
       -2   -1    0    0    0  501  0.00000000000E+00  0.00000000000E+00  0.14589536453E+04  0.14589536453E+04  0.25500000920E-02 0.  1.
        2   -1    0    0  501    0  0.00000000000E+00  0.00000000000E+00 -0.21378113512E+04  0.21378113512E+04  0.25500000920E-02 0. -1.
    10030    2    1    2    0    0  0.00000000000E+00  0.00000000000E+00 -0.67885770586E+03  0.35967649965E+04  0.35321198529E+04 0.  0.
        1    1    3    3  502    0 -0.11700154963E+04  0.74687077633E+03  0.77244112359E+03  0.15885268357E+04  0.50400001928E-02 0.  1.
       -1    1    3    3    0  502  0.11700154963E+04 -0.74687077633E+03 -0.14512988295E+04  0.20082381608E+04  0.50400001928E-02 0. -1.
</event>
<event>
 5   0  0.4811500E-07  0.2467846E+04  0.7818609E-02  0.8414531E-01
       -1   -1    0    0    0  501  0.00000000000E+00  0.00000000000E+00  0.13706690650E+04  0.13706690650E+04  0.50400001928E-02 0.  1.
        1   -1    0    0  501    0  0.00000000000E+00  0.00000000000E+00 -0.11108198119E+04  0.11108198119E+04  0.50400001928E-02 0. -1.
    10030    2    1    2    0    0  0.00000000000E+00  0.00000000000E+00  0.25984925305E+03  0.24814888769E+04  0.24678463105E+04 0.  0.
        4    1    3    3  502    0 -0.12667642057E+03 -0.68837613986E+03 -0.89188992612E+03  0.11337450678E+04  0.12699999809E+01 0. -1.
       -4    1    3    3    0  502  0.12667642057E+03  0.68837613986E+03  0.11517391792E+04  0.13477438092E+04  0.12699999809E+01 0.  1.
</event>
<event>
 5   0  0.1444091E-06  0.3614507E+04  0.7818609E-02  0.8087177E-01
        2   -1    0    0  501    0  0.00000000000E+00  0.00000000000E+00  0.18817527650E+04  0.18817527650E+04  0.25500000920E-02 0.  1.
       -2   -1    0    0    0  501  0.00000000000E+00  0.00000000000E+00 -0.17357032075E+04  0.17357032075E+04  0.25500000920E-02 0. -1.
    10030    2    1    2    0    0  0.00000000000E+00  0.00000000000E+00  0.14604955756E+03  0.36174559725E+04  0.36145065002E+04 0.  0.
        1    1    3    3  502    0 -0.17239128674E+04  0.78245689528E+02 -0.46422454179E+03  0.17870373213E+04  0.50400001928E-02 0. -1.
       -1    1    3    3    0  502  0.17239128674E+04 -0.78245689528E+02  0.61027409935E+03  0.18304186512E+04  0.50400001928E-02 0.  1.
</event>
<event>
 5   0  0.1444091E-06  0.3601803E+04  0.7818609E-02  0.8090079E-01
       -2   -1    0    0    0  501  0.00000000000E+00  0.00000000000E+00  0.96448119559E+03  0.96448119559E+03  0.25500000920E-02 0. -1.
        2   -1    0    0  501    0  0.00000000000E+00  0.00000000000E+00 -0.33626842366E+04  0.33626842366E+04  0.25500000920E-02 0.  1.
    10030    2    1    2    0    0  0.00000000000E+00  0.00000000000E+00 -0.23982030410E+04  0.43271654322E+04  0.36018027225E+04 0.  0.
        1    1    3    3  502    0  0.17823335534E+04 -0.89648132466E+02 -0.14896688430E+04  0.23246210326E+04  0.50400001928E-02 0.  1.
       -1    1    3    3    0  502 -0.17823335534E+04  0.89648132466E+02 -0.90853419805E+03  0.20025443996E+04  0.50400001928E-02 0. -1.
</event>
<event>
 5   0  0.4811500E-07  0.3576603E+04  0.7818609E-02  0.8095872E-01
        1   -1    0    0  501    0  0.00000000000E+00  0.00000000000E+00  0.12811245261E+04  0.12811245261E+04  0.50400001928E-02 0. -1.
       -1   -1    0    0    0  501  0.00000000000E+00  0.00000000000E+00 -0.24962611994E+04  0.24962611994E+04  0.50400001928E-02 0.  1.
    10030    2    1    2    0    0  0.00000000000E+00  0.00000000000E+00 -0.12151366734E+04  0.37773857255E+04  0.35766025477E+04 0.  0.
        4    1    3    3  502    0 -0.17203374329E+03  0.66849847940E+03 -0.23498867885E+04  0.24491744236E+04  0.12699999809E+01 0.  1.
       -4    1    3    3    0  502  0.17203374329E+03 -0.66849847940E+03  0.11347501151E+04  0.13282113019E+04  0.12699999809E+01 0. -1.
</event>
<event>
 5   0  0.4811500E-07  0.3513539E+04  0.7818609E-02  0.8110589E-01
       -1   -1    0    0    0  501  0.00000000000E+00  0.00000000000E+00  0.18551789236E+04  0.18551789236E+04  0.50400001928E-02 0. -1.
        1   -1    0    0  501    0  0.00000000000E+00  0.00000000000E+00 -0.16635804025E+04  0.16635804025E+04  0.50400001928E-02 0.  1.
    10030    2    1    2    0    0  0.00000000000E+00  0.00000000000E+00  0.19159852116E+03  0.35187593261E+04  0.35135391277E+04 0.  0.
        3    1    3    3  502    0  0.12193439614E+04 -0.58754099823E+03 -0.10257910691E+04  0.16983084079E+04  0.10100000352E+00 0.  1.
       -3    1    3    3    0  502 -0.12193439614E+04  0.58754099823E+03  0.12173895903E+04  0.18204509182E+04  0.10100000352E+00 0. -1.
</event>
<event>
 5   0  0.1379425E-06  0.3093444E+04  0.7818609E-02  0.8217539E-01
        2   -1    0    0  501    0  0.00000000000E+00  0.00000000000E+00  0.24289702964E+04  0.24289702964E+04  0.25500000920E-02 0. -1.
       -2   -1    0    0    0  501  0.00000000000E+00  0.00000000000E+00 -0.98492339160E+03  0.98492339161E+03  0.25500000920E-02 0.  1.
    10030    2    1    2    0    0  0.00000000000E+00  0.00000000000E+00  0.14440469048E+04  0.34138936880E+04  0.30934444637E+04 0.  0.
        4    1    3    3  502    0  0.10133933926E+04  0.47594026251E+03  0.18997470117E+04  0.22051135170E+04  0.12699999809E+01 0. -1.
       -4    1    3    3    0  502 -0.10133933926E+04 -0.47594026251E+03 -0.45570010687E+03  0.12087801710E+04  0.12699999809E+01 0.  1.
</event>
<event>
 5   0  0.4811500E-07  0.3586166E+04  0.7818609E-02  0.8093668E-01
       -1   -1    0    0    0  501  0.00000000000E+00  0.00000000000E+00  0.11140173480E+04  0.11140173480E+04  0.50400001928E-02 0.  1.
        1   -1    0    0  501    0  0.00000000000E+00  0.00000000000E+00 -0.28860834235E+04  0.28860834235E+04  0.50400001928E-02 0. -1.
    10030    2    1    2    0    0  0.00000000000E+00  0.00000000000E+00 -0.17720660755E+04  0.40001007715E+04  0.35861661989E+04 0.  0.
        4    1    3    3  502    0  0.42558878673E+03  0.35080561146E+03 -0.27891183836E+04  0.28431273912E+04  0.12699999809E+01 0. -1.
       -4    1    3    3    0  502 -0.42558878673E+03 -0.35080561146E+03  0.10170523080E+04  0.11569733802E+04  0.12699999809E+01 0.  1.
</event>
<event>
 5   0  0.5071661E-07  0.3599729E+04  0.7818609E-02  0.8090554E-01
        1   -1    0    0  501    0  0.00000000000E+00  0.00000000000E+00  0.18372516593E+04  0.18372516593E+04  0.50400001928E-02 0.  1.
       -1   -1    0    0    0  501  0.00000000000E+00  0.00000000000E+00 -0.17632383305E+04  0.17632383305E+04  0.50400001928E-02 0. -1.
    10030    2    1    2    0    0  0.00000000000E+00  0.00000000000E+00  0.74013328733E+02  0.36004899898E+04  0.35997291834E+04 0.  0.
        1    1    3    3  502    0 -0.28118792542E+03  0.17800022455E+03 -0.17321978158E+04  0.17638764136E+04  0.50400001928E-02 0. -1.
       -1    1    3    3    0  502  0.28118792542E+03 -0.17800022455E+03  0.18062111446E+04  0.18366135762E+04  0.50400001928E-02 0.  1.
</event>
<event>
 5   0  0.4811500E-07  0.3487902E+04  0.7818609E-02  0.8116663E-01
        1   -1    0    0  501    0  0.00000000000E+00  0.00000000000E+00  0.20705329202E+04  0.20705329202E+04  0.50400001928E-02 0. -1.
       -1   -1    0    0    0  501  0.00000000000E+00  0.00000000000E+00 -0.14688799229E+04  0.14688799229E+04  0.50400001928E-02 0.  1.
    10030    2    1    2    0    0  0.00000000000E+00  0.00000000000E+00  0.60165299738E+03  0.35394128431E+04  0.34879015102E+04 0.  0.
        5    1    3    3  502    0 -0.16034397230E+04  0.55730959554E+03 -0.10473730624E+03  0.17007659815E+04  0.46999998093E+01 0.  1.
       -5    1    3    3    0  502  0.16034397230E+04 -0.55730959554E+03  0.70639030362E+03  0.18386468616E+04  0.46999998093E+01 0. -1.
</event>
<event>
 5   0  0.1379425E-06  0.3556816E+04  0.7818609E-02  0.8100456E-01
       -2   -1    0    0    0  501  0.00000000000E+00  0.00000000000E+00  0.16759786867E+04  0.16759786867E+04  0.25500000920E-02 0. -1.
        2   -1    0    0  501    0  0.00000000000E+00  0.00000000000E+00 -0.18870975096E+04  0.18870975096E+04  0.25500000920E-02 0.  1.
    10030    2    1    2    0    0  0.00000000000E+00  0.00000000000E+00 -0.21111882295E+03  0.35630761963E+04  0.35568161076E+04 0.  0.
        4    1    3    3  502    0 -0.13069889997E+04  0.23449271100E+03  0.10795385834E+04  0.17113188606E+04  0.12699999809E+01 0. -1.
       -4    1    3    3    0  502  0.13069889997E+04 -0.23449271100E+03 -0.12906574063E+04  0.18517573357E+04  0.12699999809E+01 0.  1.
</event>
<event>
 5   0  0.1468942E-06  0.3551184E+04  0.7818609E-02  0.8101766E-01
       -2   -1    0    0    0  501  0.00000000000E+00  0.00000000000E+00  0.18460702596E+04  0.18460702596E+04  0.25500000920E-02 0. -1.
        2   -1    0    0  501    0  0.00000000000E+00  0.00000000000E+00 -0.17078048412E+04  0.17078048412E+04  0.25500000920E-02 0.  1.
    10030    2    1    2    0    0  0.00000000000E+00  0.00000000000E+00  0.13826541833E+03  0.35538751008E+04  0.35511844371E+04 0.  0.
        2    1    3    3  502    0  0.67062496635E+03  0.11242848832E+04 -0.11313483499E+04  0.17302321904E+04  0.25500000920E-02 0.  1.
       -2    1    3    3    0  502 -0.67062496635E+03 -0.11242848832E+04  0.12696137682E+04  0.18236429104E+04  0.25500000920E-02 0. -1.
</event>
<event>
 5   0  0.4811500E-07  0.2864590E+04  0.7818609E-02  0.8283492E-01
        1   -1    0    0  501    0  0.00000000000E+00  0.00000000000E+00  0.22865635393E+04  0.22865635393E+04  0.50400001928E-02 0.  1.
       -1   -1    0    0    0  501  0.00000000000E+00  0.00000000000E+00 -0.89718432342E+03  0.89718432343E+03  0.50400001928E-02 0. -1.
    10030    2    1    2    0    0  0.00000000000E+00  0.00000000000E+00  0.13893792158E+04  0.31837478627E+04  0.28645899965E+04 0.  0.
        5    1    3    3  502    0 -0.37608997006E+03  0.37099516393E+03  0.21743187466E+04  0.22375802062E+04  0.46999998093E+01 0.  1.
       -5    1    3    3    0  502  0.37608997006E+03 -0.37099516393E+03 -0.78493953078E+03  0.94616765650E+03  0.46999998093E+01 0. -1.
</event>
<event>
 5   0  0.5071661E-07  0.3150389E+04  0.7818609E-02  0.8202044E-01
       -1   -1    0    0    0  501  0.00000000000E+00  0.00000000000E+00  0.17050694132E+04  0.17050694132E+04  0.50400001928E-02 0. -1.
        1   -1    0    0  501    0  0.00000000000E+00  0.00000000000E+00 -0.14552120219E+04  0.14552120219E+04  0.50400001928E-02 0.  1.
    10030    2    1    2    0    0  0.00000000000E+00  0.00000000000E+00  0.24985739130E+03  0.31602814351E+04  0.31503888702E+04 0.  0.
        1    1    3    3  502    0  0.12662532499E+04 -0.45234380671E+03  0.94800823987E+03  0.16452148295E+04  0.50400001928E-02 0. -1.
       -1    1    3    3    0  502 -0.12662532499E+04  0.45234380671E+03 -0.69815084857E+03  0.15150666057E+04  0.50400001928E-02 0.  1.
</event>
<event>
 5   0  0.1505671E-06  0.2930513E+04  0.7818609E-02  0.8263856E-01
       -2   -1    0    0    0  501  0.00000000000E+00  0.00000000000E+00  0.10964538085E+04  0.10964538085E+04  0.25500000920E-02 0. -1.
        2   -1    0    0  501    0  0.00000000000E+00  0.00000000000E+00 -0.19581094599E+04  0.19581094599E+04  0.25500000920E-02 0.  1.
    10030    2    1    2    0    0  0.00000000000E+00  0.00000000000E+00 -0.86165565139E+03  0.30545632684E+04  0.29305129754E+04 0.  0.
        3    1    3    3  502    0 -0.16074637740E+03 -0.14539062564E+04 -0.34180910709E+03  0.15021705217E+04  0.10100000352E+00 0. -1.
       -3    1    3    3    0  502  0.16074637740E+03  0.14539062564E+04 -0.51984654430E+03  0.15523927467E+04  0.10100000352E+00 0.  1.
</event>
<event>
 5   0  0.1379425E-06  0.3638353E+04  0.7818609E-02  0.8081762E-01
       -2   -1    0    0    0  501  0.00000000000E+00  0.00000000000E+00  0.23626893917E+04  0.23626893917E+04  0.25500000920E-02 0. -1.
        2   -1    0    0  501    0  0.00000000000E+00  0.00000000000E+00 -0.14006936256E+04  0.14006936256E+04  0.25500000920E-02 0.  1.
    10030    2    1    2    0    0  0.00000000000E+00  0.00000000000E+00  0.96199576602E+03  0.37633830173E+04  0.36383534574E+04 0.  0.
        4    1    3    3  502    0  0.11412026252E+04 -0.13701617874E+04  0.85353507873E+03  0.19769194467E+04  0.12699999809E+01 0.  1.
       -4    1    3    3    0  502 -0.11412026252E+04  0.13701617874E+04  0.10846068729E+03  0.17864635706E+04  0.12699999809E+01 0. -1.
</event>
<event>
 5   0  0.1379425E-06  0.3552711E+04  0.7818609E-02  0.8101410E-01
       -2   -1    0    0    0  501  0.00000000000E+00  0.00000000000E+00  0.13254380616E+04  0.13254380616E+04  0.25500000920E-02 0. -1.
        2   -1    0    0  501    0  0.00000000000E+00  0.00000000000E+00 -0.23806767578E+04  0.23806767578E+04  0.25500000920E-02 0.  1.
    10030    2    1    2    0    0  0.00000000000E+00  0.00000000000E+00 -0.10552386962E+04  0.37061148194E+04  0.35527114081E+04 0.  0.
        4    1    3    3  502    0 -0.43862951738E+03 -0.37117313610E+03 -0.22810521236E+04  0.23523107264E+04  0.12699999809E+01 0.  1.
       -4    1    3    3    0  502  0.43862951738E+03  0.37117313610E+03  0.12258134274E+04  0.13538040930E+04  0.12699999809E+01 0. -1.
</event>
<event>
 5   0  0.4811500E-07  0.3611247E+04  0.7818609E-02  0.8087920E-01
        1   -1    0    0  501    0  0.00000000000E+00  0.00000000000E+00  0.20233596026E+04  0.20233596026E+04  0.50400001928E-02 0.  1.
       -1   -1    0    0    0  501  0.00000000000E+00  0.00000000000E+00 -0.16113183538E+04  0.16113183538E+04  0.50400001928E-02 0. -1.
    10030    2    1    2    0    0  0.00000000000E+00  0.00000000000E+00  0.41204124884E+03  0.36346779564E+04  0.36112471330E+04 0.  0.
        3    1    3    3  502    0 -0.23942647803E+03 -0.12437267208E+04  0.15012640126E+04  0.19641728132E+04  0.10100000352E+00 0.  1.
       -3    1    3    3    0  502  0.23942647803E+03  0.12437267208E+04 -0.10892227637E+04  0.16705051432E+04  0.10100000352E+00 0. -1.
</event>
<event>
 5   0  0.4811500E-07  0.3534617E+04  0.7818609E-02  0.8105635E-01
       -1   -1    0    0    0  501  0.00000000000E+00  0.00000000000E+00  0.17716490308E+04  0.17716490308E+04  0.50400001928E-02 0.  1.
        1   -1    0    0  501    0  0.00000000000E+00  0.00000000000E+00 -0.17629787700E+04  0.17629787700E+04  0.50400001928E-02 0. -1.
    10030    2    1    2    0    0  0.00000000000E+00  0.00000000000E+00  0.86702607725E+01  0.35346278008E+04  0.35346171669E+04 0.  0.
        3    1    3    3  502    0 -0.74958897644E+03 -0.24204810525E+02  0.16046243297E+04  0.17712393277E+04  0.10100000352E+00 0.  1.
       -3    1    3    3    0  502  0.74958897644E+03  0.24204810525E+02 -0.15959540689E+04  0.17633884730E+04  0.10100000352E+00 0. -1.
</event>
<event>
 5   0  0.5071661E-07  0.3595040E+04  0.7818609E-02  0.8091629E-01
        1   -1    0    0  501    0  0.00000000000E+00  0.00000000000E+00  0.11073378277E+04  0.11073378277E+04  0.50400001928E-02 0.  1.
       -1   -1    0    0    0  501  0.00000000000E+00  0.00000000000E+00 -0.29178791046E+04  0.29178791046E+04  0.50400001928E-02 0. -1.
    10030    2    1    2    0    0  0.00000000000E+00  0.00000000000E+00 -0.18105412768E+04  0.40252169323E+04  0.35950398659E+04 0.  0.
        1    1    3    3  502    0 -0.93637095998E+03  0.84044169346E+03  0.53206088040E+03  0.13660972130E+04  0.50400001928E-02 0.  1.
       -1    1    3    3    0  502  0.93637095998E+03 -0.84044169346E+03 -0.23426021573E+04  0.26591197194E+04  0.50400001928E-02 0. -1.
</event>
<event>
 5   0  0.4811500E-07  0.3488000E+04  0.7818609E-02  0.8116640E-01
       -1   -1    0    0    0  501  0.00000000000E+00  0.00000000000E+00  0.13968433056E+04  0.13968433056E+04  0.50400001928E-02 0. -1.
        1   -1    0    0  501    0  0.00000000000E+00  0.00000000000E+00 -0.21774359638E+04  0.21774359638E+04  0.50400001928E-02 0.  1.
    10030    2    1    2    0    0  0.00000000000E+00  0.00000000000E+00 -0.78059265818E+03  0.35742792695E+04  0.34880004871E+04 0.  0.
        2    1    3    3  502    0  0.44642117501E+03 -0.14514311405E+04  0.48858579147E+03  0.15951991402E+04  0.25500000920E-02 0. -1.
       -2    1    3    3    0  502 -0.44642117501E+03  0.14514311405E+04 -0.12691784496E+04  0.19790801293E+04  0.25500000920E-02 0.  1.
</event>
<event>
 5   0  0.1505671E-06  0.2223423E+04  0.7818609E-02  0.8508742E-01
        2   -1    0    0  501    0  0.00000000000E+00  0.00000000000E+00  0.16240125549E+04  0.16240125549E+04  0.25500000920E-02 0.  1.
       -2   -1    0    0    0  501  0.00000000000E+00  0.00000000000E+00 -0.76101803650E+03  0.76101803650E+03  0.25500000920E-02 0. -1.
    10030    2    1    2    0    0  0.00000000000E+00  0.00000000000E+00  0.86299451837E+03  0.23850305914E+04  0.22234233477E+04 0.  0.
        3    1    3    3  502    0 -0.75222463859E+03 -0.45747191654E+03 -0.29664926147E+03  0.92904427013E+03  0.10100000352E+00 0. -1.
       -3    1    3    3    0  502  0.75222463859E+03  0.45747191654E+03  0.11596437798E+04  0.14559863212E+04  0.10100000352E+00 0.  1.
</event>
<event>
 5   0  0.1444091E-06  0.3684936E+04  0.7818609E-02  0.8071308E-01
       -2   -1    0    0    0  501  0.00000000000E+00  0.00000000000E+00  0.12599309516E+04  0.12599309516E+04  0.25500000920E-02 0.  1.
        2   -1    0    0  501    0  0.00000000000E+00  0.00000000000E+00 -0.26943449696E+04  0.26943449696E+04  0.25500000920E-02 0. -1.
    10030    2    1    2    0    0  0.00000000000E+00  0.00000000000E+00 -0.14344140180E+04  0.39542759212E+04  0.36849361577E+04 0.  0.
        1    1    3    3  502    0 -0.94005439555E+03 -0.57076189465E+03 -0.23035032999E+04  0.25525671117E+04  0.50400001928E-02 0. -1.
       -1    1    3    3    0  502  0.94005439555E+03  0.57076189465E+03  0.86908928185E+03  0.14017088096E+04  0.50400001928E-02 0.  1.
</event>
<event>
 5   0  0.4811500E-07  0.3576433E+04  0.7818609E-02  0.8095911E-01
       -1   -1    0    0    0  501  0.00000000000E+00  0.00000000000E+00  0.19176730763E+04  0.19176730763E+04  0.50400001928E-02 0.  1.
        1   -1    0    0  501    0  0.00000000000E+00  0.00000000000E+00 -0.16674989605E+04  0.16674989605E+04  0.50400001928E-02 0. -1.
    10030    2    1    2    0    0  0.00000000000E+00  0.00000000000E+00  0.25017411582E+03  0.35851720367E+04  0.35764327821E+04 0.  0.
        3    1    3    3  502    0  0.11800565299E+03  0.17569692765E+04  0.43705722109E+03  0.18143553669E+04  0.10100000352E+00 0. -1.
       -3    1    3    3    0  502 -0.11800565299E+03 -0.17569692765E+04 -0.18688310527E+03  0.17708166698E+04  0.10100000352E+00 0.  1.
</event>
<event>
 5   0  0.1468942E-06  0.2705537E+04  0.7818609E-02  0.8333211E-01
        2   -1    0    0  501    0  0.00000000000E+00  0.00000000000E+00  0.25710344442E+04  0.25710344442E+04  0.25500000920E-02 0. -1.
       -2   -1    0    0    0  501  0.00000000000E+00  0.00000000000E+00 -0.71176892589E+03  0.71176892589E+03  0.25500000920E-02 0.  1.
    10030    2    1    2    0    0  0.00000000000E+00  0.00000000000E+00  0.18592655183E+04  0.32828033701E+04  0.27055368597E+04 0.  0.
        2    1    3    3  502    0  0.33195591769E+03 -0.12395020894E+04  0.14492905471E+04  0.19357177611E+04  0.25500000920E-02 0.  1.
       -2    1    3    3    0  502 -0.33195591769E+03  0.12395020894E+04  0.40997497120E+03  0.13470856090E+04  0.25500000920E-02 0. -1.
</event>
<event>
 5   0  0.1444091E-06  0.2989028E+04  0.7818609E-02  0.8246871E-01
        2   -1    0    0  501    0  0.00000000000E+00  0.00000000000E+00  0.22574755867E+04  0.22574755867E+04  0.25500000920E-02 0. -1.
       -2   -1    0    0    0  501  0.00000000000E+00  0.00000000000E+00 -0.98941169958E+03  0.98941169958E+03  0.25500000920E-02 0.  1.
    10030    2    1    2    0    0  0.00000000000E+00  0.00000000000E+00  0.12680638871E+04  0.32468872863E+04  0.29890284421E+04 0.  0.
        1    1    3    3  502    0  0.30733771003E+03 -0.82635882441E+03 -0.67682332487E+03  0.11114923247E+04  0.50400001928E-02 0.  1.
       -1    1    3    3    0  502 -0.30733771003E+03  0.82635882441E+03  0.19448872120E+04  0.21353949616E+04  0.50400001928E-02 0. -1.
</event>
<event>
 5   0  0.1379425E-06  0.3326379E+04  0.7818609E-02  0.8156215E-01
        2   -1    0    0  501    0  0.00000000000E+00  0.00000000000E+00  0.16853227023E+04  0.16853227023E+04  0.25500000920E-02 0.  1.
       -2   -1    0    0    0  501  0.00000000000E+00  0.00000000000E+00 -0.16413471996E+04  0.16413471996E+04  0.25500000920E-02 0. -1.
    10030    2    1    2    0    0  0.00000000000E+00  0.00000000000E+00  0.43975502767E+02  0.33266699019E+04  0.33263792314E+04 0.  0.
        4    1    3    3  502    0 -0.16071811574E+04  0.33000356183E+03  0.29452663123E+03  0.16669376632E+04  0.12699999809E+01 0.  1.
       -4    1    3    3    0  502  0.16071811574E+04 -0.33000356183E+03 -0.25055112847E+03  0.16597322387E+04  0.12699999809E+01 0. -1.
</event>
<event>
 5   0  0.4811500E-07  0.3612745E+04  0.7818609E-02  0.8087578E-01
       -1   -1    0    0    0  501  0.00000000000E+00  0.00000000000E+00  0.16679614837E+04  0.16679614837E+04  0.50400001928E-02 0.  1.
        1   -1    0    0  501    0  0.00000000000E+00  0.00000000000E+00 -0.19562693295E+04  0.19562693295E+04  0.50400001928E-02 0. -1.
    10030    2    1    2    0    0  0.00000000000E+00  0.00000000000E+00 -0.28830784582E+03  0.36242308132E+04  0.36127451575E+04 0.  0.
        5    1    3    3  502    0 -0.16394499535E+04 -0.50599897957E+03 -0.71086466245E+03  0.18571972904E+04  0.46999998093E+01 0. -1.
       -5    1    3    3    0  502  0.16394499535E+04  0.50599897957E+03  0.42255681663E+03  0.17670335228E+04  0.46999998093E+01 0.  1.
</event>
<event>
 5   0  0.1444091E-06  0.3572118E+04  0.7818609E-02  0.8096908E-01
        2   -1    0    0  501    0  0.00000000000E+00  0.00000000000E+00  0.23481067686E+04  0.23481067686E+04  0.25500000920E-02 0. -1.
       -2   -1    0    0    0  501  0.00000000000E+00  0.00000000000E+00 -0.13585444463E+04  0.13585444463E+04  0.25500000920E-02 0.  1.
    10030    2    1    2    0    0  0.00000000000E+00  0.00000000000E+00  0.98956232231E+03  0.37066512149E+04  0.35721183686E+04 0.  0.
        1    1    3    3  502    0  0.14859786694E+04 -0.21536541100E+03 -0.50885441087E+03  0.15853856558E+04  0.50400001928E-02 0.  1.
       -1    1    3    3    0  502 -0.14859786694E+04  0.21536541100E+03  0.14984167332E+04  0.21212655591E+04  0.50400001928E-02 0. -1.
</event>
<event>
 5   0  0.1505671E-06  0.3166820E+04  0.7818609E-02  0.8197635E-01
       -2   -1    0    0    0  501  0.00000000000E+00  0.00000000000E+00  0.93824054043E+03  0.93824054043E+03  0.25500000920E-02 0. -1.
        2   -1    0    0  501    0  0.00000000000E+00  0.00000000000E+00 -0.26722220221E+04  0.26722220221E+04  0.25500000920E-02 0.  1.
    10030    2    1    2    0    0  0.00000000000E+00  0.00000000000E+00 -0.17339814816E+04  0.36104625625E+04  0.31668198775E+04 0.  0.
        3    1    3    3  502    0 -0.10702449431E+04 -0.10714528457E+04 -0.33988935766E+03  0.15520825443E+04  0.10100000352E+00 0. -1.
       -3    1    3    3    0  502  0.10702449431E+04  0.10714528457E+04 -0.13940921240E+04  0.20583800181E+04  0.10100000352E+00 0.  1.
</event>
<event>
 5   0  0.4811500E-07  0.3594879E+04  0.7818609E-02  0.8091666E-01
       -1   -1    0    0    0  501  0.00000000000E+00  0.00000000000E+00  0.16376545544E+04  0.16376545544E+04  0.50400001928E-02 0.  1.
        1   -1    0    0  501    0  0.00000000000E+00  0.00000000000E+00 -0.19728142443E+04  0.19728142444E+04  0.50400001928E-02 0. -1.
    10030    2    1    2    0    0  0.00000000000E+00  0.00000000000E+00 -0.33515968997E+03  0.36104687987E+04  0.35948787085E+04 0.  0.
        4    1    3    3  502    0  0.13372377259E+03  0.13061426181E+04  0.10653006993E+04  0.16907861424E+04  0.12699999809E+01 0.  1.
       -4    1    3    3    0  502 -0.13372377259E+03 -0.13061426181E+04 -0.14004603893E+04  0.19196826564E+04  0.12699999809E+01 0. -1.
</event>
<event>
 5   0  0.1491854E-06  0.3629026E+04  0.7818609E-02  0.8083875E-01
       -2   -1    0    0    0  501  0.00000000000E+00  0.00000000000E+00  0.16296577922E+04  0.16296577922E+04  0.25500000920E-02 0.  1.
        2   -1    0    0  501    0  0.00000000000E+00  0.00000000000E+00 -0.20203370621E+04  0.20203370621E+04  0.25500000920E-02 0. -1.
    10030    2    1    2    0    0  0.00000000000E+00  0.00000000000E+00 -0.39067926997E+03  0.36499948543E+04  0.36290263356E+04 0.  0.
        5    1    3    3  502    0 -0.71204414988E+02  0.48067542556E+03 -0.19536734644E+04  0.20132016861E+04  0.46999998093E+01 0. -1.
       -5    1    3    3    0  502  0.71204414988E+02 -0.48067542556E+03  0.15629941945E+04  0.16367931682E+04  0.46999998093E+01 0.  1.
</event>
<event>
 5   0  0.1468942E-06  0.2239040E+04  0.7818609E-02  0.8502352E-01
        2   -1    0    0  501    0  0.00000000000E+00  0.00000000000E+00  0.14480004357E+04  0.14480004357E+04  0.25500000920E-02 0. -1.
       -2   -1    0    0    0  501  0.00000000000E+00  0.00000000000E+00 -0.86555542717E+03  0.86555542717E+03  0.25500000920E-02 0.  1.
    10030    2    1    2    0    0  0.00000000000E+00  0.00000000000E+00  0.58244500858E+03  0.23135558629E+04  0.22390396474E+04 0.  0.
        2    1    3    3  502    0 -0.44424670325E+03  0.10275368508E+04  0.27910521711E+03  0.11537273661E+04  0.25500000920E-02 0.  1.
       -2    1    3    3    0  502  0.44424670325E+03 -0.10275368508E+04  0.30333979147E+03  0.11598284968E+04  0.25500000920E-02 0. -1.
</event>
<event>
 5   0  0.1468942E-06  0.3561216E+04  0.7818609E-02  0.8099434E-01
        2   -1    0    0  501    0  0.00000000000E+00  0.00000000000E+00  0.15621141946E+04  0.15621141946E+04  0.25500000920E-02 0. -1.
       -2   -1    0    0    0  501  0.00000000000E+00  0.00000000000E+00 -0.20296627486E+04  0.20296627486E+04  0.25500000920E-02 0.  1.
    10030    2    1    2    0    0  0.00000000000E+00  0.00000000000E+00 -0.46754855399E+03  0.35917769432E+04  0.35612160787E+04 0.  0.
        2    1    3    3  502    0 -0.75233252492E+03  0.61335972332E+03 -0.17393506643E+04  0.19918722629E+04  0.25500000920E-02 0.  1.
       -2    1    3    3    0  502  0.75233252492E+03 -0.61335972332E+03  0.12718021103E+04  0.15999046803E+04  0.25500000920E-02 0. -1.
</event>
<event>
 5   0  0.4811500E-07  0.3758357E+04  0.7818609E-02  0.8055151E-01
        1   -1    0    0  501    0  0.00000000000E+00  0.00000000000E+00  0.32822145696E+04  0.32822145696E+04  0.50400001928E-02 0.  1.
       -1   -1    0    0    0  501  0.00000000000E+00  0.00000000000E+00 -0.10758927706E+04  0.10758927707E+04  0.50400001928E-02 0. -1.
    10030    2    1    2    0    0  0.00000000000E+00  0.00000000000E+00  0.22063217989E+04  0.43581073402E+04  0.37583565170E+04 0.  0.
        3    1    3    3  502    0 -0.55658365058E+03 -0.99057006392E+02 -0.97494813640E+03  0.11269966857E+04  0.10100000352E+00 0. -1.
       -3    1    3    3    0  502  0.55658365058E+03  0.99057006392E+02  0.31812699353E+04  0.32311106546E+04  0.10100000352E+00 0.  1.
</event>
<event>
 5   0  0.4811500E-07  0.3478259E+04  0.7818609E-02  0.8118962E-01
       -1   -1    0    0    0  501  0.00000000000E+00  0.00000000000E+00  0.16769610329E+04  0.16769610330E+04  0.50400001928E-02 0. -1.
        1   -1    0    0  501    0  0.00000000000E+00  0.00000000000E+00 -0.18036022362E+04  0.18036022362E+04  0.50400001928E-02 0.  1.
    10030    2    1    2    0    0  0.00000000000E+00  0.00000000000E+00 -0.12664120325E+03  0.34805632692E+04  0.34782585695E+04 0.  0.
        2    1    3    3  502    0 -0.89656859953E+03  0.33633590495E+03  0.13894035690E+04  0.16874238864E+04  0.25500000920E-02 0. -1.
       -2    1    3    3    0  502  0.89656859953E+03 -0.33633590495E+03 -0.15160447723E+04  0.17931393828E+04  0.25500000920E-02 0.  1.
</event>
<event>
 5   0  0.1444091E-06  0.2945076E+04  0.7818609E-02  0.8259591E-01
       -2   -1    0    0    0  501  0.00000000000E+00  0.00000000000E+00  0.19710558816E+04  0.19710558816E+04  0.25500000920E-02 0.  1.
        2   -1    0    0  501    0  0.00000000000E+00  0.00000000000E+00 -0.11001044976E+04  0.11001044976E+04  0.25500000920E-02 0. -1.
    10030    2    1    2    0    0  0.00000000000E+00  0.00000000000E+00  0.87095138400E+03  0.30711603792E+04  0.29450755103E+04 0.  0.
        1    1    3    3  502    0 -0.34965441748E+03 -0.50275294617E+03 -0.96101624841E+03  0.11395485800E+04  0.50400001928E-02 0. -1.
       -1    1    3    3    0  502  0.34965441748E+03  0.50275294617E+03  0.18319676324E+04  0.19316117992E+04  0.50400001928E-02 0.  1.
</event>
<event>
 5   0  0.1491854E-06  0.3601814E+04  0.7818609E-02  0.8090076E-01
        2   -1    0    0  501    0  0.00000000000E+00  0.00000000000E+00  0.19643155265E+04  0.19643155265E+04  0.25500000920E-02 0. -1.
       -2   -1    0    0    0  501  0.00000000000E+00  0.00000000000E+00 -0.16510924405E+04  0.16510924405E+04  0.25500000920E-02 0.  1.
    10030    2    1    2    0    0  0.00000000000E+00  0.00000000000E+00  0.31322308602E+03  0.36154079670E+04  0.36018142743E+04 0.  0.
        5    1    3    3  502    0 -0.12927181092E+04 -0.52537800155E+03 -0.98615003960E+03  0.17087001331E+04  0.46999998093E+01 0.  1.
       -5    1    3    3    0  502  0.12927181092E+04  0.52537800155E+03  0.12993731256E+04  0.19067078339E+04  0.46999998093E+01 0. -1.
</event>
<event>
 5   0  0.4811500E-07  0.3569436E+04  0.7818609E-02  0.8097529E-01
        1   -1    0    0  501    0  0.00000000000E+00  0.00000000000E+00  0.29242734967E+04  0.29242734967E+04  0.50400001928E-02 0.  1.
       -1   -1    0    0    0  501  0.00000000000E+00  0.00000000000E+00 -0.10892340924E+04  0.10892340924E+04  0.50400001928E-02 0. -1.
    10030    2    1    2    0    0  0.00000000000E+00  0.00000000000E+00  0.18350394043E+04  0.40135075891E+04  0.35694360272E+04 0.  0.
        5    1    3    3  502    0  0.40833672019E+03 -0.11336747884E+04 -0.56279379495E+03  0.13299309563E+04  0.46999998093E+01 0. -1.
       -5    1    3    3    0  502 -0.40833672019E+03  0.11336747884E+04  0.23978331992E+04  0.26835766328E+04  0.46999998093E+01 0.  1.
</event>
<event>
 5   0  0.1491854E-06  0.3697847E+04  0.7818609E-02  0.8068439E-01
       -2   -1    0    0    0  501  0.00000000000E+00  0.00000000000E+00  0.32840690049E+04  0.32840690049E+04  0.25500000920E-02 0. -1.
        2   -1    0    0  501    0  0.00000000000E+00  0.00000000000E+00 -0.10409395793E+04  0.10409395793E+04  0.25500000920E-02 0.  1.
    10030    2    1    2    0    0  0.00000000000E+00  0.00000000000E+00  0.22431294257E+04  0.43250085842E+04  0.36978466211E+04 0.  0.
        5    1    3    3  502    0 -0.18239155314E+04 -0.23118703266E+03  0.89243014462E+03  0.20436655702E+04  0.46999998093E+01 0.  1.
       -5    1    3    3    0  502  0.18239155314E+04  0.23118703266E+03  0.13506992811E+04  0.22813430140E+04  0.46999998093E+01 0. -1.
</event>
<event>
 5   0  0.4811500E-07  0.3609652E+04  0.7818609E-02  0.8088284E-01
       -1   -1    0    0    0  501  0.00000000000E+00  0.00000000000E+00  0.11855266799E+04  0.11855266799E+04  0.50400001928E-02 0.  1.
        1   -1    0    0  501    0  0.00000000000E+00  0.00000000000E+00 -0.27476368632E+04  0.27476368632E+04  0.50400001928E-02 0. -1.
    10030    2    1    2    0    0  0.00000000000E+00  0.00000000000E+00 -0.15621101833E+04  0.39331635431E+04  0.36096519544E+04 0.  0.
        2    1    3    3  502    0 -0.98311897453E+03  0.37309953447E+03 -0.23793781752E+04  0.26013778429E+04  0.25500000920E-02 0. -1.
       -2    1    3    3    0  502  0.98311897453E+03 -0.37309953447E+03  0.81726799190E+03  0.13317857002E+04  0.25500000920E-02 0.  1.
</event>
<event>
 5   0  0.4811500E-07  0.2860940E+04  0.7818609E-02  0.8284595E-01
       -1   -1    0    0    0  501  0.00000000000E+00  0.00000000000E+00  0.23130232347E+04  0.23130232347E+04  0.50400001928E-02 0. -1.
        1   -1    0    0  501    0  0.00000000000E+00  0.00000000000E+00 -0.88466214804E+03  0.88466214806E+03  0.50400001928E-02 0.  1.
    10030    2    1    2    0    0  0.00000000000E+00  0.00000000000E+00  0.14283610866E+04  0.31976853827E+04  0.28609397780E+04 0.  0.
        3    1    3    3  502    0 -0.67482371702E+03 -0.97652899627E+03 -0.17805868141E+03  0.12002919786E+04  0.10100000352E+00 0. -1.
       -3    1    3    3    0  502  0.67482371702E+03  0.97652899627E+03  0.16064197680E+04  0.19973934042E+04  0.10100000352E+00 0.  1.
</event>
<event>
 5   0  0.4811500E-07  0.3657361E+04  0.7818609E-02  0.8077477E-01
        1   -1    0    0  501    0  0.00000000000E+00  0.00000000000E+00  0.22620771969E+04  0.22620771969E+04  0.50400001928E-02 0.  1.
       -1   -1    0    0    0  501  0.00000000000E+00  0.00000000000E+00 -0.14783188977E+04  0.14783188978E+04  0.50400001928E-02 0. -1.
    10030    2    1    2    0    0  0.00000000000E+00  0.00000000000E+00  0.78375829913E+03  0.37403960946E+04  0.36573605063E+04 0.  0.
        3    1    3    3  502    0  0.15063407169E+03 -0.12404573547E+04 -0.97359167595E+03  0.15840788598E+04  0.10100000352E+00 0. -1.
       -3    1    3    3    0  502 -0.15063407169E+03  0.12404573547E+04  0.17573499751E+04  0.21563172349E+04  0.10100000352E+00 0.  1.
</event>
<event>
 5   0  0.1468942E-06  0.3597202E+04  0.7818609E-02  0.8091133E-01
        2   -1    0    0  501    0  0.00000000000E+00  0.00000000000E+00  0.16142257574E+04  0.16142257574E+04  0.25500000920E-02 0.  1.
       -2   -1    0    0    0  501  0.00000000000E+00  0.00000000000E+00 -0.20040351766E+04  0.20040351766E+04  0.25500000920E-02 0. -1.
    10030    2    1    2    0    0  0.00000000000E+00  0.00000000000E+00 -0.38980941911E+03  0.36182609340E+04  0.35972018019E+04 0.  0.
        2    1    3    3  502    0  0.96425475148E+03 -0.26100818490E+03 -0.16993388789E+04  0.19712090513E+04  0.25500000920E-02 0. -1.
       -2    1    3    3    0  502 -0.96425475148E+03  0.26100818490E+03  0.13095294598E+04  0.16470518827E+04  0.25500000920E-02 0.  1.
</event>
<event>
 5   0  0.1444091E-06  0.3506078E+04  0.7818609E-02  0.8112351E-01
        2   -1    0    0  501    0  0.00000000000E+00  0.00000000000E+00  0.14634635525E+04  0.14634635525E+04  0.25500000920E-02 0. -1.
       -2   -1    0    0    0  501  0.00000000000E+00  0.00000000000E+00 -0.20999124276E+04  0.20999124276E+04  0.25500000920E-02 0.  1.
    10030    2    1    2    0    0  0.00000000000E+00  0.00000000000E+00 -0.63644887508E+03  0.35633759802E+04  0.35060777523E+04 0.  0.
        1    1    3    3  502    0  0.10059069037E+04 -0.13878732796E+04 -0.69179684496E+03  0.18484111593E+04  0.50400001928E-02 0. -1.
       -1    1    3    3    0  502 -0.10059069037E+04  0.13878732796E+04  0.55347969874E+02  0.17149648209E+04  0.50400001928E-02 0.  1.
</event>
<event>
 5   0  0.5071661E-07  0.2394971E+04  0.7818609E-02  0.8441389E-01
       -1   -1    0    0    0  501  0.00000000000E+00  0.00000000000E+00  0.13095103802E+04  0.13095103802E+04  0.50400001928E-02 0. -1.
        1   -1    0    0  501    0  0.00000000000E+00  0.00000000000E+00 -0.10950438695E+04  0.10950438695E+04  0.50400001928E-02 0.  1.
    10030    2    1    2    0    0  0.00000000000E+00  0.00000000000E+00  0.21446651068E+03  0.24045542496E+04  0.23949708256E+04 0.  0.
        1    1    3    3  502    0  0.92465339871E+03 -0.39202380751E+03  0.76199675905E+03  0.12606766573E+04  0.50400001928E-02 0. -1.
       -1    1    3    3    0  502 -0.92465339871E+03  0.39202380751E+03 -0.54753024837E+03  0.11438775924E+04  0.50400001928E-02 0.  1.
</event>
<event>
 5   0  0.1444091E-06  0.2635938E+04  0.7818609E-02  0.8356095E-01
       -2   -1    0    0    0  501  0.00000000000E+00  0.00000000000E+00  0.85780362148E+03  0.85780362149E+03  0.25500000920E-02 0. -1.
        2   -1    0    0  501    0  0.00000000000E+00  0.00000000000E+00 -0.20249886333E+04  0.20249886333E+04  0.25500000920E-02 0.  1.
    10030    2    1    2    0    0  0.00000000000E+00  0.00000000000E+00 -0.11671850118E+04  0.28827922548E+04  0.26359382262E+04 0.  0.
        1    1    3    3  502    0  0.74800895522E+03  0.10834211775E+04 -0.65032965973E+03  0.14684166682E+04  0.50400001928E-02 0. -1.
       -1    1    3    3    0  502 -0.74800895522E+03 -0.10834211775E+04 -0.51685535209E+03  0.14143755866E+04  0.50400001928E-02 0.  1.
</event>
<event>
 5   0  0.1444091E-06  0.2211589E+04  0.7818609E-02  0.8513620E-01
       -2   -1    0    0    0  501  0.00000000000E+00  0.00000000000E+00  0.14541946462E+04  0.14541946462E+04  0.25500000920E-02 0. -1.
        2   -1    0    0  501    0  0.00000000000E+00  0.00000000000E+00 -0.84086505869E+03  0.84086505870E+03  0.25500000920E-02 0.  1.
    10030    2    1    2    0    0  0.00000000000E+00  0.00000000000E+00  0.61332958753E+03  0.22950597049E+04  0.22115889913E+04 0.  0.
        1    1    3    3  502    0  0.65699052563E+03  0.80529506270E+03  0.69860291535E+03  0.12522710258E+04  0.50400001928E-02 0. -1.
       -1    1    3    3    0  502 -0.65699052563E+03 -0.80529506270E+03 -0.85273327823E+02  0.10427886791E+04  0.50400001928E-02 0.  1.
</event>
<event>
 5   0  0.1491854E-06  0.3574685E+04  0.7818609E-02  0.8096315E-01
       -2   -1    0    0    0  501  0.00000000000E+00  0.00000000000E+00  0.30207232030E+04  0.30207232030E+04  0.25500000920E-02 0. -1.
        2   -1    0    0  501    0  0.00000000000E+00  0.00000000000E+00 -0.10575591875E+04  0.10575591875E+04  0.25500000920E-02 0.  1.
    10030    2    1    2    0    0  0.00000000000E+00  0.00000000000E+00  0.19631640154E+04  0.40782823905E+04  0.35746852036E+04 0.  0.
        5    1    3    3  502    0 -0.69544000881E+03 -0.14980977692E+04  0.20223759149E+03  0.16639879402E+04  0.46999998093E+01 0.  1.
       -5    1    3    3    0  502  0.69544000881E+03  0.14980977692E+04  0.17609264240E+04  0.24142944502E+04  0.46999998093E+01 0. -1.
</event>
<event>
 5   0  0.1444091E-06  0.3604261E+04  0.7818609E-02  0.8089516E-01
        2   -1    0    0  501    0  0.00000000000E+00  0.00000000000E+00  0.13089658434E+04  0.13089658434E+04  0.25500000920E-02 0.  1.
       -2   -1    0    0    0  501  0.00000000000E+00  0.00000000000E+00 -0.24810989076E+04  0.24810989076E+04  0.25500000920E-02 0. -1.
    10030    2    1    2    0    0  0.00000000000E+00  0.00000000000E+00 -0.11721330642E+04  0.37900647511E+04  0.36042606589E+04 0.  0.
        1    1    3    3  502    0 -0.76232229069E+03 -0.71162454032E+03  0.95943798316E+03  0.14170624562E+04  0.50400001928E-02 0.  1.
       -1    1    3    3    0  502  0.76232229069E+03  0.71162454032E+03 -0.21315710474E+04  0.23730022948E+04  0.50400001928E-02 0. -1.
</event>
<event>
 5   0  0.4811500E-07  0.2914607E+04  0.7818609E-02  0.8268545E-01
        1   -1    0    0  501    0  0.00000000000E+00  0.00000000000E+00  0.17761821149E+04  0.17761821149E+04  0.50400001928E-02 0. -1.
       -1   -1    0    0    0  501  0.00000000000E+00  0.00000000000E+00 -0.11956733231E+04  0.11956733231E+04  0.50400001928E-02 0.  1.
    10030    2    1    2    0    0  0.00000000000E+00  0.00000000000E+00  0.58050879179E+03  0.29718554380E+04  0.29146070553E+04 0.  0.
        4    1    3    3  502    0 -0.72769502883E+03  0.36978701427E+03 -0.94070696542E+03  0.12454772975E+04  0.12699999809E+01 0.  1.
       -4    1    3    3    0  502  0.72769502883E+03 -0.36978701427E+03  0.15212157572E+04  0.17263781404E+04  0.12699999809E+01 0. -1.
</event>
<event>
 5   0  0.5071661E-07  0.3547838E+04  0.7818609E-02  0.8102546E-01
       -1   -1    0    0    0  501  0.00000000000E+00  0.00000000000E+00  0.24760108541E+04  0.24760108541E+04  0.50400001928E-02 0. -1.
        1   -1    0    0  501    0  0.00000000000E+00  0.00000000000E+00 -0.12709106943E+04  0.12709106944E+04  0.50400001928E-02 0.  1.
    10030    2    1    2    0    0  0.00000000000E+00  0.00000000000E+00  0.12051001597E+04  0.37469215485E+04  0.35478380312E+04 0.  0.
        1    1    3    3  502    0  0.92025082076E+02  0.11052906760E+04 -0.85956822502E+03  0.14032083337E+04  0.50400001928E-02 0.  1.
       -1    1    3    3    0  502 -0.92025082076E+02 -0.11052906760E+04  0.20646683848E+04  0.23437132148E+04  0.50400001928E-02 0. -1.
</event>
<event>
 5   0  0.5071661E-07  0.3563355E+04  0.7818609E-02  0.8098938E-01
       -1   -1    0    0    0  501  0.00000000000E+00  0.00000000000E+00  0.14422201092E+04  0.14422201092E+04  0.50400001928E-02 0.  1.
        1   -1    0    0  501    0  0.00000000000E+00  0.00000000000E+00 -0.22010328669E+04  0.22010328669E+04  0.50400001928E-02 0. -1.
    10030    2    1    2    0    0  0.00000000000E+00  0.00000000000E+00 -0.75881275771E+03  0.36432529761E+04  0.35633545216E+04 0.  0.
        1    1    3    3  502    0 -0.21002848817E+03  0.17186508685E+04  0.50133993092E+02  0.17321622877E+04  0.50400001928E-02 0.  1.
       -1    1    3    3    0  502  0.21002848817E+03 -0.17186508685E+04 -0.80894675081E+03  0.19110906884E+04  0.50400001928E-02 0. -1.
</event>
<event>
 5   0  0.1491854E-06  0.3634789E+04  0.7818609E-02  0.8082569E-01
       -2   -1    0    0    0  501  0.00000000000E+00  0.00000000000E+00  0.22741168460E+04  0.22741168460E+04  0.25500000920E-02 0. -1.
        2   -1    0    0  501    0  0.00000000000E+00  0.00000000000E+00 -0.14523978024E+04  0.14523978024E+04  0.25500000920E-02 0.  1.
    10030    2    1    2    0    0  0.00000000000E+00  0.00000000000E+00  0.82171904367E+03  0.37265146484E+04  0.36347887474E+04 0.  0.
        5    1    3    3  502    0  0.91629067299E+03 -0.13299280512E+04  0.12653200109E+04  0.20516710357E+04  0.46999998093E+01 0. -1.
       -5    1    3    3    0  502 -0.91629067299E+03  0.13299280512E+04 -0.44360096724E+03  0.16748436127E+04  0.46999998093E+01 0.  1.
</event>
<event>
 5   0  0.1444091E-06  0.2299095E+04  0.7818609E-02  0.8478278E-01
       -2   -1    0    0    0  501  0.00000000000E+00  0.00000000000E+00  0.49461212126E+03  0.49461212126E+03  0.25500000920E-02 0.  1.
        2   -1    0    0  501    0  0.00000000000E+00  0.00000000000E+00 -0.26717075061E+04  0.26717075061E+04  0.25500000920E-02 0. -1.
    10030    2    1    2    0    0  0.00000000000E+00  0.00000000000E+00 -0.21770953848E+04  0.31663196273E+04  0.22990945322E+04 0.  0.
        1    1    3    3  502    0  0.65463357598E+02 -0.43408362865E+03 -0.25517211659E+04  0.25892073993E+04  0.50400001928E-02 0. -1.
       -1    1    3    3    0  502 -0.65463357598E+02  0.43408362865E+03  0.37462578112E+03  0.57711222804E+03  0.50400001928E-02 0.  1.
</event>
<event>
 5   0  0.4811500E-07  0.3516002E+04  0.7818609E-02  0.8110008E-01
        1   -1    0    0  501    0  0.00000000000E+00  0.00000000000E+00  0.10498224353E+04  0.10498224353E+04  0.50400001928E-02 0.  1.
       -1   -1    0    0    0  501  0.00000000000E+00  0.00000000000E+00 -0.29438950570E+04  0.29438950570E+04  0.50400001928E-02 0. -1.
    10030    2    1    2    0    0  0.00000000000E+00  0.00000000000E+00 -0.18940726217E+04  0.39937174923E+04  0.35160017508E+04 0.  0.
        3    1    3    3  502    0  0.11405419001E+04 -0.54636604169E+03  0.44003390535E+03  0.13390226008E+04  0.10100000352E+00 0.  1.
       -3    1    3    3    0  502 -0.11405419001E+04  0.54636604169E+03 -0.23341065270E+04  0.26546948915E+04  0.10100000352E+00 0. -1.
</event>
<event>
 5   0  0.4811500E-07  0.3586185E+04  0.7818609E-02  0.8093663E-01
       -1   -1    0    0    0  501  0.00000000000E+00  0.00000000000E+00  0.15611119764E+04  0.15611119764E+04  0.50400001928E-02 0.  1.
        1   -1    0    0  501    0  0.00000000000E+00  0.00000000000E+00 -0.20595456284E+04  0.20595456284E+04  0.50400001928E-02 0. -1.
    10030    2    1    2    0    0  0.00000000000E+00  0.00000000000E+00 -0.49843365202E+03  0.36206576049E+04  0.35861853530E+04 0.  0.
        3    1    3    3  502    0  0.32203690197E+03 -0.67719131603E+03 -0.18936414700E+04  0.20367066239E+04  0.10100000352E+00 0. -1.
       -3    1    3    3    0  502 -0.32203690197E+03  0.67719131603E+03  0.13952078179E+04  0.15839509810E+04  0.10100000352E+00 0.  1.
</event>
<event>
 5   0  0.1444091E-06  0.3504491E+04  0.7818609E-02  0.8112726E-01
        2   -1    0    0  501    0  0.00000000000E+00  0.00000000000E+00  0.11333600092E+04  0.11333600092E+04  0.25500000920E-02 0. -1.
       -2   -1    0    0    0  501  0.00000000000E+00  0.00000000000E+00 -0.27090814479E+04  0.27090814479E+04  0.25500000920E-02 0.  1.
    10030    2    1    2    0    0  0.00000000000E+00  0.00000000000E+00 -0.15757214387E+04  0.38424414571E+04  0.35044911612E+04 0.  0.
        1    1    3    3  502    0  0.81049629284E+03  0.15179201634E+04 -0.11504781630E+04  0.20699241210E+04  0.50400001928E-02 0. -1.
       -1    1    3    3    0  502 -0.81049629284E+03 -0.15179201634E+04 -0.42524327571E+03  0.17725173361E+04  0.50400001928E-02 0.  1.
</event>
<event>
 5   0  0.5071661E-07  0.3228047E+04  0.7818609E-02  0.8181449E-01
       -1   -1    0    0    0  501  0.00000000000E+00  0.00000000000E+00  0.14364484752E+04  0.14364484752E+04  0.50400001928E-02 0.  1.
        1   -1    0    0  501    0  0.00000000000E+00  0.00000000000E+00 -0.18135506278E+04  0.18135506278E+04  0.50400001928E-02 0. -1.
    10030    2    1    2    0    0  0.00000000000E+00  0.00000000000E+00 -0.37710215269E+03  0.32499991030E+04  0.32280471087E+04 0.  0.
        1    1    3    3  502    0  0.21545355995E+03 -0.85340827348E+03 -0.15506541977E+04  0.17830463703E+04  0.50400001928E-02 0. -1.
       -1    1    3    3    0  502 -0.21545355995E+03  0.85340827348E+03  0.11735520450E+04  0.14669527327E+04  0.50400001928E-02 0.  1.
</event>
<event>
 5   0  0.4811500E-07  0.3649628E+04  0.7818609E-02  0.8079218E-01
       -1   -1    0    0    0  501  0.00000000000E+00  0.00000000000E+00  0.32507669316E+04  0.32507669316E+04  0.50400001928E-02 0.  1.
        1   -1    0    0  501    0  0.00000000000E+00  0.00000000000E+00 -0.10243568583E+04  0.10243568583E+04  0.50400001928E-02 0. -1.
    10030    2    1    2    0    0  0.00000000000E+00  0.00000000000E+00  0.22264100733E+04  0.42751237899E+04  0.36496275981E+04 0.  0.
        2    1    3    3  502    0  0.58425930117E+03 -0.70456831995E+03  0.29624266910E+04  0.31006043520E+04  0.25500000920E-02 0.  1.
       -2    1    3    3    0  502 -0.58425930117E+03  0.70456831995E+03 -0.73601661766E+03  0.11745194379E+04  0.25500000920E-02 0. -1.
</event>
<event>
 5   0  0.4811500E-07  0.3641757E+04  0.7818609E-02  0.8080993E-01
       -1   -1    0    0    0  501  0.00000000000E+00  0.00000000000E+00  0.12218674101E+04  0.12218674101E+04  0.50400001928E-02 0.  1.
        1   -1    0    0  501    0  0.00000000000E+00  0.00000000000E+00 -0.27135505547E+04  0.27135505547E+04  0.50400001928E-02 0. -1.
    10030    2    1    2    0    0  0.00000000000E+00  0.00000000000E+00 -0.14916831446E+04  0.39354179649E+04  0.36417572618E+04 0.  0.
        4    1    3    3  502    0 -0.11344992446E+04 -0.12991415577E+04 -0.13766412490E+04  0.22068076636E+04  0.12699999809E+01 0. -1.
       -4    1    3    3    0  502  0.11344992446E+04  0.12991415577E+04 -0.11504189566E+03  0.17286103012E+04  0.12699999809E+01 0.  1.
</event>
<event>
 5   0  0.4811500E-07  0.2838843E+04  0.7818609E-02  0.8291310E-01
       -1   -1    0    0    0  501  0.00000000000E+00  0.00000000000E+00  0.15117244897E+04  0.15117244897E+04  0.50400001928E-02 0. -1.
        1   -1    0    0  501    0  0.00000000000E+00  0.00000000000E+00 -0.13327540614E+04  0.13327540615E+04  0.50400001928E-02 0.  1.
    10030    2    1    2    0    0  0.00000000000E+00  0.00000000000E+00  0.17897042822E+03  0.28444785511E+04  0.28388426891E+04 0.  0.
        2    1    3    3  502    0  0.68901271757E+02  0.10591011924E+04 -0.85489014359E+03  0.13628205599E+04  0.25500000920E-02 0.  1.
       -2    1    3    3    0  502 -0.68901271757E+02 -0.10591011924E+04  0.10338605718E+04  0.14816579912E+04  0.25500000920E-02 0. -1.
</event>
<event>
 5   0  0.5071661E-07  0.3599278E+04  0.7818609E-02  0.8090657E-01
        1   -1    0    0  501    0  0.00000000000E+00  0.00000000000E+00  0.18972635160E+04  0.18972635160E+04  0.50400001928E-02 0.  1.
       -1   -1    0    0    0  501  0.00000000000E+00  0.00000000000E+00 -0.17070382546E+04  0.17070382546E+04  0.50400001928E-02 0. -1.
    10030    2    1    2    0    0  0.00000000000E+00  0.00000000000E+00  0.19022526143E+03  0.36043017707E+04  0.35992784838E+04 0.  0.
        1    1    3    3  502    0  0.13332677974E+03  0.54232766171E+03  0.18082913423E+04  0.18925678063E+04  0.50400001928E-02 0.  1.
       -1    1    3    3    0  502 -0.13332677974E+03 -0.54232766171E+03 -0.16180660808E+04  0.17117339644E+04  0.50400001928E-02 0. -1.
</event>
<event>
 5   0  0.4811500E-07  0.3567508E+04  0.7818609E-02  0.8097975E-01
        1   -1    0    0  501    0  0.00000000000E+00  0.00000000000E+00  0.13994596526E+04  0.13994596526E+04  0.50400001928E-02 0.  1.
       -1   -1    0    0    0  501  0.00000000000E+00  0.00000000000E+00 -0.22735765810E+04  0.22735765810E+04  0.50400001928E-02 0. -1.
    10030    2    1    2    0    0  0.00000000000E+00  0.00000000000E+00 -0.87411692834E+03  0.36730362336E+04  0.35675082016E+04 0.  0.
        3    1    3    3  502    0 -0.61191364339E+03 -0.16293944234E+04 -0.83900929526E+03  0.19321752254E+04  0.10100000352E+00 0.  1.
       -3    1    3    3    0  502  0.61191364339E+03  0.16293944234E+04 -0.35107633075E+02  0.17408610082E+04  0.10100000352E+00 0. -1.
</event>
<event>
 5   0  0.4811500E-07  0.3441744E+04  0.7818609E-02  0.8127736E-01
       -1   -1    0    0    0  501  0.00000000000E+00  0.00000000000E+00  0.15609212350E+04  0.15609212350E+04  0.50400001928E-02 0. -1.
        1   -1    0    0  501    0  0.00000000000E+00  0.00000000000E+00 -0.18972133545E+04  0.18972133545E+04  0.50400001928E-02 0.  1.
    10030    2    1    2    0    0  0.00000000000E+00  0.00000000000E+00 -0.33629211954E+03  0.34581345895E+04  0.34417441000E+04 0.  0.
        4    1    3    3  502    0 -0.32968335441E+03  0.13855503666E+04 -0.11386434623E+04  0.18234449484E+04  0.12699999809E+01 0.  1.
       -4    1    3    3    0  502  0.32968335441E+03 -0.13855503666E+04  0.80235134280E+03  0.16346896411E+04  0.12699999809E+01 0. -1.
</event>
<event>
 5   0  0.1505671E-06  0.2510718E+04  0.7818609E-02  0.8399177E-01
        2   -1    0    0  501    0  0.00000000000E+00  0.00000000000E+00  0.23985948029E+04  0.23985948029E+04  0.25500000920E-02 0.  1.
       -2   -1    0    0    0  501  0.00000000000E+00  0.00000000000E+00 -0.65702080773E+03  0.65702080773E+03  0.25500000920E-02 0. -1.
    10030    2    1    2    0    0  0.00000000000E+00  0.00000000000E+00  0.17415739952E+04  0.30556156106E+04  0.25107183791E+04 0.  0.
        3    1    3    3  502    0 -0.10970480947E+04 -0.23267746303E+03  0.18419163891E+03  0.11364769659E+04  0.10100000352E+00 0. -1.
       -3    1    3    3    0  502  0.10970480947E+04  0.23267746303E+03  0.15573823563E+04  0.19191386447E+04  0.10100000352E+00 0.  1.
</event>
<event>
 5   0  0.4811500E-07  0.3601217E+04  0.7818609E-02  0.8090213E-01
       -1   -1    0    0    0  501  0.00000000000E+00  0.00000000000E+00  0.26234277222E+04  0.26234277222E+04  0.50400001928E-02 0.  1.
        1   -1    0    0  501    0  0.00000000000E+00  0.00000000000E+00 -0.12358606823E+04  0.12358606823E+04  0.50400001928E-02 0. -1.
    10030    2    1    2    0    0  0.00000000000E+00  0.00000000000E+00  0.13875670399E+04  0.38592884045E+04  0.36012171136E+04 0.  0.
        2    1    3    3  502    0 -0.50386839874E+03  0.26996110274E+03 -0.11360397666E+04  0.12717502552E+04  0.25500000920E-02 0. -1.
       -2    1    3    3    0  502  0.50386839874E+03 -0.26996110274E+03  0.25236068065E+04  0.25875381493E+04  0.25500000920E-02 0.  1.
</event>
<event>
 5   0  0.4811500E-07  0.3609375E+04  0.7818609E-02  0.8088348E-01
        1   -1    0    0  501    0  0.00000000000E+00  0.00000000000E+00  0.20005266465E+04  0.20005266465E+04  0.50400001928E-02 0. -1.
       -1   -1    0    0    0  501  0.00000000000E+00  0.00000000000E+00 -0.16280198409E+04  0.16280198409E+04  0.50400001928E-02 0.  1.
    10030    2    1    2    0    0  0.00000000000E+00  0.00000000000E+00  0.37250680565E+03  0.36285464874E+04  0.36093750554E+04 0.  0.
        3    1    3    3  502    0  0.14277217517E+04 -0.11030720868E+04  0.22818385735E+03  0.18185778267E+04  0.10100000352E+00 0. -1.
       -3    1    3    3    0  502 -0.14277217517E+04  0.11030720868E+04  0.14432294830E+03  0.18099686606E+04  0.10100000352E+00 0.  1.
</event>
<event>
 5   0  0.4811500E-07  0.3544969E+04  0.7818609E-02  0.8103215E-01
        1   -1    0    0  501    0  0.00000000000E+00  0.00000000000E+00  0.14457478768E+04  0.14457478768E+04  0.50400001928E-02 0.  1.
       -1   -1    0    0    0  501  0.00000000000E+00  0.00000000000E+00 -0.21730634768E+04  0.21730634768E+04  0.50400001928E-02 0. -1.
    10030    2    1    2    0    0  0.00000000000E+00  0.00000000000E+00 -0.72731559995E+03  0.36188113536E+04  0.35449693413E+04 0.  0.
        2    1    3    3  502    0 -0.65623594388E+03  0.16276978619E+04 -0.61713622924E+03  0.18603502544E+04  0.25500000920E-02 0. -1.
       -2    1    3    3    0  502  0.65623594388E+03 -0.16276978619E+04 -0.11017937071E+03  0.17584610992E+04  0.25500000920E-02 0.  1.
</event>
<event>
 5   0  0.1444091E-06  0.3584139E+04  0.7818609E-02  0.8094135E-01
        2   -1    0    0  501    0  0.00000000000E+00  0.00000000000E+00  0.13231124591E+04  0.13231124591E+04  0.25500000920E-02 0.  1.
       -2   -1    0    0    0  501  0.00000000000E+00  0.00000000000E+00 -0.24272406443E+04  0.24272406443E+04  0.25500000920E-02 0. -1.
    10030    2    1    2    0    0  0.00000000000E+00  0.00000000000E+00 -0.11041281851E+04  0.37503531034E+04  0.35841385786E+04 0.  0.
        1    1    3    3  502    0  0.25476947941E+03  0.17280893932E+04 -0.13310632610E+03  0.17518326783E+04  0.50400001928E-02 0.  1.
       -1    1    3    3    0  502 -0.25476947941E+03 -0.17280893932E+04 -0.97102185905E+03  0.19985204251E+04  0.50400001928E-02 0. -1.
</event>
<event>
 5   0  0.5071661E-07  0.3612131E+04  0.7818609E-02  0.8087719E-01
        1   -1    0    0  501    0  0.00000000000E+00  0.00000000000E+00  0.17291595213E+04  0.17291595214E+04  0.50400001928E-02 0.  1.
       -1   -1    0    0    0  501  0.00000000000E+00  0.00000000000E+00 -0.18863920078E+04  0.18863920078E+04  0.50400001928E-02 0. -1.
    10030    2    1    2    0    0  0.00000000000E+00  0.00000000000E+00 -0.15723248643E+03  0.36155515291E+04  0.36121310614E+04 0.  0.
        1    1    3    3  502    0  0.56659976978E+03  0.12210425915E+04  0.11266387552E+04  0.17553618414E+04  0.50400001928E-02 0.  1.
       -1    1    3    3    0  502 -0.56659976978E+03 -0.12210425915E+04 -0.12838712416E+04  0.18601896878E+04  0.50400001928E-02 0. -1.
</event>
<event>
 5   0  0.1468942E-06  0.3980215E+04  0.7818609E-02  0.8008550E-01
       -2   -1    0    0    0  501  0.00000000000E+00  0.00000000000E+00  0.15734795101E+04  0.15734795101E+04  0.25500000920E-02 0.  1.
        2   -1    0    0  501    0  0.00000000000E+00  0.00000000000E+00 -0.25170510460E+04  0.25170510460E+04  0.25500000920E-02 0. -1.
    10030    2    1    2    0    0  0.00000000000E+00  0.00000000000E+00 -0.94357153593E+03  0.40905305561E+04  0.39802151936E+04 0.  0.
        2    1    3    3  502    0  0.82493614797E+03  0.81732399231E+03  0.11891729957E+04  0.16621283255E+04  0.25500000920E-02 0.  1.
       -2    1    3    3    0  502 -0.82493614797E+03 -0.81732399231E+03 -0.21327445316E+04  0.24284022306E+04  0.25500000920E-02 0. -1.
</event>
<event>
 5   0  0.4811500E-07  0.3662603E+04  0.7818609E-02  0.8076300E-01
       -1   -1    0    0    0  501  0.00000000000E+00  0.00000000000E+00  0.25751241240E+04  0.25751241240E+04  0.50400001928E-02 0.  1.
        1   -1    0    0  501    0  0.00000000000E+00  0.00000000000E+00 -0.13023315231E+04  0.13023315231E+04  0.50400001928E-02 0. -1.
    10030    2    1    2    0    0  0.00000000000E+00  0.00000000000E+00  0.12727926009E+04  0.38774556471E+04  0.36626030757E+04 0.  0.
        5    1    3    3  502    0  0.48271731883E+03  0.56750632820E+03 -0.11346282775E+04  0.13573808827E+04  0.46999998093E+01 0. -1.
       -5    1    3    3    0  502 -0.48271731883E+03 -0.56750632820E+03  0.24074208784E+04  0.25200747644E+04  0.46999998093E+01 0.  1.
</event>
<event>
 5   0  0.4811500E-07  0.3485268E+04  0.7818609E-02  0.8117290E-01
       -1   -1    0    0    0  501  0.00000000000E+00  0.00000000000E+00  0.14896114942E+04  0.14896114942E+04  0.50400001928E-02 0. -1.
        1   -1    0    0  501    0  0.00000000000E+00  0.00000000000E+00 -0.20386341665E+04  0.20386341665E+04  0.50400001928E-02 0.  1.
    10030    2    1    2    0    0  0.00000000000E+00  0.00000000000E+00 -0.54902267225E+03  0.35282456607E+04  0.34852677871E+04 0.  0.
        4    1    3    3  502    0  0.72871552339E+02  0.14607715396E+04 -0.12336157838E+04  0.19133669980E+04  0.12699999809E+01 0.  1.
       -4    1    3    3    0  502 -0.72871552339E+02 -0.14607715396E+04  0.68459311154E+03  0.16148786627E+04  0.12699999809E+01 0. -1.
</event>
<event>
 5   0  0.4811500E-07  0.3588777E+04  0.7818609E-02  0.8093067E-01
        1   -1    0    0  501    0  0.00000000000E+00  0.00000000000E+00  0.18501063682E+04  0.18501063682E+04  0.50400001928E-02 0.  1.
       -1   -1    0    0    0  501  0.00000000000E+00  0.00000000000E+00 -0.17403490663E+04  0.17403490663E+04  0.50400001928E-02 0. -1.
    10030    2    1    2    0    0  0.00000000000E+00  0.00000000000E+00  0.10975730192E+03  0.35904554345E+04  0.35887774467E+04 0.  0.
        3    1    3    3  502    0  0.16033513499E+04  0.66824755895E+03 -0.39537680447E+03  0.17814637743E+04  0.10100000352E+00 0.  1.
       -3    1    3    3    0  502 -0.16033513499E+04 -0.66824755895E+03  0.50513410639E+03  0.18089916603E+04  0.10100000352E+00 0. -1.
</event>
<event>
 5   0  0.4811500E-07  0.3417518E+04  0.7818609E-02  0.8133620E-01
        3   -1    0    0  501    0  0.00000000000E+00  0.00000000000E+00  0.18545362265E+04  0.18545362293E+04  0.10100000352E+00 0. -1.
       -3   -1    0    0    0  501  0.00000000000E+00  0.00000000000E+00 -0.15744402824E+04  0.15744402857E+04  0.10100000352E+00 0.  1.
    10030    2    1    2    0    0  0.00000000000E+00  0.00000000000E+00  0.28009594410E+03  0.34289765149E+04  0.34175175496E+04 0.  0.
        3    1    3    3  502    0 -0.16237102436E+04 -0.45143593402E+03  0.42317702235E+03  0.17376156537E+04  0.10100000352E+00 0. -1.
       -3    1    3    3    0  502  0.16237102436E+04  0.45143593402E+03 -0.14308107825E+03  0.16913608612E+04  0.10100000352E+00 0.  1.
</event>
<event>
 5   0  0.1505671E-06  0.3606293E+04  0.7818609E-02  0.8089052E-01
        2   -1    0    0  501    0  0.00000000000E+00  0.00000000000E+00  0.27145723281E+04  0.27145723281E+04  0.25500000920E-02 0. -1.
       -2   -1    0    0    0  501  0.00000000000E+00  0.00000000000E+00 -0.11977344387E+04  0.11977344387E+04  0.25500000920E-02 0.  1.
    10030    2    1    2    0    0  0.00000000000E+00  0.00000000000E+00  0.15168378893E+04  0.39123067668E+04  0.36062927024E+04 0.  0.
        3    1    3    3  502    0 -0.17047195820E+04 -0.52465637205E+03  0.10454521156E+04  0.20674388258E+04  0.10100000352E+00 0. -1.
       -3    1    3    3    0  502  0.17047195820E+04  0.52465637205E+03  0.47138577371E+03  0.18448679410E+04  0.10100000352E+00 0.  1.
</event>
<event>
 5   0  0.1379425E-06  0.3573826E+04  0.7818609E-02  0.8096514E-01
        2   -1    0    0  501    0  0.00000000000E+00  0.00000000000E+00  0.21242785718E+04  0.21242785718E+04  0.25500000920E-02 0.  1.
       -2   -1    0    0    0  501  0.00000000000E+00  0.00000000000E+00 -0.15031259512E+04  0.15031259512E+04  0.25500000920E-02 0. -1.
    10030    2    1    2    0    0  0.00000000000E+00  0.00000000000E+00  0.62115262063E+03  0.36274045230E+04  0.35738261003E+04 0.  0.
        4    1    3    3  502    0 -0.32457228628E+03  0.16564223413E+04 -0.28470972436E+03  0.17117661586E+04  0.12699999809E+01 0.  1.
       -4    1    3    3    0  502  0.32457228628E+03 -0.16564223413E+04  0.90586234499E+03  0.19156383643E+04  0.12699999809E+01 0. -1.
</event>
<event>
 5   0  0.4811500E-07  0.3663541E+04  0.7818609E-02  0.8076090E-01
       -1   -1    0    0    0  501  0.00000000000E+00  0.00000000000E+00  0.20054101365E+04  0.20054101365E+04  0.50400001928E-02 0.  1.
        1   -1    0    0  501    0  0.00000000000E+00  0.00000000000E+00 -0.16731652083E+04  0.16731652084E+04  0.50400001928E-02 0. -1.
    10030    2    1    2    0    0  0.00000000000E+00  0.00000000000E+00  0.33224492815E+03  0.36785753449E+04  0.36635406201E+04 0.  0.
        4    1    3    3  502    0  0.36731129846E+02  0.75272632303E+03 -0.15102904606E+04  0.16878758786E+04  0.12699999809E+01 0. -1.
       -4    1    3    3    0  502 -0.36731129846E+02 -0.75272632303E+03  0.18425353887E+04  0.19906994663E+04  0.12699999809E+01 0.  1.
</event>
<event>
 5   0  0.4811500E-07  0.3590860E+04  0.7818609E-02  0.8092589E-01
       -1   -1    0    0    0  501  0.00000000000E+00  0.00000000000E+00  0.12562096573E+04  0.12562096574E+04  0.50400001928E-02 0. -1.
        1   -1    0    0  501    0  0.00000000000E+00  0.00000000000E+00 -0.25661069350E+04  0.25661069350E+04  0.50400001928E-02 0.  1.
    10030    2    1    2    0    0  0.00000000000E+00  0.00000000000E+00 -0.13098972777E+04  0.38223165924E+04  0.35908596818E+04 0.  0.
        5    1    3    3  502    0  0.84003872475E+03 -0.11878563077E+04 -0.17748459656E+04  0.22949439990E+04  0.46999998093E+01 0.  1.
       -5    1    3    3    0  502 -0.84003872475E+03  0.11878563077E+04  0.46494868794E+03  0.15273725934E+04  0.46999998093E+01 0. -1.
</event>
<event>
 5   0  0.1505671E-06  0.3521477E+04  0.7818609E-02  0.8108719E-01
        2   -1    0    0  501    0  0.00000000000E+00  0.00000000000E+00  0.18451197604E+04  0.18451197604E+04  0.25500000920E-02 0. -1.
       -2   -1    0    0    0  501  0.00000000000E+00  0.00000000000E+00 -0.16802163670E+04  0.16802163670E+04  0.25500000920E-02 0.  1.
    10030    2    1    2    0    0  0.00000000000E+00  0.00000000000E+00  0.16490339335E+03  0.35253361274E+04  0.35214772017E+04 0.  0.
        3    1    3    3  502    0  0.10617984528E+04 -0.70162124919E+02 -0.13218904848E+04  0.16969776493E+04  0.10100000352E+00 0.  1.
       -3    1    3    3    0  502 -0.10617984528E+04  0.70162124919E+02  0.14867938781E+04  0.18283584781E+04  0.10100000352E+00 0. -1.
</event>
<event>
 5   0  0.4811500E-07  0.3526789E+04  0.7818609E-02  0.8107470E-01
        1   -1    0    0  501    0  0.00000000000E+00  0.00000000000E+00  0.25385218113E+04  0.25385218113E+04  0.50400001928E-02 0.  1.
       -1   -1    0    0    0  501  0.00000000000E+00  0.00000000000E+00 -0.12249492923E+04  0.12249492923E+04  0.50400001928E-02 0. -1.
    10030    2    1    2    0    0  0.00000000000E+00  0.00000000000E+00  0.13135725191E+04  0.37634711036E+04  0.35267891892E+04 0.  0.
        4    1    3    3  502    0  0.84393030540E+03 -0.39800688608E+03 -0.93993623548E+03  0.13244280205E+04  0.12699999809E+01 0. -1.
       -4    1    3    3    0  502 -0.84393030540E+03  0.39800688608E+03  0.22535087545E+04  0.24390430831E+04  0.12699999809E+01 0.  1.
</event>
<event>
 5   0  0.1505671E-06  0.2819014E+04  0.7818609E-02  0.8297389E-01
       -2   -1    0    0    0  501  0.00000000000E+00  0.00000000000E+00  0.10980414034E+04  0.10980414034E+04  0.25500000920E-02 0.  1.
        2   -1    0    0  501    0  0.00000000000E+00  0.00000000000E+00 -0.18093218819E+04  0.18093218819E+04  0.25500000920E-02 0. -1.
    10030    2    1    2    0    0  0.00000000000E+00  0.00000000000E+00 -0.71128047843E+03  0.29073632853E+04  0.28190142521E+04 0.  0.
        3    1    3    3  502    0 -0.38746296918E+03 -0.96973186706E+03  0.62070901367E+03  0.12148197958E+04  0.10100000352E+00 0.  1.
       -3    1    3    3    0  502  0.38746296918E+03  0.96973186706E+03 -0.13319894921E+04  0.16925434895E+04  0.10100000352E+00 0. -1.
</event>
<event>
 5   0  0.4811500E-07  0.2868306E+04  0.7818609E-02  0.8282370E-01
        1   -1    0    0  501    0  0.00000000000E+00  0.00000000000E+00  0.16085056706E+04  0.16085056706E+04  0.50400001928E-02 0.  1.
       -1   -1    0    0    0  501  0.00000000000E+00  0.00000000000E+00 -0.12786988646E+04  0.12786988646E+04  0.50400001928E-02 0. -1.
    10030    2    1    2    0    0  0.00000000000E+00  0.00000000000E+00  0.32980680608E+03  0.28872045352E+04  0.28683056843E+04 0.  0.
        5    1    3    3  502    0  0.10262932605E+04  0.94667882992E+03 -0.16481187326E+03  0.14059387281E+04  0.46999998093E+01 0. -1.
       -5    1    3    3    0  502 -0.10262932605E+04 -0.94667882992E+03  0.49461867933E+03  0.14812658071E+04  0.46999998093E+01 0.  1.
</event>
<event>
 5   0  0.4811500E-07  0.2759428E+04  0.7818609E-02  0.8315976E-01
       -1   -1    0    0    0  501  0.00000000000E+00  0.00000000000E+00  0.11003726960E+04  0.11003726960E+04  0.50400001928E-02 0. -1.
        1   -1    0    0  501    0  0.00000000000E+00  0.00000000000E+00 -0.17299685785E+04  0.17299685785E+04  0.50400001928E-02 0.  1.
    10030    2    1    2    0    0  0.00000000000E+00  0.00000000000E+00 -0.62959588246E+03  0.28303412745E+04  0.27594276136E+04 0.  0.
        2    1    3    3  502    0 -0.11400943458E+04  0.63871167811E+03 -0.76871157837E+03  0.15161415553E+04  0.25500000920E-02 0.  1.
       -2    1    3    3    0  502  0.11400943458E+04 -0.63871167811E+03  0.13911569591E+03  0.13141997192E+04  0.25500000920E-02 0. -1.
</event>
<event>
 5   0  0.1491854E-06  0.3562902E+04  0.7818609E-02  0.8099043E-01
       -2   -1    0    0    0  501  0.00000000000E+00  0.00000000000E+00  0.21538258291E+04  0.21538258291E+04  0.25500000920E-02 0.  1.
        2   -1    0    0  501    0  0.00000000000E+00  0.00000000000E+00 -0.14734563684E+04  0.14734563684E+04  0.25500000920E-02 0. -1.
    10030    2    1    2    0    0  0.00000000000E+00  0.00000000000E+00  0.68036946070E+03  0.36272821975E+04  0.35629024035E+04 0.  0.
        5    1    3    3  502    0 -0.10924025493E+04  0.10171641546E+04 -0.64979560506E+03  0.16279504493E+04  0.46999998093E+01 0. -1.
       -5    1    3    3    0  502  0.10924025493E+04 -0.10171641546E+04  0.13301650658E+04  0.19993317482E+04  0.46999998093E+01 0.  1.
</event>
<event>
 5   0  0.5071661E-07  0.3641782E+04  0.7818609E-02  0.8080988E-01
        1   -1    0    0  501    0  0.00000000000E+00  0.00000000000E+00  0.22365300214E+04  0.22365300214E+04  0.50400001928E-02 0. -1.
       -1   -1    0    0    0  501  0.00000000000E+00  0.00000000000E+00 -0.14824943617E+04  0.14824943617E+04  0.50400001928E-02 0.  1.
    10030    2    1    2    0    0  0.00000000000E+00  0.00000000000E+00  0.75403565971E+03  0.37190243831E+04  0.36417815127E+04 0.  0.
        1    1    3    3  502    0  0.15212828047E+04 -0.33201907250E+03 -0.58698787931E+03  0.16640591356E+04  0.50400001928E-02 0.  1.
       -1    1    3    3    0  502 -0.15212828047E+04  0.33201907250E+03  0.13410235390E+04  0.20549652475E+04  0.50400001928E-02 0. -1.
</event>
<event>
 5   0  0.5071661E-07  0.3561631E+04  0.7818609E-02  0.8099338E-01
        1   -1    0    0  501    0  0.00000000000E+00  0.00000000000E+00  0.13357863142E+04  0.13357863142E+04  0.50400001928E-02 0.  1.
       -1   -1    0    0    0  501  0.00000000000E+00  0.00000000000E+00 -0.23741099620E+04  0.23741099620E+04  0.50400001928E-02 0. -1.
    10030    2    1    2    0    0  0.00000000000E+00  0.00000000000E+00 -0.10383236478E+04  0.37098962762E+04  0.35616308599E+04 0.  0.
        1    1    3    3  502    0  0.12094352319E+04 -0.12962242483E+04 -0.34370781359E+03  0.18058421700E+04  0.50400001928E-02 0.  1.
       -1    1    3    3    0  502 -0.12094352319E+04  0.12962242483E+04 -0.69461583423E+03  0.19040541061E+04  0.50400001928E-02 0. -1.
</event>
<event>
 5   0  0.1505671E-06  0.3597849E+04  0.7818609E-02  0.8090985E-01
       -2   -1    0    0    0  501  0.00000000000E+00  0.00000000000E+00  0.19320508955E+04  0.19320508955E+04  0.25500000920E-02 0. -1.
        2   -1    0    0  501    0  0.00000000000E+00  0.00000000000E+00 -0.16749711539E+04  0.16749711539E+04  0.25500000920E-02 0.  1.
    10030    2    1    2    0    0  0.00000000000E+00  0.00000000000E+00  0.25707974163E+03  0.36070220494E+04  0.35978490895E+04 0.  0.
        3    1    3    3  502    0 -0.16706372895E+04 -0.66250336851E+03  0.49663738851E+02  0.17978893636E+04  0.10100000352E+00 0. -1.
       -3    1    3    3    0  502  0.16706372895E+04  0.66250336851E+03  0.20741600278E+03  0.18091326858E+04  0.10100000352E+00 0.  1.
</event>
<event>
 5   0  0.4811500E-07  0.3471627E+04  0.7818609E-02  0.8120547E-01
       -1   -1    0    0    0  501  0.00000000000E+00  0.00000000000E+00  0.10604599647E+04  0.10604599647E+04  0.50400001928E-02 0.  1.
        1   -1    0    0  501    0  0.00000000000E+00  0.00000000000E+00 -0.28412652781E+04  0.28412652781E+04  0.50400001928E-02 0. -1.
    10030    2    1    2    0    0  0.00000000000E+00  0.00000000000E+00 -0.17808053134E+04  0.39017252429E+04  0.34716267522E+04 0.  0.
        4    1    3    3  502    0 -0.34398472663E+03  0.92208241549E+03 -0.24974017078E+04  0.26843208407E+04  0.12699999809E+01 0. -1.
       -4    1    3    3    0  502  0.34398472663E+03 -0.92208241549E+03  0.71659639432E+03  0.12174044021E+04  0.12699999809E+01 0.  1.
</event>
<event>
 5   0  0.5071661E-07  0.3588539E+04  0.7818609E-02  0.8093122E-01
        1   -1    0    0  501    0  0.00000000000E+00  0.00000000000E+00  0.12017153797E+04  0.12017153797E+04  0.50400001928E-02 0. -1.
       -1   -1    0    0    0  501  0.00000000000E+00  0.00000000000E+00 -0.26790060027E+04  0.26790060027E+04  0.50400001928E-02 0.  1.
    10030    2    1    2    0    0  0.00000000000E+00  0.00000000000E+00 -0.14772906230E+04  0.38807213823E+04  0.35885388200E+04 0.  0.
        1    1    3    3  502    0  0.13186950405E+04 -0.77930765896E+03  0.27184742312E+03  0.15556921478E+04  0.50400001928E-02 0. -1.
       -1    1    3    3    0  502 -0.13186950405E+04  0.77930765896E+03 -0.17491380461E+04  0.23250292346E+04  0.50400001928E-02 0.  1.
</event>
<event>
 5   0  0.1491854E-06  0.3524723E+04  0.7818609E-02  0.8107956E-01
        2   -1    0    0  501    0  0.00000000000E+00  0.00000000000E+00  0.29767917536E+04  0.29767917536E+04  0.25500000920E-02 0. -1.
       -2   -1    0    0    0  501  0.00000000000E+00  0.00000000000E+00 -0.10433777438E+04  0.10433777438E+04  0.25500000920E-02 0.  1.
    10030    2    1    2    0    0  0.00000000000E+00  0.00000000000E+00  0.19334140098E+04  0.40201694975E+04  0.35247231175E+04 0.  0.
        5    1    3    3  502    0  0.41828005168E+03  0.13452401261E+04 -0.24103416979E+03  0.14292476201E+04  0.46999998093E+01 0.  1.
       -5    1    3    3    0  502 -0.41828005168E+03 -0.13452401261E+04  0.21744481796E+04  0.25909218773E+04  0.46999998093E+01 0. -1.
</event>
<event>
 5   0  0.4811500E-07  0.3601298E+04  0.7818609E-02  0.8090194E-01
        1   -1    0    0  501    0  0.00000000000E+00  0.00000000000E+00  0.18194637475E+04  0.18194637475E+04  0.50400001928E-02 0.  1.
       -1   -1    0    0    0  501  0.00000000000E+00  0.00000000000E+00 -0.17820289281E+04  0.17820289281E+04  0.50400001928E-02 0. -1.
    10030    2    1    2    0    0  0.00000000000E+00  0.00000000000E+00  0.37434819402E+02  0.36014926757E+04  0.36012981170E+04 0.  0.
        5    1    3    3  502    0  0.75305963689E+03 -0.86443648921E+03  0.14073044621E+04  0.18151796604E+04  0.46999998093E+01 0.  1.
       -5    1    3    3    0  502 -0.75305963689E+03  0.86443648921E+03 -0.13698696427E+04  0.17863130153E+04  0.46999998093E+01 0. -1.
</event>
<event>
 5   0  0.1505671E-06  0.3460647E+04  0.7818609E-02  0.8123180E-01
        2   -1    0    0  501    0  0.00000000000E+00  0.00000000000E+00  0.27515175062E+04  0.27515175062E+04  0.25500000920E-02 0.  1.
       -2   -1    0    0    0  501  0.00000000000E+00  0.00000000000E+00 -0.10881338768E+04  0.10881338768E+04  0.25500000920E-02 0. -1.
    10030    2    1    2    0    0  0.00000000000E+00  0.00000000000E+00  0.16633836294E+04  0.38396513829E+04  0.34606469979E+04 0.  0.
        3    1    3    3  502    0 -0.62286752323E+03  0.15804709872E+04  0.46678522946E+03  0.17617437253E+04  0.10100000352E+00 0. -1.
       -3    1    3    3    0  502  0.62286752323E+03 -0.15804709872E+04  0.11965984000E+04  0.20779076577E+04  0.10100000352E+00 0.  1.
</event>
<event>
 5   0  0.4811500E-07  0.3192885E+04  0.7818609E-02  0.8190699E-01
        1   -1    0    0  501    0  0.00000000000E+00  0.00000000000E+00  0.99853110245E+03  0.99853110247E+03  0.50400001928E-02 0. -1.
       -1   -1    0    0    0  501  0.00000000000E+00  0.00000000000E+00 -0.25523773231E+04  0.25523773232E+04  0.50400001928E-02 0.  1.
    10030    2    1    2    0    0  0.00000000000E+00  0.00000000000E+00 -0.15538462207E+04  0.35509084256E+04  0.31928846784E+04 0.  0.
        2    1    3    3  502    0 -0.66632029689E+03 -0.13817834329E+04 -0.12684299215E+04  0.19905332600E+04  0.25500000920E-02 0.  1.
       -2    1    3    3    0  502  0.66632029689E+03  0.13817834329E+04 -0.28541629920E+03  0.15603751656E+04  0.25500000920E-02 0. -1.
</event>
<event>
 5   0  0.4811500E-07  0.3656808E+04  0.7818609E-02  0.8077602E-01
        1   -1    0    0  501    0  0.00000000000E+00  0.00000000000E+00  0.18113054008E+04  0.18113054008E+04  0.50400001928E-02 0.  1.
       -1   -1    0    0    0  501  0.00000000000E+00  0.00000000000E+00 -0.18456638300E+04  0.18456638300E+04  0.50400001928E-02 0. -1.
    10030    2    1    2    0    0  0.00000000000E+00  0.00000000000E+00 -0.34358429181E+02  0.36569692308E+04  0.36568078229E+04 0.  0.
        4    1    3    3  502    0 -0.12926007853E+03 -0.34380190340E+03 -0.18083895734E+04  0.18453136261E+04  0.12699999809E+01 0. -1.
       -4    1    3    3    0  502  0.12926007853E+03  0.34380190340E+03  0.17740311442E+04  0.18116556047E+04  0.12699999809E+01 0.  1.
</event>
<event>
 5   0  0.5071661E-07  0.3605175E+04  0.7818609E-02  0.8089307E-01
        1   -1    0    0  501    0  0.00000000000E+00  0.00000000000E+00  0.25797613443E+04  0.25797613443E+04  0.50400001928E-02 0.  1.
       -1   -1    0    0    0  501  0.00000000000E+00  0.00000000000E+00 -0.12595432433E+04  0.12595432433E+04  0.50400001928E-02 0. -1.
    10030    2    1    2    0    0  0.00000000000E+00  0.00000000000E+00  0.13202181010E+04  0.38393045876E+04  0.36051745980E+04 0.  0.
        1    1    3    3  502    0 -0.75003889645E+03 -0.52997323027E+03  0.23119348280E+04  0.24876640890E+04  0.50400001928E-02 0.  1.
       -1    1    3    3    0  502  0.75003889645E+03  0.52997323027E+03 -0.99171672691E+03  0.13516404986E+04  0.50400001928E-02 0. -1.
</event>
<event>
 5   0  0.4811500E-07  0.3612968E+04  0.7818609E-02  0.8087528E-01
        1   -1    0    0  501    0  0.00000000000E+00  0.00000000000E+00  0.10517281186E+04  0.10517281186E+04  0.50400001928E-02 0.  1.
       -1   -1    0    0    0  501  0.00000000000E+00  0.00000000000E+00 -0.31028776993E+04  0.31028776993E+04  0.50400001928E-02 0. -1.
    10030    2    1    2    0    0  0.00000000000E+00  0.00000000000E+00 -0.20511495807E+04  0.41546058179E+04  0.36129676029E+04 0.  0.
        4    1    3    3  502    0 -0.99078130646E+02 -0.60288476838E+02 -0.30985915993E+04  0.31007616304E+04  0.12699999809E+01 0. -1.
       -4    1    3    3    0  502  0.99078130646E+02  0.60288476838E+02  0.10474420186E+04  0.10538441875E+04  0.12699999809E+01 0.  1.
</event>
<event>
 5   0  0.1468942E-06  0.3630628E+04  0.7818609E-02  0.8083512E-01
       -2   -1    0    0    0  501  0.00000000000E+00  0.00000000000E+00  0.34167682089E+04  0.34167682089E+04  0.25500000920E-02 0.  1.
        2   -1    0    0  501    0  0.00000000000E+00  0.00000000000E+00 -0.96446820982E+03  0.96446820982E+03  0.25500000920E-02 0. -1.
    10030    2    1    2    0    0  0.00000000000E+00  0.00000000000E+00  0.24522999991E+04  0.43812364187E+04  0.36306276690E+04 0.  0.
        2    1    3    3  502    0 -0.10112983345E+04 -0.12508850565E+04  0.21081564081E+03  0.16223073014E+04  0.25500000920E-02 0. -1.
       -2    1    3    3    0  502  0.10112983345E+04  0.12508850565E+04  0.22414843583E+04  0.27589291173E+04  0.25500000920E-02 0.  1.
</event>
<event>
 5   0  0.1444091E-06  0.3599759E+04  0.7818609E-02  0.8090547E-01
        2   -1    0    0  501    0  0.00000000000E+00  0.00000000000E+00  0.19978358801E+04  0.19978358801E+04  0.25500000920E-02 0.  1.
       -2   -1    0    0    0  501  0.00000000000E+00  0.00000000000E+00 -0.16215373072E+04  0.16215373072E+04  0.25500000920E-02 0. -1.
    10030    2    1    2    0    0  0.00000000000E+00  0.00000000000E+00  0.37629857288E+03  0.36193731873E+04  0.35997585548E+04 0.  0.
        1    1    3    3  502    0  0.24581913022E+03 -0.25649768656E+03 -0.15859330731E+04  0.16252390041E+04  0.50400001928E-02 0. -1.
       -1    1    3    3    0  502 -0.24581913022E+03  0.25649768656E+03  0.19622316460E+04  0.19941341832E+04  0.50400001928E-02 0.  1.
</event>
<event>
 5   0  0.1505671E-06  0.3621498E+04  0.7818609E-02  0.8085585E-01
        2   -1    0    0  501    0  0.00000000000E+00  0.00000000000E+00  0.22368922040E+04  0.22368922040E+04  0.25500000920E-02 0. -1.
       -2   -1    0    0    0  501  0.00000000000E+00  0.00000000000E+00 -0.14657886796E+04  0.14657886796E+04  0.25500000920E-02 0.  1.
    10030    2    1    2    0    0  0.00000000000E+00  0.00000000000E+00  0.77110352443E+03  0.37026808837E+04  0.36214976295E+04 0.  0.
        3    1    3    3  502    0  0.14052994256E+04  0.49858953904E+03  0.14358847506E+04  0.20700780254E+04  0.10100000352E+00 0. -1.
       -3    1    3    3    0  502 -0.14052994256E+04 -0.49858953904E+03 -0.66478122613E+03  0.16326028583E+04  0.10100000352E+00 0.  1.
</event>
<event>
 5   0  0.1444091E-06  0.3613034E+04  0.7818609E-02  0.8087513E-01
       -2   -1    0    0    0  501  0.00000000000E+00  0.00000000000E+00  0.14406004188E+04  0.14406004188E+04  0.25500000920E-02 0.  1.
        2   -1    0    0  501    0  0.00000000000E+00  0.00000000000E+00 -0.22653777194E+04  0.22653777194E+04  0.25500000920E-02 0. -1.
    10030    2    1    2    0    0  0.00000000000E+00  0.00000000000E+00 -0.82477730059E+03  0.37059781382E+04  0.36130342325E+04 0.  0.
        1    1    3    3  502    0 -0.10165430074E+03  0.10169714393E+04 -0.19403188530E+04  0.21930348279E+04  0.50400001928E-02 0. -1.
       -1    1    3    3    0  502  0.10165430074E+03 -0.10169714393E+04  0.11155415524E+04  0.15129433103E+04  0.50400001928E-02 0.  1.
</event>
<event>
 5   0  0.1379425E-06  0.2262751E+04  0.7818609E-02  0.8492754E-01
        2   -1    0    0  501    0  0.00000000000E+00  0.00000000000E+00  0.10593174857E+04  0.10593174857E+04  0.25500000920E-02 0. -1.
       -2   -1    0    0    0  501  0.00000000000E+00  0.00000000000E+00 -0.12083347352E+04  0.12083347352E+04  0.25500000920E-02 0.  1.
    10030    2    1    2    0    0  0.00000000000E+00  0.00000000000E+00 -0.14901724950E+03  0.22676522210E+04  0.22627506391E+04 0.  0.
        4    1    3    3  502    0  0.83414589045E+03 -0.68376029136E+03 -0.41683457416E+03  0.11563218314E+04  0.12699999809E+01 0.  1.
       -4    1    3    3    0  502 -0.83414589045E+03  0.68376029136E+03  0.26781732466E+03  0.11113303896E+04  0.12699999809E+01 0. -1.
</event>
<event>
 5   0  0.4811500E-07  0.3446424E+04  0.7818609E-02  0.8126606E-01
       -1   -1    0    0    0  501  0.00000000000E+00  0.00000000000E+00  0.13411643372E+04  0.13411643372E+04  0.50400001928E-02 0.  1.
        1   -1    0    0  501    0  0.00000000000E+00  0.00000000000E+00 -0.22140901487E+04  0.22140901488E+04  0.50400001928E-02 0. -1.
    10030    2    1    2    0    0  0.00000000000E+00  0.00000000000E+00 -0.87292581158E+03  0.35552544859E+04  0.34464235066E+04 0.  0.
        3    1    3    3  502    0  0.54327880329E+03 -0.14374023550E+04 -0.12409491043E+04  0.19751536846E+04  0.10100000352E+00 0. -1.
       -3    1    3    3    0  502 -0.54327880329E+03  0.14374023550E+04  0.36802329272E+03  0.15801008013E+04  0.10100000352E+00 0.  1.
</event>
<event>
 5   0  0.5071661E-07  0.3599322E+04  0.7818609E-02  0.8090647E-01
       -1   -1    0    0    0  501  0.00000000000E+00  0.00000000000E+00  0.12488859827E+04  0.12488859827E+04  0.50400001928E-02 0.  1.
        1   -1    0    0  501    0  0.00000000000E+00  0.00000000000E+00 -0.25933355723E+04  0.25933355723E+04  0.50400001928E-02 0. -1.
    10030    2    1    2    0    0  0.00000000000E+00  0.00000000000E+00 -0.13444495896E+04  0.38422215550E+04  0.35993224055E+04 0.  0.
        1    1    3    3  502    0 -0.10302142400E+04  0.68145759390E+03 -0.20693883817E+04  0.24099987773E+04  0.50400001928E-02 0. -1.
       -1    1    3    3    0  502  0.10302142400E+04 -0.68145759390E+03  0.72493879206E+03  0.14322227777E+04  0.50400001928E-02 0.  1.
</event>
<event>
 5   0  0.4811500E-07  0.2428196E+04  0.7818609E-02  0.8429022E-01
        1   -1    0    0  501    0  0.00000000000E+00  0.00000000000E+00  0.10065026287E+04  0.10065026288E+04  0.50400001928E-02 0. -1.
       -1   -1    0    0    0  501  0.00000000000E+00  0.00000000000E+00 -0.14645113630E+04  0.14645113630E+04  0.50400001928E-02 0.  1.
    10030    2    1    2    0    0  0.00000000000E+00  0.00000000000E+00 -0.45800873423E+03  0.24710139917E+04  0.24281964802E+04 0.  0.
        5    1    3    3  502    0  0.46241440463E+03  0.10914986128E+04 -0.49595843558E+03  0.12849876121E+04  0.46999998093E+01 0.  1.
       -5    1    3    3    0  502 -0.46241440463E+03 -0.10914986128E+04  0.37949701357E+02  0.11860263796E+04  0.46999998093E+01 0. -1.
</event>
<event>
 5   0  0.5071661E-07  0.3801111E+04  0.7818609E-02  0.8045917E-01
       -1   -1    0    0    0  501  0.00000000000E+00  0.00000000000E+00  0.11492925767E+04  0.11492925767E+04  0.50400001928E-02 0.  1.
        1   -1    0    0  501    0  0.00000000000E+00  0.00000000000E+00 -0.31428989294E+04  0.31428989294E+04  0.50400001928E-02 0. -1.
    10030    2    1    2    0    0  0.00000000000E+00  0.00000000000E+00 -0.19936063528E+04  0.42921915061E+04  0.38011105792E+04 0.  0.
        1    1    3    3  502    0  0.85296895660E+03  0.15508278393E+04 -0.21489243779E+03  0.17829194564E+04  0.50400001928E-02 0.  1.
       -1    1    3    3    0  502 -0.85296895660E+03 -0.15508278393E+04 -0.17787139150E+04  0.25092720497E+04  0.50400001928E-02 0. -1.
</event>
<event>
 5   0  0.4811500E-07  0.2285715E+04  0.7818609E-02  0.8483575E-01
        1   -1    0    0  501    0  0.00000000000E+00  0.00000000000E+00  0.15373244480E+04  0.15373244480E+04  0.50400001928E-02 0.  1.
       -1   -1    0    0    0  501  0.00000000000E+00  0.00000000000E+00 -0.84960824485E+03  0.84960824486E+03  0.50400001928E-02 0. -1.
    10030    2    1    2    0    0  0.00000000000E+00  0.00000000000E+00  0.68771620311E+03  0.23869326928E+04  0.22857152281E+04 0.  0.
        4    1    3    3  502    0  0.10997951814E+03  0.11216184304E+04  0.14572349110E+03  0.11363803706E+04  0.12699999809E+01 0. -1.
       -4    1    3    3    0  502 -0.10997951814E+03 -0.11216184304E+04  0.54199271201E+03  0.12505523222E+04  0.12699999809E+01 0.  1.
</event>
<event>
 5   0  0.4811500E-07  0.3371650E+04  0.7818609E-02  0.8144900E-01
        1   -1    0    0  501    0  0.00000000000E+00  0.00000000000E+00  0.19413135378E+04  0.19413135378E+04  0.50400001928E-02 0.  1.
       -1   -1    0    0    0  501  0.00000000000E+00  0.00000000000E+00 -0.14639602516E+04  0.14639602516E+04  0.50400001928E-02 0. -1.
    10030    2    1    2    0    0  0.00000000000E+00  0.00000000000E+00  0.47735328624E+03  0.34052737894E+04  0.33716499553E+04 0.  0.
        3    1    3    3  502    0 -0.16223624392E+04 -0.18381908581E+03 -0.18521894637E+03  0.16432149612E+04  0.10100000352E+00 0. -1.
       -3    1    3    3    0  502  0.16223624392E+04  0.18381908581E+03  0.66257223261E+03  0.17620588282E+04  0.10100000352E+00 0.  1.
</event>
<event>
 5   0  0.1379425E-06  0.3390972E+04  0.7818609E-02  0.8140126E-01
        2   -1    0    0  501    0  0.00000000000E+00  0.00000000000E+00  0.25596268163E+04  0.25596268163E+04  0.25500000920E-02 0.  1.
       -2   -1    0    0    0  501  0.00000000000E+00  0.00000000000E+00 -0.11230827262E+04  0.11230827262E+04  0.25500000920E-02 0. -1.
    10030    2    1    2    0    0  0.00000000000E+00  0.00000000000E+00  0.14365440901E+04  0.36827095425E+04  0.33909719332E+04 0.  0.
        4    1    3    3  502    0 -0.38536015094E+02  0.13415610344E+04 -0.40691330963E+03  0.14024446827E+04  0.12699999809E+01 0. -1.
       -4    1    3    3    0  502  0.38536015094E+02 -0.13415610344E+04  0.18434573998E+04  0.22802648599E+04  0.12699999809E+01 0.  1.
</event>
<event>
 5   0  0.4811500E-07  0.3611386E+04  0.7818609E-02  0.8087889E-01
       -1   -1    0    0    0  501  0.00000000000E+00  0.00000000000E+00  0.19126302670E+04  0.19126302670E+04  0.50400001928E-02 0.  1.
        1   -1    0    0  501    0  0.00000000000E+00  0.00000000000E+00 -0.17047348557E+04  0.17047348557E+04  0.50400001928E-02 0. -1.
    10030    2    1    2    0    0  0.00000000000E+00  0.00000000000E+00  0.20789541129E+03  0.36173651227E+04  0.36113861507E+04 0.  0.
        2    1    3    3  502    0 -0.21306386588E+03 -0.16804767491E+04 -0.52249090882E+03  0.17726801925E+04  0.25500000920E-02 0. -1.
       -2    1    3    3    0  502  0.21306386588E+03  0.16804767491E+04  0.73038632011E+03  0.18446849302E+04  0.25500000920E-02 0.  1.
</event>
<event>
 5   0  0.4811500E-07  0.3701637E+04  0.7818609E-02  0.8067599E-01
        1   -1    0    0  501    0  0.00000000000E+00  0.00000000000E+00  0.13309795746E+04  0.13309795746E+04  0.50400001928E-02 0.  1.
       -1   -1    0    0    0  501  0.00000000000E+00  0.00000000000E+00 -0.25736904538E+04  0.25736904538E+04  0.50400001928E-02 0. -1.
    10030    2    1    2    0    0  0.00000000000E+00  0.00000000000E+00 -0.12427108792E+04  0.39046700284E+04  0.37016371650E+04 0.  0.
        3    1    3    3  502    0  0.16211264914E+03  0.10678014256E+04  0.96409736810E+03  0.14477445012E+04  0.10100000352E+00 0.  1.
       -3    1    3    3    0  502 -0.16211264914E+03 -0.10678014256E+04 -0.22068082473E+04  0.24569255272E+04  0.10100000352E+00 0. -1.
</event>
<event>
 5   0  0.1491854E-06  0.3559746E+04  0.7818609E-02  0.8099775E-01
        2   -1    0    0  501    0  0.00000000000E+00  0.00000000000E+00  0.15500790606E+04  0.15500790606E+04  0.25500000920E-02 0. -1.
       -2   -1    0    0    0  501  0.00000000000E+00  0.00000000000E+00 -0.20437335545E+04  0.20437335545E+04  0.25500000920E-02 0.  1.
    10030    2    1    2    0    0  0.00000000000E+00  0.00000000000E+00 -0.49365449389E+03  0.35938126151E+04  0.35597463888E+04 0.  0.
        5    1    3    3  502    0  0.50997204539E+03 -0.11650802232E+04 -0.15039112066E+04  0.19695822961E+04  0.46999998093E+01 0.  1.
       -5    1    3    3    0  502 -0.50997204539E+03  0.11650802232E+04  0.10102567127E+04  0.16242303190E+04  0.46999998093E+01 0. -1.
</event>
<event>
 5   0  0.4811500E-07  0.3591968E+04  0.7818609E-02  0.8092334E-01
        1   -1    0    0  501    0  0.00000000000E+00  0.00000000000E+00  0.23259569108E+04  0.23259569108E+04  0.50400001928E-02 0. -1.
       -1   -1    0    0    0  501  0.00000000000E+00  0.00000000000E+00 -0.13867663022E+04  0.13867663023E+04  0.50400001928E-02 0.  1.
    10030    2    1    2    0    0  0.00000000000E+00  0.00000000000E+00  0.93919060851E+03  0.37127232130E+04  0.35919680758E+04 0.  0.
        2    1    3    3  502    0 -0.45134832636E+03  0.62663459019E+03  0.21455784275E+04  0.22803273909E+04  0.25500000920E-02 0. -1.
       -2    1    3    3    0  502  0.45134832636E+03 -0.62663459019E+03 -0.12063878190E+04  0.14323958221E+04  0.25500000920E-02 0.  1.
</event>
<event>
 5   0  0.4811500E-07  0.3636663E+04  0.7818609E-02  0.8082145E-01
        1   -1    0    0  501    0  0.00000000000E+00  0.00000000000E+00  0.16055704005E+04  0.16055704005E+04  0.50400001928E-02 0. -1.
       -1   -1    0    0    0  501  0.00000000000E+00  0.00000000000E+00 -0.20592864794E+04  0.20592864794E+04  0.50400001928E-02 0.  1.
    10030    2    1    2    0    0  0.00000000000E+00  0.00000000000E+00 -0.45371607892E+03  0.36648568799E+04  0.36366629855E+04 0.  0.
        3    1    3    3  502    0  0.95962370099E+03  0.28236624965E+03  0.13033741952E+04  0.16429828512E+04  0.10100000352E+00 0. -1.
       -3    1    3    3    0  502 -0.95962370099E+03 -0.28236624965E+03 -0.17570902741E+04  0.20218740287E+04  0.10100000352E+00 0.  1.
</event>
<event>
 5   0  0.4811500E-07  0.3687080E+04  0.7818609E-02  0.8070831E-01
        1   -1    0    0  501    0  0.00000000000E+00  0.00000000000E+00  0.19212547141E+04  0.19212547141E+04  0.50400001928E-02 0. -1.
       -1   -1    0    0    0  501  0.00000000000E+00  0.00000000000E+00 -0.17689690184E+04  0.17689690184E+04  0.50400001928E-02 0.  1.
    10030    2    1    2    0    0  0.00000000000E+00  0.00000000000E+00  0.15228569571E+03  0.36902237325E+04  0.36870801813E+04 0.  0.
        5    1    3    3  502    0  0.14621727962E+04 -0.12280979675E+03  0.11931528241E+04  0.18912078902E+04  0.46999998093E+01 0. -1.
       -5    1    3    3    0  502 -0.14621727962E+04  0.12280979675E+03 -0.10408671284E+04  0.17990158424E+04  0.46999998093E+01 0.  1.
</event>
<event>
 5   0  0.1468942E-06  0.3588968E+04  0.7818609E-02  0.8093023E-01
        2   -1    0    0  501    0  0.00000000000E+00  0.00000000000E+00  0.17708440736E+04  0.17708440736E+04  0.25500000920E-02 0.  1.
       -2   -1    0    0    0  501  0.00000000000E+00  0.00000000000E+00 -0.18184392892E+04  0.18184392892E+04  0.25500000920E-02 0. -1.
    10030    2    1    2    0    0  0.00000000000E+00  0.00000000000E+00 -0.47595215620E+02  0.35892833628E+04  0.35889677839E+04 0.  0.
        2    1    3    3  502    0  0.68867268912E+03 -0.26152881502E+03  0.16126546319E+04  0.17729417237E+04  0.25500000920E-02 0.  1.
       -2    1    3    3    0  502 -0.68867268912E+03  0.26152881502E+03 -0.16602498475E+04  0.18163416391E+04  0.25500000920E-02 0. -1.
</event>
<event>
 5   0  0.1468942E-06  0.2424183E+04  0.7818609E-02  0.8430505E-01
       -2   -1    0    0    0  501  0.00000000000E+00  0.00000000000E+00  0.79747777899E+03  0.79747777899E+03  0.25500000920E-02 0.  1.
        2   -1    0    0  501    0  0.00000000000E+00  0.00000000000E+00 -0.18422648640E+04  0.18422648640E+04  0.25500000920E-02 0. -1.
    10030    2    1    2    0    0  0.00000000000E+00  0.00000000000E+00 -0.10447870850E+04  0.26397426430E+04  0.24241825773E+04 0.  0.
        2    1    3    3  502    0  0.37821515462E+02  0.77543766390E+03 -0.15359858773E+04  0.17210423158E+04  0.25500000920E-02 0. -1.
       -2    1    3    3    0  502 -0.37821515462E+02 -0.77543766390E+03  0.49119879227E+03  0.91870032717E+03  0.25500000920E-02 0.  1.
</event>
<event>
 5   0  0.1505671E-06  0.3111387E+04  0.7818609E-02  0.8212620E-01
       -2   -1    0    0    0  501  0.00000000000E+00  0.00000000000E+00  0.87959717727E+03  0.87959717728E+03  0.25500000920E-02 0. -1.
        2   -1    0    0  501    0  0.00000000000E+00  0.00000000000E+00 -0.27514674212E+04  0.27514674212E+04  0.25500000920E-02 0.  1.
    10030    2    1    2    0    0  0.00000000000E+00  0.00000000000E+00 -0.18718702439E+04  0.36310645985E+04  0.31113874571E+04 0.  0.
        3    1    3    3  502    0  0.17006301435E+03  0.15309546331E+04 -0.68175025046E+03  0.16844960468E+04  0.10100000352E+00 0.  1.
       -3    1    3    3    0  502 -0.17006301435E+03 -0.15309546331E+04 -0.11901199934E+04  0.19465685517E+04  0.10100000352E+00 0. -1.
</event>
<event>
 5   0  0.1379425E-06  0.3579150E+04  0.7818609E-02  0.8095284E-01
        2   -1    0    0  501    0  0.00000000000E+00  0.00000000000E+00  0.15337886954E+04  0.15337886954E+04  0.25500000920E-02 0. -1.
       -2   -1    0    0    0  501  0.00000000000E+00  0.00000000000E+00 -0.20880184176E+04  0.20880184176E+04  0.25500000920E-02 0.  1.
    10030    2    1    2    0    0  0.00000000000E+00  0.00000000000E+00 -0.55422972216E+03  0.36218071129E+04  0.35791502034E+04 0.  0.
        4    1    3    3  502    0  0.71891844666E+03 -0.23506112113E+03 -0.19183200912E+04  0.20620502052E+04  0.12699999809E+01 0.  1.
       -4    1    3    3    0  502 -0.71891844666E+03  0.23506112113E+03  0.13640903690E+04  0.15597569078E+04  0.12699999809E+01 0. -1.
</event>
<event>
 5   0  0.5071661E-07  0.3687510E+04  0.7818609E-02  0.8070735E-01
        1   -1    0    0  501    0  0.00000000000E+00  0.00000000000E+00  0.20974656181E+04  0.20974656181E+04  0.50400001928E-02 0.  1.
       -1   -1    0    0    0  501  0.00000000000E+00  0.00000000000E+00 -0.16207331476E+04  0.16207331476E+04  0.50400001928E-02 0. -1.
    10030    2    1    2    0    0  0.00000000000E+00  0.00000000000E+00  0.47673247051E+03  0.37181987656E+04  0.36875097576E+04 0.  0.
        1    1    3    3  502    0  0.63678485665E+02  0.41971025518E+02 -0.16191419830E+04  0.16209371603E+04  0.50400001928E-02 0. -1.
       -1    1    3    3    0  502 -0.63678485665E+02 -0.41971025518E+02  0.20958744535E+04  0.20972616054E+04  0.50400001928E-02 0.  1.
</event>
<event>
 5   0  0.1379425E-06  0.3496805E+04  0.7818609E-02  0.8114548E-01
        2   -1    0    0  501    0  0.00000000000E+00  0.00000000000E+00  0.17200543052E+04  0.17200543052E+04  0.25500000920E-02 0.  1.
       -2   -1    0    0    0  501  0.00000000000E+00  0.00000000000E+00 -0.17772175665E+04  0.17772175665E+04  0.25500000920E-02 0. -1.
    10030    2    1    2    0    0  0.00000000000E+00  0.00000000000E+00 -0.57163261244E+02  0.34972718717E+04  0.34968046709E+04 0.  0.
        4    1    3    3  502    0  0.14856330249E+04  0.15324797837E+03 -0.93772381214E+03  0.17634959565E+04  0.12699999809E+01 0. -1.
       -4    1    3    3    0  502 -0.14856330249E+04 -0.15324797837E+03  0.88056055089E+03  0.17337759153E+04  0.12699999809E+01 0.  1.
</event>
<event>
 5   0  0.4811500E-07  0.3582639E+04  0.7818609E-02  0.8094480E-01
       -1   -1    0    0    0  501  0.00000000000E+00  0.00000000000E+00  0.12476497998E+04  0.12476497998E+04  0.50400001928E-02 0. -1.
        1   -1    0    0  501    0  0.00000000000E+00  0.00000000000E+00 -0.25718956339E+04  0.25718956339E+04  0.50400001928E-02 0.  1.
    10030    2    1    2    0    0  0.00000000000E+00  0.00000000000E+00 -0.13242458341E+04  0.38195454337E+04  0.35826387330E+04 0.  0.
        4    1    3    3  502    0  0.88238644594E+03  0.14723975404E+04 -0.11614225452E+03  0.17204798729E+04  0.12699999809E+01 0. -1.
       -4    1    3    3    0  502 -0.88238644594E+03 -0.14723975404E+04 -0.12081035796E+04  0.20990655608E+04  0.12699999809E+01 0.  1.
</event>
<event>
 5   0  0.1444091E-06  0.3643571E+04  0.7818609E-02  0.8080584E-01
       -2   -1    0    0    0  501  0.00000000000E+00  0.00000000000E+00  0.27070574101E+04  0.27070574101E+04  0.25500000920E-02 0.  1.
        2   -1    0    0  501    0  0.00000000000E+00  0.00000000000E+00 -0.12260185117E+04  0.12260185117E+04  0.25500000920E-02 0. -1.
    10030    2    1    2    0    0  0.00000000000E+00  0.00000000000E+00  0.14810388984E+04  0.39330759218E+04  0.36435710488E+04 0.  0.
        1    1    3    3  502    0 -0.13319609350E+04  0.97903224002E+03  0.15670464549E+04  0.22777749343E+04  0.50400001928E-02 0.  1.
       -1    1    3    3    0  502  0.13319609350E+04 -0.97903224002E+03 -0.86007556534E+02  0.16553009875E+04  0.50400001928E-02 0. -1.
</event>
<event>
 5   0  0.4811500E-07  0.3497231E+04  0.7818609E-02  0.8114446E-01
        1   -1    0    0  501    0  0.00000000000E+00  0.00000000000E+00  0.17072252239E+04  0.17072252239E+04  0.50400001928E-02 0. -1.
       -1   -1    0    0    0  501  0.00000000000E+00  0.00000000000E+00 -0.17910094686E+04  0.17910094686E+04  0.50400001928E-02 0.  1.
    10030    2    1    2    0    0  0.00000000000E+00  0.00000000000E+00 -0.83784244711E+02  0.34982346924E+04  0.34972312139E+04 0.  0.
        3    1    3    3  502    0  0.14893122412E+04 -0.47363398756E+03 -0.82651277233E+03  0.17679093526E+04  0.10100000352E+00 0.  1.
       -3    1    3    3    0  502 -0.14893122412E+04  0.47363398756E+03  0.74272852762E+03  0.17303253399E+04  0.10100000352E+00 0. -1.
</event>
<event>
 5   0  0.1505671E-06  0.3467315E+04  0.7818609E-02  0.8121580E-01
       -2   -1    0    0    0  501  0.00000000000E+00  0.00000000000E+00  0.18232538509E+04  0.18232538509E+04  0.25500000920E-02 0.  1.
        2   -1    0    0  501    0  0.00000000000E+00  0.00000000000E+00 -0.16484641115E+04  0.16484641115E+04  0.25500000920E-02 0. -1.
    10030    2    1    2    0    0  0.00000000000E+00  0.00000000000E+00  0.17478973940E+03  0.34717179623E+04  0.34673151223E+04 0.  0.
        3    1    3    3  502    0 -0.17434225402E+02  0.11806664486E+04 -0.11835834888E+04  0.16718693430E+04  0.10100000352E+00 0. -1.
       -3    1    3    3    0  502  0.17434225402E+02 -0.11806664486E+04  0.13583732282E+04  0.17998486193E+04  0.10100000352E+00 0.  1.
</event>
<event>
 5   0  0.4811500E-07  0.3750407E+04  0.7818609E-02  0.8056882E-01
       -1   -1    0    0    0  501  0.00000000000E+00  0.00000000000E+00  0.16448940844E+04  0.16448940844E+04  0.50400001928E-02 0. -1.
        1   -1    0    0  501    0  0.00000000000E+00  0.00000000000E+00 -0.21377599285E+04  0.21377599285E+04  0.50400001928E-02 0.  1.
    10030    2    1    2    0    0  0.00000000000E+00  0.00000000000E+00 -0.49286584415E+03  0.37826540129E+04  0.37504072633E+04 0.  0.
        5    1    3    3  502    0 -0.14972347087E+03  0.18471708023E+04 -0.53509203473E+03  0.19289382225E+04  0.46999998093E+01 0.  1.
       -5    1    3    3    0  502  0.14972347087E+03 -0.18471708023E+04  0.42226190581E+02  0.18537157904E+04  0.46999998093E+01 0. -1.
</event>
<event>
 5   0  0.1444091E-06  0.2717117E+04  0.7818609E-02  0.8329472E-01
        2   -1    0    0  501    0  0.00000000000E+00  0.00000000000E+00  0.24226303877E+04  0.24226303877E+04  0.25500000920E-02 0. -1.
       -2   -1    0    0    0  501  0.00000000000E+00  0.00000000000E+00 -0.76185028188E+03  0.76185028188E+03  0.25500000920E-02 0.  1.
    10030    2    1    2    0    0  0.00000000000E+00  0.00000000000E+00  0.16607801058E+04  0.31844806696E+04  0.27171173282E+04 0.  0.
        1    1    3    3  502    0 -0.60565862777E+03 -0.11826182942E+04  0.11624493336E+04  0.17654169072E+04  0.50400001928E-02 0. -1.
       -1    1    3    3    0  502  0.60565862777E+03  0.11826182942E+04  0.49833077220E+03  0.14190637623E+04  0.50400001928E-02 0.  1.
</event>
<event>
 5   0  0.1505671E-06  0.3741125E+04  0.7818609E-02  0.8058909E-01
       -2   -1    0    0    0  501  0.00000000000E+00  0.00000000000E+00  0.15890957332E+04  0.15890957332E+04  0.25500000920E-02 0. -1.
        2   -1    0    0  501    0  0.00000000000E+00  0.00000000000E+00 -0.22018835523E+04  0.22018835523E+04  0.25500000920E-02 0.  1.
    10030    2    1    2    0    0  0.00000000000E+00  0.00000000000E+00 -0.61278781914E+03  0.37909792855E+04  0.37411248351E+04 0.  0.
        3    1    3    3  502    0 -0.58742395896E+03 -0.10023615838E+04 -0.17919479167E+04  0.21356200501E+04  0.10100000352E+00 0.  1.
       -3    1    3    3    0  502  0.58742395896E+03  0.10023615838E+04  0.11791600976E+04  0.16553592353E+04  0.10100000352E+00 0. -1.
</event>
<event>
 5   0  0.4811500E-07  0.2332358E+04  0.7818609E-02  0.8465271E-01
       -1   -1    0    0    0  501  0.00000000000E+00  0.00000000000E+00  0.87497366336E+03  0.87497366337E+03  0.50400001928E-02 0. -1.
        1   -1    0    0  501    0  0.00000000000E+00  0.00000000000E+00 -0.15543026907E+04  0.15543026907E+04  0.50400001928E-02 0.  1.
    10030    2    1    2    0    0  0.00000000000E+00  0.00000000000E+00 -0.67932902730E+03  0.24292763540E+04  0.23323583938E+04 0.  0.
        5    1    3    3  502    0 -0.56435013894E+03  0.67943444597E+03 -0.11327715852E+04  0.14364246587E+04  0.46999998093E+01 0.  1.
       -5    1    3    3    0  502  0.56435013894E+03 -0.67943444597E+03  0.45344255792E+03  0.99285169538E+03  0.46999998093E+01 0. -1.
</event>
<event>
 5   0  0.4811500E-07  0.2772694E+04  0.7818609E-02  0.8311796E-01
        1   -1    0    0  501    0  0.00000000000E+00  0.00000000000E+00  0.20235626475E+04  0.20235626475E+04  0.50400001928E-02 0.  1.
       -1   -1    0    0    0  501  0.00000000000E+00  0.00000000000E+00 -0.94978901360E+03  0.94978901362E+03  0.50400001928E-02 0. -1.
    10030    2    1    2    0    0  0.00000000000E+00  0.00000000000E+00  0.10737736339E+04  0.29733516611E+04  0.27726936873E+04 0.  0.
        4    1    3    3  502    0  0.29147142180E+03  0.10314808063E+04  0.14797475154E+04  0.18271733814E+04  0.12699999809E+01 0.  1.
       -4    1    3    3    0  502 -0.29147142180E+03 -0.10314808063E+04 -0.40597388157E+03  0.11461782797E+04  0.12699999809E+01 0. -1.
</event>
<event>
 5   0  0.4811500E-07  0.2243585E+04  0.7818609E-02  0.8500503E-01
       -1   -1    0    0    0  501  0.00000000000E+00  0.00000000000E+00  0.13028300434E+04  0.13028300434E+04  0.50400001928E-02 0.  1.
        1   -1    0    0  501    0  0.00000000000E+00  0.00000000000E+00 -0.96591158894E+03  0.96591158896E+03  0.50400001928E-02 0. -1.
    10030    2    1    2    0    0  0.00000000000E+00  0.00000000000E+00  0.33691845447E+03  0.22687416324E+04  0.22435852000E+04 0.  0.
        2    1    3    3  502    0  0.23267102510E+03  0.99656825147E+03  0.63310514857E+03  0.12033728495E+04  0.25500000920E-02 0.  1.
       -2    1    3    3    0  502 -0.23267102510E+03 -0.99656825147E+03 -0.29618669409E+03  0.10653687829E+04  0.25500000920E-02 0. -1.
</event>
<event>
 5   0  0.1379425E-06  0.3461855E+04  0.7818609E-02  0.8122890E-01
        2   -1    0    0  501    0  0.00000000000E+00  0.00000000000E+00  0.16539852030E+04  0.16539852030E+04  0.25500000920E-02 0. -1.
       -2   -1    0    0    0  501  0.00000000000E+00  0.00000000000E+00 -0.18114490041E+04  0.18114490041E+04  0.25500000920E-02 0.  1.
    10030    2    1    2    0    0  0.00000000000E+00  0.00000000000E+00 -0.15746380113E+03  0.34654342070E+04  0.34618549066E+04 0.  0.
        4    1    3    3  502    0 -0.92440756318E+03  0.41011397818E+03  0.13274929018E+04  0.16688204922E+04  0.12699999809E+01 0. -1.
       -4    1    3    3    0  502  0.92440756318E+03 -0.41011397818E+03 -0.14849567029E+04  0.17966137149E+04  0.12699999809E+01 0.  1.
</event>
<event>
 5   0  0.1444091E-06  0.2952082E+04  0.7818609E-02  0.8257548E-01
       -2   -1    0    0    0  501  0.00000000000E+00  0.00000000000E+00  0.16540460207E+04  0.16540460207E+04  0.25500000920E-02 0.  1.
        2   -1    0    0  501    0  0.00000000000E+00  0.00000000000E+00 -0.13171920901E+04  0.13171920901E+04  0.25500000920E-02 0. -1.
    10030    2    1    2    0    0  0.00000000000E+00  0.00000000000E+00  0.33685393059E+03  0.29712381109E+04  0.29520815268E+04 0.  0.
        1    1    3    3  502    0  0.77291582860E+03  0.10115154608E+04  0.92035854053E+03  0.15708667189E+04  0.50400001928E-02 0.  1.
       -1    1    3    3    0  502 -0.77291582860E+03 -0.10115154608E+04 -0.58350460994E+03  0.14003713919E+04  0.50400001928E-02 0. -1.
</event>
<event>
 5   0  0.5071661E-07  0.3671658E+04  0.7818609E-02  0.8074272E-01
       -1   -1    0    0    0  501  0.00000000000E+00  0.00000000000E+00  0.22738948825E+04  0.22738948825E+04  0.50400001928E-02 0. -1.
        1   -1    0    0  501    0  0.00000000000E+00  0.00000000000E+00 -0.14821567709E+04  0.14821567710E+04  0.50400001928E-02 0.  1.
    10030    2    1    2    0    0  0.00000000000E+00  0.00000000000E+00  0.79173811156E+03  0.37560516535E+04  0.36716583156E+04 0.  0.
        1    1    3    3  502    0  0.10204832306E+04 -0.13623652274E+04  0.10993107113E+04  0.20263042902E+04  0.50400001928E-02 0. -1.
       -1    1    3    3    0  502 -0.10204832306E+04  0.13623652274E+04 -0.30757259969E+03  0.17297473633E+04  0.50400001928E-02 0.  1.
</event>
<event>
 5   0  0.1491854E-06  0.3399423E+04  0.7818609E-02  0.8138048E-01
        2   -1    0    0  501    0  0.00000000000E+00  0.00000000000E+00  0.21578253584E+04  0.21578253584E+04  0.25500000920E-02 0.  1.
       -2   -1    0    0    0  501  0.00000000000E+00  0.00000000000E+00 -0.13388571819E+04  0.13388571819E+04  0.25500000920E-02 0. -1.
    10030    2    1    2    0    0  0.00000000000E+00  0.00000000000E+00  0.81896817648E+03  0.34966825403E+04  0.33994234678E+04 0.  0.
        5    1    3    3  502    0 -0.16865676530E+04  0.15072930433E+02  0.62588438577E+03  0.17990250125E+04  0.46999998093E+01 0. -1.
       -5    1    3    3    0  502  0.16865676530E+04 -0.15072930433E+02  0.19308379071E+03  0.16976575278E+04  0.46999998093E+01 0.  1.
</event>
<event>
 5   0  0.4811500E-07  0.3393755E+04  0.7818609E-02  0.8139441E-01
        1   -1    0    0  501    0  0.00000000000E+00  0.00000000000E+00  0.33117906144E+04  0.33117906144E+04  0.50400001928E-02 0. -1.
       -1   -1    0    0    0  501  0.00000000000E+00  0.00000000000E+00 -0.86943699275E+03  0.86943699276E+03  0.50400001928E-02 0.  1.
    10030    2    1    2    0    0  0.00000000000E+00  0.00000000000E+00  0.24423536216E+04  0.41812276071E+04  0.33937550132E+04 0.  0.
        4    1    3    3  502    0  0.16769859028E+04  0.25517763362E+03  0.12761967843E+04  0.21227522672E+04  0.12699999809E+01 0.  1.
       -4    1    3    3    0  502 -0.16769859028E+04 -0.25517763362E+03  0.11661568373E+04  0.20584753399E+04  0.12699999809E+01 0. -1.
</event>
<event>
 5   0  0.4811500E-07  0.3584446E+04  0.7818609E-02  0.8094064E-01
       -1   -1    0    0    0  501  0.00000000000E+00  0.00000000000E+00  0.18414118715E+04  0.18414118715E+04  0.50400001928E-02 0.  1.
        1   -1    0    0  501    0  0.00000000000E+00  0.00000000000E+00 -0.17443476924E+04  0.17443476924E+04  0.50400001928E-02 0. -1.
    10030    2    1    2    0    0  0.00000000000E+00  0.00000000000E+00  0.97064179135E+02  0.35857595639E+04  0.35844455910E+04 0.  0.
        3    1    3    3  502    0  0.12469572749E+03 -0.14861801538E+04 -0.94570449811E+03  0.17659664442E+04  0.10100000352E+00 0. -1.
       -3    1    3    3    0  502 -0.12469572749E+03  0.14861801538E+04  0.10427686772E+04  0.18197931197E+04  0.10100000352E+00 0.  1.
</event>
<event>
 5   0  0.4811500E-07  0.3588109E+04  0.7818609E-02  0.8093221E-01
        3   -1    0    0  501    0  0.00000000000E+00  0.00000000000E+00  0.20918150368E+04  0.20918150392E+04  0.10100000352E+00 0. -1.
       -3   -1    0    0    0  501  0.00000000000E+00  0.00000000000E+00 -0.15386788274E+04  0.15386788307E+04  0.10100000352E+00 0.  1.
    10030    2    1    2    0    0  0.00000000000E+00  0.00000000000E+00  0.55313620944E+03  0.36304938699E+04  0.35881089829E+04 0.  0.
        3    1    3    3  502    0  0.88172619940E+02 -0.17322770584E+04 -0.18718358077E+03  0.17445904737E+04  0.10100000352E+00 0.  1.
       -3    1    3    3    0  502 -0.88172619940E+02  0.17322770584E+04  0.74031979021E+03  0.18859033962E+04  0.10100000352E+00 0. -1.
</event>
<event>
 5   0  0.4811500E-07  0.3629339E+04  0.7818609E-02  0.8083804E-01
        1   -1    0    0  501    0  0.00000000000E+00  0.00000000000E+00  0.17166951769E+04  0.17166951769E+04  0.50400001928E-02 0.  1.
       -1   -1    0    0    0  501  0.00000000000E+00  0.00000000000E+00 -0.19182349583E+04  0.19182349583E+04  0.50400001928E-02 0. -1.
    10030    2    1    2    0    0  0.00000000000E+00  0.00000000000E+00 -0.20153978137E+03  0.36349301352E+04  0.36293386180E+04 0.  0.
        2    1    3    3  502    0  0.10410846226E+03  0.32040159638E+03  0.16851006350E+04  0.17184469457E+04  0.25500000920E-02 0.  1.
       -2    1    3    3    0  502 -0.10410846226E+03 -0.32040159638E+03 -0.18866404164E+04  0.19164831895E+04  0.25500000920E-02 0. -1.
</event>
<event>
 5   0  0.1379425E-06  0.3579457E+04  0.7818609E-02  0.8095214E-01
        2   -1    0    0  501    0  0.00000000000E+00  0.00000000000E+00  0.17290013319E+04  0.17290013319E+04  0.25500000920E-02 0.  1.
       -2   -1    0    0    0  501  0.00000000000E+00  0.00000000000E+00 -0.18525886287E+04  0.18525886287E+04  0.25500000920E-02 0. -1.
    10030    2    1    2    0    0  0.00000000000E+00  0.00000000000E+00 -0.12358729679E+03  0.35815899606E+04  0.35794570574E+04 0.  0.
        4    1    3    3  502    0  0.13050535199E+04 -0.90161663730E+03 -0.89117195516E+03  0.18194137290E+04  0.12699999809E+01 0. -1.
       -4    1    3    3    0  502 -0.13050535199E+04  0.90161663730E+03  0.76758465836E+03  0.17621762316E+04  0.12699999809E+01 0.  1.
</event>
<event>
 5   0  0.5071661E-07  0.3325757E+04  0.7818609E-02  0.8156372E-01
        1   -1    0    0  501    0  0.00000000000E+00  0.00000000000E+00  0.21246230011E+04  0.21246230011E+04  0.50400001928E-02 0.  1.
       -1   -1    0    0    0  501  0.00000000000E+00  0.00000000000E+00 -0.13014847578E+04  0.13014847578E+04  0.50400001928E-02 0. -1.
    10030    2    1    2    0    0  0.00000000000E+00  0.00000000000E+00  0.82313824322E+03  0.34261077589E+04  0.33257567271E+04 0.  0.
        1    1    3    3  502    0 -0.97973363654E+03  0.83674033075E+03  0.14945519271E+04  0.19732455099E+04  0.50400001928E-02 0.  1.
       -1    1    3    3    0  502  0.97973363654E+03 -0.83674033075E+03 -0.67141368384E+03  0.14528622490E+04  0.50400001928E-02 0. -1.
</event>
<event>
 5   0  0.4811500E-07  0.3692898E+04  0.7818609E-02  0.8069538E-01
       -1   -1    0    0    0  501  0.00000000000E+00  0.00000000000E+00  0.17601287129E+04  0.17601287129E+04  0.50400001928E-02 0. -1.
        1   -1    0    0  501    0  0.00000000000E+00  0.00000000000E+00 -0.19370026991E+04  0.19370026991E+04  0.50400001928E-02 0.  1.
    10030    2    1    2    0    0  0.00000000000E+00  0.00000000000E+00 -0.17687398617E+03  0.36971314120E+04  0.36928980856E+04 0.  0.
        3    1    3    3  502    0 -0.14131070027E+04  0.30632623801E+03  0.10612116111E+04  0.17935655157E+04  0.10100000352E+00 0. -1.
       -3    1    3    3    0  502  0.14131070027E+04 -0.30632623801E+03 -0.12380855973E+04  0.19035658963E+04  0.10100000352E+00 0.  1.
</event>
<event>
 5   0  0.1468942E-06  0.3498540E+04  0.7818609E-02  0.8114136E-01
        2   -1    0    0  501    0  0.00000000000E+00  0.00000000000E+00  0.24584568446E+04  0.24584568446E+04  0.25500000920E-02 0.  1.
       -2   -1    0    0    0  501  0.00000000000E+00  0.00000000000E+00 -0.12446608957E+04  0.12446608957E+04  0.25500000920E-02 0. -1.
    10030    2    1    2    0    0  0.00000000000E+00  0.00000000000E+00  0.12137959488E+04  0.37031177403E+04  0.34985397515E+04 0.  0.
        2    1    3    3  502    0  0.11476009046E+04  0.19750814519E+03  0.19885823615E+04  0.23044429071E+04  0.25500000920E-02 0.  1.
       -2    1    3    3    0  502 -0.11476009046E+04 -0.19750814519E+03 -0.77478641271E+03  0.13986748332E+04  0.25500000920E-02 0. -1.
</event>
<event>
 5   0  0.1379425E-06  0.3613075E+04  0.7818609E-02  0.8087503E-01
        2   -1    0    0  501    0  0.00000000000E+00  0.00000000000E+00  0.19300939336E+04  0.19300939336E+04  0.25500000920E-02 0.  1.
       -2   -1    0    0    0  501  0.00000000000E+00  0.00000000000E+00 -0.16908910635E+04  0.16908910635E+04  0.25500000920E-02 0. -1.
    10030    2    1    2    0    0  0.00000000000E+00  0.00000000000E+00  0.23920287006E+03  0.36209849971E+04  0.36130754678E+04 0.  0.
        4    1    3    3  502    0  0.19229093165E+03  0.78727814463E+03  0.17376929224E+04  0.19173838908E+04  0.12699999809E+01 0.  1.
       -4    1    3    3    0  502 -0.19229093165E+03 -0.78727814463E+03 -0.14984900523E+04  0.17036011063E+04  0.12699999809E+01 0. -1.
</event>
<event>
 5   0  0.4811500E-07  0.3499280E+04  0.7818609E-02  0.8113961E-01
        1   -1    0    0  501    0  0.00000000000E+00  0.00000000000E+00  0.20402719015E+04  0.20402719015E+04  0.50400001928E-02 0. -1.
       -1   -1    0    0    0  501  0.00000000000E+00  0.00000000000E+00 -0.15004079244E+04  0.15004079244E+04  0.50400001928E-02 0.  1.
    10030    2    1    2    0    0  0.00000000000E+00  0.00000000000E+00  0.53986397704E+03  0.35406798259E+04  0.34992799996E+04 0.  0.
        5    1    3    3  502    0  0.13668716764E+04  0.31315857046E+03 -0.78877956117E+03  0.16089132221E+04  0.46999998093E+01 0.  1.
       -5    1    3    3    0  502 -0.13668716764E+04 -0.31315857046E+03  0.13286435382E+04  0.19317666038E+04  0.46999998093E+01 0. -1.
</event>
<event>
 5   0  0.1379425E-06  0.2415193E+04  0.7818609E-02  0.8433837E-01
        2   -1    0    0  501    0  0.00000000000E+00  0.00000000000E+00  0.14873464486E+04  0.14873464486E+04  0.25500000920E-02 0.  1.
       -2   -1    0    0    0  501  0.00000000000E+00  0.00000000000E+00 -0.98046385062E+03  0.98046385063E+03  0.25500000920E-02 0. -1.
    10030    2    1    2    0    0  0.00000000000E+00  0.00000000000E+00  0.50688259796E+03  0.24678102992E+04  0.24151930989E+04 0.  0.
        4    1    3    3  502    0 -0.92073555526E+03 -0.67436409749E+03  0.65671279103E+03  0.13167361928E+04  0.12699999809E+01 0.  1.
       -4    1    3    3    0  502  0.92073555526E+03  0.67436409749E+03 -0.14983019308E+03  0.11510741064E+04  0.12699999809E+01 0. -1.
</event>
<event>
 5   0  0.4811500E-07  0.3524787E+04  0.7818609E-02  0.8107941E-01
       -1   -1    0    0    0  501  0.00000000000E+00  0.00000000000E+00  0.30241185968E+04  0.30241185968E+04  0.50400001928E-02 0. -1.
        1   -1    0    0  501    0  0.00000000000E+00  0.00000000000E+00 -0.10270861480E+04  0.10270861480E+04  0.50400001928E-02 0.  1.
    10030    2    1    2    0    0  0.00000000000E+00  0.00000000000E+00  0.19970324488E+04  0.40512047448E+04  0.35247867002E+04 0.  0.
        2    1    3    3  502    0  0.77876103852E+03  0.11829143011E+04 -0.20708043965E+03  0.14313061543E+04  0.25500000920E-02 0.  1.
       -2    1    3    3    0  502 -0.77876103852E+03 -0.11829143011E+04  0.22041128885E+04  0.26198985904E+04  0.25500000920E-02 0. -1.
</event>
<event>
 5   0  0.1491854E-06  0.3486379E+04  0.7818609E-02  0.8117025E-01
       -2   -1    0    0    0  501  0.00000000000E+00  0.00000000000E+00  0.15419208139E+04  0.15419208139E+04  0.25500000920E-02 0.  1.
        2   -1    0    0  501    0  0.00000000000E+00  0.00000000000E+00 -0.19707302402E+04  0.19707302402E+04  0.25500000920E-02 0. -1.
    10030    2    1    2    0    0  0.00000000000E+00  0.00000000000E+00 -0.42880942634E+03  0.35126510541E+04  0.34863791968E+04 0.  0.
        5    1    3    3  502    0 -0.12351250172E+04 -0.43194197509E+03 -0.13748566147E+04  0.18979885350E+04  0.46999998093E+01 0. -1.
       -5    1    3    3    0  502  0.12351250172E+04  0.43194197509E+03  0.94604718840E+03  0.16146625191E+04  0.46999998093E+01 0.  1.
</event>
<event>
 5   0  0.4811500E-07  0.3498097E+04  0.7818609E-02  0.8114241E-01
        1   -1    0    0  501    0  0.00000000000E+00  0.00000000000E+00  0.16128970157E+04  0.16128970157E+04  0.50400001928E-02 0. -1.
       -1   -1    0    0    0  501  0.00000000000E+00  0.00000000000E+00 -0.18966932133E+04  0.18966932133E+04  0.50400001928E-02 0.  1.
    10030    2    1    2    0    0  0.00000000000E+00  0.00000000000E+00 -0.28379619756E+03  0.35095902290E+04  0.34980970961E+04 0.  0.
        2    1    3    3  502    0  0.88631723900E+03 -0.10444871583E+04 -0.12329724603E+04  0.18430227237E+04  0.25500000920E-02 0.  1.
       -2    1    3    3    0  502 -0.88631723900E+03  0.10444871583E+04  0.94917626276E+03  0.16665675053E+04  0.25500000920E-02 0. -1.
</event>
<event>
 5   0  0.1444091E-06  0.3593000E+04  0.7818609E-02  0.8092097E-01
        2   -1    0    0  501    0  0.00000000000E+00  0.00000000000E+00  0.32527335057E+04  0.32527335057E+04  0.25500000920E-02 0.  1.
       -2   -1    0    0    0  501  0.00000000000E+00  0.00000000000E+00 -0.99221535272E+03  0.99221535272E+03  0.25500000920E-02 0. -1.
    10030    2    1    2    0    0  0.00000000000E+00  0.00000000000E+00  0.22605181530E+04  0.42449488584E+04  0.35929999291E+04 0.  0.
        1    1    3    3  502    0  0.11228209265E+04  0.80376679888E+03 -0.22745453406E+03  0.13994654212E+04  0.50400001928E-02 0. -1.
       -1    1    3    3    0  502 -0.11228209265E+04 -0.80376679888E+03  0.24879726870E+04  0.28454834372E+04  0.50400001928E-02 0.  1.
</event>
<event>
 5   0  0.1491854E-06  0.3561756E+04  0.7818609E-02  0.8099309E-01
        2   -1    0    0  501    0  0.00000000000E+00  0.00000000000E+00  0.14790715401E+04  0.14790715401E+04  0.25500000920E-02 0.  1.
       -2   -1    0    0    0  501  0.00000000000E+00  0.00000000000E+00 -0.21442683470E+04  0.21442683470E+04  0.25500000920E-02 0. -1.
    10030    2    1    2    0    0  0.00000000000E+00  0.00000000000E+00 -0.66519680692E+03  0.36233398871E+04  0.35617559077E+04 0.  0.
        5    1    3    3  502    0 -0.10854449367E+03  0.11325431830E+04  0.10611518230E+04  0.15557960181E+04  0.46999998093E+01 0.  1.
       -5    1    3    3    0  502  0.10854449367E+03 -0.11325431830E+04 -0.17263486299E+04  0.20675438691E+04  0.46999998093E+01 0. -1.
</event>
<event>
 5   0  0.1468942E-06  0.3601203E+04  0.7818609E-02  0.8090216E-01
        2   -1    0    0  501    0  0.00000000000E+00  0.00000000000E+00  0.13087205691E+04  0.13087205691E+04  0.25500000920E-02 0.  1.
       -2   -1    0    0    0  501  0.00000000000E+00  0.00000000000E+00 -0.24773554386E+04  0.24773554386E+04  0.25500000920E-02 0. -1.
    10030    2    1    2    0    0  0.00000000000E+00  0.00000000000E+00 -0.11686348695E+04  0.37860760077E+04  0.36012031430E+04 0.  0.
        2    1    3    3  502    0  0.95099474749E+03 -0.11827606017E+04  0.43436862021E+03  0.15786037340E+04  0.25500000920E-02 0.  1.
       -2    1    3    3    0  502 -0.95099474749E+03  0.11827606017E+04 -0.16030034897E+04  0.22074722736E+04  0.25500000920E-02 0. -1.
</event>
<event>
 5   0  0.4811500E-07  0.3544427E+04  0.7818609E-02  0.8103341E-01
       -1   -1    0    0    0  501  0.00000000000E+00  0.00000000000E+00  0.16443625028E+04  0.16443625028E+04  0.50400001928E-02 0. -1.
        1   -1    0    0  501    0  0.00000000000E+00  0.00000000000E+00 -0.19100047963E+04  0.19100047963E+04  0.50400001928E-02 0.  1.
    10030    2    1    2    0    0  0.00000000000E+00  0.00000000000E+00 -0.26564229352E+03  0.35543672991E+04  0.35444267617E+04 0.  0.
        5    1    3    3  502    0 -0.14276084282E+04 -0.10109905554E+04  0.15178893718E+03  0.17559127822E+04  0.46999998093E+01 0. -1.
       -5    1    3    3    0  502  0.14276084282E+04  0.10109905554E+04 -0.41743123070E+03  0.17984545169E+04  0.46999998093E+01 0.  1.
</event>
<event>
 5   0  0.1379425E-06  0.3594870E+04  0.7818609E-02  0.8091668E-01
       -2   -1    0    0    0  501  0.00000000000E+00  0.00000000000E+00  0.16300772068E+04  0.16300772068E+04  0.25500000920E-02 0. -1.
        2   -1    0    0  501    0  0.00000000000E+00  0.00000000000E+00 -0.19819750795E+04  0.19819750795E+04  0.25500000920E-02 0.  1.
    10030    2    1    2    0    0  0.00000000000E+00  0.00000000000E+00 -0.35189787266E+03  0.36120522863E+04  0.35948699011E+04 0.  0.
        4    1    3    3  502    0 -0.11348143141E+04 -0.18385515116E+03 -0.15642783685E+04  0.19412817084E+04  0.12699999809E+01 0.  1.
       -4    1    3    3    0  502  0.11348143141E+04  0.18385515116E+03  0.12123804959E+04  0.16707705779E+04  0.12699999809E+01 0. -1.
</event>
<event>
 5   0  0.1505671E-06  0.2764880E+04  0.7818609E-02  0.8314255E-01
       -2   -1    0    0    0  501  0.00000000000E+00  0.00000000000E+00  0.84701597755E+03  0.84701597755E+03  0.25500000920E-02 0.  1.
        2   -1    0    0  501    0  0.00000000000E+00  0.00000000000E+00 -0.22563212411E+04  0.22563212411E+04  0.25500000920E-02 0. -1.
    10030    2    1    2    0    0  0.00000000000E+00  0.00000000000E+00 -0.14093052636E+04  0.31033372187E+04  0.27648798467E+04 0.  0.
        3    1    3    3  502    0  0.74452233705E+03 -0.97131171915E+03 -0.14263041413E+04  0.18793891241E+04  0.10100000352E+00 0. -1.
       -3    1    3    3    0  502 -0.74452233705E+03  0.97131171915E+03  0.16998877739E+02  0.12239480946E+04  0.10100000352E+00 0.  1.
</event>
<event>
 5   0  0.4811500E-07  0.3457431E+04  0.7818609E-02  0.8123953E-01
        1   -1    0    0  501    0  0.00000000000E+00  0.00000000000E+00  0.11643733801E+04  0.11643733801E+04  0.50400001928E-02 0. -1.
       -1   -1    0    0    0  501  0.00000000000E+00  0.00000000000E+00 -0.25665806032E+04  0.25665806032E+04  0.50400001928E-02 0.  1.
    10030    2    1    2    0    0  0.00000000000E+00  0.00000000000E+00 -0.14022072231E+04  0.37309539833E+04  0.34574314930E+04 0.  0.
        4    1    3    3  502    0  0.11249892892E+04  0.91061794414E+03  0.31900242972E+03  0.14820897760E+04  0.12699999809E+01 0. -1.
       -4    1    3    3    0  502 -0.11249892892E+04 -0.91061794414E+03 -0.17212096528E+04  0.22488642073E+04  0.12699999809E+01 0.  1.
</event>
<event>
 5   0  0.1491854E-06  0.3687041E+04  0.7818609E-02  0.8070840E-01
        2   -1    0    0  501    0  0.00000000000E+00  0.00000000000E+00  0.19678770718E+04  0.19678770718E+04  0.25500000920E-02 0.  1.
       -2   -1    0    0    0  501  0.00000000000E+00  0.00000000000E+00 -0.17270223755E+04  0.17270223755E+04  0.25500000920E-02 0. -1.
    10030    2    1    2    0    0  0.00000000000E+00  0.00000000000E+00  0.24085469630E+03  0.36948994473E+04  0.36870409465E+04 0.  0.
        5    1    3    3  502    0  0.14358549476E+04  0.11480716518E+04 -0.16969568951E+02  0.18384934061E+04  0.46999998093E+01 0.  1.
       -5    1    3    3    0  502 -0.14358549476E+04 -0.11480716518E+04  0.25782426525E+03  0.18564060412E+04  0.46999998093E+01 0. -1.
</event>
<event>
 5   0  0.1491854E-06  0.3524786E+04  0.7818609E-02  0.8107941E-01
       -2   -1    0    0    0  501  0.00000000000E+00  0.00000000000E+00  0.15341510431E+04  0.15341510432E+04  0.25500000920E-02 0.  1.
        2   -1    0    0  501    0  0.00000000000E+00  0.00000000000E+00 -0.20245912753E+04  0.20245912753E+04  0.25500000920E-02 0. -1.
    10030    2    1    2    0    0  0.00000000000E+00  0.00000000000E+00 -0.49044023212E+03  0.35587423184E+04  0.35247858471E+04 0.  0.
        5    1    3    3  502    0  0.29541543971E+03  0.16294079611E+04  0.36372050130E+03  0.16954513496E+04  0.46999998093E+01 0.  1.
       -5    1    3    3    0  502 -0.29541543971E+03 -0.16294079611E+04 -0.85416073343E+03  0.18632909688E+04  0.46999998093E+01 0. -1.
</event>
<event>
 5   0  0.4811500E-07  0.3708778E+04  0.7818609E-02  0.8066019E-01
        1   -1    0    0  501    0  0.00000000000E+00  0.00000000000E+00  0.22754336043E+04  0.22754336043E+04  0.50400001928E-02 0. -1.
       -1   -1    0    0    0  501  0.00000000000E+00  0.00000000000E+00 -0.15112545012E+04  0.15112545012E+04  0.50400001928E-02 0.  1.
    10030    2    1    2    0    0  0.00000000000E+00  0.00000000000E+00  0.76417910311E+03  0.37866881055E+04  0.37087783846E+04 0.  0.
        3    1    3    3  502    0 -0.16913043476E+03 -0.57546570459E+03  0.21736564524E+04  0.22548942912E+04  0.10100000352E+00 0. -1.
       -3    1    3    3    0  502  0.16913043476E+03  0.57546570459E+03 -0.14094773493E+04  0.15317938143E+04  0.10100000352E+00 0.  1.
</event>
<event>
 5   0  0.1444091E-06  0.3620924E+04  0.7818609E-02  0.8085716E-01
        2   -1    0    0  501    0  0.00000000000E+00  0.00000000000E+00  0.15300892502E+04  0.15300892502E+04  0.25500000920E-02 0. -1.
       -2   -1    0    0    0  501  0.00000000000E+00  0.00000000000E+00 -0.21422096638E+04  0.21422096638E+04  0.25500000920E-02 0.  1.
    10030    2    1    2    0    0  0.00000000000E+00  0.00000000000E+00 -0.61212041363E+03  0.36722989140E+04  0.36209236270E+04 0.  0.
        1    1    3    3  502    0 -0.61667726349E+03  0.13549251599E+04 -0.13510478873E+04  0.20103341588E+04  0.50400001928E-02 0.  1.
       -1    1    3    3    0  502  0.61667726349E+03 -0.13549251599E+04  0.73892747367E+03  0.16619647552E+04  0.50400001928E-02 0. -1.
</event>
<event>
 5   0  0.5071661E-07  0.3224113E+04  0.7818609E-02  0.8182478E-01
       -1   -1    0    0    0  501  0.00000000000E+00  0.00000000000E+00  0.11650447968E+04  0.11650447968E+04  0.50400001928E-02 0.  1.
        1   -1    0    0  501    0  0.00000000000E+00  0.00000000000E+00 -0.22305799904E+04  0.22305799904E+04  0.50400001928E-02 0. -1.
    10030    2    1    2    0    0  0.00000000000E+00  0.00000000000E+00 -0.10655351936E+04  0.33956247872E+04  0.32241126604E+04 0.  0.
        1    1    3    3  502    0 -0.23904832074E+02 -0.39575764974E+03 -0.21784291514E+04  0.22142152394E+04  0.50400001928E-02 0. -1.
       -1    1    3    3    0  502  0.23904832074E+02  0.39575764974E+03  0.11128939579E+04  0.11814095479E+04  0.50400001928E-02 0.  1.
</event>
<event>
 5   0  0.1444091E-06  0.3613049E+04  0.7818609E-02  0.8087509E-01
       -2   -1    0    0    0  501  0.00000000000E+00  0.00000000000E+00  0.18840013116E+04  0.18840013117E+04  0.25500000920E-02 0. -1.
        2   -1    0    0  501    0  0.00000000000E+00  0.00000000000E+00 -0.17322336150E+04  0.17322336150E+04  0.25500000920E-02 0.  1.
    10030    2    1    2    0    0  0.00000000000E+00  0.00000000000E+00  0.15176769667E+03  0.36162349266E+04  0.36130487972E+04 0.  0.
        1    1    3    3  502    0 -0.54532848005E+03  0.17152664731E+04  0.23096621079E+03  0.18146260263E+04  0.50400001928E-02 0.  1.
       -1    1    3    3    0  502  0.54532848005E+03 -0.17152664731E+04 -0.79198514121E+02  0.18016089003E+04  0.50400001928E-02 0. -1.
</event>
<event>
 5   0  0.1444091E-06  0.2437818E+04  0.7818609E-02  0.8425479E-01
       -2   -1    0    0    0  501  0.00000000000E+00  0.00000000000E+00  0.11865399326E+04  0.11865399326E+04  0.25500000920E-02 0. -1.
        2   -1    0    0  501    0  0.00000000000E+00  0.00000000000E+00 -0.12521613034E+04  0.12521613034E+04  0.25500000920E-02 0.  1.
    10030    2    1    2    0    0  0.00000000000E+00  0.00000000000E+00 -0.65621370780E+02  0.24387012361E+04  0.24378181955E+04 0.  0.
        1    1    3    3  502    0 -0.97842941821E+03 -0.24561184072E+03  0.65160823300E+03  0.12009340498E+04  0.50400001928E-02 0. -1.
       -1    1    3    3    0  502  0.97842941821E+03  0.24561184072E+03 -0.71722960378E+03  0.12377671862E+04  0.50400001928E-02 0.  1.
</event>
<event>
 5   0  0.1491854E-06  0.3623410E+04  0.7818609E-02  0.8085150E-01
       -2   -1    0    0    0  501  0.00000000000E+00  0.00000000000E+00  0.12709511861E+04  0.12709511861E+04  0.25500000920E-02 0.  1.
        2   -1    0    0  501    0  0.00000000000E+00  0.00000000000E+00 -0.25825336098E+04  0.25825336098E+04  0.25500000920E-02 0. -1.
    10030    2    1    2    0    0  0.00000000000E+00  0.00000000000E+00 -0.13115824237E+04  0.38534847960E+04  0.36234095295E+04 0.  0.
        5    1    3    3  502    0 -0.13876704527E+04 -0.92812345966E+03 -0.14041860188E+04  0.21814680623E+04  0.46999998093E+01 0.  1.
       -5    1    3    3    0  502  0.13876704527E+04  0.92812345966E+03  0.92603595061E+02  0.16720167336E+04  0.46999998093E+01 0. -1.
</event>
<event>
 5   0  0.1505671E-06  0.3811268E+04  0.7818609E-02  0.8043741E-01
        2   -1    0    0  501    0  0.00000000000E+00  0.00000000000E+00  0.16199177801E+04  0.16199177801E+04  0.25500000920E-02 0. -1.
       -2   -1    0    0    0  501  0.00000000000E+00  0.00000000000E+00 -0.22417435071E+04  0.22417435071E+04  0.25500000920E-02 0.  1.
    10030    2    1    2    0    0  0.00000000000E+00  0.00000000000E+00 -0.62182572702E+03  0.38616612872E+04  0.38112675925E+04 0.  0.
        3    1    3    3  502    0 -0.79622049872E+03  0.11228197889E+04 -0.16461956161E+04  0.21458451430E+04  0.10100000352E+00 0.  1.
       -3    1    3    3    0  502  0.79622049872E+03 -0.11228197889E+04  0.10243698891E+04  0.17158161442E+04  0.10100000352E+00 0. -1.
</event>
<event>
 5   0  0.4811500E-07  0.3577425E+04  0.7818609E-02  0.8095682E-01
        1   -1    0    0  501    0  0.00000000000E+00  0.00000000000E+00  0.17322084115E+04  0.17322084115E+04  0.50400001928E-02 0.  1.
       -1   -1    0    0    0  501  0.00000000000E+00  0.00000000000E+00 -0.18470595693E+04  0.18470595693E+04  0.50400001928E-02 0. -1.
    10030    2    1    2    0    0  0.00000000000E+00  0.00000000000E+00 -0.11485115776E+03  0.35792679808E+04  0.35774248406E+04 0.  0.
        2    1    3    3  502    0  0.13736605520E+04 -0.53135603937E+03 -0.10729409163E+04  0.18222197350E+04  0.25500000920E-02 0.  1.
       -2    1    3    3    0  502 -0.13736605520E+04  0.53135603937E+03  0.95808975857E+03  0.17570482458E+04  0.25500000920E-02 0. -1.
</event>
<event>
 5   0  0.4811500E-07  0.3579496E+04  0.7818609E-02  0.8095205E-01
        1   -1    0    0  501    0  0.00000000000E+00  0.00000000000E+00  0.25793189244E+04  0.25793189244E+04  0.50400001928E-02 0.  1.
       -1   -1    0    0    0  501  0.00000000000E+00  0.00000000000E+00 -0.12418773276E+04  0.12418773276E+04  0.50400001928E-02 0. -1.
    10030    2    1    2    0    0  0.00000000000E+00  0.00000000000E+00  0.13374415968E+04  0.38211962520E+04  0.35794958823E+04 0.  0.
        3    1    3    3  502    0 -0.14049386120E+04 -0.16869149671E+03  0.18385670646E+04  0.23200513325E+04  0.10100000352E+00 0.  1.
       -3    1    3    3    0  502  0.14049386120E+04  0.16869149671E+03 -0.50112546774E+03  0.15011449194E+04  0.10100000352E+00 0. -1.
</event>
<event>
 5   0  0.4811500E-07  0.3114473E+04  0.7818609E-02  0.8211777E-01
       -3   -1    0    0    0  501  0.00000000000E+00  0.00000000000E+00  0.23608586687E+04  0.23608586709E+04  0.10100000352E+00 0.  1.
        3   -1    0    0  501    0  0.00000000000E+00  0.00000000000E+00 -0.10271627656E+04  0.10271627705E+04  0.10100000352E+00 0. -1.
    10030    2    1    2    0    0  0.00000000000E+00  0.00000000000E+00  0.13336959031E+04  0.33880214414E+04  0.31144733945E+04 0.  0.
        2    1    3    3  502    0  0.13047580975E+04 -0.57759882336E+03  0.13453024334E+04  0.19610845803E+04  0.25500000920E-02 0. -1.
       -2    1    3    3    0  502 -0.13047580975E+04  0.57759882336E+03 -0.11606530295E+02  0.14269368610E+04  0.25500000920E-02 0.  1.
</event>
<event>
 5   0  0.4811500E-07  0.3473039E+04  0.7818609E-02  0.8120209E-01
       -1   -1    0    0    0  501  0.00000000000E+00  0.00000000000E+00  0.18961744212E+04  0.18961744212E+04  0.50400001928E-02 0.  1.
        1   -1    0    0  501    0  0.00000000000E+00  0.00000000000E+00 -0.15903070988E+04  0.15903070988E+04  0.50400001928E-02 0. -1.
    10030    2    1    2    0    0  0.00000000000E+00  0.00000000000E+00  0.30586732237E+03  0.34864815200E+04  0.34730388093E+04 0.  0.
        2    1    3    3  502    0  0.12198200613E+04 -0.95446175955E+03 -0.63530704155E+03  0.16740887878E+04  0.25500000920E-02 0. -1.
       -2    1    3    3    0  502 -0.12198200613E+04  0.95446175955E+03  0.94117436393E+03  0.18123927322E+04  0.25500000920E-02 0.  1.
</event>
<event>
 5   0  0.5071661E-07  0.2217309E+04  0.7818609E-02  0.8511258E-01
       -1   -1    0    0    0  501  0.00000000000E+00  0.00000000000E+00  0.53800074361E+03  0.53800074363E+03  0.50400001928E-02 0.  1.
        1   -1    0    0  501    0  0.00000000000E+00  0.00000000000E+00 -0.22845964931E+04  0.22845964931E+04  0.50400001928E-02 0. -1.
    10030    2    1    2    0    0  0.00000000000E+00  0.00000000000E+00 -0.17465957495E+04  0.28225972368E+04  0.22173088303E+04 0.  0.
        1    1    3    3  502    0 -0.26528435052E+03 -0.83193747617E+03 -0.17428665172E+04  0.19493792468E+04  0.50400001928E-02 0. -1.
       -1    1    3    3    0  502  0.26528435052E+03  0.83193747617E+03 -0.37292323318E+01  0.87321799002E+03  0.50400001928E-02 0.  1.
</event>
<event>
 5   0  0.1379425E-06  0.3697472E+04  0.7818609E-02  0.8068522E-01
       -2   -1    0    0    0  501  0.00000000000E+00  0.00000000000E+00  0.13957732530E+04  0.13957732530E+04  0.25500000920E-02 0.  1.
        2   -1    0    0  501    0  0.00000000000E+00  0.00000000000E+00 -0.24486969467E+04  0.24486969467E+04  0.25500000920E-02 0. -1.
    10030    2    1    2    0    0  0.00000000000E+00  0.00000000000E+00 -0.10529236937E+04  0.38444701997E+04  0.36974724896E+04 0.  0.
        4    1    3    3  502    0 -0.75818088030E+03 -0.51333655955E+03 -0.21963866203E+04  0.23795941817E+04  0.12699999809E+01 0. -1.
       -4    1    3    3    0  502  0.75818088030E+03  0.51333655955E+03  0.11434629266E+04  0.14648760180E+04  0.12699999809E+01 0.  1.
</event>
<event>
 5   0  0.4811500E-07  0.3307080E+04  0.7818609E-02  0.8161096E-01
       -1   -1    0    0    0  501  0.00000000000E+00  0.00000000000E+00  0.95882289567E+03  0.95882289568E+03  0.50400001928E-02 0.  1.
        1   -1    0    0  501    0  0.00000000000E+00  0.00000000000E+00 -0.28516159385E+04  0.28516159385E+04  0.50400001928E-02 0. -1.
    10030    2    1    2    0    0  0.00000000000E+00  0.00000000000E+00 -0.18927930428E+04  0.38104388342E+04  0.33070800725E+04 0.  0.
        3    1    3    3  502    0 -0.24498821444E+03 -0.10464893949E+04  0.50146228610E+03  0.11860116835E+04  0.10100000352E+00 0.  1.
       -3    1    3    3    0  502  0.24498821444E+03  0.10464893949E+04 -0.23942553289E+04  0.26244271506E+04  0.10100000352E+00 0. -1.
</event>
<event>
 5   0  0.1468942E-06  0.3457426E+04  0.7818609E-02  0.8123954E-01
       -2   -1    0    0    0  501  0.00000000000E+00  0.00000000000E+00  0.15568766954E+04  0.15568766954E+04  0.25500000920E-02 0.  1.
        2   -1    0    0  501    0  0.00000000000E+00  0.00000000000E+00 -0.19195158449E+04  0.19195158449E+04  0.25500000920E-02 0. -1.
    10030    2    1    2    0    0  0.00000000000E+00  0.00000000000E+00 -0.36263914950E+03  0.34763925404E+04  0.34574264912E+04 0.  0.
        2    1    3    3  502    0  0.25775460019E+03 -0.14871692296E+04  0.66612032574E+03  0.16497957569E+04  0.25500000920E-02 0. -1.
       -2    1    3    3    0  502 -0.25775460019E+03  0.14871692296E+04 -0.10287594752E+04  0.18265967834E+04  0.25500000920E-02 0.  1.
</event>
<event>
 5   0  0.4811500E-07  0.3172786E+04  0.7818609E-02  0.8196042E-01
        1   -1    0    0  501    0  0.00000000000E+00  0.00000000000E+00  0.12499935290E+04  0.12499935290E+04  0.50400001928E-02 0.  1.
       -1   -1    0    0    0  501  0.00000000000E+00  0.00000000000E+00 -0.20133245809E+04  0.20133245809E+04  0.50400001928E-02 0. -1.
    10030    2    1    2    0    0  0.00000000000E+00  0.00000000000E+00 -0.76333105189E+03  0.32633181100E+04  0.31727859669E+04 0.  0.
        5    1    3    3  502    0  0.15368245158E+04 -0.11336295577E+03  0.58336784715E+01  0.15410181290E+04  0.46999998093E+01 0.  1.
       -5    1    3    3    0  502 -0.15368245158E+04  0.11336295577E+03 -0.76916473036E+03  0.17222999810E+04  0.46999998093E+01 0. -1.
</event>
<event>
 5   0  0.1379425E-06  0.2825438E+04  0.7818609E-02  0.8295414E-01
       -2   -1    0    0    0  501  0.00000000000E+00  0.00000000000E+00  0.83914378926E+03  0.83914378926E+03  0.25500000920E-02 0.  1.
        2   -1    0    0  501    0  0.00000000000E+00  0.00000000000E+00 -0.23783470464E+04  0.23783470464E+04  0.25500000920E-02 0. -1.
    10030    2    1    2    0    0  0.00000000000E+00  0.00000000000E+00 -0.15392032572E+04  0.32174908357E+04  0.28254381272E+04 0.  0.
        4    1    3    3  502    0  0.11066210543E+04 -0.63261675469E+03 -0.14631786899E+04  0.19405431218E+04  0.12699999809E+01 0. -1.
       -4    1    3    3    0  502 -0.11066210543E+04  0.63261675469E+03 -0.76024567243E+02  0.12769477138E+04  0.12699999809E+01 0.  1.
</event>
<event>
 5   0  0.1444091E-06  0.3563985E+04  0.7818609E-02  0.8098792E-01
        2   -1    0    0  501    0  0.00000000000E+00  0.00000000000E+00  0.23188479113E+04  0.23188479113E+04  0.25500000920E-02 0. -1.
       -2   -1    0    0    0  501  0.00000000000E+00  0.00000000000E+00 -0.13694289306E+04  0.13694289306E+04  0.25500000920E-02 0.  1.
    10030    2    1    2    0    0  0.00000000000E+00  0.00000000000E+00  0.94941898070E+03  0.36882768418E+04  0.35639850815E+04 0.  0.
        1    1    3    3  502    0  0.60871475036E+02  0.47307420852E+03 -0.13021408460E+04  0.13867499147E+04  0.50400001928E-02 0.  1.
       -1    1    3    3    0  502 -0.60871475036E+02 -0.47307420852E+03  0.22515598267E+04  0.23015269271E+04  0.50400001928E-02 0. -1.
</event>
<event>
 5   0  0.1444091E-06  0.2877447E+04  0.7818609E-02  0.8279619E-01
        2   -1    0    0  501    0  0.00000000000E+00  0.00000000000E+00  0.21169918142E+04  0.21169918142E+04  0.25500000920E-02 0.  1.
       -2   -1    0    0    0  501  0.00000000000E+00  0.00000000000E+00 -0.97776735903E+03  0.97776735904E+03  0.25500000920E-02 0. -1.
    10030    2    1    2    0    0  0.00000000000E+00  0.00000000000E+00  0.11392244551E+04  0.30947591732E+04  0.28774471291E+04 0.  0.
        1    1    3    3  502    0 -0.10744968290E+04 -0.86825372297E+03  0.13736786115E+03  0.13882643452E+04  0.50400001928E-02 0. -1.
       -1    1    3    3    0  502  0.10744968290E+04  0.86825372297E+03  0.10018565940E+04  0.17064948280E+04  0.50400001928E-02 0.  1.
</event>
<event>
 5   0  0.4811500E-07  0.2776234E+04  0.7818609E-02  0.8310685E-01
       -1   -1    0    0    0  501  0.00000000000E+00  0.00000000000E+00  0.13634252675E+04  0.13634252675E+04  0.50400001928E-02 0. -1.
        1   -1    0    0  501    0  0.00000000000E+00  0.00000000000E+00 -0.14132560557E+04  0.14132560557E+04  0.50400001928E-02 0.  1.
    10030    2    1    2    0    0  0.00000000000E+00  0.00000000000E+00 -0.49830788253E+02  0.27766813232E+04  0.27762341514E+04 0.  0.
        4    1    3    3  502    0 -0.29383748867E+03  0.73053025766E+03 -0.11682760121E+04  0.14088596028E+04  0.12699999809E+01 0.  1.
       -4    1    3    3    0  502  0.29383748867E+03 -0.73053025766E+03  0.11184452239E+04  0.13678217204E+04  0.12699999809E+01 0. -1.
</event>
<event>
 5   0  0.1379425E-06  0.3362303E+04  0.7818609E-02  0.8147221E-01
       -2   -1    0    0    0  501  0.00000000000E+00  0.00000000000E+00  0.10982114716E+04  0.10982114716E+04  0.25500000920E-02 0. -1.
        2   -1    0    0  501    0  0.00000000000E+00  0.00000000000E+00 -0.25735210558E+04  0.25735210559E+04  0.25500000920E-02 0.  1.
    10030    2    1    2    0    0  0.00000000000E+00  0.00000000000E+00 -0.14753095842E+04  0.36717325275E+04  0.33623029881E+04 0.  0.
        4    1    3    3  502    0 -0.67951034366E+03  0.15732814584E+03  0.93275071891E+03  0.11646939380E+04  0.12699999809E+01 0. -1.
       -4    1    3    3    0  502  0.67951034366E+03 -0.15732814584E+03 -0.24080603032E+04  0.25070385895E+04  0.12699999809E+01 0.  1.
</event>
<event>
 5   0  0.1379425E-06  0.3625361E+04  0.7818609E-02  0.8084707E-01
        2   -1    0    0  501    0  0.00000000000E+00  0.00000000000E+00  0.25877938498E+04  0.25877938498E+04  0.25500000920E-02 0.  1.
       -2   -1    0    0    0  501  0.00000000000E+00  0.00000000000E+00 -0.12697341870E+04  0.12697341870E+04  0.25500000920E-02 0. -1.
    10030    2    1    2    0    0  0.00000000000E+00  0.00000000000E+00  0.13180596628E+04  0.38575280369E+04  0.36253608483E+04 0.  0.
        4    1    3    3  502    0 -0.13723568393E+04 -0.10623025822E+04  0.10210016938E+03  0.17384694786E+04  0.12699999809E+01 0. -1.
       -4    1    3    3    0  502  0.13723568393E+04  0.10623025822E+04  0.12159594934E+04  0.21190585582E+04  0.12699999809E+01 0.  1.
</event>
<event>
 5   0  0.4811500E-07  0.3603940E+04  0.7818609E-02  0.8089590E-01
       -4   -1    0    0    0  501  0.00000000000E+00  0.00000000000E+00  0.13854650348E+04  0.13854656169E+04  0.12699999809E+01 0. -1.
        4   -1    0    0  501    0  0.00000000000E+00  0.00000000000E+00 -0.23436847921E+04  0.23436851362E+04  0.12699999809E+01 0.  1.
    10030    2    1    2    0    0  0.00000000000E+00  0.00000000000E+00 -0.95821975724E+03  0.37291507530E+04  0.36039395439E+04 0.  0.
        2    1    3    3  502    0  0.78315384740E+03  0.58725735317E+03 -0.20445817739E+04  0.22668294550E+04  0.25500000920E-02 0.  1.
       -2    1    3    3    0  502 -0.78315384740E+03 -0.58725735317E+03  0.10863620167E+04  0.14623212981E+04  0.25500000920E-02 0. -1.
</event>
<event>
 5   0  0.1379425E-06  0.3598196E+04  0.7818609E-02  0.8090905E-01
       -2   -1    0    0    0  501  0.00000000000E+00  0.00000000000E+00  0.15137696871E+04  0.15137696872E+04  0.25500000920E-02 0.  1.
        2   -1    0    0  501    0  0.00000000000E+00  0.00000000000E+00 -0.21382073095E+04  0.21382073095E+04  0.25500000920E-02 0. -1.
    10030    2    1    2    0    0  0.00000000000E+00  0.00000000000E+00 -0.62443762236E+03  0.36519769967E+04  0.35981958868E+04 0.  0.
        4    1    3    3  502    0  0.84602773169E+03  0.22913101256E+03  0.12824067736E+04  0.15533295496E+04  0.12699999809E+01 0.  1.
       -4    1    3    3    0  502 -0.84602773169E+03 -0.22913101256E+03 -0.19068443960E+04  0.20986474471E+04  0.12699999809E+01 0. -1.
</event>
<event>
 5   0  0.4811500E-07  0.2340586E+04  0.7818609E-02  0.8462088E-01
       -1   -1    0    0    0  501  0.00000000000E+00  0.00000000000E+00  0.11956526637E+04  0.11956526637E+04  0.50400001928E-02 0. -1.
        1   -1    0    0  501    0  0.00000000000E+00  0.00000000000E+00 -0.11454709969E+04  0.11454709969E+04  0.50400001928E-02 0.  1.
    10030    2    1    2    0    0  0.00000000000E+00  0.00000000000E+00  0.50181666789E+02  0.23411236606E+04  0.23405857802E+04 0.  0.
        3    1    3    3  502    0  0.11235383589E+04  0.17170394914E+03  0.30401823273E+03  0.11765406011E+04  0.10100000352E+00 0.  1.
       -3    1    3    3    0  502 -0.11235383589E+04 -0.17170394914E+03 -0.25383656594E+03  0.11645830595E+04  0.10100000352E+00 0. -1.
</event>
<event>
 5   0  0.4811500E-07  0.3609293E+04  0.7818609E-02  0.8088366E-01
       -1   -1    0    0    0  501  0.00000000000E+00  0.00000000000E+00  0.34048348836E+04  0.34048348836E+04  0.50400001928E-02 0.  1.
        1   -1    0    0  501    0  0.00000000000E+00  0.00000000000E+00 -0.95650705940E+03  0.95650705941E+03  0.50400001928E-02 0. -1.
    10030    2    1    2    0    0  0.00000000000E+00  0.00000000000E+00  0.24483278242E+04  0.43613419430E+04  0.36092927852E+04 0.  0.
        5    1    3    3  502    0 -0.26088227261E+03  0.73386425885E+03 -0.74295218222E+03  0.10763904244E+04  0.46999998093E+01 0. -1.
       -5    1    3    3    0  502  0.26088227261E+03 -0.73386425885E+03  0.31912800064E+04  0.32849515187E+04  0.46999998093E+01 0.  1.
</event>
<event>
 5   0  0.4811500E-07  0.3241165E+04  0.7818609E-02  0.8178030E-01
       -1   -1    0    0    0  501  0.00000000000E+00  0.00000000000E+00  0.12251764698E+04  0.12251764698E+04  0.50400001928E-02 0.  1.
        1   -1    0    0  501    0  0.00000000000E+00  0.00000000000E+00 -0.21435988410E+04  0.21435988410E+04  0.50400001928E-02 0. -1.
    10030    2    1    2    0    0  0.00000000000E+00  0.00000000000E+00 -0.91842237120E+03  0.33687753108E+04  0.32411645195E+04 0.  0.
        3    1    3    3  502    0  0.31867843165E+03  0.12084951029E+04 -0.15314634705E+04  0.19767136182E+04  0.10100000352E+00 0. -1.
       -3    1    3    3    0  502 -0.31867843165E+03 -0.12084951029E+04  0.61304109930E+03  0.13920616926E+04  0.10100000352E+00 0.  1.
</event>
<event>
 5   0  0.4811500E-07  0.3537100E+04  0.7818609E-02  0.8105054E-01
        1   -1    0    0  501    0  0.00000000000E+00  0.00000000000E+00  0.23392809914E+04  0.23392809914E+04  0.50400001928E-02 0. -1.
       -1   -1    0    0    0  501  0.00000000000E+00  0.00000000000E+00 -0.13370639663E+04  0.13370639663E+04  0.50400001928E-02 0.  1.
    10030    2    1    2    0    0  0.00000000000E+00  0.00000000000E+00  0.10022170251E+04  0.36763449578E+04  0.35370995580E+04 0.  0.
        2    1    3    3  502    0 -0.16614281093E+04  0.25539180473E+02  0.11305675563E+04  0.20097707858E+04  0.25500000920E-02 0.  1.
       -2    1    3    3    0  502  0.16614281093E+04 -0.25539180473E+02 -0.12835053117E+03  0.16665741720E+04  0.25500000920E-02 0. -1.
</event>
<event>
 5   0  0.1444091E-06  0.3193126E+04  0.7818609E-02  0.8190635E-01
       -2   -1    0    0    0  501  0.00000000000E+00  0.00000000000E+00  0.10521420978E+04  0.10521420978E+04  0.25500000920E-02 0.  1.
        2   -1    0    0  501    0  0.00000000000E+00  0.00000000000E+00 -0.24226893530E+04  0.24226893530E+04  0.25500000920E-02 0. -1.
    10030    2    1    2    0    0  0.00000000000E+00  0.00000000000E+00 -0.13705472553E+04  0.34748314508E+04  0.31931260283E+04 0.  0.
        1    1    3    3  502    0  0.38049259235E+03 -0.29689144562E+03  0.97086163399E+03  0.10842008373E+04  0.50400001928E-02 0.  1.
       -1    1    3    3    0  502 -0.38049259235E+03  0.29689144562E+03 -0.23414088892E+04  0.23906306135E+04  0.50400001928E-02 0. -1.
</event>
<event>
 5   0  0.1491854E-06  0.2356834E+04  0.7818609E-02  0.8455843E-01
       -2   -1    0    0    0  501  0.00000000000E+00  0.00000000000E+00  0.77682566338E+03  0.77682566338E+03  0.25500000920E-02 0. -1.
        2   -1    0    0  501    0  0.00000000000E+00  0.00000000000E+00 -0.17876171378E+04  0.17876171378E+04  0.25500000920E-02 0.  1.
    10030    2    1    2    0    0  0.00000000000E+00  0.00000000000E+00 -0.10107914745E+04  0.25644428012E+04  0.23568342063E+04 0.  0.
        5    1    3    3  502    0 -0.89800924367E+03  0.61603605634E+03 -0.99530573741E+03  0.14753225496E+04  0.46999998093E+01 0.  1.
       -5    1    3    3    0  502  0.89800924367E+03 -0.61603605634E+03 -0.15485737042E+02  0.10891202516E+04  0.46999998093E+01 0. -1.
</event>
<event>
 5   0  0.1468942E-06  0.3563092E+04  0.7818609E-02  0.8098999E-01
        2   -1    0    0  501    0  0.00000000000E+00  0.00000000000E+00  0.14155336841E+04  0.14155336841E+04  0.25500000920E-02 0.  1.
       -2   -1    0    0    0  501  0.00000000000E+00  0.00000000000E+00 -0.22421971972E+04  0.22421971972E+04  0.25500000920E-02 0. -1.
    10030    2    1    2    0    0  0.00000000000E+00  0.00000000000E+00 -0.82666351312E+03  0.36577308814E+04  0.35630917244E+04 0.  0.
        2    1    3    3  502    0  0.92351483902E+03  0.34911844047E+03 -0.19356708990E+04  0.21729208850E+04  0.25500000920E-02 0. -1.
       -2    1    3    3    0  502 -0.92351483902E+03 -0.34911844047E+03  0.11090073859E+04  0.14848099963E+04  0.25500000920E-02 0.  1.
</event>
<event>
 5   0  0.4811500E-07  0.3648207E+04  0.7818609E-02  0.8079538E-01
       -1   -1    0    0    0  501  0.00000000000E+00  0.00000000000E+00  0.14451599815E+04  0.14451599815E+04  0.50400001928E-02 0. -1.
        1   -1    0    0  501    0  0.00000000000E+00  0.00000000000E+00 -0.23024116138E+04  0.23024116138E+04  0.50400001928E-02 0.  1.
    10030    2    1    2    0    0  0.00000000000E+00  0.00000000000E+00 -0.85725163228E+03  0.37475715952E+04  0.36482067513E+04 0.  0.
        2    1    3    3  502    0  0.13197088571E+04 -0.39288831145E+03  0.80035470540E+03  0.15926582644E+04  0.25500000920E-02 0. -1.
       -2    1    3    3    0  502 -0.13197088571E+04  0.39288831145E+03 -0.16576063377E+04  0.21549133308E+04  0.25500000920E-02 0.  1.
</event>
<event>
 5   0  0.1444091E-06  0.3741819E+04  0.7818609E-02  0.8058757E-01
       -2   -1    0    0    0  501  0.00000000000E+00  0.00000000000E+00  0.16293079472E+04  0.16293079472E+04  0.25500000920E-02 0. -1.
        2   -1    0    0  501    0  0.00000000000E+00  0.00000000000E+00 -0.21483365427E+04  0.21483365427E+04  0.25500000920E-02 0.  1.
    10030    2    1    2    0    0  0.00000000000E+00  0.00000000000E+00 -0.51902859544E+03  0.37776444899E+04  0.37418187034E+04 0.  0.
        1    1    3    3  502    0  0.10404878259E+04 -0.15480384210E+02  0.13101863796E+04  0.16731535816E+04  0.50400001928E-02 0. -1.
       -1    1    3    3    0  502 -0.10404878259E+04  0.15480384210E+02 -0.18292149751E+04  0.21044909083E+04  0.50400001928E-02 0.  1.
</event>
<event>
 5   0  0.4811500E-07  0.3586325E+04  0.7818609E-02  0.8093631E-01
       -3   -1    0    0    0  501  0.00000000000E+00  0.00000000000E+00  0.10741105377E+04  0.10741105425E+04  0.10100000352E+00 0. -1.
        3   -1    0    0  501    0  0.00000000000E+00  0.00000000000E+00 -0.29935766819E+04  0.29935766836E+04  0.10100000352E+00 0.  1.
    10030    2    1    2    0    0  0.00000000000E+00  0.00000000000E+00 -0.19194661441E+04  0.40676872260E+04  0.35863252906E+04 0.  0.
        4    1    3    3  502    0  0.13298373165E+03  0.36568301474E+02 -0.29875513250E+04  0.29907334294E+04  0.12699999809E+01 0.  1.
       -4    1    3    3    0  502 -0.13298373165E+03 -0.36568301474E+02  0.10680851808E+04  0.10769537966E+04  0.12699999809E+01 0. -1.
</event>
<event>
 5   0  0.1491854E-06  0.3644624E+04  0.7818609E-02  0.8080346E-01
       -2   -1    0    0    0  501  0.00000000000E+00  0.00000000000E+00  0.22740433023E+04  0.22740433023E+04  0.25500000920E-02 0. -1.
        2   -1    0    0  501    0  0.00000000000E+00  0.00000000000E+00 -0.14603153960E+04  0.14603153960E+04  0.25500000920E-02 0.  1.
    10030    2    1    2    0    0  0.00000000000E+00  0.00000000000E+00  0.81372790639E+03  0.37343586983E+04  0.36446236818E+04 0.  0.
        5    1    3    3  502    0 -0.87933428194E+03  0.32222775058E+03 -0.11948713036E+04  0.15181564560E+04  0.46999998093E+01 0.  1.
       -5    1    3    3    0  502  0.87933428194E+03 -0.32222775058E+03  0.20085992100E+04  0.22162022423E+04  0.46999998093E+01 0. -1.
</event>
<event>
 5   0  0.5071661E-07  0.3564076E+04  0.7818609E-02  0.8098770E-01
       -1   -1    0    0    0  501  0.00000000000E+00  0.00000000000E+00  0.17129658989E+04  0.17129658989E+04  0.50400001928E-02 0. -1.
        1   -1    0    0  501    0  0.00000000000E+00  0.00000000000E+00 -0.18538954190E+04  0.18538954190E+04  0.50400001928E-02 0.  1.
    10030    2    1    2    0    0  0.00000000000E+00  0.00000000000E+00 -0.14092952011E+03  0.35668613180E+04  0.35640761120E+04 0.  0.
        1    1    3    3  502    0  0.55585351365E+03  0.13866174226E+04  0.90188012699E+03  0.17450125412E+04  0.50400001928E-02 0. -1.
       -1    1    3    3    0  502 -0.55585351365E+03 -0.13866174226E+04 -0.10428096471E+04  0.18218487768E+04  0.50400001928E-02 0.  1.
</event>
<event>
 5   0  0.4811500E-07  0.3834011E+04  0.7818609E-02  0.8038895E-01
        1   -1    0    0  501    0  0.00000000000E+00  0.00000000000E+00  0.16043797588E+04  0.16043797588E+04  0.50400001928E-02 0. -1.
       -1   -1    0    0    0  501  0.00000000000E+00  0.00000000000E+00 -0.22905482259E+04  0.22905482260E+04  0.50400001928E-02 0.  1.
    10030    2    1    2    0    0  0.00000000000E+00  0.00000000000E+00 -0.68616846718E+03  0.38949279847E+04  0.38340105426E+04 0.  0.
        3    1    3    3  502    0 -0.51730977542E+03 -0.10555692716E+04  0.11952655652E+04  0.16764533016E+04  0.10100000352E+00 0. -1.
       -3    1    3    3    0  502  0.51730977542E+03  0.10555692716E+04 -0.18814340324E+04  0.22184746831E+04  0.10100000352E+00 0.  1.
</event>
<event>
 5   0  0.4811500E-07  0.3530673E+04  0.7818609E-02  0.8106559E-01
       -1   -1    0    0    0  501  0.00000000000E+00  0.00000000000E+00  0.14885910877E+04  0.14885910877E+04  0.50400001928E-02 0. -1.
        1   -1    0    0  501    0  0.00000000000E+00  0.00000000000E+00 -0.20935317462E+04  0.20935317462E+04  0.50400001928E-02 0.  1.
    10030    2    1    2    0    0  0.00000000000E+00  0.00000000000E+00 -0.60494065855E+03  0.35821228339E+04  0.35306728532E+04 0.  0.
        2    1    3    3  502    0  0.53709316404E+03 -0.16785710907E+04 -0.19928914709E+03  0.17736364164E+04  0.25500000920E-02 0. -1.
       -2    1    3    3    0  502 -0.53709316404E+03  0.16785710907E+04 -0.40565151147E+03  0.18084864175E+04  0.25500000920E-02 0.  1.
</event>
<event>
 5   0  0.4811500E-07  0.3408558E+04  0.7818609E-02  0.8135809E-01
       -1   -1    0    0    0  501  0.00000000000E+00  0.00000000000E+00  0.19321632523E+04  0.19321632523E+04  0.50400001928E-02 0.  1.
        1   -1    0    0  501    0  0.00000000000E+00  0.00000000000E+00 -0.15032723045E+04  0.15032723045E+04  0.50400001928E-02 0. -1.
    10030    2    1    2    0    0  0.00000000000E+00  0.00000000000E+00  0.42889094784E+03  0.34354355568E+04  0.34085583492E+04 0.  0.
        3    1    3    3  502    0 -0.10428573135E+04  0.12563124165E+04  0.70686236765E+03  0.17791927049E+04  0.10100000352E+00 0.  1.
       -3    1    3    3    0  502  0.10428573135E+04 -0.12563124165E+04 -0.27797141981E+03  0.16562428519E+04  0.10100000352E+00 0. -1.
</event>
<event>
 5   0  0.4811500E-07  0.2450829E+04  0.7818609E-02  0.8420715E-01
       -1   -1    0    0    0  501  0.00000000000E+00  0.00000000000E+00  0.17452985743E+04  0.17452985743E+04  0.50400001928E-02 0.  1.
        1   -1    0    0  501    0  0.00000000000E+00  0.00000000000E+00 -0.86039210821E+03  0.86039210823E+03  0.50400001928E-02 0. -1.
    10030    2    1    2    0    0  0.00000000000E+00  0.00000000000E+00  0.88490646605E+03  0.26056906825E+04  0.24508293452E+04 0.  0.
        4    1    3    3  502    0  0.87727552149E+03  0.84343283481E+03  0.59522781072E+03  0.13547284034E+04  0.12699999809E+01 0.  1.
       -4    1    3    3    0  502 -0.87727552149E+03 -0.84343283481E+03  0.28967865533E+03  0.12509622791E+04  0.12699999809E+01 0. -1.
</event>
<event>
 5   0  0.4811500E-07  0.3556396E+04  0.7818609E-02  0.8100553E-01
       -1   -1    0    0    0  501  0.00000000000E+00  0.00000000000E+00  0.14267256748E+04  0.14267256748E+04  0.50400001928E-02 0.  1.
        1   -1    0    0  501    0  0.00000000000E+00  0.00000000000E+00 -0.22162550148E+04  0.22162550148E+04  0.50400001928E-02 0. -1.
    10030    2    1    2    0    0  0.00000000000E+00  0.00000000000E+00 -0.78952933993E+03  0.36429806896E+04  0.35563958900E+04 0.  0.
        2    1    3    3  502    0  0.56704942319E+03  0.12434519934E+04  0.77059293801E+03  0.15689268257E+04  0.25500000920E-02 0.  1.
       -2    1    3    3    0  502 -0.56704942319E+03 -0.12434519934E+04 -0.15601222779E+04  0.20740538639E+04  0.25500000920E-02 0. -1.
</event>
<event>
 5   0  0.1468942E-06  0.3508843E+04  0.7818609E-02  0.8111697E-01
        2   -1    0    0  501    0  0.00000000000E+00  0.00000000000E+00  0.21844806242E+04  0.21844806242E+04  0.25500000920E-02 0.  1.
       -2   -1    0    0    0  501  0.00000000000E+00  0.00000000000E+00 -0.14090282536E+04  0.14090282536E+04  0.25500000920E-02 0. -1.
    10030    2    1    2    0    0  0.00000000000E+00  0.00000000000E+00  0.77545237055E+03  0.35935088778E+04  0.35088430680E+04 0.  0.
        2    1    3    3  502    0 -0.35675830603E+03  0.12182586328E+04  0.16279650504E+04  0.20643887208E+04  0.25500000920E-02 0. -1.
       -2    1    3    3    0  502  0.35675830603E+03 -0.12182586328E+04 -0.85251267980E+03  0.15291201570E+04  0.25500000920E-02 0.  1.
</event>
<event>
 5   0  0.4811500E-07  0.3563460E+04  0.7818609E-02  0.8098913E-01
       -1   -1    0    0    0  501  0.00000000000E+00  0.00000000000E+00  0.16184766352E+04  0.16184766352E+04  0.50400001928E-02 0. -1.
        1   -1    0    0  501    0  0.00000000000E+00  0.00000000000E+00 -0.19614506789E+04  0.19614506789E+04  0.50400001928E-02 0.  1.
    10030    2    1    2    0    0  0.00000000000E+00  0.00000000000E+00 -0.34297404377E+03  0.35799273141E+04  0.35634601695E+04 0.  0.
        2    1    3    3  502    0  0.13927227523E+03  0.99099633454E+03 -0.16524401586E+04  0.19318460031E+04  0.25500000920E-02 0.  1.
       -2    1    3    3    0  502 -0.13927227523E+03 -0.99099633454E+03  0.13094661149E+04  0.16480813110E+04  0.25500000920E-02 0. -1.
</event>
<event>
 5   0  0.4811500E-07  0.3609673E+04  0.7818609E-02  0.8088279E-01
       -1   -1    0    0    0  501  0.00000000000E+00  0.00000000000E+00  0.22575527032E+04  0.22575527032E+04  0.50400001928E-02 0.  1.
        1   -1    0    0  501    0  0.00000000000E+00  0.00000000000E+00 -0.14429057023E+04  0.14429057023E+04  0.50400001928E-02 0. -1.
    10030    2    1    2    0    0  0.00000000000E+00  0.00000000000E+00  0.81464700089E+03  0.37004584055E+04  0.36096734859E+04 0.  0.
        5    1    3    3  502    0  0.10437708134E+04  0.72777340159E+03 -0.90482981088E+03  0.15613618132E+04  0.46999998093E+01 0. -1.
       -5    1    3    3    0  502 -0.10437708134E+04 -0.72777340159E+03  0.17194768118E+04  0.21390965923E+04  0.46999998093E+01 0.  1.
</event>
<event>
 5   0  0.4811500E-07  0.3618275E+04  0.7818609E-02  0.8086318E-01
        1   -1    0    0  501    0  0.00000000000E+00  0.00000000000E+00  0.10754111578E+04  0.10754111578E+04  0.50400001928E-02 0.  1.
       -1   -1    0    0    0  501  0.00000000000E+00  0.00000000000E+00 -0.30434671846E+04  0.30434671846E+04  0.50400001928E-02 0. -1.
    10030    2    1    2    0    0  0.00000000000E+00  0.00000000000E+00 -0.19680560269E+04  0.41188783424E+04  0.36182750413E+04 0.  0.
        5    1    3    3  502    0 -0.12976335013E+04  0.68858398284E+03  0.21797685855E+03  0.14851049141E+04  0.46999998093E+01 0.  1.
       -5    1    3    3    0  502  0.12976335013E+04 -0.68858398284E+03 -0.21860328854E+04  0.26337734282E+04  0.46999998093E+01 0. -1.
</event>
<event>
 5   0  0.1444091E-06  0.2435508E+04  0.7818609E-02  0.8426328E-01
       -2   -1    0    0    0  501  0.00000000000E+00  0.00000000000E+00  0.12502686129E+04  0.12502686129E+04  0.25500000920E-02 0. -1.
        2   -1    0    0  501    0  0.00000000000E+00  0.00000000000E+00 -0.11860846901E+04  0.11860846901E+04  0.25500000920E-02 0.  1.
    10030    2    1    2    0    0  0.00000000000E+00  0.00000000000E+00  0.64183922797E+02  0.24363533029E+04  0.24355077172E+04 0.  0.
        1    1    3    3  502    0  0.11866548326E+04  0.93956667617E+02 -0.22479850790E+03  0.12114090624E+04  0.50400001928E-02 0.  1.
       -1    1    3    3    0  502 -0.11866548326E+04 -0.93956667617E+02  0.28898243069E+03  0.12249442406E+04  0.50400001928E-02 0. -1.
</event>
<event>
 5   0  0.1505671E-06  0.3269996E+04  0.7818609E-02  0.8170572E-01
       -2   -1    0    0    0  501  0.00000000000E+00  0.00000000000E+00  0.23134580047E+04  0.23134580047E+04  0.25500000920E-02 0. -1.
        2   -1    0    0  501    0  0.00000000000E+00  0.00000000000E+00 -0.11555075100E+04  0.11555075100E+04  0.25500000920E-02 0.  1.
    10030    2    1    2    0    0  0.00000000000E+00  0.00000000000E+00  0.11579504947E+04  0.34689655146E+04  0.32699957788E+04 0.  0.
        3    1    3    3  502    0  0.40311710602E+03 -0.76300536626E+03 -0.89424213452E+03  0.12427186308E+04  0.10100000352E+00 0.  1.
       -3    1    3    3    0  502 -0.40311710602E+03  0.76300536626E+03  0.20521926292E+04  0.22262468838E+04  0.10100000352E+00 0. -1.
</event>
<event>
 5   0  0.1379425E-06  0.2518095E+04  0.7818609E-02  0.8396567E-01
        2   -1    0    0  501    0  0.00000000000E+00  0.00000000000E+00  0.10491728937E+04  0.10491728937E+04  0.25500000920E-02 0. -1.
       -2   -1    0    0    0  501  0.00000000000E+00  0.00000000000E+00 -0.15109054820E+04  0.15109054820E+04  0.25500000920E-02 0.  1.
    10030    2    1    2    0    0  0.00000000000E+00  0.00000000000E+00 -0.46173258828E+03  0.25600783758E+04  0.25180953729E+04 0.  0.
        4    1    3    3  502    0 -0.50162399672E+03  0.99686766736E+03 -0.82353290882E+03  0.13869318098E+04  0.12699999809E+01 0.  1.
       -4    1    3    3    0  502  0.50162399672E+03 -0.99686766736E+03  0.36180032055E+03  0.11731465659E+04  0.12699999809E+01 0. -1.
</event>
<event>
 5   0  0.1505671E-06  0.3592232E+04  0.7818609E-02  0.8092273E-01
       -2   -1    0    0    0  501  0.00000000000E+00  0.00000000000E+00  0.17071502298E+04  0.17071502298E+04  0.25500000920E-02 0.  1.
        2   -1    0    0  501    0  0.00000000000E+00  0.00000000000E+00 -0.18897178349E+04  0.18897178349E+04  0.25500000920E-02 0. -1.
    10030    2    1    2    0    0  0.00000000000E+00  0.00000000000E+00 -0.18256760513E+03  0.35968680647E+04  0.35922317499E+04 0.  0.
        3    1    3    3  502    0  0.12341717180E+04 -0.11026696409E+03 -0.13932287314E+04  0.18645173480E+04  0.10100000352E+00 0. -1.
       -3    1    3    3    0  502 -0.12341717180E+04  0.11026696409E+03  0.12106611263E+04  0.17323507167E+04  0.10100000352E+00 0.  1.
</event>
<event>
 5   0  0.1444091E-06  0.3563265E+04  0.7818609E-02  0.8098958E-01
       -2   -1    0    0    0  501  0.00000000000E+00  0.00000000000E+00  0.10152298740E+04  0.10152298740E+04  0.25500000920E-02 0.  1.
        2   -1    0    0  501    0  0.00000000000E+00  0.00000000000E+00 -0.31265965727E+04  0.31265965727E+04  0.25500000920E-02 0. -1.
    10030    2    1    2    0    0  0.00000000000E+00  0.00000000000E+00 -0.21113666987E+04  0.41418264467E+04  0.35632649324E+04 0.  0.
        1    1    3    3  502    0  0.75184543302E+03 -0.72877919864E+03 -0.27311975662E+04  0.29250351829E+04  0.50400001928E-02 0. -1.
       -1    1    3    3    0  502 -0.75184543302E+03  0.72877919864E+03  0.61983086746E+03  0.12167912639E+04  0.50400001928E-02 0.  1.
</event>
<event>
 5   0  0.1505671E-06  0.3669387E+04  0.7818609E-02  0.8074780E-01
       -2   -1    0    0    0  501  0.00000000000E+00  0.00000000000E+00  0.33201455335E+04  0.33201455335E+04  0.25500000920E-02 0.  1.
        2   -1    0    0  501    0  0.00000000000E+00  0.00000000000E+00 -0.10138409246E+04  0.10138409246E+04  0.25500000920E-02 0. -1.
    10030    2    1    2    0    0  0.00000000000E+00  0.00000000000E+00  0.23063046089E+04  0.43339864580E+04  0.36693865522E+04 0.  0.
        3    1    3    3  502    0 -0.86265766985E+03  0.99159915602E+03 -0.35879789411E+03  0.13624181005E+04  0.10100000352E+00 0. -1.
       -3    1    3    3    0  502  0.86265766985E+03 -0.99159915602E+03  0.26651025030E+04  0.29715683575E+04  0.10100000352E+00 0.  1.
</event>
<event>
 5   0  0.1491854E-06  0.2968353E+04  0.7818609E-02  0.8252826E-01
        2   -1    0    0  501    0  0.00000000000E+00  0.00000000000E+00  0.29709976174E+04  0.29709976174E+04  0.25500000920E-02 0. -1.
       -2   -1    0    0    0  501  0.00000000000E+00  0.00000000000E+00 -0.74142774751E+03  0.74142774751E+03  0.25500000920E-02 0.  1.
    10030    2    1    2    0    0  0.00000000000E+00  0.00000000000E+00  0.22295698699E+04  0.37124253649E+04  0.29683531268E+04 0.  0.
        5    1    3    3  502    0  0.97975872279E+03 -0.47104579944E+03  0.23784840959E+04  0.26151520003E+04  0.46999998093E+01 0. -1.
       -5    1    3    3    0  502 -0.97975872279E+03  0.47104579944E+03 -0.14891422601E+03  0.10972733646E+04  0.46999998093E+01 0.  1.
</event>
<event>
 5   0  0.4811500E-07  0.3574309E+04  0.7818609E-02  0.8096402E-01
       -1   -1    0    0    0  501  0.00000000000E+00  0.00000000000E+00  0.16363588090E+04  0.16363588090E+04  0.50400001928E-02 0. -1.
        1   -1    0    0  501    0  0.00000000000E+00  0.00000000000E+00 -0.19518461217E+04  0.19518461218E+04  0.50400001928E-02 0.  1.
    10030    2    1    2    0    0  0.00000000000E+00  0.00000000000E+00 -0.31548731276E+03  0.35882049307E+04  0.35743086577E+04 0.  0.
        3    1    3    3  502    0 -0.17030007632E+04  0.47672096680E+03 -0.41651724646E+03  0.18168547290E+04  0.10100000352E+00 0.  1.
       -3    1    3    3    0  502  0.17030007632E+04 -0.47672096680E+03  0.10102993370E+03  0.17713502017E+04  0.10100000352E+00 0. -1.
</event>
<event>
 5   0  0.5071661E-07  0.3570532E+04  0.7818609E-02  0.8097275E-01
       -1   -1    0    0    0  501  0.00000000000E+00  0.00000000000E+00  0.16487798850E+04  0.16487798850E+04  0.50400001928E-02 0.  1.
        1   -1    0    0  501    0  0.00000000000E+00  0.00000000000E+00 -0.19330509600E+04  0.19330509600E+04  0.50400001928E-02 0. -1.
    10030    2    1    2    0    0  0.00000000000E+00  0.00000000000E+00 -0.28427107507E+03  0.35818308450E+04  0.35705324754E+04 0.  0.
        1    1    3    3  502    0  0.16839564090E+04 -0.52479566825E+03 -0.41879047225E+03  0.18128720696E+04  0.50400001928E-02 0.  1.
       -1    1    3    3    0  502 -0.16839564090E+04  0.52479566825E+03  0.13451939718E+03  0.17689587754E+04  0.50400001928E-02 0. -1.
</event>
<event>
 5   0  0.4811500E-07  0.3542106E+04  0.7818609E-02  0.8103883E-01
       -1   -1    0    0    0  501  0.00000000000E+00  0.00000000000E+00  0.16821463733E+04  0.16821463733E+04  0.50400001928E-02 0. -1.
        1   -1    0    0  501    0  0.00000000000E+00  0.00000000000E+00 -0.18646586575E+04  0.18646586575E+04  0.50400001928E-02 0.  1.
    10030    2    1    2    0    0  0.00000000000E+00  0.00000000000E+00 -0.18251228418E+03  0.35468050308E+04  0.35421060392E+04 0.  0.
        3    1    3    3  502    0  0.49417354293E+03  0.15499094004E+04  0.60981705270E+03  0.17373265346E+04  0.10100000352E+00 0. -1.
       -3    1    3    3    0  502 -0.49417354293E+03 -0.15499094004E+04 -0.79232933689E+03  0.18094784962E+04  0.10100000352E+00 0.  1.
</event>
<event>
 5   0  0.4811500E-07  0.3329804E+04  0.7818609E-02  0.8155353E-01
       -1   -1    0    0    0  501  0.00000000000E+00  0.00000000000E+00  0.30356566009E+04  0.30356566009E+04  0.50400001928E-02 0. -1.
        1   -1    0    0  501    0  0.00000000000E+00  0.00000000000E+00 -0.91311320994E+03  0.91311320995E+03  0.50400001928E-02 0.  1.
    10030    2    1    2    0    0  0.00000000000E+00  0.00000000000E+00  0.21225433910E+04  0.39487698109E+04  0.33298036838E+04 0.  0.
        4    1    3    3  502    0  0.68524536023E+03 -0.56207256778E+03  0.27326609587E+04  0.28727903340E+04  0.12699999809E+01 0. -1.
       -4    1    3    3    0  502 -0.68524536023E+03  0.56207256778E+03 -0.61011756774E+03  0.10759794768E+04  0.12699999809E+01 0.  1.
</event>
<event>
 5   0  0.4811500E-07  0.3588264E+04  0.7818609E-02  0.8093185E-01
        1   -1    0    0  501    0  0.00000000000E+00  0.00000000000E+00  0.23187683613E+04  0.23187683613E+04  0.50400001928E-02 0.  1.
       -1   -1    0    0    0  501  0.00000000000E+00  0.00000000000E+00 -0.13881979944E+04  0.13881979945E+04  0.50400001928E-02 0. -1.
    10030    2    1    2    0    0  0.00000000000E+00  0.00000000000E+00  0.93057036681E+03  0.37069663557E+04  0.35882639751E+04 0.  0.
        4    1    3    3  502    0 -0.59314931621E+03 -0.16206228668E+04  0.97208829500E+03  0.19807074125E+04  0.12699999809E+01 0.  1.
       -4    1    3    3    0  502  0.59314931621E+03  0.16206228668E+04 -0.41517928193E+02  0.17262589432E+04  0.12699999809E+01 0. -1.
</event>
<event>
 5   0  0.1379425E-06  0.2256892E+04  0.7818609E-02  0.8495114E-01
        2   -1    0    0  501    0  0.00000000000E+00  0.00000000000E+00  0.12855295681E+04  0.12855295681E+04  0.25500000920E-02 0. -1.
       -2   -1    0    0    0  501  0.00000000000E+00  0.00000000000E+00 -0.99055745010E+03  0.99055745010E+03  0.25500000920E-02 0.  1.
    10030    2    1    2    0    0  0.00000000000E+00  0.00000000000E+00  0.29497211796E+03  0.22760870182E+04  0.22568924573E+04 0.  0.
        4    1    3    3  502    0  0.42646548435E+03  0.39735103465E+03 -0.82697631725E+03  0.10117569354E+04  0.12699999809E+01 0.  1.
       -4    1    3    3    0  502 -0.42646548435E+03 -0.39735103465E+03  0.11219484352E+04  0.12643300828E+04  0.12699999809E+01 0. -1.
</event>
<event>
 5   0  0.1505671E-06  0.2287490E+04  0.7818609E-02  0.8482870E-01
       -2   -1    0    0    0  501  0.00000000000E+00  0.00000000000E+00  0.60519218029E+03  0.60519218029E+03  0.25500000920E-02 0.  1.
        2   -1    0    0  501    0  0.00000000000E+00  0.00000000000E+00 -0.21615488306E+04  0.21615488306E+04  0.25500000920E-02 0. -1.
    10030    2    1    2    0    0  0.00000000000E+00  0.00000000000E+00 -0.15563566503E+04  0.27667410109E+04  0.22874898466E+04 0.  0.
        3    1    3    3  502    0 -0.71283470354E+03  0.80936704821E+03 -0.12386570956E+04  0.16424006040E+04  0.10100000352E+00 0. -1.
       -3    1    3    3    0  502  0.71283470354E+03 -0.80936704821E+03 -0.31769955469E+03  0.11243404069E+04  0.10100000352E+00 0.  1.
</event>
<event>
 5   0  0.4811500E-07  0.2395481E+04  0.7818609E-02  0.8441197E-01
       -1   -1    0    0    0  501  0.00000000000E+00  0.00000000000E+00  0.90124010819E+03  0.90124010821E+03  0.50400001928E-02 0. -1.
        1   -1    0    0  501    0  0.00000000000E+00  0.00000000000E+00 -0.15917874359E+04  0.15917874359E+04  0.50400001928E-02 0.  1.
    10030    2    1    2    0    0  0.00000000000E+00  0.00000000000E+00 -0.69054732772E+03  0.24930275441E+04  0.23954813136E+04 0.  0.
        4    1    3    3  502    0  0.14002819351E+03  0.27502395445E+02  0.89236048552E+03  0.90369968782E+03  0.12699999809E+01 0. -1.
       -4    1    3    3    0  502 -0.14002819351E+03 -0.27502395445E+02 -0.15829078132E+04  0.15893278563E+04  0.12699999809E+01 0.  1.
</event>
<event>
 5   0  0.1505671E-06  0.3556064E+04  0.7818609E-02  0.8100630E-01
        2   -1    0    0  501    0  0.00000000000E+00  0.00000000000E+00  0.18158585902E+04  0.18158585902E+04  0.25500000920E-02 0.  1.
       -2   -1    0    0    0  501  0.00000000000E+00  0.00000000000E+00 -0.17409938588E+04  0.17409938588E+04  0.25500000920E-02 0. -1.
    10030    2    1    2    0    0  0.00000000000E+00  0.00000000000E+00  0.74864731396E+02  0.35568524490E+04  0.35560644842E+04 0.  0.
        3    1    3    3  502    0  0.10005691406E+04  0.10813911558E+04 -0.95820429931E+03  0.17574700357E+04  0.10100000352E+00 0. -1.
       -3    1    3    3    0  502 -0.10005691406E+04 -0.10813911558E+04  0.10330690307E+04  0.17993824133E+04  0.10100000352E+00 0.  1.
</event>
<event>
 5   0  0.1444091E-06  0.3680765E+04  0.7818609E-02  0.8072238E-01
       -2   -1    0    0    0  501  0.00000000000E+00  0.00000000000E+00  0.19860540041E+04  0.19860540041E+04  0.25500000920E-02 0. -1.
        2   -1    0    0  501    0  0.00000000000E+00  0.00000000000E+00 -0.17053955164E+04  0.17053955164E+04  0.25500000920E-02 0.  1.
    10030    2    1    2    0    0  0.00000000000E+00  0.00000000000E+00  0.28065848768E+03  0.36914495205E+04  0.36807649172E+04 0.  0.
        1    1    3    3  502    0 -0.85424535686E+02 -0.10817210874E+04  0.16311130777E+04  0.19590680781E+04  0.50400001928E-02 0. -1.
       -1    1    3    3    0  502  0.85424535686E+02  0.10817210874E+04 -0.13504545901E+04  0.17323814424E+04  0.50400001928E-02 0.  1.
</event>
<event>
 5   0  0.1468942E-06  0.3614798E+04  0.7818609E-02  0.8087110E-01
       -2   -1    0    0    0  501  0.00000000000E+00  0.00000000000E+00  0.20616056121E+04  0.20616056121E+04  0.25500000920E-02 0. -1.
        2   -1    0    0  501    0  0.00000000000E+00  0.00000000000E+00 -0.15845374113E+04  0.15845374113E+04  0.25500000920E-02 0.  1.
    10030    2    1    2    0    0  0.00000000000E+00  0.00000000000E+00  0.47706820080E+03  0.36461430234E+04  0.36147980412E+04 0.  0.
        2    1    3    3  502    0  0.12477984326E+04  0.58540768160E+03 -0.94078690748E+03  0.16687669362E+04  0.25500000920E-02 0.  1.
       -2    1    3    3    0  502 -0.12477984326E+04 -0.58540768160E+03  0.14178551083E+04  0.19773760872E+04  0.25500000920E-02 0. -1.
</event>
<event>
 5   0  0.1491854E-06  0.3586147E+04  0.7818609E-02  0.8093672E-01
       -2   -1    0    0    0  501  0.00000000000E+00  0.00000000000E+00  0.14521807186E+04  0.14521807186E+04  0.25500000920E-02 0. -1.
        2   -1    0    0  501    0  0.00000000000E+00  0.00000000000E+00 -0.22139887436E+04  0.22139887436E+04  0.25500000920E-02 0.  1.
    10030    2    1    2    0    0  0.00000000000E+00  0.00000000000E+00 -0.76180802501E+03  0.36661694623E+04  0.35861465473E+04 0.  0.
        5    1    3    3  502    0 -0.65348785273E+03  0.14753113908E+04  0.41852994492E+03  0.16669671497E+04  0.46999998093E+01 0. -1.
       -5    1    3    3    0  502  0.65348785273E+03 -0.14753113908E+04 -0.11803379699E+04  0.19992023126E+04  0.46999998093E+01 0.  1.
</event>
<event>
 5   0  0.4811500E-07  0.3223691E+04  0.7818609E-02  0.8182588E-01
       -1   -1    0    0    0  501  0.00000000000E+00  0.00000000000E+00  0.22521032511E+04  0.22521032511E+04  0.50400001928E-02 0.  1.
        1   -1    0    0  501    0  0.00000000000E+00  0.00000000000E+00 -0.11536084509E+04  0.11536084509E+04  0.50400001928E-02 0. -1.
    10030    2    1    2    0    0  0.00000000000E+00  0.00000000000E+00  0.10984948002E+04  0.34057117020E+04  0.32236906445E+04 0.  0.
        4    1    3    3  502    0  0.12171874144E+04  0.11978810446E+03 -0.55986291604E+03  0.13451180206E+04  0.12699999809E+01 0. -1.
       -4    1    3    3    0  502 -0.12171874144E+04 -0.11978810446E+03  0.16583577163E+04  0.20605936814E+04  0.12699999809E+01 0.  1.
</event>
<event>
 5   0  0.1491854E-06  0.3656423E+04  0.7818609E-02  0.8077688E-01
        2   -1    0    0  501    0  0.00000000000E+00  0.00000000000E+00  0.12015460633E+04  0.12015460633E+04  0.25500000920E-02 0. -1.
       -2   -1    0    0    0  501  0.00000000000E+00  0.00000000000E+00 -0.27817139254E+04  0.27817139254E+04  0.25500000920E-02 0.  1.
    10030    2    1    2    0    0  0.00000000000E+00  0.00000000000E+00 -0.15801678621E+04  0.39832599887E+04  0.36564230698E+04 0.  0.
        5    1    3    3  502    0 -0.12168684937E+04 -0.90185618084E+03 -0.19054278719E+04  0.24340893507E+04  0.46999998093E+01 0.  1.
       -5    1    3    3    0  502  0.12168684937E+04  0.90185618084E+03  0.32526000977E+03  0.15491706381E+04  0.46999998093E+01 0. -1.
</event>
<event>
 5   0  0.1491854E-06  0.3711752E+04  0.7818609E-02  0.8065362E-01
       -2   -1    0    0    0  501  0.00000000000E+00  0.00000000000E+00  0.13973789705E+04  0.13973789705E+04  0.25500000920E-02 0.  1.
        2   -1    0    0  501    0  0.00000000000E+00  0.00000000000E+00 -0.24648116236E+04  0.24648116236E+04  0.25500000920E-02 0. -1.
    10030    2    1    2    0    0  0.00000000000E+00  0.00000000000E+00 -0.10674326531E+04  0.38621905941E+04  0.37117521086E+04 0.  0.
        5    1    3    3  502    0  0.16884159894E+03  0.23074216871E+03 -0.24417505884E+04  0.24584380122E+04  0.46999998093E+01 0. -1.
       -5    1    3    3    0  502 -0.16884159894E+03 -0.23074216871E+03  0.13743179353E+04  0.14037525819E+04  0.46999998093E+01 0.  1.
</event>
<event>
 5   0  0.4811500E-07  0.3500454E+04  0.7818609E-02  0.8113682E-01
        1   -1    0    0  501    0  0.00000000000E+00  0.00000000000E+00  0.98646660685E+03  0.98646660686E+03  0.50400001928E-02 0.  1.
       -1   -1    0    0    0  501  0.00000000000E+00  0.00000000000E+00 -0.31053198309E+04  0.31053198309E+04  0.50400001928E-02 0. -1.
    10030    2    1    2    0    0  0.00000000000E+00  0.00000000000E+00 -0.21188532241E+04  0.40917864378E+04  0.35004538659E+04 0.  0.
        5    1    3    3  502    0  0.81038315608E+03 -0.76326735885E+02 -0.28705993052E+04  0.29837743030E+04  0.46999998093E+01 0. -1.
       -5    1    3    3    0  502 -0.81038315608E+03  0.76326735885E+02  0.75174608115E+03  0.11080121348E+04  0.46999998093E+01 0.  1.
</event>
<event>
 5   0  0.4811500E-07  0.3307091E+04  0.7818609E-02  0.8161093E-01
       -1   -1    0    0    0  501  0.00000000000E+00  0.00000000000E+00  0.13261865049E+04  0.13261865049E+04  0.50400001928E-02 0.  1.
        1   -1    0    0  501    0  0.00000000000E+00  0.00000000000E+00 -0.20617108321E+04  0.20617108321E+04  0.50400001928E-02 0. -1.
    10030    2    1    2    0    0  0.00000000000E+00  0.00000000000E+00 -0.73552432716E+03  0.33878973370E+04  0.33070912189E+04 0.  0.
        4    1    3    3  502    0 -0.98640744648E+03 -0.79785579423E+03  0.71863953175E+03  0.14580870716E+04  0.12699999809E+01 0.  1.
       -4    1    3    3    0  502  0.98640744648E+03  0.79785579423E+03 -0.14541638589E+04  0.19298102654E+04  0.12699999809E+01 0. -1.
</event>
<event>
 5   0  0.4811500E-07  0.3566886E+04  0.7818609E-02  0.8098119E-01
        1   -1    0    0  501    0  0.00000000000E+00  0.00000000000E+00  0.25054571015E+04  0.25054571015E+04  0.50400001928E-02 0.  1.
       -1   -1    0    0    0  501  0.00000000000E+00  0.00000000000E+00 -0.12694966314E+04  0.12694966314E+04  0.50400001928E-02 0. -1.
    10030    2    1    2    0    0  0.00000000000E+00  0.00000000000E+00  0.12359604700E+04  0.37749537329E+04  0.35668862334E+04 0.  0.
        3    1    3    3  502    0  0.79397539482E+03  0.14421546535E+04 -0.10793317728E+03  0.16498050046E+04  0.10100000352E+00 0. -1.
       -3    1    3    3    0  502 -0.79397539482E+03 -0.14421546535E+04  0.13438936473E+04  0.21251487284E+04  0.10100000352E+00 0.  1.
</event>
<event>
 5   0  0.4811500E-07  0.3370426E+04  0.7818609E-02  0.8145203E-01
       -3   -1    0    0    0  501  0.00000000000E+00  0.00000000000E+00  0.22675045082E+04  0.22675045104E+04  0.10100000352E+00 0. -1.
        3   -1    0    0  501    0  0.00000000000E+00  0.00000000000E+00 -0.12524528856E+04  0.12524528897E+04  0.10100000352E+00 0.  1.
    10030    2    1    2    0    0  0.00000000000E+00  0.00000000000E+00  0.10150516226E+04  0.35199574001E+04  0.33704258339E+04 0.  0.
        5    1    3    3  502    0  0.10817981681E+04  0.25787953151E+03 -0.81479607722E+03  0.13786601709E+04  0.46999998093E+01 0.  1.
       -5    1    3    3    0  502 -0.10817981681E+04 -0.25787953151E+03  0.18298476998E+04  0.21412972292E+04  0.46999998093E+01 0. -1.
</event>
<event>
 5   0  0.4811500E-07  0.3675773E+04  0.7818609E-02  0.8073352E-01
        1   -1    0    0  501    0  0.00000000000E+00  0.00000000000E+00  0.20348549832E+04  0.20348549832E+04  0.50400001928E-02 0.  1.
       -1   -1    0    0    0  501  0.00000000000E+00  0.00000000000E+00 -0.16599839001E+04  0.16599839001E+04  0.50400001928E-02 0. -1.
    10030    2    1    2    0    0  0.00000000000E+00  0.00000000000E+00  0.37487108312E+03  0.36948388833E+04  0.36757728500E+04 0.  0.
        5    1    3    3  502    0  0.71378181370E+03 -0.13210774455E+04  0.12526844293E+04  0.19554974978E+04  0.46999998093E+01 0.  1.
       -5    1    3    3    0  502 -0.71378181370E+03  0.13210774455E+04 -0.87781334615E+03  0.17393413855E+04  0.46999998093E+01 0. -1.
</event>
<event>
 5   0  0.4811500E-07  0.3515064E+04  0.7818609E-02  0.8110229E-01
        1   -1    0    0  501    0  0.00000000000E+00  0.00000000000E+00  0.24873466485E+04  0.24873466485E+04  0.50400001928E-02 0. -1.
       -1   -1    0    0    0  501  0.00000000000E+00  0.00000000000E+00 -0.12418530390E+04  0.12418530390E+04  0.50400001928E-02 0.  1.
    10030    2    1    2    0    0  0.00000000000E+00  0.00000000000E+00  0.12454936095E+04  0.37291996874E+04  0.35150641498E+04 0.  0.
        4    1    3    3  502    0  0.73663415127E+03 -0.11425491398E+03 -0.10658267369E+04  0.13006430349E+04  0.12699999809E+01 0.  1.
       -4    1    3    3    0  502 -0.73663415127E+03  0.11425491398E+03  0.23113203464E+04  0.24285566526E+04  0.12699999809E+01 0. -1.
</event>
<event>
 5   0  0.4811500E-07  0.3615893E+04  0.7818609E-02  0.8086861E-01
        1   -1    0    0  501    0  0.00000000000E+00  0.00000000000E+00  0.15508657071E+04  0.15508657071E+04  0.50400001928E-02 0.  1.
       -1   -1    0    0    0  501  0.00000000000E+00  0.00000000000E+00 -0.21076428301E+04  0.21076428302E+04  0.50400001928E-02 0. -1.
    10030    2    1    2    0    0  0.00000000000E+00  0.00000000000E+00 -0.55677712305E+03  0.36585085373E+04  0.36158932441E+04 0.  0.
        5    1    3    3  502    0  0.58381567213E+03 -0.13119662317E+04 -0.13897661449E+04  0.19983913930E+04  0.46999998093E+01 0. -1.
       -5    1    3    3    0  502 -0.58381567213E+03  0.13119662317E+04  0.83298902180E+03  0.16601171443E+04  0.46999998093E+01 0.  1.
</event>
<event>
 5   0  0.1444091E-06  0.3601458E+04  0.7818609E-02  0.8090158E-01
        2   -1    0    0  501    0  0.00000000000E+00  0.00000000000E+00  0.29456838697E+04  0.29456838697E+04  0.25500000920E-02 0.  1.
       -2   -1    0    0    0  501  0.00000000000E+00  0.00000000000E+00 -0.11008055188E+04  0.11008055188E+04  0.25500000920E-02 0. -1.
    10030    2    1    2    0    0  0.00000000000E+00  0.00000000000E+00  0.18448783509E+04  0.40464893885E+04  0.36014580716E+04 0.  0.
        1    1    3    3  502    0  0.34451468544E+03  0.15957614827E+04  0.17762634740E+04  0.24125208822E+04  0.50400001928E-02 0.  1.
       -1    1    3    3    0  502 -0.34451468544E+03 -0.15957614827E+04  0.68614876947E+02  0.16339685063E+04  0.50400001928E-02 0. -1.
</event>
<event>
 5   0  0.5071661E-07  0.3698251E+04  0.7818609E-02  0.8068349E-01
        1   -1    0    0  501    0  0.00000000000E+00  0.00000000000E+00  0.10962619755E+04  0.10962619756E+04  0.50400001928E-02 0.  1.
       -1   -1    0    0    0  501  0.00000000000E+00  0.00000000000E+00 -0.31190227212E+04  0.31190227212E+04  0.50400001928E-02 0. -1.
    10030    2    1    2    0    0  0.00000000000E+00  0.00000000000E+00 -0.20227607457E+04  0.42152846967E+04  0.36982514842E+04 0.  0.
        1    1    3    3  502    0 -0.93395369655E+03  0.60245880637E+03 -0.26958405752E+04  0.29159531079E+04  0.50400001928E-02 0. -1.
       -1    1    3    3    0  502  0.93395369655E+03 -0.60245880637E+03  0.67307982957E+03  0.12993315888E+04  0.50400001928E-02 0.  1.
</event>
<event>
 5   0  0.1379425E-06  0.3535860E+04  0.7818609E-02  0.8105344E-01
        2   -1    0    0  501    0  0.00000000000E+00  0.00000000000E+00  0.22575274001E+04  0.22575274001E+04  0.25500000920E-02 0. -1.
       -2   -1    0    0    0  501  0.00000000000E+00  0.00000000000E+00 -0.13845135904E+04  0.13845135905E+04  0.25500000920E-02 0.  1.
    10030    2    1    2    0    0  0.00000000000E+00  0.00000000000E+00  0.87301380963E+03  0.36420409905E+04  0.35358604985E+04 0.  0.
        4    1    3    3  502    0 -0.39163200359E+03  0.12179296545E+04 -0.82031810069E+03  0.15197538184E+04  0.12699999809E+01 0.  1.
       -4    1    3    3    0  502  0.39163200359E+03 -0.12179296545E+04  0.16933319103E+04  0.21222871721E+04  0.12699999809E+01 0. -1.
</event>
<event>
 5   0  0.1491854E-06  0.3527590E+04  0.7818609E-02  0.8107282E-01
       -2   -1    0    0    0  501  0.00000000000E+00  0.00000000000E+00  0.20285387256E+04  0.20285387256E+04  0.25500000920E-02 0.  1.
        2   -1    0    0  501    0  0.00000000000E+00  0.00000000000E+00 -0.15336027686E+04  0.15336027686E+04  0.25500000920E-02 0. -1.
    10030    2    1    2    0    0  0.00000000000E+00  0.00000000000E+00  0.49493595694E+03  0.35621414942E+04  0.35275898888E+04 0.  0.
        5    1    3    3  502    0  0.32560045215E+03 -0.10840390476E+04 -0.11184801302E+04  0.15912813085E+04  0.46999998093E+01 0. -1.
       -5    1    3    3    0  502 -0.32560045215E+03  0.10840390476E+04  0.16134160871E+04  0.19708601857E+04  0.46999998093E+01 0.  1.
</event>
<event>
 5   0  0.4811500E-07  0.3026674E+04  0.7818609E-02  0.8236155E-01
       -1   -1    0    0    0  501  0.00000000000E+00  0.00000000000E+00  0.14642011496E+04  0.14642011496E+04  0.50400001928E-02 0.  1.
        1   -1    0    0  501    0  0.00000000000E+00  0.00000000000E+00 -0.15641214644E+04  0.15641214644E+04  0.50400001928E-02 0. -1.
    10030    2    1    2    0    0  0.00000000000E+00  0.00000000000E+00 -0.99920314802E+02  0.30283226140E+04  0.30266737164E+04 0.  0.
        2    1    3    3  502    0 -0.34550845125E+03 -0.41301398331E+02 -0.15235512147E+04  0.15627828382E+04  0.25500000920E-02 0. -1.
       -2    1    3    3    0  502  0.34550845125E+03  0.41301398331E+02  0.14236308999E+04  0.14655397758E+04  0.25500000920E-02 0.  1.
</event>
<event>
 5   0  0.5071661E-07  0.3609593E+04  0.7818609E-02  0.8088298E-01
        1   -1    0    0  501    0  0.00000000000E+00  0.00000000000E+00  0.12822608389E+04  0.12822608390E+04  0.50400001928E-02 0.  1.
       -1   -1    0    0    0  501  0.00000000000E+00  0.00000000000E+00 -0.25402711641E+04  0.25402711641E+04  0.50400001928E-02 0. -1.
    10030    2    1    2    0    0  0.00000000000E+00  0.00000000000E+00 -0.12580103251E+04  0.38225320030E+04  0.36095929045E+04 0.  0.
        1    1    3    3  502    0 -0.57120783566E+03  0.73170235228E+02  0.11823544551E+04  0.13151404231E+04  0.50400001928E-02 0.  1.
       -1    1    3    3    0  502  0.57120783566E+03 -0.73170235228E+02 -0.24403647802E+04  0.25073915800E+04  0.50400001928E-02 0. -1.
</event>
<event>
 5   0  0.1468942E-06  0.3579041E+04  0.7818609E-02  0.8095310E-01
        2   -1    0    0  501    0  0.00000000000E+00  0.00000000000E+00  0.23881519882E+04  0.23881519882E+04  0.25500000920E-02 0.  1.
       -2   -1    0    0    0  501  0.00000000000E+00  0.00000000000E+00 -0.13409461320E+04  0.13409461320E+04  0.25500000920E-02 0. -1.
    10030    2    1    2    0    0  0.00000000000E+00  0.00000000000E+00  0.10472058562E+04  0.37290981202E+04  0.35790407492E+04 0.  0.
        2    1    3    3  502    0  0.16916425214E+03  0.53433964334E+03  0.22943412698E+04  0.23618080491E+04  0.25500000920E-02 0.  1.
       -2    1    3    3    0  502 -0.16916425214E+03 -0.53433964334E+03 -0.12471354136E+04  0.13672900711E+04  0.25500000920E-02 0. -1.
</event>
<event>
 5   0  0.4811500E-07  0.3549539E+04  0.7818609E-02  0.8102149E-01
       -1   -1    0    0    0  501  0.00000000000E+00  0.00000000000E+00  0.15218683498E+04  0.15218683498E+04  0.50400001928E-02 0.  1.
        1   -1    0    0  501    0  0.00000000000E+00  0.00000000000E+00 -0.20696967727E+04  0.20696967727E+04  0.50400001928E-02 0. -1.
    10030    2    1    2    0    0  0.00000000000E+00  0.00000000000E+00 -0.54782842296E+03  0.35915651225E+04  0.35495385683E+04 0.  0.
        3    1    3    3  502    0 -0.21759485382E+03 -0.13448547614E+04 -0.14248457023E+04  0.19713363830E+04  0.10100000352E+00 0. -1.
       -3    1    3    3    0  502  0.21759485382E+03  0.13448547614E+04  0.87701727932E+03  0.16202287394E+04  0.10100000352E+00 0.  1.
</event>
<event>
 5   0  0.4811500E-07  0.3744403E+04  0.7818609E-02  0.8058192E-01
       -1   -1    0    0    0  501  0.00000000000E+00  0.00000000000E+00  0.19724225196E+04  0.19724225196E+04  0.50400001928E-02 0. -1.
        1   -1    0    0  501    0  0.00000000000E+00  0.00000000000E+00 -0.17770731430E+04  0.17770731430E+04  0.50400001928E-02 0.  1.
    10030    2    1    2    0    0  0.00000000000E+00  0.00000000000E+00  0.19534937662E+03  0.37494956626E+04  0.37444033363E+04 0.  0.
        3    1    3    3  502    0 -0.17177724395E+04  0.18265896810E+03 -0.62513287844E+03  0.18370894313E+04  0.10100000352E+00 0.  1.
       -3    1    3    3    0  502  0.17177724395E+04 -0.18265896810E+03  0.82048225506E+03  0.19124062313E+04  0.10100000352E+00 0. -1.
</event>
<event>
 5   0  0.1468942E-06  0.2738248E+04  0.7818609E-02  0.8322700E-01
       -2   -1    0    0    0  501  0.00000000000E+00  0.00000000000E+00  0.15890867124E+04  0.15890867124E+04  0.25500000920E-02 0.  1.
        2   -1    0    0  501    0  0.00000000000E+00  0.00000000000E+00 -0.11796088578E+04  0.11796088578E+04  0.25500000920E-02 0. -1.
    10030    2    1    2    0    0  0.00000000000E+00  0.00000000000E+00  0.40947785459E+03  0.27686955703E+04  0.27382481713E+04 0.  0.
        2    1    3    3  502    0  0.10380603650E+03  0.95372280245E+03 -0.78292221968E+03  0.12382770608E+04  0.25500000920E-02 0. -1.
       -2    1    3    3    0  502 -0.10380603650E+03 -0.95372280245E+03  0.11924000743E+04  0.15304185095E+04  0.25500000920E-02 0.  1.
</event>
<event>
 5   0  0.4811500E-07  0.3586122E+04  0.7818609E-02  0.8093678E-01
        1   -1    0    0  501    0  0.00000000000E+00  0.00000000000E+00  0.23000806004E+04  0.23000806004E+04  0.50400001928E-02 0. -1.
       -1   -1    0    0    0  501  0.00000000000E+00  0.00000000000E+00 -0.13978069200E+04  0.13978069200E+04  0.50400001928E-02 0.  1.
    10030    2    1    2    0    0  0.00000000000E+00  0.00000000000E+00  0.90227368043E+03  0.36978875204E+04  0.35861224630E+04 0.  0.
        3    1    3    3  502    0  0.65992546337E+03 -0.12843773431E+04  0.15472530916E+04  0.21163929021E+04  0.10100000352E+00 0. -1.
       -3    1    3    3    0  502 -0.65992546337E+03  0.12843773431E+04 -0.64497941115E+03  0.15814946183E+04  0.10100000352E+00 0.  1.
</event>
<event>
 5   0  0.1505671E-06  0.2534054E+04  0.7818609E-02  0.8390953E-01
        2   -1    0    0  501    0  0.00000000000E+00  0.00000000000E+00  0.13968052866E+04  0.13968052866E+04  0.25500000920E-02 0. -1.
       -2   -1    0    0    0  501  0.00000000000E+00  0.00000000000E+00 -0.11493069301E+04  0.11493069301E+04  0.25500000920E-02 0.  1.
    10030    2    1    2    0    0  0.00000000000E+00  0.00000000000E+00  0.24749835651E+03  0.25461122166E+04  0.25340544554E+04 0.  0.
        3    1    3    3  502    0 -0.58745471322E+03  0.47848342611E+03  0.11441150112E+04  0.13722421792E+04  0.10100000352E+00 0. -1.
       -3    1    3    3    0  502  0.58745471322E+03 -0.47848342611E+03 -0.89661665471E+03  0.11738700375E+04  0.10100000352E+00 0.  1.
</event>
<event>
 5   0  0.1505671E-06  0.3353709E+04  0.7818609E-02  0.8149362E-01
       -2   -1    0    0    0  501  0.00000000000E+00  0.00000000000E+00  0.10547504304E+04  0.10547504304E+04  0.25500000920E-02 0.  1.
        2   -1    0    0  501    0  0.00000000000E+00  0.00000000000E+00 -0.26658831438E+04  0.26658831438E+04  0.25500000920E-02 0. -1.
    10030    2    1    2    0    0  0.00000000000E+00  0.00000000000E+00 -0.16111327134E+04  0.37206335742E+04  0.33537092261E+04 0.  0.
        3    1    3    3  502    0  0.13276963510E+04 -0.28763865315E+03  0.28500410186E+03  0.13880709432E+04  0.10100000352E+00 0.  1.
       -3    1    3    3    0  502 -0.13276963510E+04  0.28763865315E+03 -0.18961368153E+04  0.23325626310E+04  0.10100000352E+00 0. -1.
</event>
<event>
 5   0  0.1468942E-06  0.3458599E+04  0.7818609E-02  0.8123672E-01
       -2   -1    0    0    0  501  0.00000000000E+00  0.00000000000E+00  0.22409030727E+04  0.22409030727E+04  0.25500000920E-02 0. -1.
        2   -1    0    0  501    0  0.00000000000E+00  0.00000000000E+00 -0.13344963456E+04  0.13344963456E+04  0.25500000920E-02 0.  1.
    10030    2    1    2    0    0  0.00000000000E+00  0.00000000000E+00  0.90640672716E+03  0.35753994183E+04  0.34585991160E+04 0.  0.
        2    1    3    3  502    0  0.16239041491E+04 -0.18098573064E+03  0.10385920480E+04  0.19361027767E+04  0.25500000920E-02 0.  1.
       -2    1    3    3    0  502 -0.16239041491E+04  0.18098573064E+03 -0.13218532080E+03  0.16392966416E+04  0.25500000920E-02 0. -1.
</event>
<event>
 5   0  0.4811500E-07  0.3587682E+04  0.7818609E-02  0.8093319E-01
       -1   -1    0    0    0  501  0.00000000000E+00  0.00000000000E+00  0.17263137674E+04  0.17263137675E+04  0.50400001928E-02 0. -1.
        1   -1    0    0  501    0  0.00000000000E+00  0.00000000000E+00 -0.18640094243E+04  0.18640094243E+04  0.50400001928E-02 0.  1.
    10030    2    1    2    0    0  0.00000000000E+00  0.00000000000E+00 -0.13769565687E+03  0.35903231918E+04  0.35876817762E+04 0.  0.
        4    1    3    3  502    0 -0.16359533739E+04  0.98675976598E+02  0.66092368610E+03  0.17671734838E+04  0.12699999809E+01 0. -1.
       -4    1    3    3    0  502  0.16359533739E+04 -0.98675976598E+02 -0.79861934297E+03  0.18231497080E+04  0.12699999809E+01 0.  1.
</event>
<event>
 5   0  0.1444091E-06  0.3665634E+04  0.7818609E-02  0.8075621E-01
       -2   -1    0    0    0  501  0.00000000000E+00  0.00000000000E+00  0.15913024597E+04  0.15913024597E+04  0.25500000920E-02 0. -1.
        2   -1    0    0  501    0  0.00000000000E+00  0.00000000000E+00 -0.21109864231E+04  0.21109864231E+04  0.25500000920E-02 0.  1.
    10030    2    1    2    0    0  0.00000000000E+00  0.00000000000E+00 -0.51968396333E+03  0.37022888828E+04  0.36656338538E+04 0.  0.
        1    1    3    3  502    0  0.86322372544E+03  0.30187464026E+03  0.13444159619E+04  0.16259574955E+04  0.50400001928E-02 0. -1.
       -1    1    3    3    0  502 -0.86322372544E+03 -0.30187464026E+03 -0.18640999252E+04  0.20763313873E+04  0.50400001928E-02 0.  1.
</event>
<event>
 5   0  0.1468942E-06  0.3702620E+04  0.7818609E-02  0.8067382E-01
       -2   -1    0    0    0  501  0.00000000000E+00  0.00000000000E+00  0.15506357600E+04  0.15506357600E+04  0.25500000920E-02 0.  1.
        2   -1    0    0  501    0  0.00000000000E+00  0.00000000000E+00 -0.22102858133E+04  0.22102858133E+04  0.25500000920E-02 0. -1.
    10030    2    1    2    0    0  0.00000000000E+00  0.00000000000E+00 -0.65965005335E+03  0.37609215733E+04  0.37026197331E+04 0.  0.
        2    1    3    3  502    0 -0.13855286297E+04  0.12170899609E+04 -0.16494009948E+03  0.18515406539E+04  0.25500000920E-02 0. -1.
       -2    1    3    3    0  502  0.13855286297E+04 -0.12170899609E+04 -0.49470995387E+03  0.19093809194E+04  0.25500000920E-02 0.  1.
</event>
<event>
 5   0  0.1379425E-06  0.3673088E+04  0.7818609E-02  0.8073952E-01
       -2   -1    0    0    0  501  0.00000000000E+00  0.00000000000E+00  0.24054746717E+04  0.24054746717E+04  0.25500000920E-02 0. -1.
        2   -1    0    0  501    0  0.00000000000E+00  0.00000000000E+00 -0.14021739717E+04  0.14021739717E+04  0.25500000920E-02 0.  1.
    10030    2    1    2    0    0  0.00000000000E+00  0.00000000000E+00  0.10033007000E+04  0.38076486434E+04  0.36730880601E+04 0.  0.
        4    1    3    3  502    0 -0.88348764868E+03 -0.19847531568E+03  0.21579794679E+04  0.23402606421E+04  0.12699999809E+01 0. -1.
       -4    1    3    3    0  502  0.88348764868E+03  0.19847531568E+03 -0.11546787679E+04  0.14673880013E+04  0.12699999809E+01 0.  1.
</event>
<event>
 5   0  0.1505671E-06  0.3655856E+04  0.7818609E-02  0.8077816E-01
        2   -1    0    0  501    0  0.00000000000E+00  0.00000000000E+00  0.22136466644E+04  0.22136466644E+04  0.25500000920E-02 0. -1.
       -2   -1    0    0    0  501  0.00000000000E+00  0.00000000000E+00 -0.15094196071E+04  0.15094196071E+04  0.25500000920E-02 0.  1.
    10030    2    1    2    0    0  0.00000000000E+00  0.00000000000E+00  0.70422705728E+03  0.37230662714E+04  0.36558564952E+04 0.  0.
        3    1    3    3  502    0 -0.68840042671E+03  0.47948352323E+03 -0.13017881130E+04  0.15486936101E+04  0.10100000352E+00 0.  1.
       -3    1    3    3    0  502  0.68840042671E+03 -0.47948352323E+03  0.20060151703E+04  0.21743726613E+04  0.10100000352E+00 0. -1.
</event>
<event>
 5   0  0.4811500E-07  0.2996037E+04  0.7818609E-02  0.8244864E-01
       -1   -1    0    0    0  501  0.00000000000E+00  0.00000000000E+00  0.16946252809E+04  0.16946252809E+04  0.50400001928E-02 0. -1.
        1   -1    0    0  501    0  0.00000000000E+00  0.00000000000E+00 -0.13242212429E+04  0.13242212429E+04  0.50400001928E-02 0.  1.
    10030    2    1    2    0    0  0.00000000000E+00  0.00000000000E+00  0.37040403801E+03  0.30188465239E+04  0.29960365791E+04 0.  0.
        2    1    3    3  502    0 -0.16550734099E+03 -0.84511007109E+03  0.14202808318E+04  0.16609639832E+04  0.25500000920E-02 0. -1.
       -2    1    3    3    0  502  0.16550734099E+03  0.84511007109E+03 -0.10498767938E+04  0.13578825407E+04  0.25500000920E-02 0.  1.
</event>
<event>
 5   0  0.1444091E-06  0.3616979E+04  0.7818609E-02  0.8086614E-01
        2   -1    0    0  501    0  0.00000000000E+00  0.00000000000E+00  0.19179695551E+04  0.19179695551E+04  0.25500000920E-02 0.  1.
       -2   -1    0    0    0  501  0.00000000000E+00  0.00000000000E+00 -0.17052583253E+04  0.17052583254E+04  0.25500000920E-02 0. -1.
    10030    2    1    2    0    0  0.00000000000E+00  0.00000000000E+00  0.21271122974E+03  0.36232278804E+04  0.36169786019E+04 0.  0.
        1    1    3    3  502    0  0.23580966590E+02  0.93509213315E+03  0.16568283410E+04  0.19026385655E+04  0.50400001928E-02 0.  1.
       -1    1    3    3    0  502 -0.23580966590E+02 -0.93509213315E+03 -0.14441171113E+04  0.17205893149E+04  0.50400001928E-02 0. -1.
</event>
<event>
 5   0  0.1379425E-06  0.3427190E+04  0.7818609E-02  0.8131265E-01
       -2   -1    0    0    0  501  0.00000000000E+00  0.00000000000E+00  0.13789098090E+04  0.13789098090E+04  0.25500000920E-02 0.  1.
        2   -1    0    0  501    0  0.00000000000E+00  0.00000000000E+00 -0.21295139463E+04  0.21295139463E+04  0.25500000920E-02 0. -1.
    10030    2    1    2    0    0  0.00000000000E+00  0.00000000000E+00 -0.75060413724E+03  0.35084237553E+04  0.34271899096E+04 0.  0.
        4    1    3    3  502    0  0.79672290549E+03 -0.44011406902E+03 -0.18615895409E+04  0.20721932857E+04  0.12699999809E+01 0. -1.
       -4    1    3    3    0  502 -0.79672290549E+03  0.44011406902E+03  0.11109854036E+04  0.14362304696E+04  0.12699999809E+01 0.  1.
</event>
<event>
 5   0  0.5071661E-07  0.3527015E+04  0.7818609E-02  0.8107417E-01
        1   -1    0    0  501    0  0.00000000000E+00  0.00000000000E+00  0.15190998253E+04  0.15190998253E+04  0.50400001928E-02 0.  1.
       -1   -1    0    0    0  501  0.00000000000E+00  0.00000000000E+00 -0.20472383994E+04  0.20472383995E+04  0.50400001928E-02 0. -1.
    10030    2    1    2    0    0  0.00000000000E+00  0.00000000000E+00 -0.52813857411E+03  0.35663382248E+04  0.35270154494E+04 0.  0.
        1    1    3    3  502    0  0.11495423439E+03  0.45282177514E+02  0.15147181808E+04  0.15197487025E+04  0.50400001928E-02 0.  1.
       -1    1    3    3    0  502 -0.11495423439E+03 -0.45282177514E+02 -0.20428567549E+04  0.20465895223E+04  0.50400001928E-02 0. -1.
</event>
<event>
 5   0  0.4811500E-07  0.3601705E+04  0.7818609E-02  0.8090101E-01
        1   -1    0    0  501    0  0.00000000000E+00  0.00000000000E+00  0.30337730105E+04  0.30337730105E+04  0.50400001928E-02 0.  1.
       -1   -1    0    0    0  501  0.00000000000E+00  0.00000000000E+00 -0.10689886844E+04  0.10689886845E+04  0.50400001928E-02 0. -1.
    10030    2    1    2    0    0  0.00000000000E+00  0.00000000000E+00  0.19647843261E+04  0.41027616950E+04  0.36017046073E+04 0.  0.
        2    1    3    3  502    0  0.70197769769E+03 -0.15294282251E+04  0.25198328560E+03  0.17015930653E+04  0.25500000920E-02 0.  1.
       -2    1    3    3    0  502 -0.70197769769E+03  0.15294282251E+04  0.17128010405E+04  0.24011686297E+04  0.25500000920E-02 0. -1.
</event>
<event>
 5   0  0.4811500E-07  0.3063284E+04  0.7818609E-02  0.8225887E-01
       -1   -1    0    0    0  501  0.00000000000E+00  0.00000000000E+00  0.85227251740E+03  0.85227251741E+03  0.50400001928E-02 0. -1.
        1   -1    0    0  501    0  0.00000000000E+00  0.00000000000E+00 -0.27525555062E+04  0.27525555062E+04  0.50400001928E-02 0.  1.
    10030    2    1    2    0    0  0.00000000000E+00  0.00000000000E+00 -0.19002829888E+04  0.36048280236E+04  0.30632841269E+04 0.  0.
        5    1    3    3  502    0  0.89497688799E+03  0.58203403116E+03 -0.22425487419E+04  0.24837057380E+04  0.46999998093E+01 0.  1.
       -5    1    3    3    0  502 -0.89497688799E+03 -0.58203403116E+03  0.34226575308E+03  0.11211222856E+04  0.46999998093E+01 0. -1.
</event>
<event>
 5   0  0.4811500E-07  0.3871390E+04  0.7818609E-02  0.8031006E-01
        1   -1    0    0  501    0  0.00000000000E+00  0.00000000000E+00  0.18128821395E+04  0.18128821395E+04  0.50400001928E-02 0. -1.
       -1   -1    0    0    0  501  0.00000000000E+00  0.00000000000E+00 -0.20668279241E+04  0.20668279241E+04  0.50400001928E-02 0.  1.
    10030    2    1    2    0    0  0.00000000000E+00  0.00000000000E+00 -0.25394578459E+03  0.38797100637E+04  0.38713901530E+04 0.  0.
        5    1    3    3  502    0 -0.14370387145E+03  0.81865767014E+03 -0.18788837354E+04  0.20545260681E+04  0.46999998093E+01 0.  1.
       -5    1    3    3    0  502  0.14370387145E+03 -0.81865767014E+03  0.16249379508E+04  0.18251839955E+04  0.46999998093E+01 0. -1.
</event>
<event>
 5   0  0.4811500E-07  0.3487667E+04  0.7818609E-02  0.8116719E-01
       -1   -1    0    0    0  501  0.00000000000E+00  0.00000000000E+00  0.17480312372E+04  0.17480312372E+04  0.50400001928E-02 0. -1.
        1   -1    0    0  501    0  0.00000000000E+00  0.00000000000E+00 -0.17396460593E+04  0.17396460593E+04  0.50400001928E-02 0.  1.
    10030    2    1    2    0    0  0.00000000000E+00  0.00000000000E+00  0.83851778704E+01  0.34876772966E+04  0.34876672166E+04 0.  0.
        3    1    3    3  502    0  0.61897455976E+03  0.61929065334E+03  0.15122769270E+04  0.17474644297E+04  0.10100000352E+00 0. -1.
       -3    1    3    3    0  502 -0.61897455976E+03 -0.61929065334E+03 -0.15038917491E+04  0.17402128669E+04  0.10100000352E+00 0.  1.
</event>
<event>
 5   0  0.1379425E-06  0.3133493E+04  0.7818609E-02  0.8206606E-01
       -2   -1    0    0    0  501  0.00000000000E+00  0.00000000000E+00  0.12171606227E+04  0.12171606227E+04  0.25500000920E-02 0.  1.
        2   -1    0    0  501    0  0.00000000000E+00  0.00000000000E+00 -0.20167382110E+04  0.20167382110E+04  0.25500000920E-02 0. -1.
    10030    2    1    2    0    0  0.00000000000E+00  0.00000000000E+00 -0.79957758830E+03  0.32338988336E+04  0.31334928349E+04 0.  0.
        4    1    3    3  502    0  0.12158658648E+04  0.60377445924E+03 -0.12070411459E+04  0.18165415877E+04  0.12699999809E+01 0. -1.
       -4    1    3    3    0  502 -0.12158658648E+04 -0.60377445924E+03  0.40746355764E+03  0.14173572459E+04  0.12699999809E+01 0.  1.
</event>
<event>
 5   0  0.5071661E-07  0.3584891E+04  0.7818609E-02  0.8093961E-01
        1   -1    0    0  501    0  0.00000000000E+00  0.00000000000E+00  0.14440174903E+04  0.14440174903E+04  0.50400001928E-02 0.  1.
       -1   -1    0    0    0  501  0.00000000000E+00  0.00000000000E+00 -0.22249463231E+04  0.22249463231E+04  0.50400001928E-02 0. -1.
    10030    2    1    2    0    0  0.00000000000E+00  0.00000000000E+00 -0.78092883281E+03  0.36689638133E+04  0.35848912984E+04 0.  0.
        1    1    3    3  502    0 -0.34077438781E+03  0.13019718589E+04 -0.16021223315E+04  0.20923799535E+04  0.50400001928E-02 0. -1.
       -1    1    3    3    0  502  0.34077438781E+03 -0.13019718589E+04  0.82119349873E+03  0.15765838598E+04  0.50400001928E-02 0.  1.
</event>
<event>
 5   0  0.1491854E-06  0.2334506E+04  0.7818609E-02  0.8464439E-01
        2   -1    0    0  501    0  0.00000000000E+00  0.00000000000E+00  0.20815941842E+04  0.20815941842E+04  0.25500000920E-02 0. -1.
       -2   -1    0    0    0  501  0.00000000000E+00  0.00000000000E+00 -0.65453646007E+03  0.65453646008E+03  0.25500000920E-02 0.  1.
    10030    2    1    2    0    0  0.00000000000E+00  0.00000000000E+00  0.14270577241E+04  0.27361306443E+04  0.23345057624E+04 0.  0.
        5    1    3    3  502    0 -0.10589087451E+04 -0.46013401579E+03  0.91464928856E+03  0.14729617966E+04  0.46999998093E+01 0. -1.
       -5    1    3    3    0  502  0.10589087451E+04  0.46013401579E+03  0.51240843559E+03  0.12631688477E+04  0.46999998093E+01 0.  1.
</event>
<event>
 5   0  0.1491854E-06  0.3569187E+04  0.7818609E-02  0.8097586E-01
        2   -1    0    0  501    0  0.00000000000E+00  0.00000000000E+00  0.28008830613E+04  0.28008830613E+04  0.25500000920E-02 0.  1.
       -2   -1    0    0    0  501  0.00000000000E+00  0.00000000000E+00 -0.11370607617E+04  0.11370607617E+04  0.25500000920E-02 0. -1.
    10030    2    1    2    0    0  0.00000000000E+00  0.00000000000E+00  0.16638222997E+04  0.39379438230E+04  0.35691871496E+04 0.  0.
        5    1    3    3  502    0  0.25189748792E+03 -0.72314460558E+02 -0.11157070623E+04  0.11460829222E+04  0.46999998093E+01 0. -1.
       -5    1    3    3    0  502 -0.25189748792E+03  0.72314460558E+02  0.27795293620E+04  0.27918609008E+04  0.46999998093E+01 0.  1.
</event>
<event>
 5   0  0.1491854E-06  0.3593705E+04  0.7818609E-02  0.8091935E-01
        2   -1    0    0  501    0  0.00000000000E+00  0.00000000000E+00  0.99593226262E+03  0.99593226263E+03  0.25500000920E-02 0.  1.
       -2   -1    0    0    0  501  0.00000000000E+00  0.00000000000E+00 -0.32418652473E+04  0.32418652473E+04  0.25500000920E-02 0. -1.
    10030    2    1    2    0    0  0.00000000000E+00  0.00000000000E+00 -0.22459329847E+04  0.42377975099E+04  0.35937046016E+04 0.  0.
        5    1    3    3  502    0  0.44599164239E+03 -0.56747347594E+03  0.81747170546E+03  0.10905121596E+04  0.46999998093E+01 0.  1.
       -5    1    3    3    0  502 -0.44599164239E+03  0.56747347594E+03 -0.30634046902E+04  0.31472853504E+04  0.46999998093E+01 0. -1.
</event>
<event>
 5   0  0.1468942E-06  0.3527567E+04  0.7818609E-02  0.8107288E-01
       -2   -1    0    0    0  501  0.00000000000E+00  0.00000000000E+00  0.17626745772E+04  0.17626745772E+04  0.25500000920E-02 0. -1.
        2   -1    0    0  501    0  0.00000000000E+00  0.00000000000E+00 -0.17648930179E+04  0.17648930179E+04  0.25500000920E-02 0.  1.
    10030    2    1    2    0    0  0.00000000000E+00  0.00000000000E+00 -0.22184407305E+01  0.35275675950E+04  0.35275668975E+04 0.  0.
        2    1    3    3  502    0  0.14899931057E+04 -0.81758125599E+03  0.47049821891E+03  0.17634872098E+04  0.25500000920E-02 0. -1.
       -2    1    3    3    0  502 -0.14899931057E+04  0.81758125599E+03 -0.47271665965E+03  0.17640803852E+04  0.25500000920E-02 0.  1.
</event>
<event>
 5   0  0.4811500E-07  0.2541857E+04  0.7818609E-02  0.8388224E-01
       -1   -1    0    0    0  501  0.00000000000E+00  0.00000000000E+00  0.10700556479E+04  0.10700556479E+04  0.50400001928E-02 0.  1.
        1   -1    0    0  501    0  0.00000000000E+00  0.00000000000E+00 -0.15095097830E+04  0.15095097830E+04  0.50400001928E-02 0. -1.
    10030    2    1    2    0    0  0.00000000000E+00  0.00000000000E+00 -0.43945413505E+03  0.25795654309E+04  0.25418571705E+04 0.  0.
        4    1    3    3  502    0  0.63712696741E+03 -0.69315992599E+03  0.64666883702E+03  0.11421837213E+04  0.12699999809E+01 0.  1.
       -4    1    3    3    0  502 -0.63712696741E+03  0.69315992599E+03 -0.10861229721E+04  0.14373817096E+04  0.12699999809E+01 0. -1.
</event>
<event>
 5   0  0.1444091E-06  0.3615629E+04  0.7818609E-02  0.8086921E-01
       -2   -1    0    0    0  501  0.00000000000E+00  0.00000000000E+00  0.15891705498E+04  0.15891705498E+04  0.25500000920E-02 0. -1.
        2   -1    0    0  501    0  0.00000000000E+00  0.00000000000E+00 -0.20565399744E+04  0.20565399744E+04  0.25500000920E-02 0.  1.
    10030    2    1    2    0    0  0.00000000000E+00  0.00000000000E+00 -0.46736942462E+03  0.36457105243E+04  0.36156287209E+04 0.  0.
        1    1    3    3  502    0  0.38534391806E+03 -0.17320698294E+04 -0.58244818172E+03  0.18675657187E+04  0.50400001928E-02 0. -1.
       -1    1    3    3    0  502 -0.38534391806E+03  0.17320698294E+04  0.11507875709E+03  0.17781448056E+04  0.50400001928E-02 0.  1.
</event>
<event>
 5   0  0.1491854E-06  0.3533273E+04  0.7818609E-02  0.8105950E-01
        2   -1    0    0  501    0  0.00000000000E+00  0.00000000000E+00  0.18624682406E+04  0.18624682406E+04  0.25500000920E-02 0.  1.
       -2   -1    0    0    0  501  0.00000000000E+00  0.00000000000E+00 -0.16757358618E+04  0.16757358618E+04  0.25500000920E-02 0. -1.
    10030    2    1    2    0    0  0.00000000000E+00  0.00000000000E+00  0.18673237881E+03  0.35382041025E+04  0.35332731694E+04 0.  0.
        5    1    3    3  502    0  0.10394124801E+04 -0.14580569130E+03 -0.13296536068E+04  0.16940007106E+04  0.46999998093E+01 0. -1.
       -5    1    3    3    0  502 -0.10394124801E+04  0.14580569130E+03  0.15163859856E+04  0.18442033919E+04  0.46999998093E+01 0.  1.
</event>
<event>
 5   0  0.1379425E-06  0.3433493E+04  0.7818609E-02  0.8129735E-01
        2   -1    0    0  501    0  0.00000000000E+00  0.00000000000E+00  0.20949564074E+04  0.20949564074E+04  0.25500000920E-02 0. -1.
       -2   -1    0    0    0  501  0.00000000000E+00  0.00000000000E+00 -0.14068160875E+04  0.14068160875E+04  0.25500000920E-02 0.  1.
    10030    2    1    2    0    0  0.00000000000E+00  0.00000000000E+00  0.68814031987E+03  0.35017724949E+04  0.34334929017E+04 0.  0.
        4    1    3    3  502    0  0.20055578891E+03  0.38643085419E+03  0.20377158184E+04  0.20837079447E+04  0.12699999809E+01 0. -1.
       -4    1    3    3    0  502 -0.20055578891E+03 -0.38643085419E+03 -0.13495754985E+04  0.14180645502E+04  0.12699999809E+01 0.  1.
</event>
<event>
 5   0  0.1505671E-06  0.3628700E+04  0.7818609E-02  0.8083949E-01
       -2   -1    0    0    0  501  0.00000000000E+00  0.00000000000E+00  0.18344833403E+04  0.18344833403E+04  0.25500000920E-02 0.  1.
        2   -1    0    0  501    0  0.00000000000E+00  0.00000000000E+00 -0.17944377594E+04  0.17944377594E+04  0.25500000920E-02 0. -1.
    10030    2    1    2    0    0  0.00000000000E+00  0.00000000000E+00  0.40045580924E+02  0.36289210997E+04  0.36287001391E+04 0.  0.
        3    1    3    3  502    0 -0.14177276460E+04 -0.10867970775E+04  0.33751117346E+03  0.18179640724E+04  0.10100000352E+00 0. -1.
       -3    1    3    3    0  502  0.14177276460E+04  0.10867970775E+04 -0.29746559254E+03  0.18109570274E+04  0.10100000352E+00 0.  1.
</event>
<event>
 5   0  0.1505671E-06  0.3625788E+04  0.7818609E-02  0.8084610E-01
       -2   -1    0    0    0  501  0.00000000000E+00  0.00000000000E+00  0.17303269494E+04  0.17303269494E+04  0.25500000920E-02 0.  1.
        2   -1    0    0  501    0  0.00000000000E+00  0.00000000000E+00 -0.18994013858E+04  0.18994013858E+04  0.25500000920E-02 0. -1.
    10030    2    1    2    0    0  0.00000000000E+00  0.00000000000E+00 -0.16907443637E+03  0.36297283352E+04  0.36257884139E+04 0.  0.
        3    1    3    3  502    0 -0.82223384168E+03  0.16126621657E+04  0.14755459388E+02  0.18102390685E+04  0.10100000352E+00 0.  1.
       -3    1    3    3    0  502  0.82223384168E+03 -0.16126621657E+04 -0.18382989576E+03  0.18194892668E+04  0.10100000352E+00 0. -1.
</event>
<event>
 5   0  0.4811500E-07  0.2921916E+04  0.7818609E-02  0.8266387E-01
       -1   -1    0    0    0  501  0.00000000000E+00  0.00000000000E+00  0.92960819541E+03  0.92960819543E+03  0.50400001928E-02 0. -1.
        1   -1    0    0  501    0  0.00000000000E+00  0.00000000000E+00 -0.22960188211E+04  0.22960188211E+04  0.50400001928E-02 0.  1.
    10030    2    1    2    0    0  0.00000000000E+00  0.00000000000E+00 -0.13664106257E+04  0.32256270165E+04  0.29219157503E+04 0.  0.
        4    1    3    3  502    0 -0.93815726214E+02 -0.80396197539E+02  0.92382991776E+03  0.93205593658E+03  0.12699999809E+01 0. -1.
       -4    1    3    3    0  502  0.93815726214E+02  0.80396197539E+02 -0.22902405435E+04  0.22935710800E+04  0.12699999809E+01 0.  1.
</event>
<event>
 5   0  0.4811500E-07  0.3081966E+04  0.7818609E-02  0.8220705E-01
       -1   -1    0    0    0  501  0.00000000000E+00  0.00000000000E+00  0.18726620183E+04  0.18726620183E+04  0.50400001928E-02 0.  1.
        1   -1    0    0  501    0  0.00000000000E+00  0.00000000000E+00 -0.12680499258E+04  0.12680499258E+04  0.50400001928E-02 0. -1.
    10030    2    1    2    0    0  0.00000000000E+00  0.00000000000E+00  0.60461209258E+03  0.31407119441E+04  0.30819662122E+04 0.  0.
        3    1    3    3  502    0 -0.96787411329E+03  0.11722242887E+04  0.45028246131E+02  0.15208279440E+04  0.10100000352E+00 0. -1.
       -3    1    3    3    0  502  0.96787411329E+03 -0.11722242887E+04  0.55958384645E+03  0.16198840001E+04  0.10100000352E+00 0.  1.
</event>
<event>
 5   0  0.4811500E-07  0.3502671E+04  0.7818609E-02  0.8113157E-01
        1   -1    0    0  501    0  0.00000000000E+00  0.00000000000E+00  0.14519323020E+04  0.14519323020E+04  0.50400001928E-02 0.  1.
       -1   -1    0    0    0  501  0.00000000000E+00  0.00000000000E+00 -0.21124784619E+04  0.21124784620E+04  0.50400001928E-02 0. -1.
    10030    2    1    2    0    0  0.00000000000E+00  0.00000000000E+00 -0.66054615996E+03  0.35644107640E+04  0.35026708188E+04 0.  0.
        5    1    3    3  502    0 -0.15906470702E+04 -0.69856077733E+03 -0.10499261824E+03  0.17404570668E+04  0.46999998093E+01 0.  1.
       -5    1    3    3    0  502  0.15906470702E+04  0.69856077733E+03 -0.55555354172E+03  0.18239536971E+04  0.46999998093E+01 0. -1.
</event>
<event>
 5   0  0.1444091E-06  0.3576436E+04  0.7818609E-02  0.8095911E-01
       -2   -1    0    0    0  501  0.00000000000E+00  0.00000000000E+00  0.19568117731E+04  0.19568117731E+04  0.25500000920E-02 0.  1.
        2   -1    0    0  501    0  0.00000000000E+00  0.00000000000E+00 -0.16341502584E+04  0.16341502584E+04  0.25500000920E-02 0. -1.
    10030    2    1    2    0    0  0.00000000000E+00  0.00000000000E+00  0.32266151472E+03  0.35909620314E+04  0.35764364748E+04 0.  0.
        1    1    3    3  502    0 -0.28447500048E+03 -0.92354698457E+03  0.16720543925E+04  0.19312252459E+04  0.50400001928E-02 0.  1.
       -1    1    3    3    0  502  0.28447500048E+03  0.92354698457E+03 -0.13493928778E+04  0.16597367856E+04  0.50400001928E-02 0. -1.
</event>
<event>
 5   0  0.1491854E-06  0.2595935E+04  0.7818609E-02  0.8369583E-01
        2   -1    0    0  501    0  0.00000000000E+00  0.00000000000E+00  0.13510657283E+04  0.13510657283E+04  0.25500000920E-02 0.  1.
       -2   -1    0    0    0  501  0.00000000000E+00  0.00000000000E+00 -0.12469564214E+04  0.12469564214E+04  0.25500000920E-02 0. -1.
    10030    2    1    2    0    0  0.00000000000E+00  0.00000000000E+00  0.10410930692E+03  0.25980221497E+04  0.25959353502E+04 0.  0.
        5    1    3    3  502    0  0.34660635922E+03 -0.12090927507E+04  0.37271313150E+03  0.13118606696E+04  0.46999998093E+01 0. -1.
       -5    1    3    3    0  502 -0.34660635922E+03  0.12090927507E+04 -0.26860382458E+03  0.12861614800E+04  0.46999998093E+01 0.  1.
</event>
<event>
 5   0  0.4811500E-07  0.3262188E+04  0.7818609E-02  0.8172584E-01
        1   -1    0    0  501    0  0.00000000000E+00  0.00000000000E+00  0.28627533884E+04  0.28627533884E+04  0.50400001928E-02 0. -1.
       -1   -1    0    0    0  501  0.00000000000E+00  0.00000000000E+00 -0.92933872354E+03  0.92933872356E+03  0.50400001928E-02 0.  1.
    10030    2    1    2    0    0  0.00000000000E+00  0.00000000000E+00  0.19334146649E+04  0.37920921120E+04  0.32621879651E+04 0.  0.
        5    1    3    3  502    0  0.63614412689E+03  0.10825390036E+04 -0.24349945878E+03  0.12790168572E+04  0.46999998093E+01 0.  1.
       -5    1    3    3    0  502 -0.63614412689E+03 -0.10825390036E+04  0.21769141236E+04  0.25130752548E+04  0.46999998093E+01 0. -1.
</event>
<event>
 5   0  0.5071661E-07  0.3623450E+04  0.7818609E-02  0.8085141E-01
       -1   -1    0    0    0  501  0.00000000000E+00  0.00000000000E+00  0.18216657582E+04  0.18216657582E+04  0.50400001928E-02 0.  1.
        1   -1    0    0  501    0  0.00000000000E+00  0.00000000000E+00 -0.18018388551E+04  0.18018388551E+04  0.50400001928E-02 0. -1.
    10030    2    1    2    0    0  0.00000000000E+00  0.00000000000E+00  0.19826903109E+02  0.36235046133E+04  0.36234503690E+04 0.  0.
        1    1    3    3  502    0  0.95344442106E+03  0.11446953592E+04 -0.10211036389E+04  0.18061108412E+04  0.50400001928E-02 0. -1.
       -1    1    3    3    0  502 -0.95344442106E+03 -0.11446953592E+04  0.10409305420E+04  0.18173937721E+04  0.50400001928E-02 0.  1.
</event>
<event>
 5   0  0.1379425E-06  0.3724714E+04  0.7818609E-02  0.8062507E-01
       -2   -1    0    0    0  501  0.00000000000E+00  0.00000000000E+00  0.14311236967E+04  0.14311236967E+04  0.25500000920E-02 0. -1.
        2   -1    0    0  501    0  0.00000000000E+00  0.00000000000E+00 -0.24235314725E+04  0.24235314725E+04  0.25500000920E-02 0.  1.
    10030    2    1    2    0    0  0.00000000000E+00  0.00000000000E+00 -0.99240777580E+03  0.38546551693E+04  0.37247138522E+04 0.  0.
        4    1    3    3  502    0 -0.17444274018E+04 -0.63293454768E+03 -0.65897608571E+03  0.19692344188E+04  0.12699999809E+01 0. -1.
       -4    1    3    3    0  502  0.17444274018E+04  0.63293454768E+03 -0.33343169009E+03  0.18854207505E+04  0.12699999809E+01 0.  1.
</event>
<event>
 5   0  0.4811500E-07  0.3539384E+04  0.7818609E-02  0.8104519E-01
        1   -1    0    0  501    0  0.00000000000E+00  0.00000000000E+00  0.22778765419E+04  0.22778765419E+04  0.50400001928E-02 0. -1.
       -1   -1    0    0    0  501  0.00000000000E+00  0.00000000000E+00 -0.13748814566E+04  0.13748814566E+04  0.50400001928E-02 0.  1.
    10030    2    1    2    0    0  0.00000000000E+00  0.00000000000E+00  0.90299508530E+03  0.36527579984E+04  0.35393842503E+04 0.  0.
        4    1    3    3  502    0 -0.16793452613E+04 -0.41567376312E+03  0.83602252211E+03  0.19214370805E+04  0.12699999809E+01 0. -1.
       -4    1    3    3    0  502  0.16793452613E+04  0.41567376312E+03  0.66972563186E+02  0.17313209180E+04  0.12699999809E+01 0.  1.
</event>
<event>
 5   0  0.1379425E-06  0.3668988E+04  0.7818609E-02  0.8074869E-01
        2   -1    0    0  501    0  0.00000000000E+00  0.00000000000E+00  0.30919965417E+04  0.30919965417E+04  0.25500000920E-02 0.  1.
       -2   -1    0    0    0  501  0.00000000000E+00  0.00000000000E+00 -0.10884129267E+04  0.10884129267E+04  0.25500000920E-02 0. -1.
    10030    2    1    2    0    0  0.00000000000E+00  0.00000000000E+00  0.20035836150E+04  0.41804094684E+04  0.36689884193E+04 0.  0.
        4    1    3    3  502    0 -0.22632686931E+03  0.10926961235E+04 -0.65724747459E+03  0.12950615916E+04  0.12699999809E+01 0. -1.
       -4    1    3    3    0  502  0.22632686931E+03 -0.10926961235E+04  0.26608310896E+04  0.28853478769E+04  0.12699999809E+01 0.  1.
</event>
<event>
 5   0  0.1444091E-06  0.3642817E+04  0.7818609E-02  0.8080754E-01
       -2   -1    0    0    0  501  0.00000000000E+00  0.00000000000E+00  0.19072096004E+04  0.19072096004E+04  0.25500000920E-02 0.  1.
        2   -1    0    0  501    0  0.00000000000E+00  0.00000000000E+00 -0.17394677549E+04  0.17394677549E+04  0.25500000920E-02 0. -1.
    10030    2    1    2    0    0  0.00000000000E+00  0.00000000000E+00  0.16774184544E+03  0.36466773553E+04  0.36428173722E+04 0.  0.
        1    1    3    3  502    0  0.80820330342E+03 -0.36701979001E+03 -0.15082965340E+04  0.17501012943E+04  0.50400001928E-02 0. -1.
       -1    1    3    3    0  502 -0.80820330342E+03  0.36701979001E+03  0.16760383794E+04  0.18965760610E+04  0.50400001928E-02 0.  1.
</event>
<event>
 5   0  0.1491854E-06  0.3675435E+04  0.7818609E-02  0.8073428E-01
       -2   -1    0    0    0  501  0.00000000000E+00  0.00000000000E+00  0.27397436835E+04  0.27397436835E+04  0.25500000920E-02 0. -1.
        2   -1    0    0  501    0  0.00000000000E+00  0.00000000000E+00 -0.12326722736E+04  0.12326722736E+04  0.25500000920E-02 0.  1.
    10030    2    1    2    0    0  0.00000000000E+00  0.00000000000E+00  0.15070714100E+04  0.39724159571E+04  0.36754352534E+04 0.  0.
        5    1    3    3  502    0 -0.15157960010E+04  0.21269191049E+03 -0.34564985197E+03  0.15691944671E+04  0.46999998093E+01 0.  1.
       -5    1    3    3    0  502  0.15157960010E+04 -0.21269191049E+03  0.18527212619E+04  0.24032214900E+04  0.46999998093E+01 0. -1.
</event>
<event>
 5   0  0.5071661E-07  0.3554402E+04  0.7818609E-02  0.8101017E-01
       -1   -1    0    0    0  501  0.00000000000E+00  0.00000000000E+00  0.17107033128E+04  0.17107033128E+04  0.50400001928E-02 0.  1.
        1   -1    0    0  501    0  0.00000000000E+00  0.00000000000E+00 -0.18462834830E+04  0.18462834831E+04  0.50400001928E-02 0. -1.
    10030    2    1    2    0    0  0.00000000000E+00  0.00000000000E+00 -0.13558017025E+03  0.35569867959E+04  0.35544019305E+04 0.  0.
        1    1    3    3  502    0  0.90897963398E+03  0.13883022889E+04 -0.70450434813E+03  0.18027627678E+04  0.50400001928E-02 0.  1.
       -1    1    3    3    0  502 -0.90897963398E+03 -0.13883022889E+04  0.56892417788E+03  0.17542240281E+04  0.50400001928E-02 0. -1.
</event>
<event>
 5   0  0.4811500E-07  0.3560539E+04  0.7818609E-02  0.8099591E-01
       -1   -1    0    0    0  501  0.00000000000E+00  0.00000000000E+00  0.24862972416E+04  0.24862972416E+04  0.50400001928E-02 0.  1.
        1   -1    0    0  501    0  0.00000000000E+00  0.00000000000E+00 -0.12747305893E+04  0.12747305893E+04  0.50400001928E-02 0. -1.
    10030    2    1    2    0    0  0.00000000000E+00  0.00000000000E+00  0.12115666523E+04  0.37610278309E+04  0.35605388064E+04 0.  0.
        5    1    3    3  502    0 -0.15061403682E+04  0.10895555871E+02 -0.39674178109E+03  0.15575633704E+04  0.46999998093E+01 0. -1.
       -5    1    3    3    0  502  0.15061403682E+04 -0.10895555871E+02  0.16083084334E+04  0.22034644605E+04  0.46999998093E+01 0.  1.
</event>
<event>
 5   0  0.1379425E-06  0.3384288E+04  0.7818609E-02  0.8141773E-01
        2   -1    0    0  501    0  0.00000000000E+00  0.00000000000E+00  0.20230435298E+04  0.20230435298E+04  0.25500000920E-02 0. -1.
       -2   -1    0    0    0  501  0.00000000000E+00  0.00000000000E+00 -0.14153680295E+04  0.14153680295E+04  0.25500000920E-02 0.  1.
    10030    2    1    2    0    0  0.00000000000E+00  0.00000000000E+00  0.60767550025E+03  0.34384115593E+04  0.33842878922E+04 0.  0.
        4    1    3    3  502    0  0.10557899310E+04 -0.13087420035E+04  0.11146467256E+03  0.16852074045E+04  0.12699999809E+01 0. -1.
       -4    1    3    3    0  502 -0.10557899310E+04  0.13087420035E+04  0.49621082769E+03  0.17532041548E+04  0.12699999809E+01 0.  1.
</event>
<event>
 5   0  0.4811500E-07  0.3595323E+04  0.7818609E-02  0.8091564E-01
        1   -1    0    0  501    0  0.00000000000E+00  0.00000000000E+00  0.29155415520E+04  0.29155415520E+04  0.50400001928E-02 0. -1.
       -1   -1    0    0    0  501  0.00000000000E+00  0.00000000000E+00 -0.11084003603E+04  0.11084003603E+04  0.50400001928E-02 0.  1.
    10030    2    1    2    0    0  0.00000000000E+00  0.00000000000E+00  0.18071411917E+04  0.40239419122E+04  0.35953232437E+04 0.  0.
        4    1    3    3  502    0 -0.64810981026E+03  0.55146875928E+03 -0.86868942059E+03  0.12160538808E+04  0.12699999809E+01 0.  1.
       -4    1    3    3    0  502  0.64810981026E+03 -0.55146875928E+03  0.26758306123E+04  0.28078880315E+04  0.12699999809E+01 0. -1.
</event>
<event>
 5   0  0.1379425E-06  0.2568606E+04  0.7818609E-02  0.8378944E-01
        2   -1    0    0  501    0  0.00000000000E+00  0.00000000000E+00  0.21062039863E+04  0.21062039863E+04  0.25500000920E-02 0. -1.
       -2   -1    0    0    0  501  0.00000000000E+00  0.00000000000E+00 -0.78313140749E+03  0.78313140749E+03  0.25500000920E-02 0.  1.
    10030    2    1    2    0    0  0.00000000000E+00  0.00000000000E+00  0.13230725789E+04  0.28893353938E+04  0.25686062308E+04 0.  0.
        4    1    3    3  502    0  0.60777056718E+02  0.10045901278E+03 -0.77708081222E+03  0.78590207119E+03  0.12699999809E+01 0.  1.
       -4    1    3    3    0  502 -0.60777056718E+02 -0.10045901278E+03  0.21001533911E+04  0.21034333226E+04  0.12699999809E+01 0. -1.
</event>
<event>
 5   0  0.4811500E-07  0.2304798E+04  0.7818609E-02  0.8476032E-01
       -1   -1    0    0    0  501  0.00000000000E+00  0.00000000000E+00  0.99609853476E+03  0.99609853477E+03  0.50400001928E-02 0.  1.
        1   -1    0    0  501    0  0.00000000000E+00  0.00000000000E+00 -0.13332254420E+04  0.13332254420E+04  0.50400001928E-02 0. -1.
    10030    2    1    2    0    0  0.00000000000E+00  0.00000000000E+00 -0.33712690720E+03  0.23293239767E+04  0.23047983940E+04 0.  0.
        2    1    3    3  502    0 -0.23997357819E+03  0.74918290956E+03 -0.10196418125E+04  0.12878399652E+04  0.25500000920E-02 0. -1.
       -2    1    3    3    0  502  0.23997357819E+03 -0.74918290956E+03  0.68251490533E+03  0.10414840115E+04  0.25500000920E-02 0.  1.
</event>
<event>
 5   0  0.1444091E-06  0.3613345E+04  0.7818609E-02  0.8087442E-01
       -2   -1    0    0    0  501  0.00000000000E+00  0.00000000000E+00  0.12762303949E+04  0.12762303949E+04  0.25500000920E-02 0. -1.
        2   -1    0    0  501    0  0.00000000000E+00  0.00000000000E+00 -0.25575829934E+04  0.25575829934E+04  0.25500000920E-02 0.  1.
    10030    2    1    2    0    0  0.00000000000E+00  0.00000000000E+00 -0.12813525985E+04  0.38338133883E+04  0.36133447960E+04 0.  0.
        1    1    3    3  502    0  0.46456894392E+03  0.88718409356E+03 -0.22361358332E+04  0.24501476249E+04  0.50400001928E-02 0.  1.
       -1    1    3    3    0  502 -0.46456894392E+03 -0.88718409356E+03  0.95478323466E+03  0.13836657634E+04  0.50400001928E-02 0. -1.
</event>
<event>
 5   0  0.5071661E-07  0.3249918E+04  0.7818609E-02  0.8175757E-01
        1   -1    0    0  501    0  0.00000000000E+00  0.00000000000E+00  0.11547815979E+04  0.11547815979E+04  0.50400001928E-02 0. -1.
       -1   -1    0    0    0  501  0.00000000000E+00  0.00000000000E+00 -0.22865721022E+04  0.22865721022E+04  0.50400001928E-02 0.  1.
    10030    2    1    2    0    0  0.00000000000E+00  0.00000000000E+00 -0.11317905043E+04  0.34413537001E+04  0.32499177749E+04 0.  0.
        1    1    3    3  502    0  0.14152869593E+03 -0.15841506743E+04 -0.21321848196E+03  0.16046887086E+04  0.50400001928E-02 0.  1.
       -1    1    3    3    0  502 -0.14152869593E+03  0.15841506743E+04 -0.91857202238E+03  0.18366649915E+04  0.50400001928E-02 0. -1.
</event>
<event>
 5   0  0.5071661E-07  0.3044991E+04  0.7818609E-02  0.8230999E-01
       -1   -1    0    0    0  501  0.00000000000E+00  0.00000000000E+00  0.99655746310E+03  0.99655746312E+03  0.50400001928E-02 0.  1.
        1   -1    0    0  501    0  0.00000000000E+00  0.00000000000E+00 -0.23260002118E+04  0.23260002118E+04  0.50400001928E-02 0. -1.
    10030    2    1    2    0    0  0.00000000000E+00  0.00000000000E+00 -0.13294427487E+04  0.33225576749E+04  0.30449912120E+04 0.  0.
        1    1    3    3  502    0 -0.13047955222E+03  0.31768393589E+03 -0.22831824328E+04  0.23088676918E+04  0.50400001928E-02 0. -1.
       -1    1    3    3    0  502  0.13047955222E+03 -0.31768393589E+03  0.95373968415E+03  0.10136899831E+04  0.50400001928E-02 0.  1.
</event>
<event>
 5   0  0.4811500E-07  0.3572941E+04  0.7818609E-02  0.8096718E-01
        1   -1    0    0  501    0  0.00000000000E+00  0.00000000000E+00  0.22043306686E+04  0.22043306686E+04  0.50400001928E-02 0.  1.
       -1   -1    0    0    0  501  0.00000000000E+00  0.00000000000E+00 -0.14478209389E+04  0.14478209389E+04  0.50400001928E-02 0. -1.
    10030    2    1    2    0    0  0.00000000000E+00  0.00000000000E+00  0.75650972967E+03  0.36521516075E+04  0.35729405807E+04 0.  0.
        3    1    3    3  502    0  0.13762123522E+04  0.84695516693E+03 -0.40032891506E+03  0.16647993103E+04  0.10100000352E+00 0. -1.
       -3    1    3    3    0  502 -0.13762123522E+04 -0.84695516693E+03  0.11568386447E+04  0.19873522972E+04  0.10100000352E+00 0.  1.
</event>
<event>
 5   0  0.1505671E-06  0.3707876E+04  0.7818609E-02  0.8066219E-01
       -2   -1    0    0    0  501  0.00000000000E+00  0.00000000000E+00  0.16936810446E+04  0.16936810446E+04  0.25500000920E-02 0. -1.
        2   -1    0    0  501    0  0.00000000000E+00  0.00000000000E+00 -0.20293583047E+04  0.20293583047E+04  0.25500000920E-02 0.  1.
    10030    2    1    2    0    0  0.00000000000E+00  0.00000000000E+00 -0.33567726005E+03  0.37230393493E+04  0.37078757764E+04 0.  0.
        3    1    3    3  502    0 -0.93028040863E+03  0.11588300994E+04  0.94519672615E+03  0.17611660056E+04  0.10100000352E+00 0. -1.
       -3    1    3    3    0  502  0.93028040863E+03 -0.11588300994E+04 -0.12808739862E+04  0.19618733437E+04  0.10100000352E+00 0.  1.
</event>
<event>
 5   0  0.1468942E-06  0.3608316E+04  0.7818609E-02  0.8088590E-01
       -2   -1    0    0    0  501  0.00000000000E+00  0.00000000000E+00  0.25334896111E+04  0.25334896111E+04  0.25500000920E-02 0.  1.
        2   -1    0    0  501    0  0.00000000000E+00  0.00000000000E+00 -0.12847834876E+04  0.12847834877E+04  0.25500000920E-02 0. -1.
    10030    2    1    2    0    0  0.00000000000E+00  0.00000000000E+00  0.12487061234E+04  0.38182730987E+04  0.36083157392E+04 0.  0.
        2    1    3    3  502    0  0.80275334329E+03 -0.33660796227E+03 -0.10478730896E+04  0.13622613047E+04  0.25500000920E-02 0. -1.
       -2    1    3    3    0  502 -0.80275334329E+03  0.33660796227E+03  0.22965792131E+04  0.24560117940E+04  0.25500000920E-02 0.  1.
</event>
<event>
 5   0  0.4811500E-07  0.3571128E+04  0.7818609E-02  0.8097137E-01
       -1   -1    0    0    0  501  0.00000000000E+00  0.00000000000E+00  0.15893227584E+04  0.15893227584E+04  0.50400001928E-02 0.  1.
        1   -1    0    0  501    0  0.00000000000E+00  0.00000000000E+00 -0.20060359379E+04  0.20060359379E+04  0.50400001928E-02 0. -1.
    10030    2    1    2    0    0  0.00000000000E+00  0.00000000000E+00 -0.41671317947E+03  0.35953586963E+04  0.35711278724E+04 0.  0.
        2    1    3    3  502    0  0.90946217389E+03  0.14611980970E+04  0.27028189253E+03  0.17422036695E+04  0.25500000920E-02 0.  1.
       -2    1    3    3    0  502 -0.90946217389E+03 -0.14611980970E+04 -0.68699507200E+03  0.18531550268E+04  0.25500000920E-02 0. -1.
</event>
<event>
 5   0  0.1379425E-06  0.3162634E+04  0.7818609E-02  0.8198756E-01
        2   -1    0    0  501    0  0.00000000000E+00  0.00000000000E+00  0.25231734972E+04  0.25231734972E+04  0.25500000920E-02 0.  1.
       -2   -1    0    0    0  501  0.00000000000E+00  0.00000000000E+00 -0.99103891669E+03  0.99103891669E+03  0.25500000920E-02 0. -1.
    10030    2    1    2    0    0  0.00000000000E+00  0.00000000000E+00  0.15321345805E+04  0.35142124139E+04  0.31626337944E+04 0.  0.
        4    1    3    3  502    0 -0.14505444719E+04  0.57724871938E+03  0.10455563833E+04  0.18789585180E+04  0.12699999809E+01 0. -1.
       -4    1    3    3    0  502  0.14505444719E+04 -0.57724871938E+03  0.48657819726E+03  0.16352538959E+04  0.12699999809E+01 0.  1.
</event>
<event>
 5   0  0.1491854E-06  0.3588696E+04  0.7818609E-02  0.8093086E-01
       -2   -1    0    0    0  501  0.00000000000E+00  0.00000000000E+00  0.10177165490E+04  0.10177165490E+04  0.25500000920E-02 0. -1.
        2   -1    0    0  501    0  0.00000000000E+00  0.00000000000E+00 -0.31636358938E+04  0.31636358938E+04  0.25500000920E-02 0.  1.
    10030    2    1    2    0    0  0.00000000000E+00  0.00000000000E+00 -0.21459193448E+04  0.41813524428E+04  0.35886959215E+04 0.  0.
        5    1    3    3  502    0  0.57667811344E+02  0.29412458843E+03 -0.31342555123E+04  0.31485575358E+04  0.46999998093E+01 0.  1.
       -5    1    3    3    0  502 -0.57667811344E+02 -0.29412458843E+03  0.98833616750E+03  0.10327949070E+04  0.46999998093E+01 0. -1.
</event>
<event>
 5   0  0.4811500E-07  0.3516157E+04  0.7818609E-02  0.8109972E-01
       -1   -1    0    0    0  501  0.00000000000E+00  0.00000000000E+00  0.23708984426E+04  0.23708984426E+04  0.50400001928E-02 0. -1.
        1   -1    0    0  501    0  0.00000000000E+00  0.00000000000E+00 -0.13036574382E+04  0.13036574383E+04  0.50400001928E-02 0.  1.
    10030    2    1    2    0    0  0.00000000000E+00  0.00000000000E+00  0.10672410044E+04  0.36745558809E+04  0.35161566461E+04 0.  0.
        4    1    3    3  502    0  0.13782685801E+04 -0.27896912477E+02  0.16738428076E+04  0.21684450360E+04  0.12699999809E+01 0. -1.
       -4    1    3    3    0  502 -0.13782685801E+04  0.27896912477E+02 -0.60660180324E+03  0.15061108449E+04  0.12699999809E+01 0.  1.
</event>
<event>
 5   0  0.1379425E-06  0.3232939E+04  0.7818609E-02  0.8180172E-01
       -2   -1    0    0    0  501  0.00000000000E+00  0.00000000000E+00  0.20989808517E+04  0.20989808517E+04  0.25500000920E-02 0.  1.
        2   -1    0    0  501    0  0.00000000000E+00  0.00000000000E+00 -0.12448776226E+04  0.12448776226E+04  0.25500000920E-02 0. -1.
    10030    2    1    2    0    0  0.00000000000E+00  0.00000000000E+00  0.85410322914E+03  0.33438584743E+04  0.32329394010E+04 0.  0.
        4    1    3    3  502    0  0.81529568084E+03 -0.13303692773E+04 -0.97933374958E+01  0.15603483533E+04  0.12699999809E+01 0. -1.
       -4    1    3    3    0  502 -0.81529568084E+03  0.13303692773E+04  0.86389656664E+03  0.17835101211E+04  0.12699999809E+01 0.  1.
</event>
<event>
 5   0  0.5071661E-07  0.3576189E+04  0.7818609E-02  0.8095968E-01
        1   -1    0    0  501    0  0.00000000000E+00  0.00000000000E+00  0.14976377877E+04  0.14976377877E+04  0.50400001928E-02 0.  1.
       -1   -1    0    0    0  501  0.00000000000E+00  0.00000000000E+00 -0.21348833076E+04  0.21348833076E+04  0.50400001928E-02 0. -1.
    10030    2    1    2    0    0  0.00000000000E+00  0.00000000000E+00 -0.63724551993E+03  0.36325210953E+04  0.35761889849E+04 0.  0.
        1    1    3    3  502    0 -0.17454810965E+04 -0.36581183100E+03 -0.45011992781E+03  0.18393288187E+04  0.50400001928E-02 0. -1.
       -1    1    3    3    0  502  0.17454810965E+04  0.36581183100E+03 -0.18712559212E+03  0.17931922767E+04  0.50400001928E-02 0.  1.
</event>
<event>
 5   0  0.1444091E-06  0.3669260E+04  0.7818609E-02  0.8074808E-01
       -2   -1    0    0    0  501  0.00000000000E+00  0.00000000000E+00  0.12558232253E+04  0.12558232253E+04  0.25500000920E-02 0.  1.
        2   -1    0    0  501    0  0.00000000000E+00  0.00000000000E+00 -0.26802083021E+04  0.26802083021E+04  0.25500000920E-02 0. -1.
    10030    2    1    2    0    0  0.00000000000E+00  0.00000000000E+00 -0.14243850768E+04  0.39360315274E+04  0.36692603256E+04 0.  0.
        1    1    3    3  502    0  0.13682285095E+04 -0.85179542168E+03 -0.16524245684E+04  0.23082702721E+04  0.50400001928E-02 0. -1.
       -1    1    3    3    0  502 -0.13682285095E+04  0.85179542168E+03  0.22803949159E+03  0.16277612553E+04  0.50400001928E-02 0.  1.
</event>
<event>
 5   0  0.4811500E-07  0.2203762E+04  0.7818609E-02  0.8516864E-01
        1   -1    0    0  501    0  0.00000000000E+00  0.00000000000E+00  0.13763528023E+04  0.13763528023E+04  0.50400001928E-02 0. -1.
       -1   -1    0    0    0  501  0.00000000000E+00  0.00000000000E+00 -0.88214397564E+03  0.88214397565E+03  0.50400001928E-02 0.  1.
    10030    2    1    2    0    0  0.00000000000E+00  0.00000000000E+00  0.49420882662E+03  0.22584967779E+04  0.22037616322E+04 0.  0.
        4    1    3    3  502    0 -0.32455266720E+03  0.87012390818E+03 -0.36065915624E+03  0.99625633712E+03  0.12699999809E+01 0.  1.
       -4    1    3    3    0  502  0.32455266720E+03 -0.87012390818E+03  0.85486798286E+03  0.12622404408E+04  0.12699999809E+01 0. -1.
</event>
<event>
 5   0  0.1468942E-06  0.3560112E+04  0.7818609E-02  0.8099690E-01
       -2   -1    0    0    0  501  0.00000000000E+00  0.00000000000E+00  0.15726137928E+04  0.15726137928E+04  0.25500000920E-02 0. -1.
        2   -1    0    0  501    0  0.00000000000E+00  0.00000000000E+00 -0.20148614787E+04  0.20148614787E+04  0.25500000920E-02 0.  1.
    10030    2    1    2    0    0  0.00000000000E+00  0.00000000000E+00 -0.44224768585E+03  0.35874752715E+04  0.35601117690E+04 0.  0.
        2    1    3    3  502    0 -0.84040985143E+03  0.13551952097E+04  0.57600377457E+03  0.16954713572E+04  0.25500000920E-02 0. -1.
       -2    1    3    3    0  502  0.84040985143E+03 -0.13551952097E+04 -0.10182514604E+04  0.18920039143E+04  0.25500000920E-02 0.  1.
</event>
<event>
 5   0  0.1468942E-06  0.3633933E+04  0.7818609E-02  0.8082763E-01
       -2   -1    0    0    0  501  0.00000000000E+00  0.00000000000E+00  0.32789871286E+04  0.32789871286E+04  0.25500000920E-02 0.  1.
        2   -1    0    0  501    0  0.00000000000E+00  0.00000000000E+00 -0.10068253727E+04  0.10068253727E+04  0.25500000920E-02 0. -1.
    10030    2    1    2    0    0  0.00000000000E+00  0.00000000000E+00  0.22721617558E+04  0.42858125013E+04  0.36339330968E+04 0.  0.
        2    1    3    3  502    0 -0.41335060638E+03  0.80682142245E+03 -0.72104991775E+03  0.11583317812E+04  0.25500000920E-02 0. -1.
       -2    1    3    3    0  502  0.41335060638E+03 -0.80682142245E+03  0.29932116736E+04  0.31274807201E+04  0.25500000920E-02 0.  1.
</event>
<event>
 5   0  0.4811500E-07  0.3458395E+04  0.7818609E-02  0.8123721E-01
       -1   -1    0    0    0  501  0.00000000000E+00  0.00000000000E+00  0.13842476508E+04  0.13842476508E+04  0.50400001928E-02 0. -1.
        1   -1    0    0  501    0  0.00000000000E+00  0.00000000000E+00 -0.21601079786E+04  0.21601079786E+04  0.50400001928E-02 0.  1.
    10030    2    1    2    0    0  0.00000000000E+00  0.00000000000E+00 -0.77586032785E+03  0.35443556294E+04  0.34583952318E+04 0.  0.
        4    1    3    3  502    0 -0.15755174123E+04 -0.59062331102E+03 -0.79663014117E+03  0.18616423413E+04  0.12699999809E+01 0.  1.
       -4    1    3    3    0  502  0.15755174123E+04  0.59062331102E+03  0.20769813312E+02  0.16827132881E+04  0.12699999809E+01 0. -1.
</event>
<event>
 5   0  0.4811500E-07  0.3653509E+04  0.7818609E-02  0.8078343E-01
       -1   -1    0    0    0  501  0.00000000000E+00  0.00000000000E+00  0.24657695162E+04  0.24657695163E+04  0.50400001928E-02 0. -1.
        1   -1    0    0  501    0  0.00000000000E+00  0.00000000000E+00 -0.13533433862E+04  0.13533433862E+04  0.50400001928E-02 0.  1.
    10030    2    1    2    0    0  0.00000000000E+00  0.00000000000E+00  0.11124261301E+04  0.38191129024E+04  0.36535094726E+04 0.  0.
        5    1    3    3  502    0 -0.88912193461E+03  0.12577472464E+04  0.15828419224E+04  0.22085915402E+04  0.46999998093E+01 0. -1.
       -5    1    3    3    0  502  0.88912193461E+03 -0.12577472464E+04 -0.47041579227E+03  0.16105213622E+04  0.46999998093E+01 0.  1.
</event>
<event>
 5   0  0.4811500E-07  0.3638390E+04  0.7818609E-02  0.8081754E-01
       -1   -1    0    0    0  501  0.00000000000E+00  0.00000000000E+00  0.14334131098E+04  0.14334131098E+04  0.50400001928E-02 0.  1.
        1   -1    0    0  501    0  0.00000000000E+00  0.00000000000E+00 -0.23088044997E+04  0.23088044997E+04  0.50400001928E-02 0. -1.
    10030    2    1    2    0    0  0.00000000000E+00  0.00000000000E+00 -0.87539138983E+03  0.37422176095E+04  0.36383901044E+04 0.  0.
        2    1    3    3  502    0  0.10916489659E+04 -0.10306930912E+04  0.61896989321E+03  0.16239302453E+04  0.25500000920E-02 0.  1.
       -2    1    3    3    0  502 -0.10916489659E+04  0.10306930912E+04 -0.14943612830E+04  0.21182873642E+04  0.25500000920E-02 0. -1.
</event>
<event>
 5   0  0.1505671E-06  0.3047715E+04  0.7818609E-02  0.8230235E-01
        2   -1    0    0  501    0  0.00000000000E+00  0.00000000000E+00  0.17359459158E+04  0.17359459158E+04  0.25500000920E-02 0. -1.
       -2   -1    0    0    0  501  0.00000000000E+00  0.00000000000E+00 -0.13376812334E+04  0.13376812334E+04  0.25500000920E-02 0.  1.
    10030    2    1    2    0    0  0.00000000000E+00  0.00000000000E+00  0.39826468242E+03  0.30736271492E+04  0.30477153895E+04 0.  0.
        3    1    3    3  502    0 -0.14198188214E+04  0.54704007928E+03  0.11473132736E+03  0.15258773285E+04  0.10100000352E+00 0.  1.
       -3    1    3    3    0  502  0.14198188214E+04 -0.54704007928E+03  0.28353335506E+03  0.15477498207E+04  0.10100000352E+00 0. -1.
</event>
<event>
 5   0  0.4811500E-07  0.3557853E+04  0.7818609E-02  0.8100215E-01
       -1   -1    0    0    0  501  0.00000000000E+00  0.00000000000E+00  0.30075368063E+04  0.30075368063E+04  0.50400001928E-02 0.  1.
        1   -1    0    0  501    0  0.00000000000E+00  0.00000000000E+00 -0.10522163072E+04  0.10522163072E+04  0.50400001928E-02 0. -1.
    10030    2    1    2    0    0  0.00000000000E+00  0.00000000000E+00  0.19553204991E+04  0.40597531135E+04  0.35578528762E+04 0.  0.
        2    1    3    3  502    0 -0.63321109739E+03  0.31803020693E+03 -0.88423308107E+03  0.11331229625E+04  0.25500000920E-02 0. -1.
       -2    1    3    3    0  502  0.63321109739E+03 -0.31803020693E+03  0.28395535802E+04  0.29266301511E+04  0.25500000920E-02 0.  1.
</event>
<event>
 5   0  0.5071661E-07  0.3680042E+04  0.7818609E-02  0.8072399E-01
       -1   -1    0    0    0  501  0.00000000000E+00  0.00000000000E+00  0.19104598807E+04  0.19104598807E+04  0.50400001928E-02 0. -1.
        1   -1    0    0  501    0  0.00000000000E+00  0.00000000000E+00 -0.17721796581E+04  0.17721796581E+04  0.50400001928E-02 0.  1.
    10030    2    1    2    0    0  0.00000000000E+00  0.00000000000E+00  0.13828022265E+03  0.36826395388E+04  0.36800424662E+04 0.  0.
        1    1    3    3  502    0  0.76002169761E+03  0.13003445589E+04 -0.98855858238E+03  0.18016040141E+04  0.50400001928E-02 0.  1.
       -1    1    3    3    0  502 -0.76002169761E+03 -0.13003445589E+04  0.11268388050E+04  0.18810355247E+04  0.50400001928E-02 0. -1.
</event>
<event>
 5   0  0.1444091E-06  0.3579197E+04  0.7818609E-02  0.8095273E-01
        2   -1    0    0  501    0  0.00000000000E+00  0.00000000000E+00  0.26233284436E+04  0.26233284436E+04  0.25500000920E-02 0. -1.
       -2   -1    0    0    0  501  0.00000000000E+00  0.00000000000E+00 -0.12208396723E+04  0.12208396723E+04  0.25500000920E-02 0.  1.
    10030    2    1    2    0    0  0.00000000000E+00  0.00000000000E+00  0.14024887712E+04  0.38441681159E+04  0.35791973611E+04 0.  0.
        1    1    3    3  502    0  0.74278527213E+03 -0.11988640714E+03 -0.10427119820E+04  0.12858269668E+04  0.50400001928E-02 0.  1.
       -1    1    3    3    0  502 -0.74278527213E+03  0.11988640714E+03  0.24452007533E+04  0.25583411490E+04  0.50400001928E-02 0. -1.
</event>
<event>
 5   0  0.4811500E-07  0.3484228E+04  0.7818609E-02  0.8117538E-01
       -1   -1    0    0    0  501  0.00000000000E+00  0.00000000000E+00  0.12584187893E+04  0.12584187893E+04  0.50400001928E-02 0.  1.
        1   -1    0    0  501    0  0.00000000000E+00  0.00000000000E+00 -0.24117258212E+04  0.24117258212E+04  0.50400001928E-02 0. -1.
    10030    2    1    2    0    0  0.00000000000E+00  0.00000000000E+00 -0.11533070319E+04  0.36701446105E+04  0.34842279421E+04 0.  0.
        5    1    3    3  502    0  0.57761769164E+03 -0.24032631781E+03  0.11360002168E+04  0.12968876279E+04  0.46999998093E+01 0.  1.
       -5    1    3    3    0  502 -0.57761769164E+03  0.24032631781E+03 -0.22893072487E+04  0.23732569827E+04  0.46999998093E+01 0. -1.
</event>
<event>
 5   0  0.4811500E-07  0.3598487E+04  0.7818609E-02  0.8090838E-01
        1   -1    0    0  501    0  0.00000000000E+00  0.00000000000E+00  0.27922052269E+04  0.27922052269E+04  0.50400001928E-02 0.  1.
       -1   -1    0    0    0  501  0.00000000000E+00  0.00000000000E+00 -0.11593982564E+04  0.11593982564E+04  0.50400001928E-02 0. -1.
    10030    2    1    2    0    0  0.00000000000E+00  0.00000000000E+00  0.16328069704E+04  0.39516034833E+04  0.35984873887E+04 0.  0.
        5    1    3    3  502    0  0.72317026842E+03  0.15154762964E+04  0.15260464994E+04  0.22690270273E+04  0.46999998093E+01 0.  1.
       -5    1    3    3    0  502 -0.72317026842E+03 -0.15154762964E+04  0.10676047105E+03  0.16825764560E+04  0.46999998093E+01 0. -1.
</event>
<event>
 5   0  0.1468942E-06  0.3589890E+04  0.7818609E-02  0.8092811E-01
        2   -1    0    0  501    0  0.00000000000E+00  0.00000000000E+00  0.18883305152E+04  0.18883305152E+04  0.25500000920E-02 0. -1.
       -2   -1    0    0    0  501  0.00000000000E+00  0.00000000000E+00 -0.17061781614E+04  0.17061781614E+04  0.25500000920E-02 0.  1.
    10030    2    1    2    0    0  0.00000000000E+00  0.00000000000E+00  0.18215235378E+03  0.35945086765E+04  0.35898904086E+04 0.  0.
        2    1    3    3  502    0  0.34018253575E+03  0.43592173641E+03 -0.16187729551E+04  0.17106074354E+04  0.25500000920E-02 0.  1.
       -2    1    3    3    0  502 -0.34018253575E+03 -0.43592173641E+03  0.18009253089E+04  0.18839012411E+04  0.25500000920E-02 0. -1.
</event>
<event>
 5   0  0.1468942E-06  0.2487276E+04  0.7818609E-02  0.8407533E-01
       -2   -1    0    0    0  501  0.00000000000E+00  0.00000000000E+00  0.10652620825E+04  0.10652620825E+04  0.25500000920E-02 0.  1.
        2   -1    0    0  501    0  0.00000000000E+00  0.00000000000E+00 -0.14518820400E+04  0.14518820400E+04  0.25500000920E-02 0. -1.
    10030    2    1    2    0    0  0.00000000000E+00  0.00000000000E+00 -0.38661995743E+03  0.25171441225E+04  0.24872755260E+04 0.  0.
        2    1    3    3  502    0  0.54641695934E+03 -0.10714428846E+04 -0.51345283176E+03  0.13077443018E+04  0.25500000920E-02 0. -1.
       -2    1    3    3    0  502 -0.54641695934E+03  0.10714428846E+04  0.12683287433E+03  0.12093998207E+04  0.25500000920E-02 0.  1.
</event>
<event>
 5   0  0.4811500E-07  0.3303824E+04  0.7818609E-02  0.8161923E-01
       -1   -1    0    0    0  501  0.00000000000E+00  0.00000000000E+00  0.11316369094E+04  0.11316369094E+04  0.50400001928E-02 0.  1.
        1   -1    0    0  501    0  0.00000000000E+00  0.00000000000E+00 -0.24113852080E+04  0.24113852080E+04  0.50400001928E-02 0. -1.
    10030    2    1    2    0    0  0.00000000000E+00  0.00000000000E+00 -0.12797482986E+04  0.35430221175E+04  0.33038235451E+04 0.  0.
        3    1    3    3  502    0 -0.11088363096E+04 -0.81059702937E+02 -0.19501017881E+04  0.22447685028E+04  0.10100000352E+00 0. -1.
       -3    1    3    3    0  502  0.11088363096E+04  0.81059702937E+02  0.67035348949E+03  0.12982536147E+04  0.10100000352E+00 0.  1.
</event>
<event>
 5   0  0.1491854E-06  0.3605607E+04  0.7818609E-02  0.8089208E-01
       -2   -1    0    0    0  501  0.00000000000E+00  0.00000000000E+00  0.19402153871E+04  0.19402153871E+04  0.25500000920E-02 0. -1.
        2   -1    0    0  501    0  0.00000000000E+00  0.00000000000E+00 -0.16751237688E+04  0.16751237688E+04  0.25500000920E-02 0.  1.
    10030    2    1    2    0    0  0.00000000000E+00  0.00000000000E+00  0.26509161834E+03  0.36153391559E+04  0.36056072507E+04 0.  0.
        5    1    3    3  502    0 -0.10087928734E+04  0.12476752971E+04  0.95678771726E+03  0.18681064033E+04  0.46999998093E+01 0. -1.
       -5    1    3    3    0  502  0.10087928734E+04 -0.12476752971E+04 -0.69169609892E+03  0.17472327526E+04  0.46999998093E+01 0.  1.
</event>
<event>
 5   0  0.4811500E-07  0.3432578E+04  0.7818609E-02  0.8129957E-01
       -1   -1    0    0    0  501  0.00000000000E+00  0.00000000000E+00  0.15003641922E+04  0.15003641922E+04  0.50400001928E-02 0.  1.
        1   -1    0    0  501    0  0.00000000000E+00  0.00000000000E+00 -0.19632883276E+04  0.19632883276E+04  0.50400001928E-02 0. -1.
    10030    2    1    2    0    0  0.00000000000E+00  0.00000000000E+00 -0.46292413536E+03  0.34636525198E+04  0.34325777519E+04 0.  0.
        4    1    3    3  502    0 -0.40813876435E+02 -0.10333996833E+02  0.14998425703E+04  0.15004339081E+04  0.12699999809E+01 0.  1.
       -4    1    3    3    0  502  0.40813876435E+02  0.10333996833E+02 -0.19627667056E+04  0.19632186118E+04  0.12699999809E+01 0. -1.
</event>
<event>
 5   0  0.1468942E-06  0.3675989E+04  0.7818609E-02  0.8073304E-01
       -2   -1    0    0    0  501  0.00000000000E+00  0.00000000000E+00  0.19321710454E+04  0.19321710454E+04  0.25500000920E-02 0.  1.
        2   -1    0    0  501    0  0.00000000000E+00  0.00000000000E+00 -0.17484079958E+04  0.17484079958E+04  0.25500000920E-02 0. -1.
    10030    2    1    2    0    0  0.00000000000E+00  0.00000000000E+00  0.18376304953E+03  0.36805790412E+04  0.36759887405E+04 0.  0.
        2    1    3    3  502    0  0.15419350884E+04  0.97764710388E+03 -0.12019805534E+03  0.18297008632E+04  0.25500000920E-02 0. -1.
       -2    1    3    3    0  502 -0.15419350884E+04 -0.97764710388E+03  0.30396110486E+03  0.18508781780E+04  0.25500000920E-02 0.  1.
</event>
<event>
 5   0  0.4811500E-07  0.3408557E+04  0.7818609E-02  0.8135809E-01
       -1   -1    0    0    0  501  0.00000000000E+00  0.00000000000E+00  0.21575044626E+04  0.21575044626E+04  0.50400001928E-02 0. -1.
        1   -1    0    0  501    0  0.00000000000E+00  0.00000000000E+00 -0.13462615704E+04  0.13462615704E+04  0.50400001928E-02 0.  1.
    10030    2    1    2    0    0  0.00000000000E+00  0.00000000000E+00  0.81124289220E+03  0.35037660331E+04  0.34085570825E+04 0.  0.
        3    1    3    3  502    0  0.34079969968E+03 -0.15619217860E+04  0.10127294860E+04  0.18924495034E+04  0.10100000352E+00 0. -1.
       -3    1    3    3    0  502 -0.34079969968E+03  0.15619217860E+04 -0.20148659379E+03  0.16113165296E+04  0.10100000352E+00 0.  1.
</event>
<event>
 5   0  0.4811500E-07  0.3588943E+04  0.7818609E-02  0.8093029E-01
        1   -1    0    0  501    0  0.00000000000E+00  0.00000000000E+00  0.16154879073E+04  0.16154879073E+04  0.50400001928E-02 0. -1.
       -1   -1    0    0    0  501  0.00000000000E+00  0.00000000000E+00 -0.19932848765E+04  0.19932848765E+04  0.50400001928E-02 0.  1.
    10030    2    1    2    0    0  0.00000000000E+00  0.00000000000E+00 -0.37779696918E+03  0.36087727838E+04  0.35889428047E+04 0.  0.
        5    1    3    3  502    0  0.17084785834E+04  0.31974233733E+03 -0.63742509192E+03  0.18513419646E+04  0.46999998093E+01 0. -1.
       -5    1    3    3    0  502 -0.17084785834E+04 -0.31974233733E+03  0.25962812274E+03  0.17574308192E+04  0.46999998093E+01 0.  1.
</event>
<event>
 5   0  0.4811500E-07  0.3100684E+04  0.7818609E-02  0.8215550E-01
       -1   -1    0    0    0  501  0.00000000000E+00  0.00000000000E+00  0.14573716555E+04  0.14573716555E+04  0.50400001928E-02 0.  1.
        1   -1    0    0  501    0  0.00000000000E+00  0.00000000000E+00 -0.16492427097E+04  0.16492427097E+04  0.50400001928E-02 0. -1.
    10030    2    1    2    0    0  0.00000000000E+00  0.00000000000E+00 -0.19187105419E+03  0.31066143652E+04  0.31006835234E+04 0.  0.
        2    1    3    3  502    0 -0.14029959015E+04  0.60260395444E+03 -0.36483396407E+03  0.15699149171E+04  0.25500000920E-02 0. -1.
       -2    1    3    3    0  502  0.14029959015E+04 -0.60260395444E+03  0.17296290988E+03  0.15366994481E+04  0.25500000920E-02 0.  1.
</event>
<event>
 5   0  0.4811500E-07  0.3426570E+04  0.7818609E-02  0.8131416E-01
        1   -1    0    0  501    0  0.00000000000E+00  0.00000000000E+00  0.19605532446E+04  0.19605532446E+04  0.50400001928E-02 0. -1.
       -1   -1    0    0    0  501  0.00000000000E+00  0.00000000000E+00 -0.14972026799E+04  0.14972026799E+04  0.50400001928E-02 0.  1.
    10030    2    1    2    0    0  0.00000000000E+00  0.00000000000E+00  0.46335056476E+03  0.34577559245E+04  0.34265700471E+04 0.  0.
        5    1    3    3  502    0 -0.78545488169E+03 -0.12366792488E+04 -0.66467048819E+03  0.16087647073E+04  0.46999998093E+01 0.  1.
       -5    1    3    3    0  502  0.78545488169E+03  0.12366792488E+04  0.11280210529E+04  0.18489912172E+04  0.46999998093E+01 0. -1.
</event>
<event>
 5   0  0.1468942E-06  0.3623783E+04  0.7818609E-02  0.8085066E-01
       -2   -1    0    0    0  501  0.00000000000E+00  0.00000000000E+00  0.10290882226E+04  0.10290882226E+04  0.25500000920E-02 0.  1.
        2   -1    0    0  501    0  0.00000000000E+00  0.00000000000E+00 -0.31901549365E+04  0.31901549365E+04  0.25500000920E-02 0. -1.
    10030    2    1    2    0    0  0.00000000000E+00  0.00000000000E+00 -0.21610667139E+04  0.42192431590E+04  0.36237830362E+04 0.  0.
        2    1    3    3  502    0  0.76017666104E+02  0.85605558747E+03 -0.29377391388E+04  0.30608693377E+04  0.25500000920E-02 0. -1.
       -2    1    3    3    0  502 -0.76017666104E+02 -0.85605558747E+03  0.77667242493E+03  0.11583738214E+04  0.25500000920E-02 0.  1.
</event>
<event>
 5   0  0.1468942E-06  0.3538325E+04  0.7818609E-02  0.8104767E-01
        2   -1    0    0  501    0  0.00000000000E+00  0.00000000000E+00  0.30043894774E+04  0.30043894774E+04  0.25500000920E-02 0. -1.
       -2   -1    0    0    0  501  0.00000000000E+00  0.00000000000E+00 -0.10417874383E+04  0.10417874383E+04  0.25500000920E-02 0.  1.
    10030    2    1    2    0    0  0.00000000000E+00  0.00000000000E+00  0.19626020391E+04  0.40461769156E+04  0.35383245850E+04 0.  0.
        2    1    3    3  502    0 -0.11175011854E+04  0.17473454322E+03  0.25369184164E+04  0.27776421856E+04  0.25500000920E-02 0. -1.
       -2    1    3    3    0  502  0.11175011854E+04 -0.17473454322E+03 -0.57431637727E+03  0.12685347300E+04  0.25500000920E-02 0.  1.
</event>
<event>
 5   0  0.4811500E-07  0.3469004E+04  0.7818609E-02  0.8121175E-01
        1   -1    0    0  501    0  0.00000000000E+00  0.00000000000E+00  0.25951069579E+04  0.25951069579E+04  0.50400001928E-02 0.  1.
       -1   -1    0    0    0  501  0.00000000000E+00  0.00000000000E+00 -0.11592959838E+04  0.11592959838E+04  0.50400001928E-02 0. -1.
    10030    2    1    2    0    0  0.00000000000E+00  0.00000000000E+00  0.14358109741E+04  0.37544029417E+04  0.34690039342E+04 0.  0.
        2    1    3    3  502    0  0.13042486768E+04  0.52845656787E+02  0.19540845981E+04  0.23499582743E+04  0.25500000920E-02 0.  1.
       -2    1    3    3    0  502 -0.13042486768E+04 -0.52845656787E+02 -0.51827362396E+03  0.14044446674E+04  0.25500000920E-02 0. -1.
</event>
<event>
 5   0  0.1379425E-06  0.2214451E+04  0.7818609E-02  0.8512437E-01
        2   -1    0    0  501    0  0.00000000000E+00  0.00000000000E+00  0.10060749117E+04  0.10060749117E+04  0.25500000920E-02 0. -1.
       -2   -1    0    0    0  501  0.00000000000E+00  0.00000000000E+00 -0.12185458823E+04  0.12185458823E+04  0.25500000920E-02 0.  1.
    10030    2    1    2    0    0  0.00000000000E+00  0.00000000000E+00 -0.21247097060E+03  0.22246207940E+04  0.22144511202E+04 0.  0.
        4    1    3    3  502    0 -0.49850683149E+03  0.98857988255E+03 -0.94031329176E+02  0.11111447921E+04  0.12699999809E+01 0.  1.
       -4    1    3    3    0  502  0.49850683149E+03 -0.98857988255E+03 -0.11843964142E+03  0.11134760019E+04  0.12699999809E+01 0. -1.
</event>
<event>
 5   0  0.4811500E-07  0.3598327E+04  0.7818609E-02  0.8090875E-01
       -1   -1    0    0    0  501  0.00000000000E+00  0.00000000000E+00  0.12379023345E+04  0.12379023345E+04  0.50400001928E-02 0. -1.
        1   -1    0    0  501    0  0.00000000000E+00  0.00000000000E+00 -0.26148981480E+04  0.26148981480E+04  0.50400001928E-02 0.  1.
    10030    2    1    2    0    0  0.00000000000E+00  0.00000000000E+00 -0.13769958135E+04  0.38528004825E+04  0.35983265676E+04 0.  0.
        5    1    3    3  502    0  0.90625493918E+03 -0.14190067924E+04 -0.95498088591E+01  0.16837433238E+04  0.46999998093E+01 0.  1.
       -5    1    3    3    0  502 -0.90625493918E+03  0.14190067924E+04 -0.13674460047E+04  0.21690571586E+04  0.46999998093E+01 0. -1.
</event>
<event>
 5   0  0.4811500E-07  0.3559126E+04  0.7818609E-02  0.8099919E-01
        1   -1    0    0  501    0  0.00000000000E+00  0.00000000000E+00  0.13242251607E+04  0.13242251607E+04  0.50400001928E-02 0.  1.
       -1   -1    0    0    0  501  0.00000000000E+00  0.00000000000E+00 -0.23914703051E+04  0.23914703051E+04  0.50400001928E-02 0. -1.
    10030    2    1    2    0    0  0.00000000000E+00  0.00000000000E+00 -0.10672451444E+04  0.37156954658E+04  0.35591263811E+04 0.  0.
        5    1    3    3  502    0 -0.52968190700E+03 -0.71728266381E+03 -0.21414246901E+04  0.23196506496E+04  0.46999998093E+01 0. -1.
       -5    1    3    3    0  502  0.52968190700E+03  0.71728266381E+03  0.10741795458E+04  0.13960448163E+04  0.46999998093E+01 0.  1.
</event>
<event>
 5   0  0.4811500E-07  0.2777061E+04  0.7818609E-02  0.8310425E-01
       -1   -1    0    0    0  501  0.00000000000E+00  0.00000000000E+00  0.14728798725E+04  0.14728798725E+04  0.50400001928E-02 0.  1.
        1   -1    0    0  501    0  0.00000000000E+00  0.00000000000E+00 -0.13090118815E+04  0.13090118815E+04  0.50400001928E-02 0. -1.
    10030    2    1    2    0    0  0.00000000000E+00  0.00000000000E+00  0.16386799101E+03  0.27818917540E+04  0.27770612187E+04 0.  0.
        3    1    3    3  502    0  0.85536696526E+02  0.41600997814E+03  0.14062155081E+04  0.14689529924E+04  0.10100000352E+00 0.  1.
       -3    1    3    3    0  502 -0.85536696526E+02 -0.41600997814E+03 -0.12423475171E+04  0.13129387616E+04  0.10100000352E+00 0. -1.
</event>
<event>
 5   0  0.1468942E-06  0.2830983E+04  0.7818609E-02  0.8293714E-01
       -2   -1    0    0    0  501  0.00000000000E+00  0.00000000000E+00  0.80663113122E+03  0.80663113122E+03  0.25500000920E-02 0.  1.
        2   -1    0    0  501    0  0.00000000000E+00  0.00000000000E+00 -0.24839306322E+04  0.24839306322E+04  0.25500000920E-02 0. -1.
    10030    2    1    2    0    0  0.00000000000E+00  0.00000000000E+00 -0.16772995010E+04  0.32905617634E+04  0.28309827098E+04 0.  0.
        2    1    3    3  502    0  0.88206634339E+03  0.93525485869E+03 -0.15271559598E+04  0.19962334559E+04  0.25500000920E-02 0. -1.
       -2    1    3    3    0  502 -0.88206634339E+03 -0.93525485869E+03 -0.15014354124E+03  0.12943283076E+04  0.25500000920E-02 0.  1.
</event>
<event>
 5   0  0.5071661E-07  0.3581695E+04  0.7818609E-02  0.8094698E-01
        1   -1    0    0  501    0  0.00000000000E+00  0.00000000000E+00  0.18381537604E+04  0.18381537604E+04  0.50400001928E-02 0.  1.
       -1   -1    0    0    0  501  0.00000000000E+00  0.00000000000E+00 -0.17447588192E+04  0.17447588192E+04  0.50400001928E-02 0. -1.
    10030    2    1    2    0    0  0.00000000000E+00  0.00000000000E+00  0.93394941202E+02  0.35829125797E+04  0.35816951208E+04 0.  0.
        1    1    3    3  502    0  0.16820913796E+03  0.17040810493E+04  0.57123097358E+03  0.18051291815E+04  0.50400001928E-02 0.  1.
       -1    1    3    3    0  502 -0.16820913796E+03 -0.17040810493E+04 -0.47783603238E+03  0.17777833981E+04  0.50400001928E-02 0. -1.
</event>
<event>
 5   0  0.1468942E-06  0.3472594E+04  0.7818609E-02  0.8120316E-01
       -2   -1    0    0    0  501  0.00000000000E+00  0.00000000000E+00  0.27152182550E+04  0.27152182550E+04  0.25500000920E-02 0.  1.
        2   -1    0    0  501    0  0.00000000000E+00  0.00000000000E+00 -0.11103076803E+04  0.11103076803E+04  0.25500000920E-02 0. -1.
    10030    2    1    2    0    0  0.00000000000E+00  0.00000000000E+00  0.16049105747E+04  0.38255259353E+04  0.34725942362E+04 0.  0.
        2    1    3    3  502    0  0.25060307998E+03  0.31814102085E+03  0.26624589002E+04  0.26930842928E+04  0.25500000920E-02 0.  1.
       -2    1    3    3    0  502 -0.25060307998E+03 -0.31814102085E+03 -0.10575483255E+04  0.11324416425E+04  0.25500000920E-02 0. -1.
</event>
<event>
 5   0  0.1468942E-06  0.3736423E+04  0.7818609E-02  0.8059938E-01
        2   -1    0    0  501    0  0.00000000000E+00  0.00000000000E+00  0.13283031252E+04  0.13283031252E+04  0.25500000920E-02 0.  1.
       -2   -1    0    0    0  501  0.00000000000E+00  0.00000000000E+00 -0.26275741029E+04  0.26275741029E+04  0.25500000920E-02 0. -1.
    10030    2    1    2    0    0  0.00000000000E+00  0.00000000000E+00 -0.12992709777E+04  0.39558772281E+04  0.37364233660E+04 0.  0.
        2    1    3    3  502    0 -0.10678211659E+04 -0.13221346492E+04 -0.14710469098E+04  0.22477235337E+04  0.25500000920E-02 0. -1.
       -2    1    3    3    0  502  0.10678211659E+04  0.13221346492E+04  0.17177593217E+03  0.17081536944E+04  0.25500000920E-02 0.  1.
</event>
<event>
 5   0  0.4811500E-07  0.3628603E+04  0.7818609E-02  0.8083971E-01
       -1   -1    0    0    0  501  0.00000000000E+00  0.00000000000E+00  0.19266857694E+04  0.19266857694E+04  0.50400001928E-02 0. -1.
        1   -1    0    0  501    0  0.00000000000E+00  0.00000000000E+00 -0.17084724541E+04  0.17084724542E+04  0.50400001928E-02 0.  1.
    10030    2    1    2    0    0  0.00000000000E+00  0.00000000000E+00  0.21821331523E+03  0.36351582235E+04  0.36286027971E+04 0.  0.
        3    1    3    3  502    0  0.13201330039E+04  0.10786521467E+04  0.73107282245E+03  0.18549148453E+04  0.10100000352E+00 0.  1.
       -3    1    3    3    0  502 -0.13201330039E+04 -0.10786521467E+04 -0.51285950722E+03  0.17802433782E+04  0.10100000352E+00 0. -1.
</event>
<event>
 5   0  0.5071661E-07  0.3586341E+04  0.7818609E-02  0.8093628E-01
        1   -1    0    0  501    0  0.00000000000E+00  0.00000000000E+00  0.10641011106E+04  0.10641011107E+04  0.50400001928E-02 0.  1.
       -1   -1    0    0    0  501  0.00000000000E+00  0.00000000000E+00 -0.30217617133E+04  0.30217617134E+04  0.50400001928E-02 0. -1.
    10030    2    1    2    0    0  0.00000000000E+00  0.00000000000E+00 -0.19576606027E+04  0.40858628240E+04  0.35863407509E+04 0.  0.
        1    1    3    3  502    0  0.42210787363E+03 -0.82970326883E+03 -0.27249033451E+04  0.28795278800E+04  0.50400001928E-02 0. -1.
       -1    1    3    3    0  502 -0.42210787363E+03  0.82970326883E+03  0.76724274244E+03  0.12063349440E+04  0.50400001928E-02 0.  1.
</event>
<event>
 5   0  0.4811500E-07  0.3677233E+04  0.7818609E-02  0.8073026E-01
       -1   -1    0    0    0  501  0.00000000000E+00  0.00000000000E+00  0.17048088525E+04  0.17048088525E+04  0.50400001928E-02 0.  1.
        1   -1    0    0  501    0  0.00000000000E+00  0.00000000000E+00 -0.19829268736E+04  0.19829268736E+04  0.50400001928E-02 0. -1.
    10030    2    1    2    0    0  0.00000000000E+00  0.00000000000E+00 -0.27811802111E+03  0.36877357260E+04  0.36772333556E+04 0.  0.
        3    1    3    3  502    0  0.76711446492E+03  0.54763395052E+03 -0.17222202295E+04  0.19632651566E+04  0.10100000352E+00 0. -1.
       -3    1    3    3    0  502 -0.76711446492E+03 -0.54763395052E+03  0.14441022084E+04  0.17244705694E+04  0.10100000352E+00 0.  1.
</event>
<event>
 5   0  0.4811500E-07  0.3661073E+04  0.7818609E-02  0.8076644E-01
        1   -1    0    0  501    0  0.00000000000E+00  0.00000000000E+00  0.20619890068E+04  0.20619890068E+04  0.50400001928E-02 0.  1.
       -1   -1    0    0    0  501  0.00000000000E+00  0.00000000000E+00 -0.16250636339E+04  0.16250636339E+04  0.50400001928E-02 0. -1.
    10030    2    1    2    0    0  0.00000000000E+00  0.00000000000E+00  0.43692537284E+03  0.36870526407E+04  0.36610727108E+04 0.  0.
        5    1    3    3  502    0  0.18141259141E+04  0.18619810180E+02 -0.27074174721E+02  0.18144295607E+04  0.46999998093E+01 0.  1.
       -5    1    3    3    0  502 -0.18141259141E+04 -0.18619810180E+02  0.46399954756E+03  0.18726230800E+04  0.46999998093E+01 0. -1.
</event>
<event>
 5   0  0.4811500E-07  0.3561023E+04  0.7818609E-02  0.8099479E-01
        1   -1    0    0  501    0  0.00000000000E+00  0.00000000000E+00  0.17339519984E+04  0.17339519985E+04  0.50400001928E-02 0.  1.
       -1   -1    0    0    0  501  0.00000000000E+00  0.00000000000E+00 -0.18283207769E+04  0.18283207769E+04  0.50400001928E-02 0. -1.
    10030    2    1    2    0    0  0.00000000000E+00  0.00000000000E+00 -0.94368778404E+02  0.35622727753E+04  0.35610225862E+04 0.  0.
        4    1    3    3  502    0  0.33293180644E+02  0.11199888670E+04 -0.14314098132E+04  0.18178061405E+04  0.12699999809E+01 0. -1.
       -4    1    3    3    0  502 -0.33293180644E+02 -0.11199888670E+04  0.13370410348E+04  0.17444666348E+04  0.12699999809E+01 0.  1.
</event>
<event>
 5   0  0.4811500E-07  0.3166369E+04  0.7818609E-02  0.8197756E-01
        1   -1    0    0  501    0  0.00000000000E+00  0.00000000000E+00  0.16342281038E+04  0.16342281038E+04  0.50400001928E-02 0. -1.
       -1   -1    0    0    0  501  0.00000000000E+00  0.00000000000E+00 -0.15337347314E+04  0.15337347314E+04  0.50400001928E-02 0.  1.
    10030    2    1    2    0    0  0.00000000000E+00  0.00000000000E+00  0.10049337241E+03  0.31679628351E+04  0.31663685204E+04 0.  0.
        4    1    3    3  502    0 -0.24980709195E+03 -0.12433362474E+04 -0.89795524700E+03  0.15539027787E+04  0.12699999809E+01 0.  1.
       -4    1    3    3    0  502  0.24980709195E+03  0.12433362474E+04  0.99844861941E+03  0.16140600564E+04  0.12699999809E+01 0. -1.
</event>
<event>
 5   0  0.1444091E-06  0.3652731E+04  0.7818609E-02  0.8078519E-01
        2   -1    0    0  501    0  0.00000000000E+00  0.00000000000E+00  0.22022856590E+04  0.22022856590E+04  0.25500000920E-02 0.  1.
       -2   -1    0    0    0  501  0.00000000000E+00  0.00000000000E+00 -0.15146131480E+04  0.15146131480E+04  0.25500000920E-02 0. -1.
    10030    2    1    2    0    0  0.00000000000E+00  0.00000000000E+00  0.68767251095E+03  0.37168988070E+04  0.36527309317E+04 0.  0.
        1    1    3    3  502    0 -0.29192185944E+02 -0.61691614142E+03 -0.14051283690E+04  0.15348691940E+04  0.50400001928E-02 0. -1.
       -1    1    3    3    0  502  0.29192185944E+02  0.61691614142E+03  0.20928008799E+04  0.21820296131E+04  0.50400001928E-02 0.  1.
</event>
<event>
 5   0  0.1505671E-06  0.3596784E+04  0.7818609E-02  0.8091229E-01
        2   -1    0    0  501    0  0.00000000000E+00  0.00000000000E+00  0.21373452192E+04  0.21373452192E+04  0.25500000920E-02 0. -1.
       -2   -1    0    0    0  501  0.00000000000E+00  0.00000000000E+00 -0.15131919388E+04  0.15131919388E+04  0.25500000920E-02 0.  1.
    10030    2    1    2    0    0  0.00000000000E+00  0.00000000000E+00  0.62415328033E+03  0.36505371580E+04  0.35967838724E+04 0.  0.
        3    1    3    3  502    0 -0.15092908277E+04  0.84930365962E+03 -0.17987124634E+03  0.17411574266E+04  0.10100000352E+00 0.  1.
       -3    1    3    3    0  502  0.15092908277E+04 -0.84930365962E+03  0.80402452667E+03  0.19093797314E+04  0.10100000352E+00 0. -1.
</event>
<event>
 5   0  0.4811500E-07  0.3622272E+04  0.7818609E-02  0.8085409E-01
        1   -1    0    0  501    0  0.00000000000E+00  0.00000000000E+00  0.18925236717E+04  0.18925236717E+04  0.50400001928E-02 0.  1.
       -1   -1    0    0    0  501  0.00000000000E+00  0.00000000000E+00 -0.17332482283E+04  0.17332482283E+04  0.50400001928E-02 0. -1.
    10030    2    1    2    0    0  0.00000000000E+00  0.00000000000E+00  0.15927544340E+03  0.36257719000E+04  0.36222718291E+04 0.  0.
        5    1    3    3  502    0  0.10071009182E+04  0.14117303246E+04 -0.44331944003E+03  0.17899131221E+04  0.46999998093E+01 0. -1.
       -5    1    3    3    0  502 -0.10071009182E+04 -0.14117303246E+04  0.60259488343E+03  0.18358587779E+04  0.46999998093E+01 0.  1.
</event>
<event>
 5   0  0.1468942E-06  0.2832126E+04  0.7818609E-02  0.8293363E-01
        2   -1    0    0  501    0  0.00000000000E+00  0.00000000000E+00  0.15381010835E+04  0.15381010835E+04  0.25500000920E-02 0.  1.
       -2   -1    0    0    0  501  0.00000000000E+00  0.00000000000E+00 -0.13037074587E+04  0.13037074587E+04  0.25500000920E-02 0. -1.
    10030    2    1    2    0    0  0.00000000000E+00  0.00000000000E+00  0.23439362477E+03  0.28418085422E+04  0.28321256009E+04 0.  0.
        2    1    3    3  502    0  0.10542112234E+04  0.38711933315E+03  0.98270670141E+03  0.14922919094E+04  0.25500000920E-02 0.  1.
       -2    1    3    3    0  502 -0.10542112234E+04 -0.38711933315E+03 -0.74831307663E+03  0.13495166329E+04  0.25500000920E-02 0. -1.
</event>
<event>
 5   0  0.1379425E-06  0.3526841E+04  0.7818609E-02  0.8107458E-01
        2   -1    0    0  501    0  0.00000000000E+00  0.00000000000E+00  0.20822585635E+04  0.20822585635E+04  0.25500000920E-02 0. -1.
       -2   -1    0    0    0  501  0.00000000000E+00  0.00000000000E+00 -0.14934036674E+04  0.14934036674E+04  0.25500000920E-02 0.  1.
    10030    2    1    2    0    0  0.00000000000E+00  0.00000000000E+00  0.58885489603E+03  0.35756622309E+04  0.35268414057E+04 0.  0.
        4    1    3    3  502    0  0.44504267643E+03 -0.63430896539E+03  0.19004131234E+04  0.20523115017E+04  0.12699999809E+01 0. -1.
       -4    1    3    3    0  502 -0.44504267643E+03  0.63430896539E+03 -0.13115582274E+04  0.15233507292E+04  0.12699999809E+01 0.  1.
</event>
<event>
 5   0  0.4811500E-07  0.3630313E+04  0.7818609E-02  0.8083583E-01
       -1   -1    0    0    0  501  0.00000000000E+00  0.00000000000E+00  0.17718464393E+04  0.17718464393E+04  0.50400001928E-02 0.  1.
        1   -1    0    0  501    0  0.00000000000E+00  0.00000000000E+00 -0.18595247668E+04  0.18595247668E+04  0.50400001928E-02 0. -1.
    10030    2    1    2    0    0  0.00000000000E+00  0.00000000000E+00 -0.87678327555E+02  0.36313712061E+04  0.36303125688E+04 0.  0.
        4    1    3    3  502    0 -0.65214826368E+03 -0.11914548513E+04 -0.12483201539E+04  0.18447674217E+04  0.12699999809E+01 0. -1.
       -4    1    3    3    0  502  0.65214826368E+03  0.11914548513E+04  0.11606418264E+04  0.17866037844E+04  0.12699999809E+01 0.  1.
</event>
<event>
 5   0  0.1491854E-06  0.3672308E+04  0.7818609E-02  0.8074127E-01
        2   -1    0    0  501    0  0.00000000000E+00  0.00000000000E+00  0.25595560780E+04  0.25595560780E+04  0.25500000920E-02 0. -1.
       -2   -1    0    0    0  501  0.00000000000E+00  0.00000000000E+00 -0.13172057296E+04  0.13172057296E+04  0.25500000920E-02 0.  1.
    10030    2    1    2    0    0  0.00000000000E+00  0.00000000000E+00  0.12423503484E+04  0.38767618076E+04  0.36723082285E+04 0.  0.
        5    1    3    3  502    0 -0.14979395142E+04 -0.30046233707E+03 -0.45402775045E+03  0.15938204706E+04  0.46999998093E+01 0.  1.
       -5    1    3    3    0  502  0.14979395142E+04  0.30046233707E+03  0.16963780988E+04  0.22829413370E+04  0.46999998093E+01 0. -1.
</event>
<event>
 5   0  0.1444091E-06  0.2306998E+04  0.7818609E-02  0.8475167E-01
        2   -1    0    0  501    0  0.00000000000E+00  0.00000000000E+00  0.16759326466E+04  0.16759326466E+04  0.25500000920E-02 0.  1.
       -2   -1    0    0    0  501  0.00000000000E+00  0.00000000000E+00 -0.79392185541E+03  0.79392185541E+03  0.25500000920E-02 0. -1.
    10030    2    1    2    0    0  0.00000000000E+00  0.00000000000E+00  0.88201079114E+03  0.24698545020E+04  0.23069976648E+04 0.  0.
        1    1    3    3  502    0 -0.49983756618E+03 -0.16509845078E+03 -0.65783384590E+03  0.84252030234E+03  0.50400001928E-02 0. -1.
       -1    1    3    3    0  502  0.49983756618E+03  0.16509845078E+03  0.15398446370E+04  0.16273341996E+04  0.50400001928E-02 0.  1.
</event>
<event>
 5   0  0.4811500E-07  0.3565221E+04  0.7818609E-02  0.8098505E-01
       -1   -1    0    0    0  501  0.00000000000E+00  0.00000000000E+00  0.22964468370E+04  0.22964468370E+04  0.50400001928E-02 0.  1.
        1   -1    0    0  501    0  0.00000000000E+00  0.00000000000E+00 -0.13837461989E+04  0.13837461989E+04  0.50400001928E-02 0. -1.
    10030    2    1    2    0    0  0.00000000000E+00  0.00000000000E+00  0.91270063811E+03  0.36801930360E+04  0.35652206562E+04 0.  0.
        4    1    3    3  502    0  0.92175268732E+03 -0.60184597119E+03 -0.99095289276E+03  0.14811603013E+04  0.12699999809E+01 0. -1.
       -4    1    3    3    0  502 -0.92175268732E+03  0.60184597119E+03  0.19036535309E+04  0.21990327347E+04  0.12699999809E+01 0.  1.
</event>
<event>
 5   0  0.5071661E-07  0.3390031E+04  0.7818609E-02  0.8140357E-01
       -1   -1    0    0    0  501  0.00000000000E+00  0.00000000000E+00  0.19696960310E+04  0.19696960310E+04  0.50400001928E-02 0. -1.
        1   -1    0    0  501    0  0.00000000000E+00  0.00000000000E+00 -0.14586397255E+04  0.14586397255E+04  0.50400001928E-02 0.  1.
    10030    2    1    2    0    0  0.00000000000E+00  0.00000000000E+00  0.51105630556E+03  0.34283357565E+04  0.33900306063E+04 0.  0.
        1    1    3    3  502    0  0.41005533454E+03  0.46958262034E+03 -0.13384874116E+04  0.14765506309E+04  0.50400001928E-02 0.  1.
       -1    1    3    3    0  502 -0.41005533454E+03 -0.46958262034E+03  0.18495437172E+04  0.19517851256E+04  0.50400001928E-02 0. -1.
</event>
<event>
 5   0  0.1379425E-06  0.3568928E+04  0.7818609E-02  0.8097646E-01
       -2   -1    0    0    0  501  0.00000000000E+00  0.00000000000E+00  0.22354158275E+04  0.22354158275E+04  0.25500000920E-02 0. -1.
        2   -1    0    0  501    0  0.00000000000E+00  0.00000000000E+00 -0.14244830420E+04  0.14244830420E+04  0.25500000920E-02 0.  1.
    10030    2    1    2    0    0  0.00000000000E+00  0.00000000000E+00  0.81093278546E+03  0.36598988695E+04  0.35689280957E+04 0.  0.
        4    1    3    3  502    0 -0.22284507284E+03  0.13315875937E+04  0.16020528346E+04  0.20950800329E+04  0.12699999809E+01 0. -1.
       -4    1    3    3    0  502  0.22284507284E+03 -0.13315875937E+04 -0.79112004918E+03  0.15648188366E+04  0.12699999809E+01 0.  1.
</event>
<event>
 5   0  0.1505671E-06  0.3537807E+04  0.7818609E-02  0.8104888E-01
        2   -1    0    0  501    0  0.00000000000E+00  0.00000000000E+00  0.16655644278E+04  0.16655644278E+04  0.25500000920E-02 0. -1.
       -2   -1    0    0    0  501  0.00000000000E+00  0.00000000000E+00 -0.18786538667E+04  0.18786538667E+04  0.25500000920E-02 0.  1.
    10030    2    1    2    0    0  0.00000000000E+00  0.00000000000E+00 -0.21308943890E+03  0.35442182945E+04  0.35378066949E+04 0.  0.
        3    1    3    3  502    0  0.66729739236E+03 -0.11803031373E+04 -0.12446571798E+04  0.18405360119E+04  0.10100000352E+00 0.  1.
       -3    1    3    3    0  502 -0.66729739236E+03  0.11803031373E+04  0.10315677409E+04  0.17036822826E+04  0.10100000352E+00 0. -1.
</event>
<event>
 5   0  0.1468942E-06  0.3547727E+04  0.7818609E-02  0.8102571E-01
       -2   -1    0    0    0  501  0.00000000000E+00  0.00000000000E+00  0.15767428936E+04  0.15767428936E+04  0.25500000920E-02 0. -1.
        2   -1    0    0  501    0  0.00000000000E+00  0.00000000000E+00 -0.19956278193E+04  0.19956278193E+04  0.25500000920E-02 0.  1.
    10030    2    1    2    0    0  0.00000000000E+00  0.00000000000E+00 -0.41888492577E+03  0.35723707129E+04  0.35477271498E+04 0.  0.
        2    1    3    3  502    0 -0.15236431463E+04 -0.67369705430E+03 -0.82296602757E+03  0.18581251952E+04  0.25500000920E-02 0.  1.
       -2    1    3    3    0  502  0.15236431463E+04  0.67369705430E+03  0.40408110180E+03  0.17142455178E+04  0.25500000920E-02 0. -1.
</event>
<event>
 5   0  0.1468942E-06  0.2197572E+04  0.7818609E-02  0.8519440E-01
        2   -1    0    0  501    0  0.00000000000E+00  0.00000000000E+00  0.21123701706E+04  0.21123701706E+04  0.25500000920E-02 0. -1.
       -2   -1    0    0    0  501  0.00000000000E+00  0.00000000000E+00 -0.57155237543E+03  0.57155237544E+03  0.25500000920E-02 0.  1.
    10030    2    1    2    0    0  0.00000000000E+00  0.00000000000E+00  0.15408177951E+04  0.26839225460E+04  0.21975715586E+04 0.  0.
        2    1    3    3  502    0 -0.11603701240E+03  0.50398009604E+03 -0.41361582010E+03  0.66222244910E+03  0.25500000920E-02 0.  1.
       -2    1    3    3    0  502  0.11603701240E+03 -0.50398009604E+03  0.19544336152E+04  0.20217000969E+04  0.25500000920E-02 0. -1.
</event>
<event>
 5   0  0.1379425E-06  0.3594726E+04  0.7818609E-02  0.8091701E-01
       -2   -1    0    0    0  501  0.00000000000E+00  0.00000000000E+00  0.13336322599E+04  0.13336322599E+04  0.25500000920E-02 0. -1.
        2   -1    0    0  501    0  0.00000000000E+00  0.00000000000E+00 -0.24223425285E+04  0.24223425285E+04  0.25500000920E-02 0.  1.
    10030    2    1    2    0    0  0.00000000000E+00  0.00000000000E+00 -0.10887102686E+04  0.37559747884E+04  0.35947262152E+04 0.  0.
        4    1    3    3  502    0 -0.40943724312E+03  0.43865649895E+03 -0.23145951619E+04  0.23911107788E+04  0.12699999809E+01 0.  1.
       -4    1    3    3    0  502  0.40943724312E+03 -0.43865649895E+03  0.12258848933E+04  0.13648640096E+04  0.12699999809E+01 0. -1.
</event>
<event>
 5   0  0.1491854E-06  0.3702140E+04  0.7818609E-02  0.8067488E-01
       -2   -1    0    0    0  501  0.00000000000E+00  0.00000000000E+00  0.10223986057E+04  0.10223986057E+04  0.25500000920E-02 0.  1.
        2   -1    0    0  501    0  0.00000000000E+00  0.00000000000E+00 -0.33513938011E+04  0.33513938011E+04  0.25500000920E-02 0. -1.
    10030    2    1    2    0    0  0.00000000000E+00  0.00000000000E+00 -0.23289951953E+04  0.43737924068E+04  0.37021401105E+04 0.  0.
        5    1    3    3  502    0 -0.16964403203E+04  0.56232811233E+03 -0.59506215369E+03  0.18836782429E+04  0.46999998093E+01 0.  1.
       -5    1    3    3    0  502  0.16964403203E+04 -0.56232811233E+03 -0.17339330416E+04  0.24901141639E+04  0.46999998093E+01 0. -1.
</event>
<event>
 5   0  0.1491854E-06  0.2205445E+04  0.7818609E-02  0.8516165E-01
       -2   -1    0    0    0  501  0.00000000000E+00  0.00000000000E+00  0.92362964351E+03  0.92362964351E+03  0.25500000920E-02 0.  1.
        2   -1    0    0  501    0  0.00000000000E+00  0.00000000000E+00 -0.13165413742E+04  0.13165413742E+04  0.25500000920E-02 0. -1.
    10030    2    1    2    0    0  0.00000000000E+00  0.00000000000E+00 -0.39291173066E+03  0.22401710177E+04  0.22054447534E+04 0.  0.
        5    1    3    3  502    0 -0.27777423661E+03 -0.84458755603E+03  0.46610928623E+03  0.10038758006E+04  0.46999998093E+01 0.  1.
       -5    1    3    3    0  502  0.27777423661E+03  0.84458755603E+03 -0.85902101689E+03  0.12362952171E+04  0.46999998093E+01 0. -1.
</event>
<event>
 5   0  0.1505671E-06  0.3919415E+04  0.7818609E-02  0.8021003E-01
       -2   -1    0    0    0  501  0.00000000000E+00  0.00000000000E+00  0.19859931639E+04  0.19859931639E+04  0.25500000920E-02 0.  1.
        2   -1    0    0  501    0  0.00000000000E+00  0.00000000000E+00 -0.19337699107E+04  0.19337699107E+04  0.25500000920E-02 0. -1.
    10030    2    1    2    0    0  0.00000000000E+00  0.00000000000E+00  0.52223253210E+02  0.39197630746E+04  0.39194151723E+04 0.  0.
        3    1    3    3  502    0  0.84354264264E+02 -0.37726044074E+03  0.19474830162E+04  0.19854800907E+04  0.10100000352E+00 0.  1.
       -3    1    3    3    0  502 -0.84354264264E+02  0.37726044074E+03 -0.18952597630E+04  0.19342829838E+04  0.10100000352E+00 0. -1.
</event>
<event>
 5   0  0.4811500E-07  0.3537357E+04  0.7818609E-02  0.8104993E-01
        1   -1    0    0  501    0  0.00000000000E+00  0.00000000000E+00  0.19605243092E+04  0.19605243092E+04  0.50400001928E-02 0.  1.
       -1   -1    0    0    0  501  0.00000000000E+00  0.00000000000E+00 -0.15956059441E+04  0.15956059441E+04  0.50400001928E-02 0. -1.
    10030    2    1    2    0    0  0.00000000000E+00  0.00000000000E+00  0.36491836514E+03  0.35561302533E+04  0.35373573420E+04 0.  0.
        4    1    3    3  502    0  0.16259638667E+04  0.28645872732E+03 -0.45526178423E+03  0.17126243031E+04  0.12699999809E+01 0. -1.
       -4    1    3    3    0  502 -0.16259638667E+04 -0.28645872732E+03  0.82018014937E+03  0.18435059503E+04  0.12699999809E+01 0.  1.
</event>
<event>
 5   0  0.5071661E-07  0.3660950E+04  0.7818609E-02  0.8076671E-01
       -1   -1    0    0    0  501  0.00000000000E+00  0.00000000000E+00  0.20282159572E+04  0.20282159572E+04  0.50400001928E-02 0.  1.
        1   -1    0    0  501    0  0.00000000000E+00  0.00000000000E+00 -0.16520131929E+04  0.16520131929E+04  0.50400001928E-02 0. -1.
    10030    2    1    2    0    0  0.00000000000E+00  0.00000000000E+00  0.37620276426E+03  0.36802291501E+04  0.36609504336E+04 0.  0.
        1    1    3    3  502    0 -0.16455158514E+04  0.39089481531E+02 -0.61698374642E+03  0.17578166424E+04  0.50400001928E-02 0. -1.
       -1    1    3    3    0  502  0.16455158514E+04 -0.39089481531E+02  0.99318651068E+03  0.19224125077E+04  0.50400001928E-02 0.  1.
</event>
<event>
 5   0  0.1468942E-06  0.3583971E+04  0.7818609E-02  0.8094173E-01
       -2   -1    0    0    0  501  0.00000000000E+00  0.00000000000E+00  0.13095792654E+04  0.13095792654E+04  0.25500000920E-02 0. -1.
        2   -1    0    0  501    0  0.00000000000E+00  0.00000000000E+00 -0.24520945933E+04  0.24520945933E+04  0.25500000920E-02 0.  1.
    10030    2    1    2    0    0  0.00000000000E+00  0.00000000000E+00 -0.11425153279E+04  0.37616738587E+04  0.35839711138E+04 0.  0.
        2    1    3    3  502    0  0.12876446812E+04  0.45497438670E+03  0.64652134171E+03  0.15109666981E+04  0.25500000920E-02 0. -1.
       -2    1    3    3    0  502 -0.12876446812E+04 -0.45497438670E+03 -0.17890366696E+04  0.22507071606E+04  0.25500000920E-02 0.  1.
</event>
<event>
 5   0  0.1379425E-06  0.3641104E+04  0.7818609E-02  0.8081141E-01
        2   -1    0    0  501    0  0.00000000000E+00  0.00000000000E+00  0.12053257422E+04  0.12053257422E+04  0.25500000920E-02 0. -1.
       -2   -1    0    0    0  501  0.00000000000E+00  0.00000000000E+00 -0.27498036235E+04  0.27498036235E+04  0.25500000920E-02 0.  1.
    10030    2    1    2    0    0  0.00000000000E+00  0.00000000000E+00 -0.15444778813E+04  0.39551293657E+04  0.36411037301E+04 0.  0.
        4    1    3    3  502    0  0.31635688100E+03 -0.36065791951E+03 -0.26799058471E+04  0.27225085442E+04  0.12699999809E+01 0.  1.
       -4    1    3    3    0  502 -0.31635688100E+03  0.36065791951E+03  0.11354279658E+04  0.12326208215E+04  0.12699999809E+01 0. -1.
</event>
<event>
 5   0  0.4811500E-07  0.3764263E+04  0.7818609E-02  0.8053868E-01
       -1   -1    0    0    0  501  0.00000000000E+00  0.00000000000E+00  0.14044221942E+04  0.14044221942E+04  0.50400001928E-02 0.  1.
        1   -1    0    0  501    0  0.00000000000E+00  0.00000000000E+00 -0.25223313899E+04  0.25223313899E+04  0.50400001928E-02 0. -1.
    10030    2    1    2    0    0  0.00000000000E+00  0.00000000000E+00 -0.11179091958E+04  0.39267535841E+04  0.37642625759E+04 0.  0.
        5    1    3    3  502    0  0.23562824137E+03 -0.54738367958E+03 -0.24213057313E+04  0.24935703510E+04  0.46999998093E+01 0. -1.
       -5    1    3    3    0  502 -0.23562824137E+03  0.54738367958E+03  0.13033965355E+04  0.14331832331E+04  0.46999998093E+01 0.  1.
</event>
<event>
 5   0  0.4811500E-07  0.3563384E+04  0.7818609E-02  0.8098931E-01
       -3   -1    0    0    0  501  0.00000000000E+00  0.00000000000E+00  0.14931341721E+04  0.14931341755E+04  0.10100000352E+00 0. -1.
        3   -1    0    0  501    0  0.00000000000E+00  0.00000000000E+00 -0.21260157648E+04  0.21260157672E+04  0.10100000352E+00 0.  1.
    10030    2    1    2    0    0  0.00000000000E+00  0.00000000000E+00 -0.63288159273E+03  0.36191499427E+04  0.35633842338E+04 0.  0.
        4    1    3    3  502    0 -0.43248711612E+03 -0.17270111615E+04 -0.24598274859E+03  0.17972539562E+04  0.12699999809E+01 0. -1.
       -4    1    3    3    0  502  0.43248711612E+03  0.17270111615E+04 -0.38689884414E+03  0.18218959866E+04  0.12699999809E+01 0.  1.
</event>
<event>
 5   0  0.1379425E-06  0.3678038E+04  0.7818609E-02  0.8072846E-01
       -2   -1    0    0    0  501  0.00000000000E+00  0.00000000000E+00  0.15964873145E+04  0.15964873145E+04  0.25500000920E-02 0.  1.
        2   -1    0    0  501    0  0.00000000000E+00  0.00000000000E+00 -0.21183955910E+04  0.21183955910E+04  0.25500000920E-02 0. -1.
    10030    2    1    2    0    0  0.00000000000E+00  0.00000000000E+00 -0.52190827651E+03  0.37148829055E+04  0.36780384381E+04 0.  0.
        4    1    3    3  502    0 -0.68506028991E+03 -0.13880073728E+04 -0.12639365339E+04  0.19983516313E+04  0.12699999809E+01 0. -1.
       -4    1    3    3    0  502  0.68506028991E+03  0.13880073728E+04  0.74202825735E+03  0.17165312742E+04  0.12699999809E+01 0.  1.
</event>
<event>
 5   0  0.4811500E-07  0.3443346E+04  0.7818609E-02  0.8127349E-01
        1   -1    0    0  501    0  0.00000000000E+00  0.00000000000E+00  0.21977607113E+04  0.21977607113E+04  0.50400001928E-02 0.  1.
       -1   -1    0    0    0  501  0.00000000000E+00  0.00000000000E+00 -0.13487175685E+04  0.13487175685E+04  0.50400001928E-02 0. -1.
    10030    2    1    2    0    0  0.00000000000E+00  0.00000000000E+00  0.84904314278E+03  0.35464782798E+04  0.34433463274E+04 0.  0.
        5    1    3    3  502    0 -0.30598770518E+03  0.53626103406E+03 -0.12307645997E+04  0.13769560495E+04  0.46999998093E+01 0. -1.
       -5    1    3    3    0  502  0.30598770518E+03 -0.53626103406E+03  0.20798077424E+04  0.21695222303E+04  0.46999998093E+01 0.  1.
</event>
<event>
 5   0  0.4811500E-07  0.3644776E+04  0.7818609E-02  0.8080312E-01
       -1   -1    0    0    0  501  0.00000000000E+00  0.00000000000E+00  0.11542281707E+04  0.11542281707E+04  0.50400001928E-02 0.  1.
        1   -1    0    0  501    0  0.00000000000E+00  0.00000000000E+00 -0.28773321738E+04  0.28773321738E+04  0.50400001928E-02 0. -1.
    10030    2    1    2    0    0  0.00000000000E+00  0.00000000000E+00 -0.17231040031E+04  0.40315603444E+04  0.36447759061E+04 0.  0.
        4    1    3    3  502    0  0.13585289831E+04 -0.12033123155E+04 -0.67800698381E+03  0.19373323436E+04  0.12699999809E+01 0. -1.
       -4    1    3    3    0  502 -0.13585289831E+04  0.12033123155E+04 -0.10450970193E+04  0.20942280008E+04  0.12699999809E+01 0.  1.
</event>
<event>
 5   0  0.4811500E-07  0.3273264E+04  0.7818609E-02  0.8169732E-01
       -1   -1    0    0    0  501  0.00000000000E+00  0.00000000000E+00  0.12058010200E+04  0.12058010200E+04  0.50400001928E-02 0. -1.
        1   -1    0    0  501    0  0.00000000000E+00  0.00000000000E+00 -0.22213983205E+04  0.22213983205E+04  0.50400001928E-02 0.  1.
    10030    2    1    2    0    0  0.00000000000E+00  0.00000000000E+00 -0.10155973006E+04  0.34271993405E+04  0.32732640350E+04 0.  0.
        4    1    3    3  502    0  0.30558204065E+03  0.54630025025E+03 -0.20911108908E+04  0.21827896641E+04  0.12699999809E+01 0.  1.
       -4    1    3    3    0  502 -0.30558204065E+03 -0.54630025025E+03  0.10755135903E+04  0.12444096764E+04  0.12699999809E+01 0. -1.
</event>
<event>
 5   0  0.5071661E-07  0.3623041E+04  0.7818609E-02  0.8085234E-01
        1   -1    0    0  501    0  0.00000000000E+00  0.00000000000E+00  0.13643280031E+04  0.13643280031E+04  0.50400001928E-02 0. -1.
       -1   -1    0    0    0  501  0.00000000000E+00  0.00000000000E+00 -0.24052910729E+04  0.24052910729E+04  0.50400001928E-02 0.  1.
    10030    2    1    2    0    0  0.00000000000E+00  0.00000000000E+00 -0.10409630698E+04  0.37696190760E+04  0.36230406933E+04 0.  0.
        1    1    3    3  502    0  0.17876408006E+04 -0.25805205845E+03 -0.66523404721E+03  0.19247822823E+04  0.50400001928E-02 0.  1.
       -1    1    3    3    0  502 -0.17876408006E+04  0.25805205845E+03 -0.37572902256E+03  0.18448367936E+04  0.50400001928E-02 0. -1.
</event>
<event>
 5   0  0.5071661E-07  0.2369157E+04  0.7818609E-02  0.8451142E-01
       -1   -1    0    0    0  501  0.00000000000E+00  0.00000000000E+00  0.10312782638E+04  0.10312782638E+04  0.50400001928E-02 0. -1.
        1   -1    0    0  501    0  0.00000000000E+00  0.00000000000E+00 -0.13606667960E+04  0.13606667960E+04  0.50400001928E-02 0.  1.
    10030    2    1    2    0    0  0.00000000000E+00  0.00000000000E+00 -0.32938853220E+03  0.23919450599E+04  0.23691568889E+04 0.  0.
        1    1    3    3  502    0  0.60712655288E+02 -0.89290262959E+03  0.61882770040E+03  0.10880757580E+04  0.50400001928E-02 0. -1.
       -1    1    3    3    0  502 -0.60712655288E+02  0.89290262959E+03 -0.94821623261E+03  0.13038693018E+04  0.50400001928E-02 0.  1.
</event>
<event>
 5   0  0.4811500E-07  0.3617377E+04  0.7818609E-02  0.8086523E-01
        4   -1    0    0  501    0  0.00000000000E+00  0.00000000000E+00  0.23476898521E+04  0.23476901956E+04  0.12699999809E+01 0.  1.
       -4   -1    0    0    0  501  0.00000000000E+00  0.00000000000E+00 -0.13934342936E+04  0.13934348723E+04  0.12699999809E+01 0. -1.
    10030    2    1    2    0    0  0.00000000000E+00  0.00000000000E+00  0.95425555855E+03  0.37411250679E+04  0.36173765498E+04 0.  0.
        4    1    3    3  502    0  0.94464384991E+03  0.97067180073E+03  0.17167976626E+04  0.21867673802E+04  0.12699999809E+01 0.  1.
       -4    1    3    3    0  502 -0.94464384991E+03 -0.97067180073E+03 -0.76254210408E+03  0.15543576877E+04  0.12699999809E+01 0. -1.
</event>
<event>
 5   0  0.4811500E-07  0.3554221E+04  0.7818609E-02  0.8101059E-01
        1   -1    0    0  501    0  0.00000000000E+00  0.00000000000E+00  0.15854410874E+04  0.15854410874E+04  0.50400001928E-02 0. -1.
       -1   -1    0    0    0  501  0.00000000000E+00  0.00000000000E+00 -0.19919513355E+04  0.19919513355E+04  0.50400001928E-02 0.  1.
    10030    2    1    2    0    0  0.00000000000E+00  0.00000000000E+00 -0.40651024804E+03  0.35773924229E+04  0.35542208662E+04 0.  0.
        5    1    3    3  502    0 -0.56823603393E+03  0.18848166666E+03 -0.18873886183E+04  0.19800695481E+04  0.46999998093E+01 0.  1.
       -5    1    3    3    0  502  0.56823603393E+03 -0.18848166666E+03  0.14808783703E+04  0.15973228748E+04  0.46999998093E+01 0. -1.
</event>
<event>
 5   0  0.1505671E-06  0.3477875E+04  0.7818609E-02  0.8119053E-01
        2   -1    0    0  501    0  0.00000000000E+00  0.00000000000E+00  0.22061975826E+04  0.22061975826E+04  0.25500000920E-02 0.  1.
       -2   -1    0    0    0  501  0.00000000000E+00  0.00000000000E+00 -0.13706407358E+04  0.13706407358E+04  0.25500000920E-02 0. -1.
    10030    2    1    2    0    0  0.00000000000E+00  0.00000000000E+00  0.83555684685E+03  0.35768383184E+04  0.34778753732E+04 0.  0.
        3    1    3    3  502    0  0.15088890068E+03 -0.18350826924E+03 -0.13538712246E+04  0.13745581283E+04  0.10100000352E+00 0. -1.
       -3    1    3    3    0  502 -0.15088890068E+03  0.18350826924E+03  0.21894280714E+04  0.22022801900E+04  0.10100000352E+00 0.  1.
</event>
<event>
 5   0  0.4811500E-07  0.2823124E+04  0.7818609E-02  0.8296125E-01
       -1   -1    0    0    0  501  0.00000000000E+00  0.00000000000E+00  0.98430398567E+03  0.98430398568E+03  0.50400001928E-02 0.  1.
        1   -1    0    0  501    0  0.00000000000E+00  0.00000000000E+00 -0.20242798535E+04  0.20242798535E+04  0.50400001928E-02 0. -1.
    10030    2    1    2    0    0  0.00000000000E+00  0.00000000000E+00 -0.10399758678E+04  0.30085838392E+04  0.28231236090E+04 0.  0.
        3    1    3    3  502    0 -0.43338508032E+03  0.88608598340E+03 -0.15960404008E+04  0.18762505081E+04  0.10100000352E+00 0. -1.
       -3    1    3    3    0  502  0.43338508032E+03 -0.88608598340E+03  0.55606453296E+03  0.11323333311E+04  0.10100000352E+00 0.  1.
</event>
<event>
 5   0  0.4811500E-07  0.2533976E+04  0.7818609E-02  0.8390980E-01
       -1   -1    0    0    0  501  0.00000000000E+00  0.00000000000E+00  0.76185057238E+03  0.76185057240E+03  0.50400001928E-02 0. -1.
        1   -1    0    0  501    0  0.00000000000E+00  0.00000000000E+00 -0.21070514630E+04  0.21070514630E+04  0.50400001928E-02 0.  1.
    10030    2    1    2    0    0  0.00000000000E+00  0.00000000000E+00 -0.13452008906E+04  0.28689020354E+04  0.25339758192E+04 0.  0.
        2    1    3    3  502    0 -0.72806739051E+03 -0.49125417686E+01 -0.18465466797E+04  0.19849032466E+04  0.25500000920E-02 0.  1.
       -2    1    3    3    0  502  0.72806739051E+03  0.49125417686E+01  0.50134578912E+03  0.88399878873E+03  0.25500000920E-02 0. -1.
</event>
<event>
 5   0  0.1491854E-06  0.2921754E+04  0.7818609E-02  0.8266434E-01
        2   -1    0    0  501    0  0.00000000000E+00  0.00000000000E+00  0.16118781851E+04  0.16118781851E+04  0.25500000920E-02 0.  1.
       -2   -1    0    0    0  501  0.00000000000E+00  0.00000000000E+00 -0.13240220122E+04  0.13240220122E+04  0.25500000920E-02 0. -1.
    10030    2    1    2    0    0  0.00000000000E+00  0.00000000000E+00  0.28785617285E+03  0.29359001973E+04  0.29217544032E+04 0.  0.
        5    1    3    3  502    0  0.13291128926E+03  0.46595971053E+03 -0.12409157279E+04  0.13321703331E+04  0.46999998093E+01 0. -1.
       -5    1    3    3    0  502 -0.13291128926E+03 -0.46595971053E+03  0.15287719008E+04  0.16037298642E+04  0.46999998093E+01 0.  1.
</event>
<event>
 5   0  0.1505671E-06  0.3197448E+04  0.7818609E-02  0.8189491E-01
        2   -1    0    0  501    0  0.00000000000E+00  0.00000000000E+00  0.20228687281E+04  0.20228687281E+04  0.25500000920E-02 0.  1.
       -2   -1    0    0    0  501  0.00000000000E+00  0.00000000000E+00 -0.12635120416E+04  0.12635120416E+04  0.25500000920E-02 0. -1.
    10030    2    1    2    0    0  0.00000000000E+00  0.00000000000E+00  0.75935668643E+03  0.32863807697E+04  0.31974483555E+04 0.  0.
        3    1    3    3  502    0  0.60822073837E+03  0.13614179678E+04 -0.21301249649E+03  0.15062422393E+04  0.10100000352E+00 0. -1.
       -3    1    3    3    0  502 -0.60822073837E+03 -0.13614179678E+04  0.97236918292E+03  0.17801385304E+04  0.10100000352E+00 0.  1.
</event>
<event>
 5   0  0.5071661E-07  0.3581293E+04  0.7818609E-02  0.8094790E-01
       -1   -1    0    0    0  501  0.00000000000E+00  0.00000000000E+00  0.30436797225E+04  0.30436797225E+04  0.50400001928E-02 0. -1.
        1   -1    0    0  501    0  0.00000000000E+00  0.00000000000E+00 -0.10534664845E+04  0.10534664846E+04  0.50400001928E-02 0.  1.
    10030    2    1    2    0    0  0.00000000000E+00  0.00000000000E+00  0.19902132379E+04  0.40971462070E+04  0.35812928265E+04 0.  0.
        1    1    3    3  502    0 -0.67625406887E+03  0.51061417925E+03  0.27997813945E+04  0.29252046531E+04  0.50400001928E-02 0. -1.
       -1    1    3    3    0  502  0.67625406887E+03 -0.51061417925E+03 -0.80956815653E+03  0.11719415539E+04  0.50400001928E-02 0.  1.
</event>
<event>
 5   0  0.1379425E-06  0.2362712E+04  0.7818609E-02  0.8453597E-01
       -2   -1    0    0    0  501  0.00000000000E+00  0.00000000000E+00  0.83356377213E+03  0.83356377214E+03  0.25500000920E-02 0. -1.
        2   -1    0    0  501    0  0.00000000000E+00  0.00000000000E+00 -0.16742601297E+04  0.16742601297E+04  0.25500000920E-02 0.  1.
    10030    2    1    2    0    0  0.00000000000E+00  0.00000000000E+00 -0.84069635754E+03  0.25078239018E+04  0.23627124999E+04 0.  0.
        4    1    3    3  502    0 -0.79632418197E+02 -0.14050862150E+03 -0.16624862392E+04  0.16703131752E+04  0.12699999809E+01 0.  1.
       -4    1    3    3    0  502  0.79632418197E+02  0.14050862150E+03  0.82178988166E+03  0.83751072664E+03  0.12699999809E+01 0. -1.
</event>
<event>
 5   0  0.1444091E-06  0.3651502E+04  0.7818609E-02  0.8078795E-01
       -2   -1    0    0    0  501  0.00000000000E+00  0.00000000000E+00  0.29502924901E+04  0.29502924901E+04  0.25500000920E-02 0. -1.
        2   -1    0    0  501    0  0.00000000000E+00  0.00000000000E+00 -0.11298426437E+04  0.11298426437E+04  0.25500000920E-02 0.  1.
    10030    2    1    2    0    0  0.00000000000E+00  0.00000000000E+00  0.18204498465E+04  0.40801351338E+04  0.36515017550E+04 0.  0.
        1    1    3    3  502    0  0.60414887514E+03 -0.17228920708E+04  0.90614749965E+03  0.20382483269E+04  0.50400001928E-02 0.  1.
       -1    1    3    3    0  502 -0.60414887514E+03  0.17228920708E+04  0.91430234684E+03  0.20418868069E+04  0.50400001928E-02 0. -1.
</event>
<event>
 5   0  0.1505671E-06  0.3628383E+04  0.7818609E-02  0.8084021E-01
        2   -1    0    0  501    0  0.00000000000E+00  0.00000000000E+00  0.21847662220E+04  0.21847662220E+04  0.25500000920E-02 0.  1.
       -2   -1    0    0    0  501  0.00000000000E+00  0.00000000000E+00 -0.15064723860E+04  0.15064723860E+04  0.25500000920E-02 0. -1.
    10030    2    1    2    0    0  0.00000000000E+00  0.00000000000E+00  0.67829383598E+03  0.36912386079E+04  0.36283825505E+04 0.  0.
        3    1    3    3  502    0 -0.17258331033E+03  0.25471653808E+03  0.21580303165E+04  0.21798532912E+04  0.10100000352E+00 0.  1.
       -3    1    3    3    0  502  0.17258331033E+03 -0.25471653808E+03 -0.14797364805E+04  0.15113853168E+04  0.10100000352E+00 0. -1.
</event>
<event>
 5   0  0.4811500E-07  0.3709395E+04  0.7818609E-02  0.8065883E-01
       -1   -1    0    0    0  501  0.00000000000E+00  0.00000000000E+00  0.30081078042E+04  0.30081078042E+04  0.50400001928E-02 0. -1.
        1   -1    0    0  501    0  0.00000000000E+00  0.00000000000E+00 -0.11435434602E+04  0.11435434602E+04  0.50400001928E-02 0.  1.
    10030    2    1    2    0    0  0.00000000000E+00  0.00000000000E+00  0.18645643441E+04  0.41516512644E+04  0.37093945636E+04 0.  0.
        5    1    3    3  502    0  0.40323146945E+03 -0.75945484915E+03 -0.90696857585E+03  0.12497925322E+04  0.46999998093E+01 0.  1.
       -5    1    3    3    0  502 -0.40323146945E+03  0.75945484915E+03  0.27715329199E+04  0.29018587323E+04  0.46999998093E+01 0. -1.
</event>
<event>
 5   0  0.4811500E-07  0.2432224E+04  0.7818609E-02  0.8427537E-01
       -1   -1    0    0    0  501  0.00000000000E+00  0.00000000000E+00  0.18783358270E+04  0.18783358270E+04  0.50400001928E-02 0.  1.
        1   -1    0    0  501    0  0.00000000000E+00  0.00000000000E+00 -0.78736117063E+03  0.78736117065E+03  0.50400001928E-02 0. -1.
    10030    2    1    2    0    0  0.00000000000E+00  0.00000000000E+00  0.10909746563E+04  0.26656969976E+04  0.24322242459E+04 0.  0.
        2    1    3    3  502    0 -0.85256799559E+03  0.61381637566E+03 -0.12592348459E+03  0.10580640123E+04  0.25500000920E-02 0. -1.
       -2    1    3    3    0  502  0.85256799559E+03 -0.61381637566E+03  0.12168981409E+04  0.16076329853E+04  0.25500000920E-02 0.  1.
</event>
<event>
 5   0  0.5071661E-07  0.3655317E+04  0.7818609E-02  0.8077937E-01
       -1   -1    0    0    0  501  0.00000000000E+00  0.00000000000E+00  0.19956145137E+04  0.19956145137E+04  0.50400001928E-02 0.  1.
        1   -1    0    0  501    0  0.00000000000E+00  0.00000000000E+00 -0.16738379098E+04  0.16738379098E+04  0.50400001928E-02 0. -1.
    10030    2    1    2    0    0  0.00000000000E+00  0.00000000000E+00  0.32177660383E+03  0.36694524235E+04  0.36553167996E+04 0.  0.
        1    1    3    3  502    0  0.17510992917E+02 -0.17421871087E+04  0.71512176811E+03  0.18833272949E+04  0.50400001928E-02 0.  1.
       -1    1    3    3    0  502 -0.17510992917E+02  0.17421871087E+04 -0.39334516427E+03  0.17861251286E+04  0.50400001928E-02 0. -1.
</event>
<event>
 5   0  0.1468942E-06  0.3542932E+04  0.7818609E-02  0.8103690E-01
       -2   -1    0    0    0  501  0.00000000000E+00  0.00000000000E+00  0.11404561525E+04  0.11404561525E+04  0.25500000920E-02 0.  1.
        2   -1    0    0  501    0  0.00000000000E+00  0.00000000000E+00 -0.27516105610E+04  0.27516105610E+04  0.25500000920E-02 0. -1.
    10030    2    1    2    0    0  0.00000000000E+00  0.00000000000E+00 -0.16111544085E+04  0.38920667136E+04  0.35429316639E+04 0.  0.
        2    1    3    3  502    0  0.12634684957E+04  0.87912463684E+03  0.15768903209E+03  0.15472810338E+04  0.25500000920E-02 0.  1.
       -2    1    3    3    0  502 -0.12634684957E+04 -0.87912463684E+03 -0.17688434406E+04  0.23447856798E+04  0.25500000920E-02 0. -1.
</event>
<event>
 5   0  0.1379425E-06  0.3539822E+04  0.7818609E-02  0.8104417E-01
        2   -1    0    0  501    0  0.00000000000E+00  0.00000000000E+00  0.19232700411E+04  0.19232700411E+04  0.25500000920E-02 0. -1.
       -2   -1    0    0    0  501  0.00000000000E+00  0.00000000000E+00 -0.16287809812E+04  0.16287809812E+04  0.25500000920E-02 0.  1.
    10030    2    1    2    0    0  0.00000000000E+00  0.00000000000E+00  0.29448905993E+03  0.35520510223E+04  0.35398224050E+04 0.  0.
        4    1    3    3  502    0 -0.73097121488E+03  0.87570195675E+02 -0.14678487752E+04  0.16421233498E+04  0.12699999809E+01 0.  1.
       -4    1    3    3    0  502  0.73097121488E+03 -0.87570195675E+02  0.17623378352E+04  0.19099276725E+04  0.12699999809E+01 0. -1.
</event>
<event>
 5   0  0.4811500E-07  0.3519057E+04  0.7818609E-02  0.8109288E-01
       -1   -1    0    0    0  501  0.00000000000E+00  0.00000000000E+00  0.12111814975E+04  0.12111814975E+04  0.50400001928E-02 0. -1.
        1   -1    0    0  501    0  0.00000000000E+00  0.00000000000E+00 -0.25561327716E+04  0.25561327716E+04  0.50400001928E-02 0.  1.
    10030    2    1    2    0    0  0.00000000000E+00  0.00000000000E+00 -0.13449512741E+04  0.37673142692E+04  0.35190571000E+04 0.  0.
        2    1    3    3  502    0 -0.11167405175E+04  0.13305605221E+04 -0.37264609785E+03  0.17766163910E+04  0.25500000920E-02 0. -1.
       -2    1    3    3    0  502  0.11167405175E+04 -0.13305605221E+04 -0.97230517623E+03  0.19906978782E+04  0.25500000920E-02 0.  1.
</event>
<event>
 5   0  0.4811500E-07  0.3165754E+04  0.7818609E-02  0.8197920E-01
       -1   -1    0    0    0  501  0.00000000000E+00  0.00000000000E+00  0.17954954069E+04  0.17954954069E+04  0.50400001928E-02 0.  1.
        1   -1    0    0  501    0  0.00000000000E+00  0.00000000000E+00 -0.13954364372E+04  0.13954364372E+04  0.50400001928E-02 0. -1.
    10030    2    1    2    0    0  0.00000000000E+00  0.00000000000E+00  0.40005896976E+03  0.31909318441E+04  0.31657540736E+04 0.  0.
        5    1    3    3  502    0 -0.31861236036E+03  0.13845070774E+04  0.90350854551E+03  0.16836637031E+04  0.46999998093E+01 0. -1.
       -5    1    3    3    0  502  0.31861236036E+03 -0.13845070774E+04 -0.50344957575E+03  0.15072681410E+04  0.46999998093E+01 0.  1.
</event>
<event>
 5   0  0.4811500E-07  0.3441105E+04  0.7818609E-02  0.8127891E-01
        1   -1    0    0  501    0  0.00000000000E+00  0.00000000000E+00  0.21930508536E+04  0.21930508537E+04  0.50400001928E-02 0.  1.
       -1   -1    0    0    0  501  0.00000000000E+00  0.00000000000E+00 -0.13498553394E+04  0.13498553395E+04  0.50400001928E-02 0. -1.
    10030    2    1    2    0    0  0.00000000000E+00  0.00000000000E+00  0.84319551420E+03  0.35429061931E+04  0.34411052902E+04 0.  0.
        2    1    3    3  502    0  0.97553696862E+03 -0.24401033086E+03 -0.10158014948E+04  0.14293586308E+04  0.25500000920E-02 0. -1.
       -2    1    3    3    0  502 -0.97553696862E+03  0.24401033086E+03  0.18589970090E+04  0.21135475623E+04  0.25500000920E-02 0.  1.
</event>
<event>
 5   0  0.4811500E-07  0.3672681E+04  0.7818609E-02  0.8074043E-01
       -3   -1    0    0    0  501  0.00000000000E+00  0.00000000000E+00  0.15617702907E+04  0.15617702940E+04  0.10100000352E+00 0.  1.
        3   -1    0    0  501    0  0.00000000000E+00  0.00000000000E+00 -0.21591825304E+04  0.21591825327E+04  0.10100000352E+00 0. -1.
    10030    2    1    2    0    0  0.00000000000E+00  0.00000000000E+00 -0.59741223966E+03  0.37209528267E+04  0.36726813848E+04 0.  0.
        4    1    3    3  502    0  0.61638189691E+03  0.15962085872E+04  0.37664117372E+03  0.17520469981E+04  0.12699999809E+01 0.  1.
       -4    1    3    3    0  502 -0.61638189691E+03 -0.15962085872E+04 -0.97405341338E+03  0.19689058286E+04  0.12699999809E+01 0. -1.
</event>
<event>
 5   0  0.1468942E-06  0.3619084E+04  0.7818609E-02  0.8086134E-01
       -2   -1    0    0    0  501  0.00000000000E+00  0.00000000000E+00  0.31828108543E+04  0.31828108543E+04  0.25500000920E-02 0.  1.
        2   -1    0    0  501    0  0.00000000000E+00  0.00000000000E+00 -0.10287896382E+04  0.10287896382E+04  0.25500000920E-02 0. -1.
    10030    2    1    2    0    0  0.00000000000E+00  0.00000000000E+00  0.21540212161E+04  0.42116004925E+04  0.36190843192E+04 0.  0.
        2    1    3    3  502    0  0.12958027541E+04 -0.48586325456E+03 -0.27974655299E+03  0.14118873941E+04  0.25500000920E-02 0. -1.
       -2    1    3    3    0  502 -0.12958027541E+04  0.48586325456E+03  0.24337677691E+04  0.27997130985E+04  0.25500000920E-02 0.  1.
</event>
<event>
 5   0  0.1505671E-06  0.3621917E+04  0.7818609E-02  0.8085490E-01
        2   -1    0    0  501    0  0.00000000000E+00  0.00000000000E+00  0.17708707091E+04  0.17708707091E+04  0.25500000920E-02 0. -1.
       -2   -1    0    0    0  501  0.00000000000E+00  0.00000000000E+00 -0.18519537099E+04  0.18519537099E+04  0.25500000920E-02 0.  1.
    10030    2    1    2    0    0  0.00000000000E+00  0.00000000000E+00 -0.81083000832E+02  0.36228244190E+04  0.36219169397E+04 0.  0.
        3    1    3    3  502    0  0.13680079747E+04 -0.90179049235E+03  0.73094848799E+03  0.17941453712E+04  0.10100000352E+00 0.  1.
       -3    1    3    3    0  502 -0.13680079747E+04  0.90179049235E+03 -0.81203148882E+03  0.18286790478E+04  0.10100000352E+00 0. -1.
</event>
<event>
 5   0  0.1468942E-06  0.3579943E+04  0.7818609E-02  0.8095102E-01
       -2   -1    0    0    0  501  0.00000000000E+00  0.00000000000E+00  0.15026352378E+04  0.15026352378E+04  0.25500000920E-02 0.  1.
        2   -1    0    0  501    0  0.00000000000E+00  0.00000000000E+00 -0.21322522935E+04  0.21322522935E+04  0.25500000920E-02 0. -1.
    10030    2    1    2    0    0  0.00000000000E+00  0.00000000000E+00 -0.62961705570E+03  0.36348875312E+04  0.35799426989E+04 0.  0.
        2    1    3    3  502    0  0.32106415703E+03 -0.12560857785E+04  0.93829860165E+03  0.16003868100E+04  0.25500000920E-02 0.  1.
       -2    1    3    3    0  502 -0.32106415703E+03  0.12560857785E+04 -0.15679156573E+04  0.20345007212E+04  0.25500000920E-02 0. -1.
</event>
<event>
 5   0  0.4811500E-07  0.3017745E+04  0.7818609E-02  0.8238682E-01
       -1   -1    0    0    0  501  0.00000000000E+00  0.00000000000E+00  0.15718126894E+04  0.15718126894E+04  0.50400001928E-02 0.  1.
        1   -1    0    0  501    0  0.00000000000E+00  0.00000000000E+00 -0.14484528444E+04  0.14484528444E+04  0.50400001928E-02 0. -1.
    10030    2    1    2    0    0  0.00000000000E+00  0.00000000000E+00  0.12335984506E+03  0.30202655338E+04  0.30177452251E+04 0.  0.
        3    1    3    3  502    0 -0.12497579611E+04 -0.51663005107E+03 -0.60812857436E+03  0.14827750821E+04  0.10100000352E+00 0. -1.
       -3    1    3    3    0  502  0.12497579611E+04  0.51663005107E+03  0.73148841942E+03  0.15374904517E+04  0.10100000352E+00 0.  1.
</event>
<event>
 5   0  0.4811500E-07  0.3588190E+04  0.7818609E-02  0.8093202E-01
        1   -1    0    0  501    0  0.00000000000E+00  0.00000000000E+00  0.23250375184E+04  0.23250375184E+04  0.50400001928E-02 0. -1.
       -1   -1    0    0    0  501  0.00000000000E+00  0.00000000000E+00 -0.13843979017E+04  0.13843979017E+04  0.50400001928E-02 0.  1.
    10030    2    1    2    0    0  0.00000000000E+00  0.00000000000E+00  0.94063961668E+03  0.37094354201E+04  0.35881901074E+04 0.  0.
        5    1    3    3  502    0  0.67112010514E+03  0.50078239703E+03  0.21106192133E+04  0.22706652678E+04  0.46999998093E+01 0. -1.
       -5    1    3    3    0  502 -0.67112010514E+03 -0.50078239703E+03 -0.11699795966E+04  0.14387701523E+04  0.46999998093E+01 0.  1.
</event>
<event>
 5   0  0.1505671E-06  0.3554497E+04  0.7818609E-02  0.8100995E-01
       -2   -1    0    0    0  501  0.00000000000E+00  0.00000000000E+00  0.13266049957E+04  0.13266049957E+04  0.25500000920E-02 0.  1.
        2   -1    0    0  501    0  0.00000000000E+00  0.00000000000E+00 -0.23809738834E+04  0.23809738834E+04  0.25500000920E-02 0. -1.
    10030    2    1    2    0    0  0.00000000000E+00  0.00000000000E+00 -0.10543688877E+04  0.37075788791E+04  0.35544967848E+04 0.  0.
        3    1    3    3  502    0  0.51165354613E+03  0.86806998850E+03 -0.20542279962E+04  0.22880532177E+04  0.10100000352E+00 0. -1.
       -3    1    3    3    0  502 -0.51165354613E+03 -0.86806998850E+03  0.99985910855E+03  0.14195256614E+04  0.10100000352E+00 0.  1.
</event>
<event>
 5   0  0.4811500E-07  0.2656289E+04  0.7818609E-02  0.8349328E-01
        1   -1    0    0  501    0  0.00000000000E+00  0.00000000000E+00  0.13029897183E+04  0.13029897183E+04  0.50400001928E-02 0.  1.
       -1   -1    0    0    0  501  0.00000000000E+00  0.00000000000E+00 -0.13537853215E+04  0.13537853215E+04  0.50400001928E-02 0. -1.
    10030    2    1    2    0    0  0.00000000000E+00  0.00000000000E+00 -0.50795603205E+02  0.26567750397E+04  0.26562894079E+04 0.  0.
        5    1    3    3  502    0  0.84584553102E+03 -0.40218831826E+03 -0.96723665235E+03  0.13463947925E+04  0.46999998093E+01 0. -1.
       -5    1    3    3    0  502 -0.84584553102E+03  0.40218831826E+03  0.91644104915E+03  0.13103802472E+04  0.46999998093E+01 0.  1.
</event>
<event>
 5   0  0.4811500E-07  0.3598627E+04  0.7818609E-02  0.8090806E-01
       -1   -1    0    0    0  501  0.00000000000E+00  0.00000000000E+00  0.19723722369E+04  0.19723722370E+04  0.50400001928E-02 0.  1.
        1   -1    0    0  501    0  0.00000000000E+00  0.00000000000E+00 -0.16414394734E+04  0.16414394734E+04  0.50400001928E-02 0. -1.
    10030    2    1    2    0    0  0.00000000000E+00  0.00000000000E+00  0.33093276356E+03  0.36138117103E+04  0.35986273194E+04 0.  0.
        2    1    3    3  502    0 -0.12159263491E+03 -0.36139385688E+03 -0.16004013780E+04  0.16451975138E+04  0.25500000920E-02 0. -1.
       -2    1    3    3    0  502  0.12159263491E+03  0.36139385688E+03  0.19313341415E+04  0.19686141966E+04  0.25500000920E-02 0.  1.
</event>
<event>
 5   0  0.1491854E-06  0.3561361E+04  0.7818609E-02  0.8099400E-01
       -2   -1    0    0    0  501  0.00000000000E+00  0.00000000000E+00  0.16324700791E+04  0.16324700791E+04  0.25500000920E-02 0. -1.
        2   -1    0    0  501    0  0.00000000000E+00  0.00000000000E+00 -0.19423472917E+04  0.19423472917E+04  0.25500000920E-02 0.  1.
    10030    2    1    2    0    0  0.00000000000E+00  0.00000000000E+00 -0.30987721261E+03  0.35748173707E+04  0.35613614457E+04 0.  0.
        5    1    3    3  502    0  0.15587058426E+04 -0.84215390230E+03 -0.33454102137E+03  0.18029772278E+04  0.46999998093E+01 0.  1.
       -5    1    3    3    0  502 -0.15587058426E+04  0.84215390230E+03  0.24663808761E+02  0.17718401430E+04  0.46999998093E+01 0. -1.
</event>
<event>
 5   0  0.5071661E-07  0.3545163E+04  0.7818609E-02  0.8103170E-01
       -1   -1    0    0    0  501  0.00000000000E+00  0.00000000000E+00  0.12674399103E+04  0.12674399103E+04  0.50400001928E-02 0. -1.
        1   -1    0    0  501    0  0.00000000000E+00  0.00000000000E+00 -0.24790480178E+04  0.24790480178E+04  0.50400001928E-02 0.  1.
    10030    2    1    2    0    0  0.00000000000E+00  0.00000000000E+00 -0.12116081075E+04  0.37464879282E+04  0.35451625618E+04 0.  0.
        1    1    3    3  502    0 -0.91353587650E+03  0.15118075994E+04 -0.44929088414E+03  0.18226278594E+04  0.50400001928E-02 0.  1.
       -1    1    3    3    0  502  0.91353587650E+03 -0.15118075994E+04 -0.76231722337E+03  0.19238600688E+04  0.50400001928E-02 0. -1.
</event>
<event>
 5   0  0.1505671E-06  0.3274102E+04  0.7818609E-02  0.8169517E-01
        2   -1    0    0  501    0  0.00000000000E+00  0.00000000000E+00  0.14991097408E+04  0.14991097408E+04  0.25500000920E-02 0.  1.
       -2   -1    0    0    0  501  0.00000000000E+00  0.00000000000E+00 -0.17876844769E+04  0.17876844769E+04  0.25500000920E-02 0. -1.
    10030    2    1    2    0    0  0.00000000000E+00  0.00000000000E+00 -0.28857473608E+03  0.32867942176E+04  0.32741015334E+04 0.  0.
        3    1    3    3  502    0  0.13836501636E+04  0.81876343194E+03  0.16524848253E+03  0.16162204070E+04  0.10100000352E+00 0.  1.
       -3    1    3    3    0  502 -0.13836501636E+04 -0.81876343194E+03 -0.45382321862E+03  0.16705738106E+04  0.10100000352E+00 0. -1.
</event>
<event>
 5   0  0.1379425E-06  0.3566337E+04  0.7818609E-02  0.8098246E-01
       -2   -1    0    0    0  501  0.00000000000E+00  0.00000000000E+00  0.11819580076E+04  0.11819580076E+04  0.25500000920E-02 0.  1.
        2   -1    0    0  501    0  0.00000000000E+00  0.00000000000E+00 -0.26901890684E+04  0.26901890684E+04  0.25500000920E-02 0. -1.
    10030    2    1    2    0    0  0.00000000000E+00  0.00000000000E+00 -0.15082310609E+04  0.38721470760E+04  0.35663373432E+04 0.  0.
        4    1    3    3  502    0 -0.11379672561E+03  0.16943946220E+04 -0.13445933629E+04  0.21660691942E+04  0.12699999809E+01 0. -1.
       -4    1    3    3    0  502  0.11379672561E+03 -0.16943946220E+04 -0.16363769800E+03  0.17060778818E+04  0.12699999809E+01 0.  1.
</event>
<event>
 5   0  0.1505671E-06  0.3420314E+04  0.7818609E-02  0.8132939E-01
        2   -1    0    0  501    0  0.00000000000E+00  0.00000000000E+00  0.25204465194E+04  0.25204465194E+04  0.25500000920E-02 0.  1.
       -2   -1    0    0    0  501  0.00000000000E+00  0.00000000000E+00 -0.11603646448E+04  0.11603646448E+04  0.25500000920E-02 0. -1.
    10030    2    1    2    0    0  0.00000000000E+00  0.00000000000E+00  0.13600818746E+04  0.36808111641E+04  0.34203140383E+04 0.  0.
        3    1    3    3  502    0 -0.38876514998E+03 -0.10100707505E+04 -0.74491091893E+03  0.13138772965E+04  0.10100000352E+00 0. -1.
       -3    1    3    3    0  502  0.38876514998E+03  0.10100707505E+04  0.21049927935E+04  0.23669338677E+04  0.10100000352E+00 0.  1.
</event>
<event>
 5   0  0.4811500E-07  0.3600814E+04  0.7818609E-02  0.8090305E-01
       -4   -1    0    0    0  501  0.00000000000E+00  0.00000000000E+00  0.18172147756E+04  0.18172152193E+04  0.12699999809E+01 0.  1.
        4   -1    0    0  501    0  0.00000000000E+00  0.00000000000E+00 -0.17837534373E+04  0.17837538895E+04  0.12699999809E+01 0. -1.
    10030    2    1    2    0    0  0.00000000000E+00  0.00000000000E+00  0.33461338218E+02  0.36009691088E+04  0.36008136388E+04 0.  0.
        3    1    3    3  502    0  0.38689231439E+03 -0.13300455565E+04  0.11668924343E+04  0.18111722195E+04  0.10100000352E+00 0.  1.
       -3    1    3    3    0  502 -0.38689231439E+03  0.13300455565E+04 -0.11334310961E+04  0.17897968893E+04  0.10100000352E+00 0. -1.
</event>
<event>
 5   0  0.1379425E-06  0.3368793E+04  0.7818609E-02  0.8145608E-01
        2   -1    0    0  501    0  0.00000000000E+00  0.00000000000E+00  0.16884582352E+04  0.16884582352E+04  0.25500000920E-02 0.  1.
       -2   -1    0    0    0  501  0.00000000000E+00  0.00000000000E+00 -0.16803448945E+04  0.16803448945E+04  0.25500000920E-02 0. -1.
    10030    2    1    2    0    0  0.00000000000E+00  0.00000000000E+00  0.81133407105E+01  0.33688031296E+04  0.33687933596E+04 0.  0.
        4    1    3    3  502    0  0.10258640460E+04 -0.12618011574E+04  0.44297861973E+03  0.16854586534E+04  0.12699999809E+01 0.  1.
       -4    1    3    3    0  502 -0.10258640460E+04  0.12618011574E+04 -0.43486527902E+03  0.16833444762E+04  0.12699999809E+01 0. -1.
</event>
<event>
 5   0  0.4811500E-07  0.3665979E+04  0.7818609E-02  0.8075543E-01
        1   -1    0    0  501    0  0.00000000000E+00  0.00000000000E+00  0.22453813255E+04  0.22453813255E+04  0.50400001928E-02 0. -1.
       -1   -1    0    0    0  501  0.00000000000E+00  0.00000000000E+00 -0.14963382032E+04  0.14963382032E+04  0.50400001928E-02 0.  1.
    10030    2    1    2    0    0  0.00000000000E+00  0.00000000000E+00  0.74904312230E+03  0.37417195288E+04  0.36659786460E+04 0.  0.
        5    1    3    3  502    0  0.12002733827E+04  0.75481250256E+03 -0.81112822049E+03  0.16335082452E+04  0.46999998093E+01 0.  1.
       -5    1    3    3    0  502 -0.12002733827E+04 -0.75481250256E+03  0.15601713428E+04  0.21082112836E+04  0.46999998093E+01 0. -1.
</event>
<event>
 5   0  0.1491854E-06  0.3512912E+04  0.7818609E-02  0.8110737E-01
        2   -1    0    0  501    0  0.00000000000E+00  0.00000000000E+00  0.20458727112E+04  0.20458727112E+04  0.25500000920E-02 0.  1.
       -2   -1    0    0    0  501  0.00000000000E+00  0.00000000000E+00 -0.15079815873E+04  0.15079815873E+04  0.25500000920E-02 0. -1.
    10030    2    1    2    0    0  0.00000000000E+00  0.00000000000E+00  0.53789112387E+03  0.35538542985E+04  0.35129123977E+04 0.  0.
        5    1    3    3  502    0  0.10620130947E+04 -0.57302123849E+03 -0.10222092812E+04  0.15815053139E+04  0.46999998093E+01 0. -1.
       -5    1    3    3    0  502 -0.10620130947E+04  0.57302123849E+03  0.15601004051E+04  0.19723489846E+04  0.46999998093E+01 0.  1.
</event>
<event>
 5   0  0.4811500E-07  0.3605351E+04  0.7818609E-02  0.8089267E-01
       -1   -1    0    0    0  501  0.00000000000E+00  0.00000000000E+00  0.13034235496E+04  0.13034235496E+04  0.50400001928E-02 0. -1.
        1   -1    0    0  501    0  0.00000000000E+00  0.00000000000E+00 -0.24931559529E+04  0.24931559529E+04  0.50400001928E-02 0.  1.
    10030    2    1    2    0    0  0.00000000000E+00  0.00000000000E+00 -0.11897324033E+04  0.37965795026E+04  0.36053505693E+04 0.  0.
        5    1    3    3  502    0  0.17499015193E+04  0.39677724773E+03 -0.41238740847E+03  0.18411064543E+04  0.46999998093E+01 0. -1.
       -5    1    3    3    0  502 -0.17499015193E+04 -0.39677724773E+03 -0.77734499486E+03  0.19554730483E+04  0.46999998093E+01 0.  1.
</event>
<event>
 5   0  0.4811500E-07  0.3621019E+04  0.7818609E-02  0.8085694E-01
        1   -1    0    0  501    0  0.00000000000E+00  0.00000000000E+00  0.18178442163E+04  0.18178442163E+04  0.50400001928E-02 0. -1.
       -1   -1    0    0    0  501  0.00000000000E+00  0.00000000000E+00 -0.18032042641E+04  0.18032042641E+04  0.50400001928E-02 0.  1.
    10030    2    1    2    0    0  0.00000000000E+00  0.00000000000E+00  0.14639952170E+02  0.36210484804E+04  0.36210188855E+04 0.  0.
        2    1    3    3  502    0 -0.13754335622E+04  0.78641971537E+03 -0.86885554174E+03  0.18069818497E+04  0.25500000920E-02 0.  1.
       -2    1    3    3    0  502  0.13754335622E+04 -0.78641971537E+03  0.88349549390E+03  0.18140666307E+04  0.25500000920E-02 0. -1.
</event>
<event>
 5   0  0.4811500E-07  0.3483066E+04  0.7818609E-02  0.8117815E-01
        1   -1    0    0  501    0  0.00000000000E+00  0.00000000000E+00  0.17429022986E+04  0.17429022986E+04  0.50400001928E-02 0.  1.
       -1   -1    0    0    0  501  0.00000000000E+00  0.00000000000E+00 -0.17401645736E+04  0.17401645736E+04  0.50400001928E-02 0. -1.
    10030    2    1    2    0    0  0.00000000000E+00  0.00000000000E+00  0.27377249791E+01  0.34830668723E+04  0.34830657963E+04 0.  0.
        3    1    3    3  502    0  0.70241039598E+02  0.13448935998E+03  0.17362802415E+04  0.17428970936E+04  0.10100000352E+00 0.  1.
       -3    1    3    3    0  502 -0.70241039598E+02 -0.13448935998E+03 -0.17335425166E+04  0.17401697787E+04  0.10100000352E+00 0. -1.
</event>
<event>
 5   0  0.4811500E-07  0.3639982E+04  0.7818609E-02  0.8081394E-01
        1   -1    0    0  501    0  0.00000000000E+00  0.00000000000E+00  0.24574677498E+04  0.24574677498E+04  0.50400001928E-02 0. -1.
       -1   -1    0    0    0  501  0.00000000000E+00  0.00000000000E+00 -0.13478784214E+04  0.13478784214E+04  0.50400001928E-02 0.  1.
    10030    2    1    2    0    0  0.00000000000E+00  0.00000000000E+00  0.11095893284E+04  0.38053461712E+04  0.36399822809E+04 0.  0.
        5    1    3    3  502    0 -0.14291258142E+04 -0.70435036886E+03 -0.36484831803E+03  0.16345171826E+04  0.46999998093E+01 0.  1.
       -5    1    3    3    0  502  0.14291258142E+04  0.70435036886E+03  0.14744376464E+04  0.21708289887E+04  0.46999998093E+01 0. -1.
</event>
<event>
 5   0  0.1491854E-06  0.2728704E+04  0.7818609E-02  0.8325751E-01
        2   -1    0    0  501    0  0.00000000000E+00  0.00000000000E+00  0.24319221651E+04  0.24319221651E+04  0.25500000920E-02 0. -1.
       -2   -1    0    0    0  501  0.00000000000E+00  0.00000000000E+00 -0.76542601230E+03  0.76542601230E+03  0.25500000920E-02 0.  1.
    10030    2    1    2    0    0  0.00000000000E+00  0.00000000000E+00  0.16664961528E+04  0.31973481774E+04  0.27287040771E+04 0.  0.
        5    1    3    3  502    0  0.39681833092E+01 -0.85564273097E+03 -0.41194596569E+03  0.94966404491E+03  0.46999998093E+01 0.  1.
       -5    1    3    3    0  502 -0.39681833092E+01  0.85564273097E+03  0.20784421185E+04  0.22476841325E+04  0.46999998093E+01 0. -1.
</event>
<event>
 5   0  0.5071661E-07  0.3615542E+04  0.7818609E-02  0.8086941E-01
        1   -1    0    0  501    0  0.00000000000E+00  0.00000000000E+00  0.18244344666E+04  0.18244344666E+04  0.50400001928E-02 0. -1.
       -1   -1    0    0    0  501  0.00000000000E+00  0.00000000000E+00 -0.17912599666E+04  0.17912599666E+04  0.50400001928E-02 0.  1.
    10030    2    1    2    0    0  0.00000000000E+00  0.00000000000E+00  0.33174499969E+02  0.36156944332E+04  0.36155422397E+04 0.  0.
        1    1    3    3  502    0  0.16162137037E+04  0.19263250129E+03 -0.77007309636E+03  0.18006294984E+04  0.50400001928E-02 0.  1.
       -1    1    3    3    0  502 -0.16162137037E+04 -0.19263250129E+03  0.80324759633E+03  0.18150649348E+04  0.50400001928E-02 0. -1.
</event>
<event>
 5   0  0.4811500E-07  0.3451850E+04  0.7818609E-02  0.8125297E-01
       -1   -1    0    0    0  501  0.00000000000E+00  0.00000000000E+00  0.24334803881E+04  0.24334803881E+04  0.50400001928E-02 0.  1.
        1   -1    0    0  501    0  0.00000000000E+00  0.00000000000E+00 -0.12240974548E+04  0.12240974548E+04  0.50400001928E-02 0. -1.
    10030    2    1    2    0    0  0.00000000000E+00  0.00000000000E+00  0.12093829333E+04  0.36575778429E+04  0.34518500254E+04 0.  0.
        5    1    3    3  502    0  0.14595451330E+03  0.13419090382E+04  0.17443260821E+04  0.22056106088E+04  0.46999998093E+01 0.  1.
       -5    1    3    3    0  502 -0.14595451330E+03 -0.13419090382E+04 -0.53494314877E+03  0.14519672342E+04  0.46999998093E+01 0. -1.
</event>
<event>
 5   0  0.4811500E-07  0.3544645E+04  0.7818609E-02  0.8103290E-01
       -1   -1    0    0    0  501  0.00000000000E+00  0.00000000000E+00  0.17777790248E+04  0.17777790248E+04  0.50400001928E-02 0. -1.
        1   -1    0    0  501    0  0.00000000000E+00  0.00000000000E+00 -0.17668826468E+04  0.17668826469E+04  0.50400001928E-02 0.  1.
    10030    2    1    2    0    0  0.00000000000E+00  0.00000000000E+00  0.10896377951E+02  0.35446616717E+04  0.35446449238E+04 0.  0.
        4    1    3    3  502    0 -0.13328845335E+04 -0.70000635926E+03 -0.92972210436E+03  0.17694560991E+04  0.12699999809E+01 0.  1.
       -4    1    3    3    0  502  0.13328845335E+04  0.70000635926E+03  0.94061848231E+03  0.17752055725E+04  0.12699999809E+01 0. -1.
</event>
<event>
 5   0  0.4811500E-07  0.3201816E+04  0.7818609E-02  0.8188338E-01
        1   -1    0    0  501    0  0.00000000000E+00  0.00000000000E+00  0.10475882406E+04  0.10475882406E+04  0.50400001928E-02 0. -1.
       -1   -1    0    0    0  501  0.00000000000E+00  0.00000000000E+00 -0.24464823771E+04  0.24464823771E+04  0.50400001928E-02 0.  1.
    10030    2    1    2    0    0  0.00000000000E+00  0.00000000000E+00 -0.13988941364E+04  0.34940706177E+04  0.32018158405E+04 0.  0.
        2    1    3    3  502    0  0.88866682508E+03 -0.78523465015E+03  0.47416324400E+03  0.12771659891E+04  0.25500000920E-02 0. -1.
       -2    1    3    3    0  502 -0.88866682508E+03  0.78523465015E+03 -0.18730573804E+04  0.22169046286E+04  0.25500000920E-02 0.  1.
</event>
<event>
 5   0  0.1468942E-06  0.3590284E+04  0.7818609E-02  0.8092721E-01
       -2   -1    0    0    0  501  0.00000000000E+00  0.00000000000E+00  0.17799462717E+04  0.17799462717E+04  0.25500000920E-02 0.  1.
        2   -1    0    0  501    0  0.00000000000E+00  0.00000000000E+00 -0.18104679177E+04  0.18104679177E+04  0.25500000920E-02 0. -1.
    10030    2    1    2    0    0  0.00000000000E+00  0.00000000000E+00 -0.30521645949E+02  0.35904141894E+04  0.35902844568E+04 0.  0.
        2    1    3    3  502    0  0.10625558999E+04 -0.12154487422E+04 -0.80027003773E+03  0.18018803564E+04  0.25500000920E-02 0.  1.
       -2    1    3    3    0  502 -0.10625558999E+04  0.12154487422E+04  0.76974839178E+03  0.17885338331E+04  0.25500000920E-02 0. -1.
</event>
<event>
 5   0  0.1505671E-06  0.3841238E+04  0.7818609E-02  0.8037363E-01
       -2   -1    0    0    0  501  0.00000000000E+00  0.00000000000E+00  0.19453681687E+04  0.19453681687E+04  0.25500000920E-02 0.  1.
        2   -1    0    0  501    0  0.00000000000E+00  0.00000000000E+00 -0.18961846162E+04  0.18961846162E+04  0.25500000920E-02 0. -1.
    10030    2    1    2    0    0  0.00000000000E+00  0.00000000000E+00  0.49183552408E+02  0.38415527849E+04  0.38412379225E+04 0.  0.
        3    1    3    3  502    0 -0.49632677428E+02  0.95087627498E+03  0.16927057440E+04  0.19421333216E+04  0.10100000352E+00 0.  1.
       -3    1    3    3    0  502  0.49632677428E+02 -0.95087627498E+03 -0.16435221916E+04  0.18994194633E+04  0.10100000352E+00 0. -1.
</event>
<event>
 5   0  0.1379425E-06  0.3604873E+04  0.7818609E-02  0.8089376E-01
        2   -1    0    0  501    0  0.00000000000E+00  0.00000000000E+00  0.16118547575E+04  0.16118547575E+04  0.25500000920E-02 0. -1.
       -2   -1    0    0    0  501  0.00000000000E+00  0.00000000000E+00 -0.20155517638E+04  0.20155517638E+04  0.25500000920E-02 0.  1.
    10030    2    1    2    0    0  0.00000000000E+00  0.00000000000E+00 -0.40369700630E+03  0.36274065214E+04  0.36048726466E+04 0.  0.
        4    1    3    3  502    0  0.21206622143E+03  0.16033143217E+04  0.59885553741E+03  0.17245922603E+04  0.12699999809E+01 0.  1.
       -4    1    3    3    0  502 -0.21206622143E+03 -0.16033143217E+04 -0.10025525437E+04  0.19028142611E+04  0.12699999809E+01 0. -1.
</event>
<event>
 5   0  0.4811500E-07  0.3578928E+04  0.7818609E-02  0.8095336E-01
       -1   -1    0    0    0  501  0.00000000000E+00  0.00000000000E+00  0.29054882400E+04  0.29054882400E+04  0.50400001928E-02 0. -1.
        1   -1    0    0  501    0  0.00000000000E+00  0.00000000000E+00 -0.11021145988E+04  0.11021145988E+04  0.50400001928E-02 0.  1.
    10030    2    1    2    0    0  0.00000000000E+00  0.00000000000E+00  0.18033736412E+04  0.40076028388E+04  0.35789277757E+04 0.  0.
        3    1    3    3  502    0  0.44268570851E+03  0.88295118659E+03 -0.76922519136E+03  0.12519108753E+04  0.10100000352E+00 0.  1.
       -3    1    3    3    0  502 -0.44268570851E+03 -0.88295118659E+03  0.25725988326E+04  0.27556919635E+04  0.10100000352E+00 0. -1.
</event>
<event>
 5   0  0.1379425E-06  0.3615259E+04  0.7818609E-02  0.8087005E-01
       -2   -1    0    0    0  501  0.00000000000E+00  0.00000000000E+00  0.16431274060E+04  0.16431274060E+04  0.25500000920E-02 0.  1.
        2   -1    0    0  501    0  0.00000000000E+00  0.00000000000E+00 -0.19886009621E+04  0.19886009621E+04  0.25500000920E-02 0. -1.
    10030    2    1    2    0    0  0.00000000000E+00  0.00000000000E+00 -0.34547355607E+03  0.36317283682E+04  0.36152591833E+04 0.  0.
        4    1    3    3  502    0 -0.59262907821E+03 -0.99624639950E+03 -0.15660689736E+04  0.19484069790E+04  0.12699999809E+01 0. -1.
       -4    1    3    3    0  502  0.59262907821E+03  0.99624639950E+03  0.12205954176E+04  0.16833213891E+04  0.12699999809E+01 0.  1.
</event>
<event>
 5   0  0.1491854E-06  0.3634975E+04  0.7818609E-02  0.8082527E-01
        2   -1    0    0  501    0  0.00000000000E+00  0.00000000000E+00  0.29584900609E+04  0.29584900609E+04  0.25500000920E-02 0.  1.
       -2   -1    0    0    0  501  0.00000000000E+00  0.00000000000E+00 -0.11165360359E+04  0.11165360359E+04  0.25500000920E-02 0. -1.
    10030    2    1    2    0    0  0.00000000000E+00  0.00000000000E+00  0.18419540250E+04  0.40750260967E+04  0.36349749736E+04 0.  0.
        5    1    3    3  502    0 -0.69731293667E+02  0.33681256195E+03 -0.10797100095E+04  0.11331817814E+04  0.46999998093E+01 0. -1.
       -5    1    3    3    0  502  0.69731293667E+02 -0.33681256195E+03  0.29216640345E+04  0.29418443153E+04  0.46999998093E+01 0.  1.
</event>
<event>
 5   0  0.4811500E-07  0.3636254E+04  0.7818609E-02  0.8082237E-01
       -1   -1    0    0    0  501  0.00000000000E+00  0.00000000000E+00  0.12348433338E+04  0.12348433338E+04  0.50400001928E-02 0. -1.
        1   -1    0    0  501    0  0.00000000000E+00  0.00000000000E+00 -0.26769272068E+04  0.26769272068E+04  0.50400001928E-02 0.  1.
    10030    2    1    2    0    0  0.00000000000E+00  0.00000000000E+00 -0.14420838729E+04  0.39117705406E+04  0.36362539605E+04 0.  0.
        4    1    3    3  502    0 -0.44933684779E+03 -0.63487240894E+03 -0.24889134798E+04  0.26076154819E+04  0.12699999809E+01 0.  1.
       -4    1    3    3    0  502  0.44933684779E+03  0.63487240894E+03  0.10468296069E+04  0.13041550587E+04  0.12699999809E+01 0. -1.
</event>
<event>
 5   0  0.4811500E-07  0.3640724E+04  0.7818609E-02  0.8081227E-01
       -1   -1    0    0    0  501  0.00000000000E+00  0.00000000000E+00  0.11717392039E+04  0.11717392039E+04  0.50400001928E-02 0.  1.
        1   -1    0    0  501    0  0.00000000000E+00  0.00000000000E+00 -0.28280328154E+04  0.28280328154E+04  0.50400001928E-02 0. -1.
    10030    2    1    2    0    0  0.00000000000E+00  0.00000000000E+00 -0.16562936115E+04  0.39997720193E+04  0.36407235104E+04 0.  0.
        2    1    3    3  502    0  0.34231555053E+03  0.17522701243E+04 -0.43804168258E+03  0.18383446467E+04  0.25500000920E-02 0.  1.
       -2    1    3    3    0  502 -0.34231555053E+03 -0.17522701243E+04 -0.12182519290E+04  0.21614273726E+04  0.25500000920E-02 0. -1.
</event>
<event>
 5   0  0.4811500E-07  0.3566224E+04  0.7818609E-02  0.8098273E-01
        1   -1    0    0  501    0  0.00000000000E+00  0.00000000000E+00  0.20618174664E+04  0.20618174664E+04  0.50400001928E-02 0. -1.
       -1   -1    0    0    0  501  0.00000000000E+00  0.00000000000E+00 -0.15420806627E+04  0.15420806627E+04  0.50400001928E-02 0.  1.
    10030    2    1    2    0    0  0.00000000000E+00  0.00000000000E+00  0.51973680369E+03  0.36038981291E+04  0.35662242470E+04 0.  0.
        2    1    3    3  502    0 -0.95678017837E+03  0.74543435989E+03  0.15807294498E+04  0.19924372733E+04  0.25500000920E-02 0. -1.
       -2    1    3    3    0  502  0.95678017837E+03 -0.74543435989E+03 -0.10609926461E+04  0.16114608558E+04  0.25500000920E-02 0.  1.
</event>
<event>
 5   0  0.4811500E-07  0.2339356E+04  0.7818609E-02  0.8462563E-01
        1   -1    0    0  501    0  0.00000000000E+00  0.00000000000E+00  0.97276824257E+03  0.97276824258E+03  0.50400001928E-02 0.  1.
       -1   -1    0    0    0  501  0.00000000000E+00  0.00000000000E+00 -0.14064462984E+04  0.14064462984E+04  0.50400001928E-02 0. -1.
    10030    2    1    2    0    0  0.00000000000E+00  0.00000000000E+00 -0.43367805581E+03  0.23792145410E+04  0.23393557181E+04 0.  0.
        3    1    3    3  502    0  0.61558205299E+02 -0.17676879915E+03 -0.13911152820E+04  0.14036517940E+04  0.10100000352E+00 0. -1.
       -3    1    3    3    0  502 -0.61558205299E+02  0.17676879915E+03  0.95743722615E+03  0.97556274693E+03  0.10100000352E+00 0.  1.
</event>
<event>
 5   0  0.4811500E-07  0.2989892E+04  0.7818609E-02  0.8246623E-01
        1   -1    0    0  501    0  0.00000000000E+00  0.00000000000E+00  0.11635296982E+04  0.11635296982E+04  0.50400001928E-02 0.  1.
       -1   -1    0    0    0  501  0.00000000000E+00  0.00000000000E+00 -0.19207616341E+04  0.19207616341E+04  0.50400001928E-02 0. -1.
    10030    2    1    2    0    0  0.00000000000E+00  0.00000000000E+00 -0.75723193589E+03  0.30842913323E+04  0.29898917736E+04 0.  0.
        2    1    3    3  502    0 -0.11125025881E+03  0.11022215404E+04  0.65686654159E+03  0.12879218135E+04  0.25500000920E-02 0.  1.
       -2    1    3    3    0  502  0.11125025881E+03 -0.11022215404E+04 -0.14140984775E+04  0.17963695188E+04  0.25500000920E-02 0. -1.
</event>
<event>
 5   0  0.1468942E-06  0.3556072E+04  0.7818609E-02  0.8100629E-01
       -2   -1    0    0    0  501  0.00000000000E+00  0.00000000000E+00  0.18776337329E+04  0.18776337329E+04  0.25500000920E-02 0.  1.
        2   -1    0    0  501    0  0.00000000000E+00  0.00000000000E+00 -0.16837211800E+04  0.16837211800E+04  0.25500000920E-02 0. -1.
    10030    2    1    2    0    0  0.00000000000E+00  0.00000000000E+00  0.19391255289E+03  0.35613549128E+04  0.35560718127E+04 0.  0.
        2    1    3    3  502    0 -0.16401542542E+03  0.42907947319E+03 -0.16232688561E+04  0.16870127543E+04  0.25500000920E-02 0. -1.
       -2    1    3    3    0  502  0.16401542542E+03 -0.42907947319E+03  0.18171814090E+04  0.18743421585E+04  0.25500000920E-02 0.  1.
</event>
<event>
 5   0  0.1468942E-06  0.3455388E+04  0.7818609E-02  0.8124445E-01
       -2   -1    0    0    0  501  0.00000000000E+00  0.00000000000E+00  0.14860073353E+04  0.14860073353E+04  0.25500000920E-02 0. -1.
        2   -1    0    0  501    0  0.00000000000E+00  0.00000000000E+00 -0.20086886822E+04  0.20086886822E+04  0.25500000920E-02 0.  1.
    10030    2    1    2    0    0  0.00000000000E+00  0.00000000000E+00 -0.52268134692E+03  0.34946960175E+04  0.34553877444E+04 0.  0.
        2    1    3    3  502    0 -0.13268440545E+04  0.10756521245E+04 -0.52387695433E+03  0.17866140325E+04  0.25500000920E-02 0.  1.
       -2    1    3    3    0  502  0.13268440545E+04 -0.10756521245E+04  0.11956074127E+01  0.17080819850E+04  0.25500000920E-02 0. -1.
</event>
<event>
 5   0  0.1505671E-06  0.3634845E+04  0.7818609E-02  0.8082556E-01
        2   -1    0    0  501    0  0.00000000000E+00  0.00000000000E+00  0.17801987913E+04  0.17801987913E+04  0.25500000920E-02 0. -1.
       -2   -1    0    0    0  501  0.00000000000E+00  0.00000000000E+00 -0.18554248459E+04  0.18554248459E+04  0.25500000920E-02 0.  1.
    10030    2    1    2    0    0  0.00000000000E+00  0.00000000000E+00 -0.75226054563E+02  0.36356236372E+04  0.36348452886E+04 0.  0.
        3    1    3    3  502    0  0.17712563059E+04 -0.19958679418E+03 -0.39243011829E+03  0.18251534723E+04  0.10100000352E+00 0.  1.
       -3    1    3    3    0  502 -0.17712563059E+04  0.19958679418E+03  0.31720406373E+03  0.18104701649E+04  0.10100000352E+00 0. -1.
</event>
<event>
 5   0  0.5071661E-07  0.3502577E+04  0.7818609E-02  0.8113180E-01
       -1   -1    0    0    0  501  0.00000000000E+00  0.00000000000E+00  0.25260584571E+04  0.25260584571E+04  0.50400001928E-02 0. -1.
        1   -1    0    0  501    0  0.00000000000E+00  0.00000000000E+00 -0.12141489489E+04  0.12141489489E+04  0.50400001928E-02 0.  1.
    10030    2    1    2    0    0  0.00000000000E+00  0.00000000000E+00  0.13119095082E+04  0.37402074060E+04  0.35025768917E+04 0.  0.
        1    1    3    3  502    0 -0.14120090724E+04  0.74153250858E+03  0.14284803765E+04  0.21410736251E+04  0.50400001928E-02 0. -1.
       -1    1    3    3    0  502  0.14120090724E+04 -0.74153250858E+03 -0.11657086838E+03  0.15991337809E+04  0.50400001928E-02 0.  1.
</event>
<event>
 5   0  0.4811500E-07  0.2339220E+04  0.7818609E-02  0.8462616E-01
        1   -1    0    0  501    0  0.00000000000E+00  0.00000000000E+00  0.31562814224E+04  0.31562814224E+04  0.50400001928E-02 0. -1.
       -1   -1    0    0    0  501  0.00000000000E+00  0.00000000000E+00 -0.43341761113E+03  0.43341761116E+03  0.50400001928E-02 0.  1.
    10030    2    1    2    0    0  0.00000000000E+00  0.00000000000E+00  0.27228638113E+04  0.35896990336E+04  0.23392203438E+04 0.  0.
        2    1    3    3  502    0  0.12838924072E+03 -0.49543989201E+03  0.29753184621E+04  0.30190171306E+04  0.25500000920E-02 0. -1.
       -2    1    3    3    0  502 -0.12838924072E+03  0.49543989201E+03 -0.25245465080E+03  0.57068190303E+03  0.25500000920E-02 0.  1.
</event>
<event>
 5   0  0.6186796E-07  0.2260016E+04  0.7818609E-02  0.8493855E-01
        1   -1    0    0  501    0  0.00000000000E+00  0.00000000000E+00  0.12362929887E+04  0.12362929887E+04  0.50400001928E-02 0. -1.
       -1   -1    0    0    0  501  0.00000000000E+00  0.00000000000E+00 -0.10328602153E+04  0.10328602153E+04  0.50400001928E-02 0.  1.
    10030    2    1    2    0    0  0.00000000000E+00  0.00000000000E+00  0.20343277336E+03  0.22691532040E+04  0.22600157897E+04 0.  0.
        2    1    3    3  502    0  0.43560641242E+03  0.24430623324E+03 -0.91602842858E+03  0.10433343492E+04  0.25500000920E-02 0.  1.
       -2    1    3    3    0  502 -0.43560641242E+03 -0.24430623324E+03  0.11194612019E+04  0.12258188548E+04  0.25500000920E-02 0. -1.
</event>
<event>
 5   0  0.1505671E-06  0.3547912E+04  0.7818609E-02  0.8102528E-01
       -2   -1    0    0    0  501  0.00000000000E+00  0.00000000000E+00  0.20780761933E+04  0.20780761933E+04  0.25500000920E-02 0. -1.
        2   -1    0    0  501    0  0.00000000000E+00  0.00000000000E+00 -0.15143430166E+04  0.15143430166E+04  0.25500000920E-02 0.  1.
    10030    2    1    2    0    0  0.00000000000E+00  0.00000000000E+00  0.56373317673E+03  0.35924192098E+04  0.35479121585E+04 0.  0.
        3    1    3    3  502    0  0.49551850400E+03  0.76357055458E+03 -0.12598440302E+04  0.15542797594E+04  0.10100000352E+00 0.  1.
       -3    1    3    3    0  502 -0.49551850400E+03 -0.76357055458E+03  0.18235772070E+04  0.20381394505E+04  0.10100000352E+00 0. -1.
</event>
<event>
 5   0  0.1468942E-06  0.3464148E+04  0.7818609E-02  0.8122339E-01
        2   -1    0    0  501    0  0.00000000000E+00  0.00000000000E+00  0.22155413428E+04  0.22155413428E+04  0.25500000920E-02 0.  1.
       -2   -1    0    0    0  501  0.00000000000E+00  0.00000000000E+00 -0.13541068553E+04  0.13541068553E+04  0.25500000920E-02 0. -1.
    10030    2    1    2    0    0  0.00000000000E+00  0.00000000000E+00  0.86143448746E+03  0.35696481981E+04  0.34641476415E+04 0.  0.
        2    1    3    3  502    0  0.13468037221E+04 -0.10708776672E+04  0.22612462627E+03  0.17354514083E+04  0.25500000920E-02 0.  1.
       -2    1    3    3    0  502 -0.13468037221E+04  0.10708776672E+04  0.63530986118E+03  0.18341967898E+04  0.25500000920E-02 0. -1.
</event>
<event>
 5   0  0.1468942E-06  0.3563207E+04  0.7818609E-02  0.8098972E-01
       -2   -1    0    0    0  501  0.00000000000E+00  0.00000000000E+00  0.16953538189E+04  0.16953538189E+04  0.25500000920E-02 0.  1.
        2   -1    0    0  501    0  0.00000000000E+00  0.00000000000E+00 -0.18722410600E+04  0.18722410600E+04  0.25500000920E-02 0. -1.
    10030    2    1    2    0    0  0.00000000000E+00  0.00000000000E+00 -0.17688724120E+03  0.35675948789E+04  0.35632069999E+04 0.  0.
        2    1    3    3  502    0  0.39614887226E+03  0.74441694743E+03  0.14828903267E+04  0.17058881094E+04  0.25500000920E-02 0.  1.
       -2    1    3    3    0  502 -0.39614887226E+03 -0.74441694743E+03 -0.16597775679E+04  0.18617067695E+04  0.25500000920E-02 0. -1.
</event>
<event>
 5   0  0.4811500E-07  0.3618891E+04  0.7818609E-02  0.8086178E-01
       -1   -1    0    0    0  501  0.00000000000E+00  0.00000000000E+00  0.15542769714E+04  0.15542769714E+04  0.50400001928E-02 0. -1.
        1   -1    0    0  501    0  0.00000000000E+00  0.00000000000E+00 -0.21065059555E+04  0.21065059555E+04  0.50400001928E-02 0.  1.
    10030    2    1    2    0    0  0.00000000000E+00  0.00000000000E+00 -0.55222898406E+03  0.36607829269E+04  0.36188913754E+04 0.  0.
        4    1    3    3  502    0  0.71605168360E+03 -0.14925665016E+03  0.13980616425E+04  0.15778420486E+04  0.12699999809E+01 0. -1.
       -4    1    3    3    0  502 -0.71605168360E+03  0.14925665016E+03 -0.19502906266E+04  0.20829408783E+04  0.12699999809E+01 0.  1.
</event>
<event>
 5   0  0.4811500E-07  0.3061972E+04  0.7818609E-02  0.8226252E-01
        1   -1    0    0  501    0  0.00000000000E+00  0.00000000000E+00  0.16644087218E+04  0.16644087218E+04  0.50400001928E-02 0.  1.
       -1   -1    0    0    0  501  0.00000000000E+00  0.00000000000E+00 -0.14082589038E+04  0.14082589038E+04  0.50400001928E-02 0. -1.
    10030    2    1    2    0    0  0.00000000000E+00  0.00000000000E+00  0.25614981805E+03  0.30726676256E+04  0.30619721763E+04 0.  0.
        5    1    3    3  502    0 -0.48997339324E+03 -0.64902424531E+03  0.14297526710E+04  0.16448468583E+04  0.46999998093E+01 0.  1.
       -5    1    3    3    0  502  0.48997339324E+03  0.64902424531E+03 -0.11736028530E+04  0.14278207673E+04  0.46999998093E+01 0. -1.
</event>
<event>
 5   0  0.1379425E-06  0.3556913E+04  0.7818609E-02  0.8100433E-01
       -2   -1    0    0    0  501  0.00000000000E+00  0.00000000000E+00  0.15178096636E+04  0.15178096636E+04  0.25500000920E-02 0.  1.
        2   -1    0    0  501    0  0.00000000000E+00  0.00000000000E+00 -0.20838634892E+04  0.20838634892E+04  0.25500000920E-02 0. -1.
    10030    2    1    2    0    0  0.00000000000E+00  0.00000000000E+00 -0.56605382558E+03  0.36016731528E+04  0.35569133481E+04 0.  0.
        4    1    3    3  502    0 -0.16341659557E+03  0.17695467003E+04 -0.35395131550E+03  0.18119833484E+04  0.12699999809E+01 0.  1.
       -4    1    3    3    0  502  0.16341659557E+03 -0.17695467003E+04 -0.21210251008E+03  0.17896898044E+04  0.12699999809E+01 0. -1.
</event>
<event>
 5   0  0.1505671E-06  0.3649307E+04  0.7818609E-02  0.8079290E-01
       -2   -1    0    0    0  501  0.00000000000E+00  0.00000000000E+00  0.10462502068E+04  0.10462502069E+04  0.25500000920E-02 0.  1.
        2   -1    0    0  501    0  0.00000000000E+00  0.00000000000E+00 -0.31821831377E+04  0.31821831377E+04  0.25500000920E-02 0. -1.
    10030    2    1    2    0    0  0.00000000000E+00  0.00000000000E+00 -0.21359329308E+04  0.42284333445E+04  0.36493066553E+04 0.  0.
        3    1    3    3  502    0  0.14862130526E+04 -0.52034746440E+03  0.15238700684E+00  0.15746716339E+04  0.10100000352E+00 0.  1.
       -3    1    3    3    0  502 -0.14862130526E+04  0.52034746440E+03 -0.21360853179E+04  0.26537617106E+04  0.10100000352E+00 0. -1.
</event>
<event>
 5   0  0.1491854E-06  0.3615612E+04  0.7818609E-02  0.8086925E-01
       -2   -1    0    0    0  501  0.00000000000E+00  0.00000000000E+00  0.22637538994E+04  0.22637538994E+04  0.25500000920E-02 0. -1.
        2   -1    0    0  501    0  0.00000000000E+00  0.00000000000E+00 -0.14436914546E+04  0.14436914546E+04  0.25500000920E-02 0.  1.
    10030    2    1    2    0    0  0.00000000000E+00  0.00000000000E+00  0.82006244478E+03  0.37074453540E+04  0.36156117933E+04 0.  0.
        5    1    3    3  502    0 -0.17525533162E+04 -0.31901609629E+03  0.72595681506E+03  0.19236033331E+04  0.46999998093E+01 0.  1.
       -5    1    3    3    0  502  0.17525533162E+04  0.31901609629E+03  0.94105629726E+02  0.17838420209E+04  0.46999998093E+01 0. -1.
</event>
<event>
 5   0  0.1505671E-06  0.3310019E+04  0.7818609E-02  0.8160351E-01
        2   -1    0    0  501    0  0.00000000000E+00  0.00000000000E+00  0.32145903146E+04  0.32145903146E+04  0.25500000920E-02 0.  1.
       -2   -1    0    0    0  501  0.00000000000E+00  0.00000000000E+00 -0.85207023090E+03  0.85207023090E+03  0.25500000920E-02 0. -1.
    10030    2    1    2    0    0  0.00000000000E+00  0.00000000000E+00  0.23625200837E+04  0.40666605455E+04  0.33100191610E+04 0.  0.
        3    1    3    3  502    0  0.13722668821E+04  0.85881273522E+03  0.75854431944E+03  0.17877542349E+04  0.10100000352E+00 0. -1.
       -3    1    3    3    0  502 -0.13722668821E+04 -0.85881273522E+03  0.16039757643E+04  0.22789063106E+04  0.10100000352E+00 0.  1.
</event>
<event>
 5   0  0.1468942E-06  0.3546857E+04  0.7818609E-02  0.8102774E-01
       -2   -1    0    0    0  501  0.00000000000E+00  0.00000000000E+00  0.14735765950E+04  0.14735765950E+04  0.25500000920E-02 0.  1.
        2   -1    0    0  501    0  0.00000000000E+00  0.00000000000E+00 -0.21342956377E+04  0.21342956377E+04  0.25500000920E-02 0. -1.
    10030    2    1    2    0    0  0.00000000000E+00  0.00000000000E+00 -0.66071904265E+03  0.36078722327E+04  0.35468566921E+04 0.  0.
        2    1    3    3  502    0  0.82018796067E+03 -0.83168915106E+03 -0.16877184755E+04  0.20525127984E+04  0.25500000920E-02 0. -1.
       -2    1    3    3    0  502 -0.82018796067E+03  0.83168915106E+03  0.10269994329E+04  0.15553594343E+04  0.25500000920E-02 0.  1.
</event>
<event>
 5   0  0.1505671E-06  0.3394943E+04  0.7818609E-02  0.8139149E-01
        2   -1    0    0  501    0  0.00000000000E+00  0.00000000000E+00  0.11385148188E+04  0.11385148188E+04  0.25500000920E-02 0. -1.
       -2   -1    0    0    0  501  0.00000000000E+00  0.00000000000E+00 -0.25308493522E+04  0.25308493522E+04  0.25500000920E-02 0.  1.
    10030    2    1    2    0    0  0.00000000000E+00  0.00000000000E+00 -0.13923345334E+04  0.36693641711E+04  0.33949429991E+04 0.  0.
        3    1    3    3  502    0  0.12635459152E+04 -0.11016991208E+04 -0.40792679247E+03  0.17253096854E+04  0.10100000352E+00 0. -1.
       -3    1    3    3    0  502 -0.12635459152E+04  0.11016991208E+04 -0.98440774092E+03  0.19440544856E+04  0.10100000352E+00 0.  1.
</event>
<event>
 5   0  0.4811500E-07  0.3137017E+04  0.7818609E-02  0.8205652E-01
       -1   -1    0    0    0  501  0.00000000000E+00  0.00000000000E+00  0.10574340488E+04  0.10574340488E+04  0.50400001928E-02 0.  1.
        1   -1    0    0  501    0  0.00000000000E+00  0.00000000000E+00 -0.23265938060E+04  0.23265938060E+04  0.50400001928E-02 0. -1.
    10030    2    1    2    0    0  0.00000000000E+00  0.00000000000E+00 -0.12691597573E+04  0.33840278548E+04  0.31370173784E+04 0.  0.
        3    1    3    3  502    0 -0.13285492012E+04  0.74523028766E+03 -0.10379312507E+04  0.18432884888E+04  0.10100000352E+00 0.  1.
       -3    1    3    3    0  502  0.13285492012E+04 -0.74523028766E+03 -0.23122850655E+03  0.15407393660E+04  0.10100000352E+00 0. -1.
</event>
<event>
 5   0  0.4811500E-07  0.2889008E+04  0.7818609E-02  0.8276155E-01
        1   -1    0    0  501    0  0.00000000000E+00  0.00000000000E+00  0.11813754833E+04  0.11813754833E+04  0.50400001928E-02 0. -1.
       -1   -1    0    0    0  501  0.00000000000E+00  0.00000000000E+00 -0.17662393531E+04  0.17662393531E+04  0.50400001928E-02 0.  1.
    10030    2    1    2    0    0  0.00000000000E+00  0.00000000000E+00 -0.58486386983E+03  0.29476148364E+04  0.28890080439E+04 0.  0.
        5    1    3    3  502    0 -0.42020057500E+03 -0.67823077496E+03  0.93615706804E+03  0.12300315660E+04  0.46999998093E+01 0. -1.
       -5    1    3    3    0  502  0.42020057500E+03  0.67823077496E+03 -0.15210209379E+04  0.17175832704E+04  0.46999998093E+01 0.  1.
</event>
<event>
 5   0  0.1444091E-06  0.2565067E+04  0.7818609E-02  0.8380165E-01
       -2   -1    0    0    0  501  0.00000000000E+00  0.00000000000E+00  0.10941996762E+04  0.10941996762E+04  0.25500000920E-02 0. -1.
        2   -1    0    0  501    0  0.00000000000E+00  0.00000000000E+00 -0.15032836407E+04  0.15032836407E+04  0.25500000920E-02 0.  1.
    10030    2    1    2    0    0  0.00000000000E+00  0.00000000000E+00 -0.40908396458E+03  0.25974833169E+04  0.25650672294E+04 0.  0.
        1    1    3    3  502    0  0.10033142345E+04 -0.73718050741E+03 -0.51635857731E+03  0.13478504123E+04  0.50400001928E-02 0. -1.
       -1    1    3    3    0  502 -0.10033142345E+04  0.73718050741E+03  0.10727461273E+03  0.12496329046E+04  0.50400001928E-02 0.  1.
</event>
<event>
 5   0  0.4811500E-07  0.2489748E+04  0.7818609E-02  0.8406647E-01
        1   -1    0    0  501    0  0.00000000000E+00  0.00000000000E+00  0.97502914870E+03  0.97502914872E+03  0.50400001928E-02 0. -1.
       -1   -1    0    0    0  501  0.00000000000E+00  0.00000000000E+00 -0.15894003594E+04  0.15894003594E+04  0.50400001928E-02 0.  1.
    10030    2    1    2    0    0  0.00000000000E+00  0.00000000000E+00 -0.61437121068E+03  0.25644295081E+04  0.24897483241E+04 0.  0.
        2    1    3    3  502    0 -0.15866265646E+03  0.67870031559E+02 -0.15770206972E+04  0.15864345114E+04  0.25500000920E-02 0.  1.
       -2    1    3    3    0  502  0.15866265646E+03 -0.67870031559E+02  0.96264948648E+03  0.97799499669E+03  0.25500000920E-02 0. -1.
</event>
<event>
 5   0  0.1468942E-06  0.3585910E+04  0.7818609E-02  0.8093727E-01
        2   -1    0    0  501    0  0.00000000000E+00  0.00000000000E+00  0.25258113385E+04  0.25258113385E+04  0.25500000920E-02 0. -1.
       -2   -1    0    0    0  501  0.00000000000E+00  0.00000000000E+00 -0.12727347450E+04  0.12727347450E+04  0.25500000920E-02 0.  1.
    10030    2    1    2    0    0  0.00000000000E+00  0.00000000000E+00  0.12530765935E+04  0.37985460835E+04  0.35859101215E+04 0.  0.
        2    1    3    3  502    0 -0.17462710857E+04 -0.18800008562E+02  0.10566597098E+04  0.20411628762E+04  0.25500000920E-02 0. -1.
       -2    1    3    3    0  502  0.17462710857E+04  0.18800008562E+02  0.19641688371E+03  0.17573832073E+04  0.25500000920E-02 0.  1.
</event>
<event>
 5   0  0.5071661E-07  0.2251875E+04  0.7818609E-02  0.8497141E-01
        1   -1    0    0  501    0  0.00000000000E+00  0.00000000000E+00  0.25271970298E+04  0.25271970298E+04  0.50400001928E-02 0.  1.
       -1   -1    0    0    0  501  0.00000000000E+00  0.00000000000E+00 -0.50163702988E+03  0.50163702991E+03  0.50400001928E-02 0. -1.
    10030    2    1    2    0    0  0.00000000000E+00  0.00000000000E+00  0.20255599999E+04  0.30288340597E+04  0.22518753180E+04 0.  0.
        1    1    3    3  502    0  0.93499927241E+03 -0.55136966857E+03  0.14151735905E+04  0.17835213602E+04  0.50400001928E-02 0.  1.
       -1    1    3    3    0  502 -0.93499927241E+03  0.55136966857E+03  0.61038640938E+03  0.12453126995E+04  0.50400001928E-02 0. -1.
</event>
<event>
 5   0  0.1379425E-06  0.3420231E+04  0.7818609E-02  0.8132959E-01
       -2   -1    0    0    0  501  0.00000000000E+00  0.00000000000E+00  0.16909744653E+04  0.16909744653E+04  0.25500000920E-02 0. -1.
        2   -1    0    0  501    0  0.00000000000E+00  0.00000000000E+00 -0.17294728774E+04  0.17294728774E+04  0.25500000920E-02 0.  1.
    10030    2    1    2    0    0  0.00000000000E+00  0.00000000000E+00 -0.38498412114E+02  0.34204473427E+04  0.34202306788E+04 0.  0.
        4    1    3    3  502    0  0.59729853176E+03  0.14347414586E+04  0.69440953113E+03  0.17021911758E+04  0.12699999809E+01 0. -1.
       -4    1    3    3    0  502 -0.59729853176E+03 -0.14347414586E+04 -0.73290794324E+03  0.17182561669E+04  0.12699999809E+01 0.  1.
</event>
<event>
 5   0  0.4811500E-07  0.3703990E+04  0.7818609E-02  0.8067078E-01
       -1   -1    0    0    0  501  0.00000000000E+00  0.00000000000E+00  0.22135419902E+04  0.22135419902E+04  0.50400001928E-02 0. -1.
        1   -1    0    0  501    0  0.00000000000E+00  0.00000000000E+00 -0.15495012384E+04  0.15495012384E+04  0.50400001928E-02 0.  1.
    10030    2    1    2    0    0  0.00000000000E+00  0.00000000000E+00  0.66404075180E+03  0.37630432287E+04  0.37039903106E+04 0.  0.
        4    1    3    3  502    0  0.59747443691E+03  0.39284289033E+03 -0.14036026568E+04  0.15752470505E+04  0.12699999809E+01 0.  1.
       -4    1    3    3    0  502 -0.59747443691E+03 -0.39284289033E+03  0.20676434086E+04  0.21877961781E+04  0.12699999809E+01 0. -1.
</event>
<event>
 5   0  0.1491854E-06  0.3605819E+04  0.7818609E-02  0.8089160E-01
        2   -1    0    0  501    0  0.00000000000E+00  0.00000000000E+00  0.16959373819E+04  0.16959373819E+04  0.25500000920E-02 0.  1.
       -2   -1    0    0    0  501  0.00000000000E+00  0.00000000000E+00 -0.19166285179E+04  0.19166285179E+04  0.25500000920E-02 0. -1.
    10030    2    1    2    0    0  0.00000000000E+00  0.00000000000E+00 -0.22069113601E+03  0.36125658999E+04  0.36058186038E+04 0.  0.
        5    1    3    3  502    0 -0.30994296942E+03 -0.17755289495E+04 -0.66765137833E+02  0.18036206277E+04  0.46999998093E+01 0. -1.
       -5    1    3    3    0  502  0.30994296942E+03  0.17755289495E+04 -0.15392599818E+03  0.18089452722E+04  0.46999998093E+01 0.  1.
</event>
<event>
 5   0  0.4811500E-07  0.3540417E+04  0.7818609E-02  0.8104278E-01
        1   -1    0    0  501    0  0.00000000000E+00  0.00000000000E+00  0.22341963507E+04  0.22341963507E+04  0.50400001928E-02 0. -1.
       -1   -1    0    0    0  501  0.00000000000E+00  0.00000000000E+00 -0.14025793308E+04  0.14025793308E+04  0.50400001928E-02 0.  1.
    10030    2    1    2    0    0  0.00000000000E+00  0.00000000000E+00  0.83161701987E+03  0.36367756815E+04  0.35404167114E+04 0.  0.
        2    1    3    3  502    0 -0.10611306743E+03  0.16850567400E+04  0.96222745336E+03  0.19433367882E+04  0.25500000920E-02 0. -1.
       -2    1    3    3    0  502  0.10611306743E+03 -0.16850567400E+04 -0.13061043349E+03  0.16934388934E+04  0.25500000920E-02 0.  1.
</event>
<event>
 5   0  0.4811500E-07  0.3629618E+04  0.7818609E-02  0.8083741E-01
       -1   -1    0    0    0  501  0.00000000000E+00  0.00000000000E+00  0.18282074584E+04  0.18282074584E+04  0.50400001928E-02 0.  1.
        1   -1    0    0  501    0  0.00000000000E+00  0.00000000000E+00 -0.18015086399E+04  0.18015086399E+04  0.50400001928E-02 0. -1.
    10030    2    1    2    0    0  0.00000000000E+00  0.00000000000E+00  0.26698818572E+02  0.36297160983E+04  0.36296179038E+04 0.  0.
        3    1    3    3  502    0  0.50075443852E+03  0.16420714486E+04 -0.57520527268E+03  0.18105288636E+04  0.10100000352E+00 0. -1.
       -3    1    3    3    0  502 -0.50075443852E+03 -0.16420714486E+04  0.60190409125E+03  0.18191872348E+04  0.10100000352E+00 0.  1.
</event>
<event>
 5   0  0.1444091E-06  0.3296261E+04  0.7818609E-02  0.8163848E-01
        2   -1    0    0  501    0  0.00000000000E+00  0.00000000000E+00  0.18303202977E+04  0.18303202977E+04  0.25500000920E-02 0.  1.
       -2   -1    0    0    0  501  0.00000000000E+00  0.00000000000E+00 -0.14840754792E+04  0.14840754792E+04  0.25500000920E-02 0. -1.
    10030    2    1    2    0    0  0.00000000000E+00  0.00000000000E+00  0.34624481855E+03  0.33143957769E+04  0.32962605921E+04 0.  0.
        1    1    3    3  502    0 -0.15326796865E+04  0.21373329862E+02 -0.43582461631E+03  0.15935830498E+04  0.50400001928E-02 0. -1.
       -1    1    3    3    0  502  0.15326796865E+04 -0.21373329862E+02  0.78206943486E+03  0.17208127270E+04  0.50400001928E-02 0.  1.
</event>
<event>
 5   0  0.4811500E-07  0.2485428E+04  0.7818609E-02  0.8408195E-01
        1   -1    0    0  501    0  0.00000000000E+00  0.00000000000E+00  0.15904299831E+04  0.15904299831E+04  0.50400001928E-02 0.  1.
       -1   -1    0    0    0  501  0.00000000000E+00  0.00000000000E+00 -0.97101943697E+03  0.97101943699E+03  0.50400001928E-02 0. -1.
    10030    2    1    2    0    0  0.00000000000E+00  0.00000000000E+00  0.61941054611E+03  0.25614494201E+04  0.24854282744E+04 0.  0.
        3    1    3    3  502    0  0.41534623602E+03  0.11712437743E+04  0.30585718735E+03  0.12797941647E+04  0.10100000352E+00 0.  1.
       -3    1    3    3    0  502 -0.41534623602E+03 -0.11712437743E+04  0.31355335876E+03  0.12816552554E+04  0.10100000352E+00 0. -1.
</event>
<event>
 5   0  0.1444091E-06  0.3871007E+04  0.7818609E-02  0.8031086E-01
        2   -1    0    0  501    0  0.00000000000E+00  0.00000000000E+00  0.21480445519E+04  0.21480445519E+04  0.25500000920E-02 0. -1.
       -2   -1    0    0    0  501  0.00000000000E+00  0.00000000000E+00 -0.17439922343E+04  0.17439922343E+04  0.25500000920E-02 0.  1.
    10030    2    1    2    0    0  0.00000000000E+00  0.00000000000E+00  0.40405231766E+03  0.38920367862E+04  0.38710065965E+04 0.  0.
        1    1    3    3  502    0  0.17630839654E+04  0.79033797055E+03  0.87064076852E+02  0.19340835893E+04  0.50400001928E-02 0.  1.
       -1    1    3    3    0  502 -0.17630839654E+04 -0.79033797055E+03  0.31698824080E+03  0.19579531970E+04  0.50400001928E-02 0. -1.
</event>
<event>
 5   0  0.4811500E-07  0.3624276E+04  0.7818609E-02  0.8084953E-01
       -1   -1    0    0    0  501  0.00000000000E+00  0.00000000000E+00  0.14132451959E+04  0.14132451959E+04  0.50400001928E-02 0. -1.
        1   -1    0    0  501    0  0.00000000000E+00  0.00000000000E+00 -0.23236197222E+04  0.23236197222E+04  0.50400001928E-02 0.  1.
    10030    2    1    2    0    0  0.00000000000E+00  0.00000000000E+00 -0.91037452630E+03  0.37368649181E+04  0.36242761537E+04 0.  0.
        3    1    3    3  502    0  0.16927737839E+04 -0.63418810405E+03 -0.58628574872E+03  0.19003706544E+04  0.10100000352E+00 0.  1.
       -3    1    3    3    0  502 -0.16927737839E+04  0.63418810405E+03 -0.32408877758E+03  0.18364942637E+04  0.10100000352E+00 0. -1.
</event>
<event>
 5   0  0.4811500E-07  0.3556076E+04  0.7818609E-02  0.8100628E-01
       -1   -1    0    0    0  501  0.00000000000E+00  0.00000000000E+00  0.14019571376E+04  0.14019571376E+04  0.50400001928E-02 0. -1.
        1   -1    0    0  501    0  0.00000000000E+00  0.00000000000E+00 -0.22550041262E+04  0.22550041262E+04  0.50400001928E-02 0.  1.
    10030    2    1    2    0    0  0.00000000000E+00  0.00000000000E+00 -0.85304698863E+03  0.36569612639E+04  0.35560760004E+04 0.  0.
        5    1    3    3  502    0 -0.19077894328E+03 -0.72021286649E+03 -0.20867258150E+04  0.22157504136E+04  0.46999998093E+01 0.  1.
       -5    1    3    3    0  502  0.19077894328E+03  0.72021286649E+03  0.12336788264E+04  0.14412108503E+04  0.46999998093E+01 0. -1.
</event>
<event>
 5   0  0.1379425E-06  0.3605040E+04  0.7818609E-02  0.8089338E-01
       -2   -1    0    0    0  501  0.00000000000E+00  0.00000000000E+00  0.27593585447E+04  0.27593585447E+04  0.25500000920E-02 0.  1.
        2   -1    0    0  501    0  0.00000000000E+00  0.00000000000E+00 -0.11774762114E+04  0.11774762114E+04  0.25500000920E-02 0. -1.
    10030    2    1    2    0    0  0.00000000000E+00  0.00000000000E+00  0.15818823333E+04  0.39368347562E+04  0.36050403855E+04 0.  0.
        4    1    3    3  502    0  0.41029778960E+03 -0.17514358225E+04  0.91643373995E+03  0.20188422745E+04  0.12699999809E+01 0. -1.
       -4    1    3    3    0  502 -0.41029778960E+03  0.17514358225E+04  0.66544859334E+03  0.19179924817E+04  0.12699999809E+01 0.  1.
</event>
<event>
 5   0  0.1468942E-06  0.3560147E+04  0.7818609E-02  0.8099682E-01
       -2   -1    0    0    0  501  0.00000000000E+00  0.00000000000E+00  0.15665728259E+04  0.15665728259E+04  0.25500000920E-02 0. -1.
        2   -1    0    0  501    0  0.00000000000E+00  0.00000000000E+00 -0.20226708176E+04  0.20226708176E+04  0.25500000920E-02 0.  1.
    10030    2    1    2    0    0  0.00000000000E+00  0.00000000000E+00 -0.45609799166E+03  0.35892436435E+04  0.35601467040E+04 0.  0.
        2    1    3    3  502    0 -0.10972284069E+04 -0.68229239962E+03  0.10063879007E+04  0.16377575224E+04  0.25500000920E-02 0. -1.
       -2    1    3    3    0  502  0.10972284069E+04  0.68229239962E+03 -0.14624858923E+04  0.19514861211E+04  0.25500000920E-02 0.  1.
</event>
<event>
 5   0  0.4811500E-07  0.3660756E+04  0.7818609E-02  0.8076715E-01
       -1   -1    0    0    0  501  0.00000000000E+00  0.00000000000E+00  0.18781116863E+04  0.18781116863E+04  0.50400001928E-02 0. -1.
        1   -1    0    0  501    0  0.00000000000E+00  0.00000000000E+00 -0.17838572680E+04  0.17838572680E+04  0.50400001928E-02 0.  1.
    10030    2    1    2    0    0  0.00000000000E+00  0.00000000000E+00  0.94254418278E+02  0.36619689543E+04  0.36607557590E+04 0.  0.
        4    1    3    3  502    0  0.16576595932E+04 -0.56008986351E+03  0.58465581517E+03  0.18448197791E+04  0.12699999809E+01 0.  1.
       -4    1    3    3    0  502 -0.16576595932E+04  0.56008986351E+03 -0.49040139689E+03  0.18171491753E+04  0.12699999809E+01 0. -1.
</event>
<event>
 5   0  0.4811500E-07  0.3585425E+04  0.7818609E-02  0.8093838E-01
       -3   -1    0    0    0  501  0.00000000000E+00  0.00000000000E+00  0.14199065646E+04  0.14199065682E+04  0.10100000352E+00 0.  1.
        3   -1    0    0  501    0  0.00000000000E+00  0.00000000000E+00 -0.22634012723E+04  0.22634012745E+04  0.10100000352E+00 0. -1.
    10030    2    1    2    0    0  0.00000000000E+00  0.00000000000E+00 -0.84349470770E+03  0.36833078427E+04  0.35854251271E+04 0.  0.
        5    1    3    3  502    0  0.59953998160E+02 -0.66918118621E+03 -0.21291679241E+04  0.22326612105E+04  0.46999998093E+01 0. -1.
       -5    1    3    3    0  502 -0.59953998160E+02  0.66918118621E+03  0.12856732164E+04  0.14506466321E+04  0.46999998093E+01 0.  1.
</event>
<event>
 5   0  0.1491854E-06  0.3613507E+04  0.7818609E-02  0.8087405E-01
        2   -1    0    0  501    0  0.00000000000E+00  0.00000000000E+00  0.16662544571E+04  0.16662544571E+04  0.25500000920E-02 0.  1.
       -2   -1    0    0    0  501  0.00000000000E+00  0.00000000000E+00 -0.19590991814E+04  0.19590991814E+04  0.25500000920E-02 0. -1.
    10030    2    1    2    0    0  0.00000000000E+00  0.00000000000E+00 -0.29284472428E+03  0.36253536385E+04  0.36135067416E+04 0.  0.
        5    1    3    3  502    0 -0.64389557391E+03 -0.79007364052E+03 -0.16431302312E+04  0.19335761982E+04  0.46999998093E+01 0. -1.
       -5    1    3    3    0  502  0.64389557391E+03  0.79007364052E+03  0.13502855069E+04  0.16917774404E+04  0.46999998093E+01 0.  1.
</event>
<event>
 5   0  0.4811500E-07  0.3618932E+04  0.7818609E-02  0.8086169E-01
        1   -1    0    0  501    0  0.00000000000E+00  0.00000000000E+00  0.22922646610E+04  0.22922646610E+04  0.50400001928E-02 0.  1.
       -1   -1    0    0    0  501  0.00000000000E+00  0.00000000000E+00 -0.14283549327E+04  0.14283549327E+04  0.50400001928E-02 0. -1.
    10030    2    1    2    0    0  0.00000000000E+00  0.00000000000E+00  0.86390972830E+03  0.37206195937E+04  0.36189321826E+04 0.  0.
        4    1    3    3  502    0  0.10666466160E+04 -0.89253197702E+03 -0.75807445572E+03  0.15839907912E+04  0.12699999809E+01 0. -1.
       -4    1    3    3    0  502 -0.10666466160E+04  0.89253197702E+03  0.16219841840E+04  0.21366288024E+04  0.12699999809E+01 0.  1.
</event>
<event>
 5   0  0.1379425E-06  0.3619554E+04  0.7818609E-02  0.8086027E-01
        2   -1    0    0  501    0  0.00000000000E+00  0.00000000000E+00  0.22137555824E+04  0.22137555824E+04  0.25500000920E-02 0.  1.
       -2   -1    0    0    0  501  0.00000000000E+00  0.00000000000E+00 -0.14795188848E+04  0.14795188848E+04  0.25500000920E-02 0. -1.
    10030    2    1    2    0    0  0.00000000000E+00  0.00000000000E+00  0.73423669752E+03  0.36932744672E+04  0.36195542215E+04 0.  0.
        4    1    3    3  502    0 -0.17780877043E+04 -0.50054422283E+02  0.26874841199E+02  0.17789955591E+04  0.12699999809E+01 0.  1.
       -4    1    3    3    0  502  0.17780877043E+04  0.50054422283E+02  0.70736185632E+03  0.19142789081E+04  0.12699999809E+01 0. -1.
</event>
<event>
 5   0  0.4811500E-07  0.2820573E+04  0.7818609E-02  0.8296910E-01
       -1   -1    0    0    0  501  0.00000000000E+00  0.00000000000E+00  0.15781778366E+04  0.15781778366E+04  0.50400001928E-02 0. -1.
        1   -1    0    0  501    0  0.00000000000E+00  0.00000000000E+00 -0.12602559948E+04  0.12602559948E+04  0.50400001928E-02 0.  1.
    10030    2    1    2    0    0  0.00000000000E+00  0.00000000000E+00  0.31792184180E+03  0.28384338315E+04  0.28205730478E+04 0.  0.
        2    1    3    3  502    0  0.12679719920E+04  0.18288344049E+03  0.75236323471E+03  0.14856815817E+04  0.25500000920E-02 0. -1.
       -2    1    3    3    0  502 -0.12679719920E+04 -0.18288344049E+03 -0.43444139290E+03  0.13527522497E+04  0.25500000920E-02 0.  1.
</event>
<event>
 5   0  0.4811500E-07  0.3632065E+04  0.7818609E-02  0.8083186E-01
       -1   -1    0    0    0  501  0.00000000000E+00  0.00000000000E+00  0.28897301866E+04  0.28897301866E+04  0.50400001928E-02 0. -1.
        1   -1    0    0  501    0  0.00000000000E+00  0.00000000000E+00 -0.11412739711E+04  0.11412739712E+04  0.50400001928E-02 0.  1.
    10030    2    1    2    0    0  0.00000000000E+00  0.00000000000E+00  0.17484562155E+04  0.40310041578E+04  0.36320648924E+04 0.  0.
        2    1    3    3  502    0 -0.16347498193E+04  0.48510168266E+03  0.18091831179E+03  0.17147775511E+04  0.25500000920E-02 0.  1.
       -2    1    3    3    0  502  0.16347498193E+04 -0.48510168266E+03  0.15675379037E+04  0.23162266067E+04  0.25500000920E-02 0. -1.
</event>
<event>
 5   0  0.1468942E-06  0.3622163E+04  0.7818609E-02  0.8085434E-01
       -2   -1    0    0    0  501  0.00000000000E+00  0.00000000000E+00  0.19162520798E+04  0.19162520798E+04  0.25500000920E-02 0. -1.
        2   -1    0    0  501    0  0.00000000000E+00  0.00000000000E+00 -0.17116827960E+04  0.17116827960E+04  0.25500000920E-02 0.  1.
    10030    2    1    2    0    0  0.00000000000E+00  0.00000000000E+00  0.20456928377E+03  0.36279348759E+04  0.36221627340E+04 0.  0.
        2    1    3    3  502    0 -0.10216162897E+04 -0.64635812926E+03 -0.12483957664E+04  0.17378062793E+04  0.25500000920E-02 0.  1.
       -2    1    3    3    0  502  0.10216162897E+04  0.64635812926E+03  0.14529650502E+04  0.18901285966E+04  0.25500000920E-02 0. -1.
</event>
<event>
 5   0  0.4811500E-07  0.3763577E+04  0.7818609E-02  0.8054017E-01
        1   -1    0    0  501    0  0.00000000000E+00  0.00000000000E+00  0.23182770825E+04  0.23182770826E+04  0.50400001928E-02 0. -1.
       -1   -1    0    0    0  501  0.00000000000E+00  0.00000000000E+00 -0.15274823011E+04  0.15274823011E+04  0.50400001928E-02 0.  1.
    10030    2    1    2    0    0  0.00000000000E+00  0.00000000000E+00  0.79079478145E+03  0.38457593837E+04  0.37635766035E+04 0.  0.
        5    1    3    3  502    0  0.15872523060E+04 -0.93724241069E+03  0.85653130793E+01  0.18433362889E+04  0.46999998093E+01 0.  1.
       -5    1    3    3    0  502 -0.15872523060E+04  0.93724241069E+03  0.78222946837E+03  0.20024230948E+04  0.46999998093E+01 0. -1.
</event>
<event>
 5   0  0.4811500E-07  0.3618149E+04  0.7818609E-02  0.8086347E-01
       -1   -1    0    0    0  501  0.00000000000E+00  0.00000000000E+00  0.13565764241E+04  0.13565764241E+04  0.50400001928E-02 0. -1.
        1   -1    0    0  501    0  0.00000000000E+00  0.00000000000E+00 -0.24125073017E+04  0.24125073017E+04  0.50400001928E-02 0.  1.
    10030    2    1    2    0    0  0.00000000000E+00  0.00000000000E+00 -0.10559308776E+04  0.37690837258E+04  0.36181489900E+04 0.  0.
        4    1    3    3  502    0  0.16641979177E+04 -0.63505016110E+03 -0.19870160125E+03  0.17922966706E+04  0.12699999809E+01 0. -1.
       -4    1    3    3    0  502 -0.16641979177E+04  0.63505016110E+03 -0.85722927637E+03  0.19767870552E+04  0.12699999809E+01 0.  1.
</event>
<event>
 5   0  0.4811500E-07  0.3628976E+04  0.7818609E-02  0.8083886E-01
       -1   -1    0    0    0  501  0.00000000000E+00  0.00000000000E+00  0.12809636813E+04  0.12809636813E+04  0.50400001928E-02 0.  1.
        1   -1    0    0  501    0  0.00000000000E+00  0.00000000000E+00 -0.25702265680E+04  0.25702265680E+04  0.50400001928E-02 0. -1.
    10030    2    1    2    0    0  0.00000000000E+00  0.00000000000E+00 -0.12892628867E+04  0.38511902493E+04  0.36289761015E+04 0.  0.
        5    1    3    3  502    0  0.91079914358E+03  0.10602279081E+03 -0.23062492741E+04  0.24818548943E+04  0.46999998093E+01 0. -1.
       -5    1    3    3    0  502 -0.91079914358E+03 -0.10602279081E+03  0.10169863874E+04  0.13693353550E+04  0.46999998093E+01 0.  1.
</event>
<event>
 5   0  0.1468942E-06  0.3616917E+04  0.7818609E-02  0.8086628E-01
       -2   -1    0    0    0  501  0.00000000000E+00  0.00000000000E+00  0.21558753495E+04  0.21558753495E+04  0.25500000920E-02 0. -1.
        2   -1    0    0  501    0  0.00000000000E+00  0.00000000000E+00 -0.15170274179E+04  0.15170274179E+04  0.25500000920E-02 0.  1.
    10030    2    1    2    0    0  0.00000000000E+00  0.00000000000E+00  0.63884793155E+03  0.36729027674E+04  0.36169169273E+04 0.  0.
        2    1    3    3  502    0 -0.10411490670E+04  0.12429286589E+04  0.11328593065E+04  0.19779366115E+04  0.25500000920E-02 0. -1.
       -2    1    3    3    0  502  0.10411490670E+04 -0.12429286589E+04 -0.49401137496E+03  0.16949661558E+04  0.25500000920E-02 0.  1.
</event>
<event>
 5   0  0.1468942E-06  0.3574596E+04  0.7818609E-02  0.8096336E-01
       -2   -1    0    0    0  501  0.00000000000E+00  0.00000000000E+00  0.15744636557E+04  0.15744636557E+04  0.25500000920E-02 0.  1.
        2   -1    0    0  501    0  0.00000000000E+00  0.00000000000E+00 -0.20289035621E+04  0.20289035621E+04  0.25500000920E-02 0. -1.
    10030    2    1    2    0    0  0.00000000000E+00  0.00000000000E+00 -0.45443990645E+03  0.36033672178E+04  0.35745964356E+04 0.  0.
        2    1    3    3  502    0 -0.10658635708E+04 -0.11739321931E+04 -0.10586327979E+04  0.19065375282E+04  0.25500000920E-02 0. -1.
       -2    1    3    3    0  502  0.10658635708E+04  0.11739321931E+04  0.60419289146E+03  0.16968296896E+04  0.25500000920E-02 0.  1.
</event>
<event>
 5   0  0.5071661E-07  0.3734729E+04  0.7818609E-02  0.8060309E-01
       -1   -1    0    0    0  501  0.00000000000E+00  0.00000000000E+00  0.11543776174E+04  0.11543776174E+04  0.50400001928E-02 0. -1.
        1   -1    0    0  501    0  0.00000000000E+00  0.00000000000E+00 -0.30207183653E+04  0.30207183653E+04  0.50400001928E-02 0.  1.
    10030    2    1    2    0    0  0.00000000000E+00  0.00000000000E+00 -0.18663407480E+04  0.41750959827E+04  0.37347287288E+04 0.  0.
        1    1    3    3  502    0 -0.38537939701E+03  0.18271627725E+04 -0.93644731465E+03  0.20890128410E+04  0.50400001928E-02 0.  1.
       -1    1    3    3    0  502  0.38537939701E+03 -0.18271627725E+04 -0.92989343331E+03  0.20860831417E+04  0.50400001928E-02 0. -1.
</event>
<event>
 5   0  0.1505671E-06  0.3421544E+04  0.7818609E-02  0.8132639E-01
        2   -1    0    0  501    0  0.00000000000E+00  0.00000000000E+00  0.17420180031E+04  0.17420180031E+04  0.25500000920E-02 0.  1.
       -2   -1    0    0    0  501  0.00000000000E+00  0.00000000000E+00 -0.16800859578E+04  0.16800859578E+04  0.25500000920E-02 0. -1.
    10030    2    1    2    0    0  0.00000000000E+00  0.00000000000E+00  0.61932045254E+02  0.34221039609E+04  0.34215435027E+04 0.  0.
        3    1    3    3  502    0  0.10870933521E+03 -0.88439652952E+03  0.14916041697E+04  0.17374861008E+04  0.10100000352E+00 0.  1.
       -3    1    3    3    0  502 -0.10870933521E+03  0.88439652952E+03 -0.14296721245E+04  0.16846178601E+04  0.10100000352E+00 0. -1.
</event>
<event>
 5   0  0.1505671E-06  0.3485293E+04  0.7818609E-02  0.8117284E-01
       -2   -1    0    0    0  501  0.00000000000E+00  0.00000000000E+00  0.12244704572E+04  0.12244704572E+04  0.25500000920E-02 0. -1.
        2   -1    0    0  501    0  0.00000000000E+00  0.00000000000E+00 -0.24801061535E+04  0.24801061535E+04  0.25500000920E-02 0.  1.
    10030    2    1    2    0    0  0.00000000000E+00  0.00000000000E+00 -0.12556356963E+04  0.37045766107E+04  0.34852929379E+04 0.  0.
        3    1    3    3  502    0  0.10853273112E+04  0.45791928762E+03 -0.19928246212E+04  0.23149460960E+04  0.10100000352E+00 0.  1.
       -3    1    3    3    0  502 -0.10853273112E+04 -0.45791928762E+03  0.73718892486E+03  0.13896305147E+04  0.10100000352E+00 0. -1.
</event>
<event>
 5   0  0.1379425E-06  0.3625631E+04  0.7818609E-02  0.8084646E-01
        2   -1    0    0  501    0  0.00000000000E+00  0.00000000000E+00  0.22464928233E+04  0.22464928233E+04  0.25500000920E-02 0.  1.
       -2   -1    0    0    0  501  0.00000000000E+00  0.00000000000E+00 -0.14628579124E+04  0.14628579124E+04  0.25500000920E-02 0. -1.
    10030    2    1    2    0    0  0.00000000000E+00  0.00000000000E+00  0.78363491095E+03  0.37093507357E+04  0.36256308702E+04 0.  0.
        4    1    3    3  502    0 -0.15950017698E+04  0.59719959501E+03 -0.24350498308E+03  0.17204575820E+04  0.12699999809E+01 0. -1.
       -4    1    3    3    0  502  0.15950017698E+04 -0.59719959501E+03  0.10271398940E+04  0.19888931537E+04  0.12699999809E+01 0.  1.
</event>
<event>
 5   0  0.4811500E-07  0.2453833E+04  0.7818609E-02  0.8419620E-01
        1   -1    0    0  501    0  0.00000000000E+00  0.00000000000E+00  0.18068096548E+04  0.18068096548E+04  0.50400001928E-02 0.  1.
       -1   -1    0    0    0  501  0.00000000000E+00  0.00000000000E+00 -0.83313895391E+03  0.83313895393E+03  0.50400001928E-02 0. -1.
    10030    2    1    2    0    0  0.00000000000E+00  0.00000000000E+00  0.97367070087E+03  0.26399486087E+04  0.24538325173E+04 0.  0.
        4    1    3    3  502    0 -0.23742261353E+03  0.96498506057E+03 -0.28729344323E+03  0.10344586990E+04  0.12699999809E+01 0. -1.
       -4    1    3    3    0  502  0.23742261353E+03 -0.96498506057E+03  0.12609641441E+04  0.16054899097E+04  0.12699999809E+01 0.  1.
</event>
<event>
 5   0  0.4811500E-07  0.3584743E+04  0.7818609E-02  0.8093996E-01
       -1   -1    0    0    0  501  0.00000000000E+00  0.00000000000E+00  0.15284826486E+04  0.15284826486E+04  0.50400001928E-02 0.  1.
        1   -1    0    0  501    0  0.00000000000E+00  0.00000000000E+00 -0.21018196517E+04  0.21018196517E+04  0.50400001928E-02 0. -1.
    10030    2    1    2    0    0  0.00000000000E+00  0.00000000000E+00 -0.57333700308E+03  0.36303023002E+04  0.35847425949E+04 0.  0.
        4    1    3    3  502    0 -0.18432982789E+03 -0.10983894868E+04  0.11355144910E+04  0.15905444735E+04  0.12699999809E+01 0.  1.
       -4    1    3    3    0  502  0.18432982789E+03  0.10983894868E+04 -0.17088514941E+04  0.20397578267E+04  0.12699999809E+01 0. -1.
</event>
<event>
 5   0  0.1505671E-06  0.3579112E+04  0.7818609E-02  0.8095293E-01
       -2   -1    0    0    0  501  0.00000000000E+00  0.00000000000E+00  0.14404668507E+04  0.14404668507E+04  0.25500000920E-02 0. -1.
        2   -1    0    0  501    0  0.00000000000E+00  0.00000000000E+00 -0.22232453636E+04  0.22232453636E+04  0.25500000920E-02 0.  1.
    10030    2    1    2    0    0  0.00000000000E+00  0.00000000000E+00 -0.78277851284E+03  0.36637122143E+04  0.35791123186E+04 0.  0.
        3    1    3    3  502    0  0.14337661849E+04 -0.40507151822E+02 -0.14868172571E+04  0.20659021924E+04  0.10100000352E+00 0.  1.
       -3    1    3    3    0  502 -0.14337661849E+04  0.40507151822E+02  0.70403874431E+03  0.15978100219E+04  0.10100000352E+00 0. -1.
</event>
<event>
 5   0  0.4811500E-07  0.3584462E+04  0.7818609E-02  0.8094060E-01
        1   -1    0    0  501    0  0.00000000000E+00  0.00000000000E+00  0.24255157491E+04  0.24255157491E+04  0.50400001928E-02 0. -1.
       -1   -1    0    0    0  501  0.00000000000E+00  0.00000000000E+00 -0.13242921862E+04  0.13242921862E+04  0.50400001928E-02 0.  1.
    10030    2    1    2    0    0  0.00000000000E+00  0.00000000000E+00  0.11012235629E+04  0.37498079353E+04  0.35844617750E+04 0.  0.
        4    1    3    3  502    0 -0.16232131158E+04 -0.69746276514E+03  0.23535574031E+03  0.17823212576E+04  0.12699999809E+01 0.  1.
       -4    1    3    3    0  502  0.16232131158E+04  0.69746276514E+03  0.86586782255E+03  0.19674866777E+04  0.12699999809E+01 0. -1.
</event>
<event>
 5   0  0.1444091E-06  0.3578090E+04  0.7818609E-02  0.8095529E-01
       -2   -1    0    0    0  501  0.00000000000E+00  0.00000000000E+00  0.12230904268E+04  0.12230904268E+04  0.25500000920E-02 0.  1.
        2   -1    0    0  501    0  0.00000000000E+00  0.00000000000E+00 -0.26168805551E+04  0.26168805551E+04  0.25500000920E-02 0. -1.
    10030    2    1    2    0    0  0.00000000000E+00  0.00000000000E+00 -0.13937901282E+04  0.38399709819E+04  0.35780897446E+04 0.  0.
        1    1    3    3  502    0 -0.14737251472E+04  0.91051170464E+03 -0.11765813060E+04  0.20940966891E+04  0.50400001928E-02 0. -1.
       -1    1    3    3    0  502  0.14737251472E+04 -0.91051170464E+03 -0.21720882221E+03  0.17458742928E+04  0.50400001928E-02 0.  1.
</event>
<event>
 5   0  0.1505671E-06  0.2827479E+04  0.7818609E-02  0.8294788E-01
        2   -1    0    0  501    0  0.00000000000E+00  0.00000000000E+00  0.86203950471E+03  0.86203950472E+03  0.25500000920E-02 0. -1.
       -2   -1    0    0    0  501  0.00000000000E+00  0.00000000000E+00 -0.23185242862E+04  0.23185242862E+04  0.25500000920E-02 0.  1.
    10030    2    1    2    0    0  0.00000000000E+00  0.00000000000E+00 -0.14564847815E+04  0.31805637909E+04  0.28274791086E+04 0.  0.
        3    1    3    3  502    0  0.24091860326E+03 -0.13423976716E+04 -0.30948281217E+03  0.13985181097E+04  0.10100000352E+00 0. -1.
       -3    1    3    3    0  502 -0.24091860326E+03  0.13423976716E+04 -0.11470019693E+04  0.17820456812E+04  0.10100000352E+00 0.  1.
</event>
<event>
 5   0  0.4811500E-07  0.2525620E+04  0.7818609E-02  0.8393915E-01
        1   -1    0    0  501    0  0.00000000000E+00  0.00000000000E+00  0.94653600333E+03  0.94653600334E+03  0.50400001928E-02 0.  1.
       -1   -1    0    0    0  501  0.00000000000E+00  0.00000000000E+00 -0.16847638149E+04  0.16847638149E+04  0.50400001928E-02 0. -1.
    10030    2    1    2    0    0  0.00000000000E+00  0.00000000000E+00 -0.73822781155E+03  0.26312998182E+04  0.25256204053E+04 0.  0.
        4    1    3    3  502    0 -0.56677863311E+03 -0.66056124800E+03  0.58410624646E+03  0.10482179646E+04  0.12699999809E+01 0.  1.
       -4    1    3    3    0  502  0.56677863311E+03  0.66056124800E+03 -0.13223340580E+04  0.15830818536E+04  0.12699999809E+01 0. -1.
</event>
<event>
 5   0  0.5599506E-07  0.2197740E+04  0.7818609E-02  0.8519369E-01
        1   -1    0    0  501    0  0.00000000000E+00  0.00000000000E+00  0.16743121411E+04  0.16743121411E+04  0.50400001928E-02 0. -1.
       -1   -1    0    0    0  501  0.00000000000E+00  0.00000000000E+00 -0.72120066584E+03  0.72120066586E+03  0.50400001928E-02 0.  1.
    10030    2    1    2    0    0  0.00000000000E+00  0.00000000000E+00  0.95311147529E+03  0.23955128070E+04  0.21977397763E+04 0.  0.
        3    1    3    3  502    0 -0.61626170657E+02  0.60639782497E+03  0.14731653811E+04  0.15942811413E+04  0.10100000352E+00 0. -1.
       -3    1    3    3    0  502  0.61626170657E+02 -0.60639782497E+03 -0.52005390582E+03  0.80123166575E+03  0.10100000352E+00 0.  1.
</event>
<event>
 5   0  0.4811500E-07  0.3582414E+04  0.7818609E-02  0.8094532E-01
       -1   -1    0    0    0  501  0.00000000000E+00  0.00000000000E+00  0.19638802457E+04  0.19638802457E+04  0.50400001928E-02 0.  1.
        1   -1    0    0  501    0  0.00000000000E+00  0.00000000000E+00 -0.16337164211E+04  0.16337164211E+04  0.50400001928E-02 0. -1.
    10030    2    1    2    0    0  0.00000000000E+00  0.00000000000E+00  0.33016382460E+03  0.35975966669E+04  0.35824144968E+04 0.  0.
        4    1    3    3  502    0 -0.17175890944E+04  0.88893723083E+02  0.66760986038E+03  0.18449170523E+04  0.12699999809E+01 0.  1.
       -4    1    3    3    0  502  0.17175890944E+04 -0.88893723083E+02 -0.33744603577E+03  0.17526796146E+04  0.12699999809E+01 0. -1.
</event>
<event>
 5   0  0.1491854E-06  0.3724355E+04  0.7818609E-02  0.8062586E-01
       -2   -1    0    0    0  501  0.00000000000E+00  0.00000000000E+00  0.27067023058E+04  0.27067023058E+04  0.25500000920E-02 0. -1.
        2   -1    0    0  501    0  0.00000000000E+00  0.00000000000E+00 -0.12811552470E+04  0.12811552470E+04  0.25500000920E-02 0.  1.
    10030    2    1    2    0    0  0.00000000000E+00  0.00000000000E+00  0.14255470588E+04  0.39878575528E+04  0.37243554401E+04 0.  0.
        5    1    3    3  502    0 -0.18456840248E+02  0.86004294922E+03  0.24811892546E+04  0.26260877245E+04  0.46999998093E+01 0. -1.
       -5    1    3    3    0  502  0.18456840248E+02 -0.86004294922E+03 -0.10556421959E+04  0.13617698283E+04  0.46999998093E+01 0.  1.
</event>
<event>
 5   0  0.4811500E-07  0.3604407E+04  0.7818609E-02  0.8089483E-01
        1   -1    0    0  501    0  0.00000000000E+00  0.00000000000E+00  0.22819145930E+04  0.22819145931E+04  0.50400001928E-02 0.  1.
       -1   -1    0    0    0  501  0.00000000000E+00  0.00000000000E+00 -0.14233387501E+04  0.14233387501E+04  0.50400001928E-02 0. -1.
    10030    2    1    2    0    0  0.00000000000E+00  0.00000000000E+00  0.85857584298E+03  0.37052533431E+04  0.36044070051E+04 0.  0.
        4    1    3    3  502    0  0.42134747189E+03 -0.30049271555E+03 -0.13453099637E+04  0.14414194654E+04  0.12699999809E+01 0. -1.
       -4    1    3    3    0  502 -0.42134747189E+03  0.30049271555E+03  0.22038858066E+04  0.22638338777E+04  0.12699999809E+01 0.  1.
</event>
<event>
 5   0  0.4811500E-07  0.3709074E+04  0.7818609E-02  0.8065954E-01
        3   -1    0    0  501    0  0.00000000000E+00  0.00000000000E+00  0.21658400480E+04  0.21658400504E+04  0.10100000352E+00 0.  1.
       -3   -1    0    0    0  501  0.00000000000E+00  0.00000000000E+00 -0.15879788747E+04  0.15879788779E+04  0.10100000352E+00 0. -1.
    10030    2    1    2    0    0  0.00000000000E+00  0.00000000000E+00  0.57786117334E+03  0.37538189283E+04  0.37090744143E+04 0.  0.
        4    1    3    3  502    0  0.17230626173E+04 -0.44289413947E+03 -0.24103388408E+03  0.17953269753E+04  0.12699999809E+01 0. -1.
       -4    1    3    3    0  502 -0.17230626173E+04  0.44289413947E+03  0.81889505742E+03  0.19584919530E+04  0.12699999809E+01 0.  1.
</event>
<event>
 5   0  0.4907491E-07  0.2318773E+04  0.7818609E-02  0.8470556E-01
        1   -1    0    0  501    0  0.00000000000E+00  0.00000000000E+00  0.14540870115E+04  0.14540870115E+04  0.50400001928E-02 0.  1.
       -1   -1    0    0    0  501  0.00000000000E+00  0.00000000000E+00 -0.92441274024E+03  0.92441274026E+03  0.50400001928E-02 0. -1.
    10030    2    1    2    0    0  0.00000000000E+00  0.00000000000E+00  0.52967427123E+03  0.23784997517E+04  0.23187725709E+04 0.  0.
        2    1    3    3  502    0  0.84981663988E+02 -0.70930376255E+03  0.12015081048E+04  0.13978395605E+04  0.25500000920E-02 0.  1.
       -2    1    3    3    0  502 -0.84981663988E+02  0.70930376255E+03 -0.67183383361E+03  0.98066019128E+03  0.25500000920E-02 0. -1.
</event>
<event>
 5   0  0.4811500E-07  0.3359551E+04  0.7818609E-02  0.8147906E-01
       -1   -1    0    0    0  501  0.00000000000E+00  0.00000000000E+00  0.14650126730E+04  0.14650126730E+04  0.50400001928E-02 0. -1.
        1   -1    0    0  501    0  0.00000000000E+00  0.00000000000E+00 -0.19260209207E+04  0.19260209207E+04  0.50400001928E-02 0.  1.
    10030    2    1    2    0    0  0.00000000000E+00  0.00000000000E+00 -0.46100824772E+03  0.33910335937E+04  0.33595505993E+04 0.  0.
        5    1    3    3  502    0  0.11561389825E+04 -0.59621040393E+03  0.84223417912E+03  0.15496789006E+04  0.46999998093E+01 0. -1.
       -5    1    3    3    0  502 -0.11561389825E+04  0.59621040393E+03 -0.13032424268E+04  0.18413546931E+04  0.46999998093E+01 0.  1.
</event>
<event>
 5   0  0.1468942E-06  0.3070198E+04  0.7818609E-02  0.8223965E-01
       -2   -1    0    0    0  501  0.00000000000E+00  0.00000000000E+00  0.11225141404E+04  0.11225141404E+04  0.25500000920E-02 0.  1.
        2   -1    0    0  501    0  0.00000000000E+00  0.00000000000E+00 -0.20993311364E+04  0.20993311364E+04  0.25500000920E-02 0. -1.
    10030    2    1    2    0    0  0.00000000000E+00  0.00000000000E+00 -0.97681699599E+03  0.32218452768E+04  0.30701979650E+04 0.  0.
        2    1    3    3  502    0  0.62814011469E+03  0.26880530498E+03  0.95415912019E+03  0.11735569532E+04  0.25500000920E-02 0.  1.
       -2    1    3    3    0  502 -0.62814011469E+03 -0.26880530498E+03 -0.19309761162E+04  0.20482883237E+04  0.25500000920E-02 0. -1.
</event>
<event>
 5   0  0.1379425E-06  0.3608379E+04  0.7818609E-02  0.8088575E-01
       -2   -1    0    0    0  501  0.00000000000E+00  0.00000000000E+00  0.16453094792E+04  0.16453094792E+04  0.25500000920E-02 0.  1.
        2   -1    0    0  501    0  0.00000000000E+00  0.00000000000E+00 -0.19784122636E+04  0.19784122636E+04  0.25500000920E-02 0. -1.
    10030    2    1    2    0    0  0.00000000000E+00  0.00000000000E+00 -0.33310278442E+03  0.36237217427E+04  0.36083793874E+04 0.  0.
        4    1    3    3  502    0 -0.13868499142E+04  0.10923066441E+04  0.20733840126E+03  0.17774918607E+04  0.12699999809E+01 0.  1.
       -4    1    3    3    0  502  0.13868499142E+04 -0.10923066441E+04 -0.54044118568E+03  0.18462298820E+04  0.12699999809E+01 0. -1.
</event>
<event>
 5   0  0.1505671E-06  0.3630139E+04  0.7818609E-02  0.8083623E-01
       -2   -1    0    0    0  501  0.00000000000E+00  0.00000000000E+00  0.14938655763E+04  0.14938655763E+04  0.25500000920E-02 0.  1.
        2   -1    0    0  501    0  0.00000000000E+00  0.00000000000E+00 -0.22053373726E+04  0.22053373726E+04  0.25500000920E-02 0. -1.
    10030    2    1    2    0    0  0.00000000000E+00  0.00000000000E+00 -0.71147179625E+03  0.36992029489E+04  0.36301391626E+04 0.  0.
        3    1    3    3  502    0  0.63670972758E+03  0.32546535435E+03  0.13442809993E+04  0.15226353435E+04  0.10100000352E+00 0.  1.
       -3    1    3    3    0  502 -0.63670972758E+03 -0.32546535435E+03 -0.20557527955E+04  0.21765676053E+04  0.10100000352E+00 0. -1.
</event>
<event>
 5   0  0.4811500E-07  0.2396436E+04  0.7818609E-02  0.8440839E-01
       -1   -1    0    0    0  501  0.00000000000E+00  0.00000000000E+00  0.90804066090E+03  0.90804066092E+03  0.50400001928E-02 0. -1.
        1   -1    0    0  501    0  0.00000000000E+00  0.00000000000E+00 -0.15811260174E+04  0.15811260175E+04  0.50400001928E-02 0.  1.
    10030    2    1    2    0    0  0.00000000000E+00  0.00000000000E+00 -0.67308535654E+03  0.24891666784E+04  0.23964362824E+04 0.  0.
        4    1    3    3  502    0 -0.10672827460E+04  0.99255442283E+02  0.21969868190E+03  0.10941723934E+04  0.12699999809E+01 0.  1.
       -4    1    3    3    0  502  0.10672827460E+04 -0.99255442283E+02 -0.89278403844E+03  0.13949942849E+04  0.12699999809E+01 0. -1.
</event>
<event>
 5   0  0.4811500E-07  0.3550930E+04  0.7818609E-02  0.8101825E-01
       -1   -1    0    0    0  501  0.00000000000E+00  0.00000000000E+00  0.12431825589E+04  0.12431825589E+04  0.50400001928E-02 0. -1.
        1   -1    0    0  501    0  0.00000000000E+00  0.00000000000E+00 -0.25356498198E+04  0.25356498198E+04  0.50400001928E-02 0.  1.
    10030    2    1    2    0    0  0.00000000000E+00  0.00000000000E+00 -0.12924672610E+04  0.37788323787E+04  0.35509298114E+04 0.  0.
        3    1    3    3  502    0 -0.35041166625E+03  0.57763118274E+03  0.11010433317E+04  0.12917981838E+04  0.10100000352E+00 0. -1.
       -3    1    3    3    0  502  0.35041166625E+03 -0.57763118274E+03 -0.23935105927E+04  0.24870341949E+04  0.10100000352E+00 0.  1.
</event>
<event>
 5   0  0.4811500E-07  0.3573484E+04  0.7818609E-02  0.8096593E-01
        1   -1    0    0  501    0  0.00000000000E+00  0.00000000000E+00  0.24044818176E+04  0.24044818176E+04  0.50400001928E-02 0. -1.
       -1   -1    0    0    0  501  0.00000000000E+00  0.00000000000E+00 -0.13277066103E+04  0.13277066103E+04  0.50400001928E-02 0.  1.
    10030    2    1    2    0    0  0.00000000000E+00  0.00000000000E+00  0.10767752073E+04  0.37321884279E+04  0.35734836804E+04 0.  0.
        5    1    3    3  502    0 -0.13047575807E+04  0.16486332823E+03  0.18015871514E+04  0.22305404313E+04  0.46999998093E+01 0. -1.
       -5    1    3    3    0  502  0.13047575807E+04 -0.16486332823E+03 -0.72481194414E+03  0.15016479966E+04  0.46999998093E+01 0.  1.
</event>
<event>
 5   0  0.4811500E-07  0.3601080E+04  0.7818609E-02  0.8090244E-01
       -1   -1    0    0    0  501  0.00000000000E+00  0.00000000000E+00  0.27351488392E+04  0.27351488392E+04  0.50400001928E-02 0.  1.
        1   -1    0    0  501    0  0.00000000000E+00  0.00000000000E+00 -0.11852895760E+04  0.11852895761E+04  0.50400001928E-02 0. -1.
    10030    2    1    2    0    0  0.00000000000E+00  0.00000000000E+00  0.15498592632E+04  0.39204384153E+04  0.36010795093E+04 0.  0.
        5    1    3    3  502    0 -0.61583657845E+03 -0.12378630118E+04  0.20306322713E+04  0.24566336801E+04  0.46999998093E+01 0.  1.
       -5    1    3    3    0  502  0.61583657845E+03  0.12378630118E+04 -0.48077300810E+03  0.14638047351E+04  0.46999998093E+01 0. -1.
</event>
<event>
 5   0  0.1468942E-06  0.3502159E+04  0.7818609E-02  0.8113278E-01
        2   -1    0    0  501    0  0.00000000000E+00  0.00000000000E+00  0.26397145875E+04  0.26397145875E+04  0.25500000920E-02 0.  1.
       -2   -1    0    0    0  501  0.00000000000E+00  0.00000000000E+00 -0.11615953599E+04  0.11615953599E+04  0.25500000920E-02 0. -1.
    10030    2    1    2    0    0  0.00000000000E+00  0.00000000000E+00  0.14781192276E+04  0.38013099474E+04  0.35021594574E+04 0.  0.
        2    1    3    3  502    0 -0.16258630887E+04  0.64767621110E+03  0.67609634909E+03  0.18761720419E+04  0.25500000920E-02 0.  1.
       -2    1    3    3    0  502  0.16258630887E+04 -0.64767621110E+03  0.80202287851E+03  0.19251379055E+04  0.25500000920E-02 0. -1.
</event>
<event>
 5   0  0.1468942E-06  0.3513331E+04  0.7818609E-02  0.8110638E-01
        2   -1    0    0  501    0  0.00000000000E+00  0.00000000000E+00  0.19907494836E+04  0.19907494836E+04  0.25500000920E-02 0. -1.
       -2   -1    0    0    0  501  0.00000000000E+00  0.00000000000E+00 -0.15501061322E+04  0.15501061322E+04  0.25500000920E-02 0.  1.
    10030    2    1    2    0    0  0.00000000000E+00  0.00000000000E+00  0.44064335143E+03  0.35408556158E+04  0.35133306034E+04 0.  0.
        2    1    3    3  502    0  0.63173024281E+03 -0.41427481168E+03  0.18186741175E+04  0.19693354882E+04  0.25500000920E-02 0. -1.
       -2    1    3    3    0  502 -0.63173024281E+03  0.41427481168E+03 -0.13780307661E+04  0.15715201276E+04  0.25500000920E-02 0.  1.
</event>
<event>
 5   0  0.4811500E-07  0.3633600E+04  0.7818609E-02  0.8082838E-01
        1   -1    0    0  501    0  0.00000000000E+00  0.00000000000E+00  0.21256434505E+04  0.21256434505E+04  0.50400001928E-02 0. -1.
       -1   -1    0    0    0  501  0.00000000000E+00  0.00000000000E+00 -0.15528296768E+04  0.15528296768E+04  0.50400001928E-02 0.  1.
    10030    2    1    2    0    0  0.00000000000E+00  0.00000000000E+00  0.57281377369E+03  0.36784731274E+04  0.36335999958E+04 0.  0.
        3    1    3    3  502    0  0.54747836370E+03 -0.12142262370E+04 -0.96444270831E+03  0.16444536056E+04  0.10100000352E+00 0.  1.
       -3    1    3    3    0  502 -0.54747836370E+03  0.12142262370E+04  0.15372564820E+04  0.20340195218E+04  0.10100000352E+00 0. -1.
</event>
<event>
 5   0  0.5071661E-07  0.3271308E+04  0.7818609E-02  0.8170235E-01
       -1   -1    0    0    0  501  0.00000000000E+00  0.00000000000E+00  0.16770093951E+04  0.16770093951E+04  0.50400001928E-02 0.  1.
        1   -1    0    0  501    0  0.00000000000E+00  0.00000000000E+00 -0.15953182181E+04  0.15953182181E+04  0.50400001928E-02 0. -1.
    10030    2    1    2    0    0  0.00000000000E+00  0.00000000000E+00  0.81691177042E+02  0.32723276132E+04  0.32713077752E+04 0.  0.
        1    1    3    3  502    0 -0.19689789090E+03  0.73263946356E+03 -0.14086866594E+04  0.15999773334E+04  0.50400001928E-02 0. -1.
       -1    1    3    3    0  502  0.19689789090E+03 -0.73263946356E+03  0.14903778364E+04  0.16723502798E+04  0.50400001928E-02 0.  1.
</event>
<event>
 5   0  0.1444091E-06  0.3262987E+04  0.7818609E-02  0.8172378E-01
       -2   -1    0    0    0  501  0.00000000000E+00  0.00000000000E+00  0.11729521224E+04  0.11729521224E+04  0.25500000920E-02 0. -1.
        2   -1    0    0  501    0  0.00000000000E+00  0.00000000000E+00 -0.22692917201E+04  0.22692917201E+04  0.25500000920E-02 0.  1.
    10030    2    1    2    0    0  0.00000000000E+00  0.00000000000E+00 -0.10963395977E+04  0.34422438425E+04  0.32629866929E+04 0.  0.
        1    1    3    3  502    0 -0.13890661407E+04 -0.35122498966E+03  0.27502334026E+03  0.14589385094E+04  0.50400001928E-02 0. -1.
       -1    1    3    3    0  502  0.13890661407E+04  0.35122498966E+03 -0.13713629380E+04  0.19833053331E+04  0.50400001928E-02 0.  1.
</event>
<event>
 5   0  0.1491854E-06  0.3593423E+04  0.7818609E-02  0.8092000E-01
       -2   -1    0    0    0  501  0.00000000000E+00  0.00000000000E+00  0.15835778245E+04  0.15835778245E+04  0.25500000920E-02 0.  1.
        2   -1    0    0  501    0  0.00000000000E+00  0.00000000000E+00 -0.20385302748E+04  0.20385302748E+04  0.25500000920E-02 0. -1.
    10030    2    1    2    0    0  0.00000000000E+00  0.00000000000E+00 -0.45495245028E+03  0.36221080993E+04  0.35934225121E+04 0.  0.
        5    1    3    3  502    0 -0.17491209775E+04 -0.10364956266E+03 -0.62811841580E+03  0.18613764424E+04  0.46999998093E+01 0.  1.
       -5    1    3    3    0  502  0.17491209775E+04  0.10364956266E+03  0.17316596553E+03  0.17607316569E+04  0.46999998093E+01 0. -1.
</event>
<event>
 5   0  0.4811500E-07  0.3608306E+04  0.7818609E-02  0.8088592E-01
       -1   -1    0    0    0  501  0.00000000000E+00  0.00000000000E+00  0.20789698283E+04  0.20789698283E+04  0.50400001928E-02 0.  1.
        1   -1    0    0  501    0  0.00000000000E+00  0.00000000000E+00 -0.15656641166E+04  0.15656641166E+04  0.50400001928E-02 0. -1.
    10030    2    1    2    0    0  0.00000000000E+00  0.00000000000E+00  0.51330571166E+03  0.36446339449E+04  0.36083062285E+04 0.  0.
        2    1    3    3  502    0  0.94506918969E+03  0.14995828343E+04  0.59628807499E+03  0.18701507743E+04  0.25500000920E-02 0.  1.
       -2    1    3    3    0  502 -0.94506918969E+03 -0.14995828343E+04 -0.82982363328E+02  0.17744831706E+04  0.25500000920E-02 0. -1.
</event>
<event>
 5   0  0.4811500E-07  0.2479387E+04  0.7818609E-02  0.8410366E-01
        1   -1    0    0  501    0  0.00000000000E+00  0.00000000000E+00  0.24550436413E+04  0.24550436413E+04  0.50400001928E-02 0. -1.
       -1   -1    0    0    0  501  0.00000000000E+00  0.00000000000E+00 -0.62599288196E+03  0.62599288198E+03  0.50400001928E-02 0.  1.
    10030    2    1    2    0    0  0.00000000000E+00  0.00000000000E+00  0.18290507594E+04  0.30810365233E+04  0.24793868955E+04 0.  0.
        2    1    3    3  502    0  0.93191674406E+03  0.65120883998E+03  0.30032148499E+03  0.11758974298E+04  0.25500000920E-02 0.  1.
       -2    1    3    3    0  502 -0.93191674406E+03 -0.65120883998E+03  0.15287292744E+04  0.19051390935E+04  0.25500000920E-02 0. -1.
</event>
<event>
 5   0  0.4811500E-07  0.3711026E+04  0.7818609E-02  0.8065523E-01
        1   -1    0    0  501    0  0.00000000000E+00  0.00000000000E+00  0.25277456912E+04  0.25277456912E+04  0.50400001928E-02 0.  1.
       -1   -1    0    0    0  501  0.00000000000E+00  0.00000000000E+00 -0.13620548383E+04  0.13620548383E+04  0.50400001928E-02 0. -1.
    10030    2    1    2    0    0  0.00000000000E+00  0.00000000000E+00  0.11656908529E+04  0.38898005295E+04  0.37110258682E+04 0.  0.
        3    1    3    3  502    0  0.16814294374E+04  0.38954450504E+03 -0.13112827316E+03  0.17309374652E+04  0.10100000352E+00 0.  1.
       -3    1    3    3    0  502 -0.16814294374E+04 -0.38954450504E+03  0.12968191260E+04  0.21588630642E+04  0.10100000352E+00 0. -1.
</event>
<event>
 5   0  0.1505671E-06  0.2295993E+04  0.7818609E-02  0.8479503E-01
        2   -1    0    0  501    0  0.00000000000E+00  0.00000000000E+00  0.18502812400E+04  0.18502812400E+04  0.25500000920E-02 0. -1.
       -2   -1    0    0    0  501  0.00000000000E+00  0.00000000000E+00 -0.71226805222E+03  0.71226805223E+03  0.25500000920E-02 0.  1.
    10030    2    1    2    0    0  0.00000000000E+00  0.00000000000E+00  0.11380131877E+04  0.25625492922E+04  0.22959932185E+04 0.  0.
        3    1    3    3  502    0 -0.33728492100E+03 -0.40228699073E+03 -0.57045069522E+03  0.77524831294E+03  0.10100000352E+00 0.  1.
       -3    1    3    3    0  502  0.33728492100E+03  0.40228699073E+03  0.17084638830E+04  0.17873009793E+04  0.10100000352E+00 0. -1.
</event>
<event>
 5   0  0.4811500E-07  0.2253352E+04  0.7818609E-02  0.8496544E-01
        1   -1    0    0  501    0  0.00000000000E+00  0.00000000000E+00  0.12798920070E+04  0.12798920070E+04  0.50400001928E-02 0. -1.
       -1   -1    0    0    0  501  0.00000000000E+00  0.00000000000E+00 -0.99180185352E+03  0.99180185353E+03  0.50400001928E-02 0.  1.
    10030    2    1    2    0    0  0.00000000000E+00  0.00000000000E+00  0.28809015345E+03  0.22716938605E+04  0.22533524046E+04 0.  0.
        5    1    3    3  502    0 -0.96063412903E+03  0.50826875699E+03  0.44348480608E+03  0.11738210777E+04  0.46999998093E+01 0. -1.
       -5    1    3    3    0  502  0.96063412903E+03 -0.50826875699E+03 -0.15539465262E+03  0.10978727828E+04  0.46999998093E+01 0.  1.
</event>
<event>
 5   0  0.4811500E-07  0.3511109E+04  0.7818609E-02  0.8111162E-01
        1   -1    0    0  501    0  0.00000000000E+00  0.00000000000E+00  0.28279041430E+04  0.28279041430E+04  0.50400001928E-02 0. -1.
       -1   -1    0    0    0  501  0.00000000000E+00  0.00000000000E+00 -0.10898430449E+04  0.10898430449E+04  0.50400001928E-02 0.  1.
    10030    2    1    2    0    0  0.00000000000E+00  0.00000000000E+00  0.17380610981E+04  0.39177471879E+04  0.35111090339E+04 0.  0.
        2    1    3    3  502    0 -0.83441553783E+02  0.65215844500E+03  0.26853420121E+04  0.27646581800E+04  0.25500000920E-02 0. -1.
       -2    1    3    3    0  502  0.83441553783E+02 -0.65215844500E+03 -0.94728091396E+03  0.11530890079E+04  0.25500000920E-02 0.  1.
</event>
<event>
 5   0  0.1444091E-06  0.3600255E+04  0.7818609E-02  0.8090433E-01
       -2   -1    0    0    0  501  0.00000000000E+00  0.00000000000E+00  0.14027308983E+04  0.14027308984E+04  0.25500000920E-02 0.  1.
        2   -1    0    0  501    0  0.00000000000E+00  0.00000000000E+00 -0.23101068786E+04  0.23101068786E+04  0.25500000920E-02 0. -1.
    10030    2    1    2    0    0  0.00000000000E+00  0.00000000000E+00 -0.90737598025E+03  0.37128377769E+04  0.36002546005E+04 0.  0.
        1    1    3    3  502    0  0.74917666284E+03  0.56467857025E+03  0.11306914249E+04  0.14692142996E+04  0.50400001928E-02 0.  1.
       -1    1    3    3    0  502 -0.74917666284E+03 -0.56467857025E+03 -0.20380674052E+04  0.22436234773E+04  0.50400001928E-02 0. -1.
</event>
<event>
 5   0  0.1491854E-06  0.2410097E+04  0.7818609E-02  0.8435733E-01
       -2   -1    0    0    0  501  0.00000000000E+00  0.00000000000E+00  0.87948178839E+03  0.87948178840E+03  0.25500000920E-02 0. -1.
        2   -1    0    0  501    0  0.00000000000E+00  0.00000000000E+00 -0.16511331996E+04  0.16511331996E+04  0.25500000920E-02 0.  1.
    10030    2    1    2    0    0  0.00000000000E+00  0.00000000000E+00 -0.77165141119E+03  0.25306149880E+04  0.24100967443E+04 0.  0.
        5    1    3    3  502    0 -0.10705739141E+04 -0.21567667520E+03 -0.92068431156E+03  0.14284000229E+04  0.46999998093E+01 0.  1.
       -5    1    3    3    0  502  0.10705739141E+04  0.21567667520E+03  0.14903290037E+03  0.11022149651E+04  0.46999998093E+01 0. -1.
</event>
<event>
 5   0  0.1491854E-06  0.3472842E+04  0.7818609E-02  0.8120256E-01
       -2   -1    0    0    0  501  0.00000000000E+00  0.00000000000E+00  0.15362572948E+04  0.15362572948E+04  0.25500000920E-02 0. -1.
        2   -1    0    0  501    0  0.00000000000E+00  0.00000000000E+00 -0.19626646239E+04  0.19626646239E+04  0.25500000920E-02 0.  1.
    10030    2    1    2    0    0  0.00000000000E+00  0.00000000000E+00 -0.42640732907E+03  0.34989219186E+04  0.34728419749E+04 0.  0.
        5    1    3    3  502    0 -0.63812490095E+03  0.88715790787E+03  0.11463309673E+04  0.15837769159E+04  0.46999998093E+01 0. -1.
       -5    1    3    3    0  502  0.63812490095E+03 -0.88715790787E+03 -0.15727382964E+04  0.19151450028E+04  0.46999998093E+01 0.  1.
</event>
<event>
 5   0  0.1491854E-06  0.3589188E+04  0.7818609E-02  0.8092973E-01
       -2   -1    0    0    0  501  0.00000000000E+00  0.00000000000E+00  0.12396445482E+04  0.12396445482E+04  0.25500000920E-02 0. -1.
        2   -1    0    0  501    0  0.00000000000E+00  0.00000000000E+00 -0.25979762381E+04  0.25979762381E+04  0.25500000920E-02 0.  1.
    10030    2    1    2    0    0  0.00000000000E+00  0.00000000000E+00 -0.13583316898E+04  0.38376207863E+04  0.35891876964E+04 0.  0.
        5    1    3    3  502    0 -0.32972015819E+03  0.20921766685E+03  0.11936610615E+04  0.12559204730E+04  0.46999998093E+01 0. -1.
       -5    1    3    3    0  502  0.32972015819E+03 -0.20921766685E+03 -0.25519927513E+04  0.25817003133E+04  0.46999998093E+01 0.  1.
</event>
<event>
 5   0  0.1468942E-06  0.3645150E+04  0.7818609E-02  0.8080227E-01
       -2   -1    0    0    0  501  0.00000000000E+00  0.00000000000E+00  0.18635094941E+04  0.18635094941E+04  0.25500000920E-02 0.  1.
        2   -1    0    0  501    0  0.00000000000E+00  0.00000000000E+00 -0.17825393384E+04  0.17825393384E+04  0.25500000920E-02 0. -1.
    10030    2    1    2    0    0  0.00000000000E+00  0.00000000000E+00  0.80970155716E+02  0.36460488325E+04  0.36451496434E+04 0.  0.
        2    1    3    3  502    0 -0.14533783770E+04  0.32250457288E+03 -0.10111833748E+04  0.17996693373E+04  0.25500000920E-02 0. -1.
       -2    1    3    3    0  502  0.14533783770E+04 -0.32250457288E+03  0.10921535305E+04  0.18463794952E+04  0.25500000920E-02 0.  1.
</event>
<event>
 5   0  0.1379425E-06  0.2590728E+04  0.7818609E-02  0.8371357E-01
        2   -1    0    0  501    0  0.00000000000E+00  0.00000000000E+00  0.13786450343E+04  0.13786450343E+04  0.25500000920E-02 0. -1.
       -2   -1    0    0    0  501  0.00000000000E+00  0.00000000000E+00 -0.12171140255E+04  0.12171140255E+04  0.25500000920E-02 0.  1.
    10030    2    1    2    0    0  0.00000000000E+00  0.00000000000E+00  0.16153100884E+03  0.25957590599E+04  0.25907282432E+04 0.  0.
        4    1    3    3  502    0  0.83393545485E+03  0.73389609083E+03  0.74832860191E+03  0.13394211900E+04  0.12699999809E+01 0. -1.
       -4    1    3    3    0  502 -0.83393545485E+03 -0.73389609083E+03 -0.58679759307E+03  0.12563378698E+04  0.12699999809E+01 0.  1.
</event>
<event>
 5   0  0.1505671E-06  0.2363654E+04  0.7818609E-02  0.8453238E-01
        2   -1    0    0  501    0  0.00000000000E+00  0.00000000000E+00  0.11816115218E+04  0.11816115218E+04  0.25500000920E-02 0.  1.
       -2   -1    0    0    0  501  0.00000000000E+00  0.00000000000E+00 -0.11820422559E+04  0.11820422559E+04  0.25500000920E-02 0. -1.
    10030    2    1    2    0    0  0.00000000000E+00  0.00000000000E+00 -0.43073408144E+00  0.23636537777E+04  0.23636537385E+04 0.  0.
        3    1    3    3  502    0 -0.18720536110E+02 -0.17361171440E+03 -0.11690709176E+04  0.11820398921E+04  0.10100000352E+00 0. -1.
       -3    1    3    3    0  502  0.18720536110E+02  0.17361171440E+03  0.11686401836E+04  0.11816138856E+04  0.10100000352E+00 0.  1.
</event>
<event>
 5   0  0.1491854E-06  0.3003135E+04  0.7818609E-02  0.8242836E-01
       -2   -1    0    0    0  501  0.00000000000E+00  0.00000000000E+00  0.21728509126E+04  0.21728509126E+04  0.25500000920E-02 0.  1.
        2   -1    0    0  501    0  0.00000000000E+00  0.00000000000E+00 -0.10376715197E+04  0.10376715197E+04  0.25500000920E-02 0. -1.
    10030    2    1    2    0    0  0.00000000000E+00  0.00000000000E+00  0.11351793929E+04  0.32105224323E+04  0.30031353673E+04 0.  0.
        5    1    3    3  502    0  0.98321539754E+03  0.66260794942E+03  0.15525859839E+04  0.19535370844E+04  0.46999998093E+01 0.  1.
       -5    1    3    3    0  502 -0.98321539754E+03 -0.66260794942E+03 -0.41740659107E+03  0.12569853479E+04  0.46999998093E+01 0. -1.
</event>
<event>
 5   0  0.1379425E-06  0.3627332E+04  0.7818609E-02  0.8084259E-01
        2   -1    0    0  501    0  0.00000000000E+00  0.00000000000E+00  0.26558811194E+04  0.26558811194E+04  0.25500000920E-02 0.  1.
       -2   -1    0    0    0  501  0.00000000000E+00  0.00000000000E+00 -0.12385285602E+04  0.12385285602E+04  0.25500000920E-02 0. -1.
    10030    2    1    2    0    0  0.00000000000E+00  0.00000000000E+00  0.14173525592E+04  0.38944096797E+04  0.36273321431E+04 0.  0.
        4    1    3    3  502    0 -0.68630818872E+03  0.16787981211E+04  0.70763263602E+03  0.19468250105E+04  0.12699999809E+01 0.  1.
       -4    1    3    3    0  502  0.68630818872E+03 -0.16787981211E+04  0.70971992318E+03  0.19475846691E+04  0.12699999809E+01 0. -1.
</event>
<event>
 5   0  0.4811500E-07  0.2826002E+04  0.7818609E-02  0.8295241E-01
        1   -1    0    0  501    0  0.00000000000E+00  0.00000000000E+00  0.15502242255E+04  0.15502242255E+04  0.50400001928E-02 0. -1.
       -1   -1    0    0    0  501  0.00000000000E+00  0.00000000000E+00 -0.12879249780E+04  0.12879249780E+04  0.50400001928E-02 0.  1.
    10030    2    1    2    0    0  0.00000000000E+00  0.00000000000E+00  0.26229924745E+03  0.28381492035E+04  0.28260024781E+04 0.  0.
        5    1    3    3  502    0 -0.29081397153E+03  0.49584303167E+03  0.14274793376E+04  0.15388802512E+04  0.46999998093E+01 0. -1.
       -5    1    3    3    0  502  0.29081397153E+03 -0.49584303167E+03 -0.11651800902E+04  0.12992689524E+04  0.46999998093E+01 0.  1.
</event>
<event>
 5   0  0.1444091E-06  0.2415118E+04  0.7818609E-02  0.8433865E-01
        2   -1    0    0  501    0  0.00000000000E+00  0.00000000000E+00  0.11178580871E+04  0.11178580871E+04  0.25500000920E-02 0.  1.
       -2   -1    0    0    0  501  0.00000000000E+00  0.00000000000E+00 -0.13044580821E+04  0.13044580821E+04  0.25500000920E-02 0. -1.
    10030    2    1    2    0    0  0.00000000000E+00  0.00000000000E+00 -0.18659999506E+03  0.24223161692E+04  0.24151182301E+04 0.  0.
        1    1    3    3  502    0 -0.10562306359E+04  0.40390373988E+03 -0.51816327311E+03  0.12438868779E+04  0.50400001928E-02 0. -1.
       -1    1    3    3    0  502  0.10562306359E+04 -0.40390373988E+03  0.33156327805E+03  0.11784292913E+04  0.50400001928E-02 0.  1.
</event>
<event>
 5   0  0.4811500E-07  0.3077001E+04  0.7818609E-02  0.8222078E-01
       -1   -1    0    0    0  501  0.00000000000E+00  0.00000000000E+00  0.12795318000E+04  0.12795318000E+04  0.50400001928E-02 0. -1.
        1   -1    0    0  501    0  0.00000000000E+00  0.00000000000E+00 -0.18498829908E+04  0.18498829908E+04  0.50400001928E-02 0.  1.
    10030    2    1    2    0    0  0.00000000000E+00  0.00000000000E+00 -0.57035119083E+03  0.31294147909E+04  0.30770012110E+04 0.  0.
        2    1    3    3  502    0  0.91487171266E+03  0.24728523523E+03  0.94742757940E+03  0.13400594227E+04  0.25500000920E-02 0. -1.
       -2    1    3    3    0  502 -0.91487171266E+03 -0.24728523523E+03 -0.15177787702E+04  0.17893553682E+04  0.25500000920E-02 0.  1.
</event>
<event>
 5   0  0.1505671E-06  0.3523524E+04  0.7818609E-02  0.8108238E-01
       -2   -1    0    0    0  501  0.00000000000E+00  0.00000000000E+00  0.10928275792E+04  0.10928275792E+04  0.25500000920E-02 0. -1.
        2   -1    0    0  501    0  0.00000000000E+00  0.00000000000E+00 -0.28401597274E+04  0.28401597274E+04  0.25500000920E-02 0.  1.
    10030    2    1    2    0    0  0.00000000000E+00  0.00000000000E+00 -0.17473321482E+04  0.39329873067E+04  0.35235237360E+04 0.  0.
        3    1    3    3  502    0 -0.94947218869E+03 -0.14598193648E+04 -0.11715805550E+04  0.20988499284E+04  0.10100000352E+00 0.  1.
       -3    1    3    3    0  502  0.94947218869E+03  0.14598193648E+04 -0.57575159322E+03  0.18341373783E+04  0.10100000352E+00 0. -1.
</event>
<event>
 5   0  0.4811500E-07  0.2445633E+04  0.7818609E-02  0.8422614E-01
       -1   -1    0    0    0  501  0.00000000000E+00  0.00000000000E+00  0.67112946902E+03  0.67112946904E+03  0.50400001928E-02 0. -1.
        1   -1    0    0  501    0  0.00000000000E+00  0.00000000000E+00 -0.22280054285E+04  0.22280054285E+04  0.50400001928E-02 0.  1.
    10030    2    1    2    0    0  0.00000000000E+00  0.00000000000E+00 -0.15568759595E+04  0.28991348976E+04  0.24456329244E+04 0.  0.
        4    1    3    3  502    0 -0.18872887366E+03  0.10122419582E+04 -0.15603084607E+04  0.18694428248E+04  0.12699999809E+01 0.  1.
       -4    1    3    3    0  502  0.18872887366E+03 -0.10122419582E+04  0.34325012202E+01  0.10296920728E+04  0.12699999809E+01 0. -1.
</event>
<event>
 5   0  0.5071661E-07  0.3626670E+04  0.7818609E-02  0.8084410E-01
       -1   -1    0    0    0  501  0.00000000000E+00  0.00000000000E+00  0.21892778068E+04  0.21892778068E+04  0.50400001928E-02 0.  1.
        1   -1    0    0  501    0  0.00000000000E+00  0.00000000000E+00 -0.15019494382E+04  0.15019494382E+04  0.50400001928E-02 0. -1.
    10030    2    1    2    0    0  0.00000000000E+00  0.00000000000E+00  0.68732836860E+03  0.36912272449E+04  0.36266704134E+04 0.  0.
        1    1    3    3  502    0  0.14836802286E+03 -0.18072371210E+04  0.33542754169E+03  0.18440799108E+04  0.50400001928E-02 0.  1.
       -1    1    3    3    0  502 -0.14836802286E+03  0.18072371210E+04  0.35190082691E+03  0.18471473341E+04  0.50400001928E-02 0. -1.
</event>
<event>
 5   0  0.4811500E-07  0.3636284E+04  0.7818609E-02  0.8082231E-01
        1   -1    0    0  501    0  0.00000000000E+00  0.00000000000E+00  0.19395359645E+04  0.19395359645E+04  0.50400001928E-02 0.  1.
       -1   -1    0    0    0  501  0.00000000000E+00  0.00000000000E+00 -0.17043464368E+04  0.17043464369E+04  0.50400001928E-02 0. -1.
    10030    2    1    2    0    0  0.00000000000E+00  0.00000000000E+00  0.23518952765E+03  0.36438824014E+04  0.36362844830E+04 0.  0.
        5    1    3    3  502    0 -0.20986836211E+03  0.17809697503E+04 -0.18256597787E+03  0.18025677261E+04  0.46999998093E+01 0. -1.
       -5    1    3    3    0  502  0.20986836211E+03 -0.17809697503E+04  0.41775550552E+03  0.18413146753E+04  0.46999998093E+01 0.  1.
</event>
<event>
 5   0  0.1379425E-06  0.3679846E+04  0.7818609E-02  0.8072443E-01
       -2   -1    0    0    0  501  0.00000000000E+00  0.00000000000E+00  0.14354690904E+04  0.14354690904E+04  0.25500000920E-02 0.  1.
        2   -1    0    0  501    0  0.00000000000E+00  0.00000000000E+00 -0.23583342059E+04  0.23583342059E+04  0.25500000920E-02 0. -1.
    10030    2    1    2    0    0  0.00000000000E+00  0.00000000000E+00 -0.92286511549E+03  0.37938032963E+04  0.36798455715E+04 0.  0.
        4    1    3    3  502    0 -0.67290365247E+03 -0.28090201154E+03  0.12801435076E+04  0.14732529581E+04  0.12699999809E+01 0.  1.
       -4    1    3    3    0  502  0.67290365247E+03  0.28090201154E+03 -0.22030086231E+04  0.23205503382E+04  0.12699999809E+01 0. -1.
</event>
<event>
 5   0  0.4811500E-07  0.2432357E+04  0.7818609E-02  0.8427488E-01
       -1   -1    0    0    0  501  0.00000000000E+00  0.00000000000E+00  0.85818597513E+03  0.85818597515E+03  0.50400001928E-02 0.  1.
        1   -1    0    0  501    0  0.00000000000E+00  0.00000000000E+00 -0.17235081390E+04  0.17235081391E+04  0.50400001928E-02 0. -1.
    10030    2    1    2    0    0  0.00000000000E+00  0.00000000000E+00 -0.86532216391E+03  0.25816941142E+04  0.24323573035E+04 0.  0.
        2    1    3    3  502    0  0.89130283444E+03 -0.20391181137E+03  0.41850283568E+03  0.10055572549E+04  0.25500000920E-02 0.  1.
       -2    1    3    3    0  502 -0.89130283444E+03  0.20391181137E+03 -0.12838249996E+04  0.15761368593E+04  0.25500000920E-02 0. -1.
</event>
<event>
 5   0  0.1468942E-06  0.3802849E+04  0.7818609E-02  0.8045544E-01
       -2   -1    0    0    0  501  0.00000000000E+00  0.00000000000E+00  0.13956194908E+04  0.13956194908E+04  0.25500000920E-02 0. -1.
        2   -1    0    0  501    0  0.00000000000E+00  0.00000000000E+00 -0.25905456089E+04  0.25905456089E+04  0.25500000920E-02 0.  1.
    10030    2    1    2    0    0  0.00000000000E+00  0.00000000000E+00 -0.11949261181E+04  0.39861650997E+04  0.38028494282E+04 0.  0.
        2    1    3    3  502    0 -0.50307244645E+03  0.17015463787E+04  0.11890957721E+03  0.17783367096E+04  0.25500000920E-02 0.  1.
       -2    1    3    3    0  502  0.50307244645E+03 -0.17015463787E+04 -0.13138356953E+04  0.22078283900E+04  0.25500000920E-02 0. -1.
</event>
<event>
 5   0  0.1444091E-06  0.3631518E+04  0.7818609E-02  0.8083310E-01
       -2   -1    0    0    0  501  0.00000000000E+00  0.00000000000E+00  0.32750464273E+04  0.32750464273E+04  0.25500000920E-02 0. -1.
        2   -1    0    0  501    0  0.00000000000E+00  0.00000000000E+00 -0.10066976602E+04  0.10066976602E+04  0.25500000920E-02 0.  1.
    10030    2    1    2    0    0  0.00000000000E+00  0.00000000000E+00  0.22683487671E+04  0.42817440874E+04  0.36315184567E+04 0.  0.
        1    1    3    3  502    0 -0.17571621316E+03 -0.51497923672E+03 -0.90830810166E+03  0.10588217080E+04  0.50400001928E-02 0.  1.
       -1    1    3    3    0  502  0.17571621316E+03  0.51497923672E+03  0.31766568687E+04  0.32229223794E+04  0.50400001928E-02 0. -1.
</event>
<event>
 5   0  0.1491854E-06  0.3758946E+04  0.7818609E-02  0.8055023E-01
       -2   -1    0    0    0  501  0.00000000000E+00  0.00000000000E+00  0.17272909376E+04  0.17272909376E+04  0.25500000920E-02 0. -1.
        2   -1    0    0  501    0  0.00000000000E+00  0.00000000000E+00 -0.20450630519E+04  0.20450630519E+04  0.25500000920E-02 0.  1.
    10030    2    1    2    0    0  0.00000000000E+00  0.00000000000E+00 -0.31777211426E+03  0.37723539895E+04  0.37589460631E+04 0.  0.
        5    1    3    3  502    0  0.92977774682E+03  0.39387572204E+03  0.14319407141E+04  0.17521703803E+04  0.46999998093E+01 0. -1.
       -5    1    3    3    0  502 -0.92977774682E+03 -0.39387572204E+03 -0.17497128284E+04  0.20201836092E+04  0.46999998093E+01 0.  1.
</event>
<event>
 5   0  0.4811500E-07  0.3261284E+04  0.7818609E-02  0.8172817E-01
       -1   -1    0    0    0  501  0.00000000000E+00  0.00000000000E+00  0.17703817606E+04  0.17703817606E+04  0.50400001928E-02 0. -1.
        1   -1    0    0  501    0  0.00000000000E+00  0.00000000000E+00 -0.15019317692E+04  0.15019317692E+04  0.50400001928E-02 0.  1.
    10030    2    1    2    0    0  0.00000000000E+00  0.00000000000E+00  0.26844999134E+03  0.32723135298E+04  0.32612835571E+04 0.  0.
        2    1    3    3  502    0 -0.39266246634E+03 -0.95730530241E+02  0.17193287859E+04  0.17661935401E+04  0.25500000920E-02 0. -1.
       -2    1    3    3    0  502  0.39266246634E+03  0.95730530241E+02 -0.14508787946E+04  0.15061199897E+04  0.25500000920E-02 0.  1.
</event>
<event>
 5   0  0.4811500E-07  0.3687062E+04  0.7818609E-02  0.8070835E-01
        1   -1    0    0  501    0  0.00000000000E+00  0.00000000000E+00  0.19615764713E+04  0.19615764713E+04  0.50400001928E-02 0.  1.
       -1   -1    0    0    0  501  0.00000000000E+00  0.00000000000E+00 -0.17325889253E+04  0.17325889253E+04  0.50400001928E-02 0. -1.
    10030    2    1    2    0    0  0.00000000000E+00  0.00000000000E+00  0.22898754593E+03  0.36941653966E+04  0.36870615239E+04 0.  0.
        4    1    3    3  502    0  0.63499219384E+03  0.10094368712E+04  0.15230566873E+04  0.19343942641E+04  0.12699999809E+01 0.  1.
       -4    1    3    3    0  502 -0.63499219384E+03 -0.10094368712E+04 -0.12940691414E+04  0.17597711325E+04  0.12699999809E+01 0. -1.
</event>
<event>
 5   0  0.1379425E-06  0.3753075E+04  0.7818609E-02  0.8056300E-01
        2   -1    0    0  501    0  0.00000000000E+00  0.00000000000E+00  0.25759873505E+04  0.25759873505E+04  0.25500000920E-02 0.  1.
       -2   -1    0    0    0  501  0.00000000000E+00  0.00000000000E+00 -0.13670072436E+04  0.13670072436E+04  0.25500000920E-02 0. -1.
    10030    2    1    2    0    0  0.00000000000E+00  0.00000000000E+00  0.12089801068E+04  0.39429945941E+04  0.37530752018E+04 0.  0.
        4    1    3    3  502    0 -0.54772627036E+03 -0.12072539400E+04 -0.79084674596E+03  0.15436665221E+04  0.12699999809E+01 0. -1.
       -4    1    3    3    0  502  0.54772627036E+03  0.12072539400E+04  0.19998268528E+04  0.23993280720E+04  0.12699999809E+01 0.  1.
</event>
<event>
 5   0  0.1505671E-06  0.3188559E+04  0.7818609E-02  0.8191845E-01
       -2   -1    0    0    0  501  0.00000000000E+00  0.00000000000E+00  0.14389533502E+04  0.14389533502E+04  0.25500000920E-02 0. -1.
        2   -1    0    0  501    0  0.00000000000E+00  0.00000000000E+00 -0.17663726355E+04  0.17663726355E+04  0.25500000920E-02 0.  1.
    10030    2    1    2    0    0  0.00000000000E+00  0.00000000000E+00 -0.32741928537E+03  0.32053259857E+04  0.31885594375E+04 0.  0.
        3    1    3    3  502    0  0.15207188380E+04  0.47423357467E+03 -0.22920238805E+03  0.16093529794E+04  0.10100000352E+00 0. -1.
       -3    1    3    3    0  502 -0.15207188380E+04 -0.47423357467E+03 -0.98216897327E+02  0.15959730063E+04  0.10100000352E+00 0.  1.
</event>
<event>
 5   0  0.5071661E-07  0.3616004E+04  0.7818609E-02  0.8086836E-01
        1   -1    0    0  501    0  0.00000000000E+00  0.00000000000E+00  0.29304519561E+04  0.29304519561E+04  0.50400001928E-02 0.  1.
       -1   -1    0    0    0  501  0.00000000000E+00  0.00000000000E+00 -0.11154838252E+04  0.11154838252E+04  0.50400001928E-02 0. -1.
    10030    2    1    2    0    0  0.00000000000E+00  0.00000000000E+00  0.18149681309E+04  0.40459357814E+04  0.36160042907E+04 0.  0.
        1    1    3    3  502    0 -0.27167956205E+03  0.14068551827E+04  0.21412272691E+04  0.25764133029E+04  0.50400001928E-02 0.  1.
       -1    1    3    3    0  502  0.27167956205E+03 -0.14068551827E+04 -0.32625913820E+03  0.14695224785E+04  0.50400001928E-02 0. -1.
</event>
<event>
 5   0  0.5071661E-07  0.3634398E+04  0.7818609E-02  0.8082658E-01
       -1   -1    0    0    0  501  0.00000000000E+00  0.00000000000E+00  0.19941680136E+04  0.19941680137E+04  0.50400001928E-02 0.  1.
        1   -1    0    0  501    0  0.00000000000E+00  0.00000000000E+00 -0.16559349182E+04  0.16559349182E+04  0.50400001928E-02 0. -1.
    10030    2    1    2    0    0  0.00000000000E+00  0.00000000000E+00  0.33823309542E+03  0.36501029319E+04  0.36343981326E+04 0.  0.
        1    1    3    3  502    0  0.56256631279E+03 -0.14705025497E+04 -0.74219289229E+03  0.17406058986E+04  0.50400001928E-02 0. -1.
       -1    1    3    3    0  502 -0.56256631279E+03  0.14705025497E+04  0.10804259877E+04  0.19094970332E+04  0.50400001928E-02 0.  1.
</event>
<event>
 5   0  0.4811500E-07  0.3443847E+04  0.7818609E-02  0.8127228E-01
        1   -1    0    0  501    0  0.00000000000E+00  0.00000000000E+00  0.15679532319E+04  0.15679532319E+04  0.50400001928E-02 0. -1.
       -1   -1    0    0    0  501  0.00000000000E+00  0.00000000000E+00 -0.18910137970E+04  0.18910137970E+04  0.50400001928E-02 0.  1.
    10030    2    1    2    0    0  0.00000000000E+00  0.00000000000E+00 -0.32306056507E+03  0.34589670290E+04  0.34438473803E+04 0.  0.
        2    1    3    3  502    0 -0.93850630333E+03  0.67411743629E+03  0.11207079508E+04  0.16097250419E+04  0.25500000920E-02 0. -1.
       -2    1    3    3    0  502  0.93850630333E+03 -0.67411743629E+03 -0.14437685159E+04  0.18492419871E+04  0.25500000920E-02 0.  1.
</event>
<event>
 5   0  0.4811500E-07  0.3401934E+04  0.7818609E-02  0.8137432E-01
       -1   -1    0    0    0  501  0.00000000000E+00  0.00000000000E+00  0.22558925711E+04  0.22558925711E+04  0.50400001928E-02 0.  1.
        1   -1    0    0  501    0  0.00000000000E+00  0.00000000000E+00 -0.12825473140E+04  0.12825473141E+04  0.50400001928E-02 0. -1.
    10030    2    1    2    0    0  0.00000000000E+00  0.00000000000E+00  0.97334525705E+03  0.35384398852E+04  0.34019341310E+04 0.  0.
        2    1    3    3  502    0 -0.18851803848E+03  0.70599618897E+02  0.22434590491E+04  0.22524723887E+04  0.25500000920E-02 0.  1.
       -2    1    3    3    0  502  0.18851803848E+03 -0.70599618897E+02 -0.12701137921E+04  0.12859674964E+04  0.25500000920E-02 0. -1.
</event>
<event>
 5   0  0.1491854E-06  0.2725960E+04  0.7818609E-02  0.8326631E-01
       -2   -1    0    0    0  501  0.00000000000E+00  0.00000000000E+00  0.13979457024E+04  0.13979457024E+04  0.25500000920E-02 0. -1.
        2   -1    0    0  501    0  0.00000000000E+00  0.00000000000E+00 -0.13288890711E+04  0.13288890711E+04  0.25500000920E-02 0.  1.
    10030    2    1    2    0    0  0.00000000000E+00  0.00000000000E+00  0.69056631387E+02  0.27268347735E+04  0.27259602095E+04 0.  0.
        5    1    3    3  502    0 -0.73227411934E+03 -0.16660015168E+03 -0.11032510699E+04  0.13346033154E+04  0.46999998093E+01 0.  1.
       -5    1    3    3    0  502  0.73227411934E+03  0.16660015168E+03  0.11723077013E+04  0.13922314581E+04  0.46999998093E+01 0. -1.
</event>
<event>
 5   0  0.4811500E-07  0.3590479E+04  0.7818609E-02  0.8092676E-01
        1   -1    0    0  501    0  0.00000000000E+00  0.00000000000E+00  0.17867478028E+04  0.17867478028E+04  0.50400001928E-02 0.  1.
       -1   -1    0    0    0  501  0.00000000000E+00  0.00000000000E+00 -0.18037720065E+04  0.18037720065E+04  0.50400001928E-02 0. -1.
    10030    2    1    2    0    0  0.00000000000E+00  0.00000000000E+00 -0.17024203647E+02  0.35905198093E+04  0.35904794496E+04 0.  0.
        5    1    3    3  502    0  0.91991310923E+03  0.11551331079E+04  0.10124258915E+04  0.17904191971E+04  0.46999998093E+01 0.  1.
       -5    1    3    3    0  502 -0.91991310923E+03 -0.11551331079E+04 -0.10294500952E+04  0.18001006122E+04  0.46999998093E+01 0. -1.
</event>
<event>
 5   0  0.4811500E-07  0.3560741E+04  0.7818609E-02  0.8099544E-01
       -1   -1    0    0    0  501  0.00000000000E+00  0.00000000000E+00  0.20075888019E+04  0.20075888019E+04  0.50400001928E-02 0.  1.
        1   -1    0    0  501    0  0.00000000000E+00  0.00000000000E+00 -0.15788690815E+04  0.15788690815E+04  0.50400001928E-02 0. -1.
    10030    2    1    2    0    0  0.00000000000E+00  0.00000000000E+00  0.42871972042E+03  0.35864578834E+04  0.35607414327E+04 0.  0.
        3    1    3    3  502    0  0.58933729596E+03  0.15242768193E+04  0.92584783762E+03  0.18782791323E+04  0.10100000352E+00 0.  1.
       -3    1    3    3    0  502 -0.58933729596E+03 -0.15242768193E+04 -0.49712811720E+03  0.17081787510E+04  0.10100000352E+00 0. -1.
</event>
<event>
 5   0  0.4811500E-07  0.2390806E+04  0.7818609E-02  0.8442954E-01
        1   -1    0    0  501    0  0.00000000000E+00  0.00000000000E+00  0.14200724858E+04  0.14200724858E+04  0.50400001928E-02 0.  1.
       -1   -1    0    0    0  501  0.00000000000E+00  0.00000000000E+00 -0.10062780892E+04  0.10062780892E+04  0.50400001928E-02 0. -1.
    10030    2    1    2    0    0  0.00000000000E+00  0.00000000000E+00  0.41379439664E+03  0.24263505750E+04  0.23908055776E+04 0.  0.
        3    1    3    3  502    0 -0.98670267402E+03  0.40361855887E+03 -0.34197410490E+03  0.11195697417E+04  0.10100000352E+00 0. -1.
       -3    1    3    3    0  502  0.98670267402E+03 -0.40361855887E+03  0.75576850154E+03  0.13067808332E+04  0.10100000352E+00 0.  1.
</event>
<event>
 5   0  0.4811500E-07  0.3636881E+04  0.7818609E-02  0.8082095E-01
       -1   -1    0    0    0  501  0.00000000000E+00  0.00000000000E+00  0.26484454023E+04  0.26484454023E+04  0.50400001928E-02 0.  1.
        1   -1    0    0  501    0  0.00000000000E+00  0.00000000000E+00 -0.12485536244E+04  0.12485536244E+04  0.50400001928E-02 0. -1.
    10030    2    1    2    0    0  0.00000000000E+00  0.00000000000E+00  0.13998917779E+04  0.38969990267E+04  0.36368811397E+04 0.  0.
        4    1    3    3  502    0  0.75407873729E+03  0.14737687387E+04  0.15061518854E+04  0.22381072700E+04  0.12699999809E+01 0.  1.
       -4    1    3    3    0  502 -0.75407873729E+03 -0.14737687387E+04 -0.10626010752E+03  0.16588917567E+04  0.12699999809E+01 0. -1.
</event>
<event>
 5   0  0.1468942E-06  0.3560609E+04  0.7818609E-02  0.8099575E-01
        2   -1    0    0  501    0  0.00000000000E+00  0.00000000000E+00  0.25418414264E+04  0.25418414264E+04  0.25500000920E-02 0. -1.
       -2   -1    0    0    0  501  0.00000000000E+00  0.00000000000E+00 -0.12469242440E+04  0.12469242440E+04  0.25500000920E-02 0.  1.
    10030    2    1    2    0    0  0.00000000000E+00  0.00000000000E+00  0.12949171824E+04  0.37887656705E+04  0.35606087677E+04 0.  0.
        2    1    3    3  502    0 -0.13319290949E+04  0.86241156863E+03 -0.21154630720E+03  0.16007937618E+04  0.25500000920E-02 0.  1.
       -2    1    3    3    0  502  0.13319290949E+04 -0.86241156863E+03  0.15064634896E+04  0.21879719087E+04  0.25500000920E-02 0. -1.
</event>
<event>
 5   0  0.1444091E-06  0.3578629E+04  0.7818609E-02  0.8095405E-01
        2   -1    0    0  501    0  0.00000000000E+00  0.00000000000E+00  0.13496379199E+04  0.13496379199E+04  0.25500000920E-02 0. -1.
       -2   -1    0    0    0  501  0.00000000000E+00  0.00000000000E+00 -0.23722262214E+04  0.23722262214E+04  0.25500000920E-02 0.  1.
    10030    2    1    2    0    0  0.00000000000E+00  0.00000000000E+00 -0.10225883015E+04  0.37218641414E+04  0.35786290465E+04 0.  0.
        1    1    3    3  502    0 -0.78677155049E+03  0.52085926358E+03 -0.20924547987E+04  0.22953585624E+04  0.50400001928E-02 0.  1.
       -1    1    3    3    0  502  0.78677155049E+03 -0.52085926358E+03  0.10698664972E+04  0.14265055790E+04  0.50400001928E-02 0. -1.
</event>
<event>
 5   0  0.4811500E-07  0.3568076E+04  0.7818609E-02  0.8097844E-01
        1   -1    0    0  501    0  0.00000000000E+00  0.00000000000E+00  0.20352340203E+04  0.20352340203E+04  0.50400001928E-02 0.  1.
       -1   -1    0    0    0  501  0.00000000000E+00  0.00000000000E+00 -0.15638450761E+04  0.15638450761E+04  0.50400001928E-02 0. -1.
    10030    2    1    2    0    0  0.00000000000E+00  0.00000000000E+00  0.47138894423E+03  0.35990790964E+04  0.35680755044E+04 0.  0.
        5    1    3    3  502    0  0.88869158189E+03 -0.86505486947E+03 -0.10578981411E+04  0.16301114140E+04  0.46999998093E+01 0. -1.
       -5    1    3    3    0  502 -0.88869158189E+03  0.86505486947E+03  0.15292870853E+04  0.19689676824E+04  0.46999998093E+01 0.  1.
</event>
<event>
 5   0  0.4811500E-07  0.3165225E+04  0.7818609E-02  0.8198062E-01
        1   -1    0    0  501    0  0.00000000000E+00  0.00000000000E+00  0.26660932738E+04  0.26660932738E+04  0.50400001928E-02 0. -1.
       -1   -1    0    0    0  501  0.00000000000E+00  0.00000000000E+00 -0.93945054162E+03  0.93945054163E+03  0.50400001928E-02 0.  1.
    10030    2    1    2    0    0  0.00000000000E+00  0.00000000000E+00  0.17266427322E+04  0.36055438155E+04  0.31652252812E+04 0.  0.
        2    1    3    3  502    0  0.14049327032E+04 -0.12830381698E+03  0.16802833664E+04  0.21940031817E+04  0.25500000920E-02 0. -1.
       -2    1    3    3    0  502 -0.14049327032E+04  0.12830381698E+03  0.46359365781E+02  0.14115406337E+04  0.25500000920E-02 0.  1.
</event>
<event>
 5   0  0.4811500E-07  0.3410297E+04  0.7818609E-02  0.8135384E-01
        1   -1    0    0  501    0  0.00000000000E+00  0.00000000000E+00  0.14303633379E+04  0.14303633379E+04  0.50400001928E-02 0.  1.
       -1   -1    0    0    0  501  0.00000000000E+00  0.00000000000E+00 -0.20327222948E+04  0.20327222948E+04  0.50400001928E-02 0. -1.
    10030    2    1    2    0    0  0.00000000000E+00  0.00000000000E+00 -0.60235895687E+03  0.34630856327E+04  0.34102970232E+04 0.  0.
        3    1    3    3  502    0 -0.16095986601E+04  0.51136555004E+03 -0.62533522055E+02  0.16900334387E+04  0.10100000352E+00 0.  1.
       -3    1    3    3    0  502  0.16095986601E+04 -0.51136555004E+03 -0.53982543482E+03  0.17730521940E+04  0.10100000352E+00 0. -1.
</event>
<event>
 5   0  0.1468942E-06  0.3658642E+04  0.7818609E-02  0.8077190E-01
        2   -1    0    0  501    0  0.00000000000E+00  0.00000000000E+00  0.15105492455E+04  0.15105492455E+04  0.25500000920E-02 0.  1.
       -2   -1    0    0    0  501  0.00000000000E+00  0.00000000000E+00 -0.22153632600E+04  0.22153632600E+04  0.25500000920E-02 0. -1.
    10030    2    1    2    0    0  0.00000000000E+00  0.00000000000E+00 -0.70481401451E+03  0.37259125054E+04  0.36586419889E+04 0.  0.
        2    1    3    3  502    0  0.11858335301E+04 -0.99072945436E+03  0.64471234499E+03  0.16743356953E+04  0.25500000920E-02 0.  1.
       -2    1    3    3    0  502 -0.11858335301E+04  0.99072945436E+03 -0.13495263595E+04  0.20515768101E+04  0.25500000920E-02 0. -1.
</event>
<event>
 5   0  0.1444091E-06  0.3592920E+04  0.7818609E-02  0.8092115E-01
       -2   -1    0    0    0  501  0.00000000000E+00  0.00000000000E+00  0.12277514645E+04  0.12277514645E+04  0.25500000920E-02 0.  1.
        2   -1    0    0  501    0  0.00000000000E+00  0.00000000000E+00 -0.26286002697E+04  0.26286002697E+04  0.25500000920E-02 0. -1.
    10030    2    1    2    0    0  0.00000000000E+00  0.00000000000E+00 -0.14008488052E+04  0.38563517342E+04  0.35929196098E+04 0.  0.
        1    1    3    3  502    0  0.58442228636E+02  0.22968632211E+03  0.12108976457E+04  0.12338737411E+04  0.50400001928E-02 0.  1.
       -1    1    3    3    0  502 -0.58442228636E+02 -0.22968632211E+03 -0.26117464509E+04  0.26224779931E+04  0.50400001928E-02 0. -1.
</event>
<event>
 5   0  0.5071661E-07  0.3510930E+04  0.7818609E-02  0.8111205E-01
       -1   -1    0    0    0  501  0.00000000000E+00  0.00000000000E+00  0.18337976076E+04  0.18337976076E+04  0.50400001928E-02 0.  1.
        1   -1    0    0  501    0  0.00000000000E+00  0.00000000000E+00 -0.16804782413E+04  0.16804782414E+04  0.50400001928E-02 0. -1.
    10030    2    1    2    0    0  0.00000000000E+00  0.00000000000E+00  0.15331936621E+03  0.35142758489E+04  0.35109297792E+04 0.  0.
        1    1    3    3  502    0  0.14053497657E+04 -0.85752825921E+03  0.68657964161E+03  0.17837472589E+04  0.50400001928E-02 0.  1.
       -1    1    3    3    0  502 -0.14053497657E+04  0.85752825921E+03 -0.53326027540E+03  0.17305285900E+04  0.50400001928E-02 0. -1.
</event>
<event>
 5   0  0.1468942E-06  0.3387823E+04  0.7818609E-02  0.8140901E-01
       -2   -1    0    0    0  501  0.00000000000E+00  0.00000000000E+00  0.12287850434E+04  0.12287850434E+04  0.25500000920E-02 0.  1.
        2   -1    0    0  501    0  0.00000000000E+00  0.00000000000E+00 -0.23350999895E+04  0.23350999895E+04  0.25500000920E-02 0. -1.
    10030    2    1    2    0    0  0.00000000000E+00  0.00000000000E+00 -0.11063149461E+04  0.35638850330E+04  0.33878228655E+04 0.  0.
        2    1    3    3  502    0  0.94889907698E+03 -0.49757585104E+03 -0.19333412595E+04  0.22103844940E+04  0.25500000920E-02 0. -1.
       -2    1    3    3    0  502 -0.94889907698E+03  0.49757585104E+03  0.82702631339E+03  0.13535005389E+04  0.25500000920E-02 0.  1.
</event>
<event>
 5   0  0.4811500E-07  0.2589793E+04  0.7818609E-02  0.8371676E-01
       -1   -1    0    0    0  501  0.00000000000E+00  0.00000000000E+00  0.14624043389E+04  0.14624043390E+04  0.50400001928E-02 0.  1.
        1   -1    0    0  501    0  0.00000000000E+00  0.00000000000E+00 -0.11465758739E+04  0.11465758739E+04  0.50400001928E-02 0. -1.
    10030    2    1    2    0    0  0.00000000000E+00  0.00000000000E+00  0.31582846508E+03  0.26089802128E+04  0.25897934535E+04 0.  0.
        4    1    3    3  502    0  0.97342606087E+03 -0.65774418619E+03  0.70653143169E+03  0.13709026177E+04  0.12699999809E+01 0. -1.
       -4    1    3    3    0  502 -0.97342606087E+03  0.65774418619E+03 -0.39070296662E+03  0.12380775951E+04  0.12699999809E+01 0.  1.
</event>
<event>
 5   0  0.4811500E-07  0.3851249E+04  0.7818609E-02  0.8035246E-01
       -3   -1    0    0    0  501  0.00000000000E+00  0.00000000000E+00  0.20754303353E+04  0.20754303377E+04  0.10100000352E+00 0. -1.
        3   -1    0    0  501    0  0.00000000000E+00  0.00000000000E+00 -0.17866317136E+04  0.17866317164E+04  0.10100000352E+00 0.  1.
    10030    2    1    2    0    0  0.00000000000E+00  0.00000000000E+00  0.28879862174E+03  0.38620620542E+04  0.38512489748E+04 0.  0.
        3    1    3    3  502    0 -0.10321444186E+04  0.24685000096E+03  0.17557002057E+04  0.20515214467E+04  0.10100000352E+00 0. -1.
       -3    1    3    3    0  502  0.10321444186E+04 -0.24685000096E+03 -0.14669015840E+04  0.18105406074E+04  0.10100000352E+00 0.  1.
</event>
<event>
 5   0  0.4811500E-07  0.3682471E+04  0.7818609E-02  0.8071858E-01
       -1   -1    0    0    0  501  0.00000000000E+00  0.00000000000E+00  0.15098007283E+04  0.15098007283E+04  0.50400001928E-02 0. -1.
        1   -1    0    0  501    0  0.00000000000E+00  0.00000000000E+00 -0.22454279359E+04  0.22454279360E+04  0.50400001928E-02 0.  1.
    10030    2    1    2    0    0  0.00000000000E+00  0.00000000000E+00 -0.73562720769E+03  0.37552286642E+04  0.36824713077E+04 0.  0.
        3    1    3    3  502    0 -0.16850422440E+04 -0.73589455582E+03 -0.26978649395E+03  0.18584113979E+04  0.10100000352E+00 0.  1.
       -3    1    3    3    0  502  0.16850422440E+04  0.73589455582E+03 -0.46584071374E+03  0.18968172664E+04  0.10100000352E+00 0. -1.
</event>
<event>
 5   0  0.1491854E-06  0.3668017E+04  0.7818609E-02  0.8075087E-01
       -2   -1    0    0    0  501  0.00000000000E+00  0.00000000000E+00  0.22009172972E+04  0.22009172972E+04  0.25500000920E-02 0.  1.
        2   -1    0    0  501    0  0.00000000000E+00  0.00000000000E+00 -0.15282660651E+04  0.15282660651E+04  0.25500000920E-02 0. -1.
    10030    2    1    2    0    0  0.00000000000E+00  0.00000000000E+00  0.67265123206E+03  0.37291833623E+04  0.36680170215E+04 0.  0.
        5    1    3    3  502    0  0.97011190819E+03  0.70021509171E+03 -0.10768705806E+04  0.16096864994E+04  0.46999998093E+01 0. -1.
       -5    1    3    3    0  502 -0.97011190819E+03 -0.70021509171E+03  0.17495218126E+04  0.21194968629E+04  0.46999998093E+01 0.  1.
</event>
<event>
 5   0  0.1468942E-06  0.2282351E+04  0.7818609E-02  0.8484913E-01
       -2   -1    0    0    0  501  0.00000000000E+00  0.00000000000E+00  0.17322994201E+04  0.17322994201E+04  0.25500000920E-02 0.  1.
        2   -1    0    0  501    0  0.00000000000E+00  0.00000000000E+00 -0.75176437214E+03  0.75176437215E+03  0.25500000920E-02 0. -1.
    10030    2    1    2    0    0  0.00000000000E+00  0.00000000000E+00  0.98053504798E+03  0.24840637923E+04  0.22823505304E+04 0.  0.
        2    1    3    3  502    0  0.41020885096E+03 -0.10020290116E+04  0.88260919519E+03  0.13969010104E+04  0.25500000920E-02 0.  1.
       -2    1    3    3    0  502 -0.41020885096E+03  0.10020290116E+04  0.97925852791E+02  0.10871627818E+04  0.25500000920E-02 0. -1.
</event>
<event>
 5   0  0.4811500E-07  0.3064622E+04  0.7818609E-02  0.8225515E-01
        1   -1    0    0  501    0  0.00000000000E+00  0.00000000000E+00  0.21369193108E+04  0.21369193108E+04  0.50400001928E-02 0.  1.
       -1   -1    0    0    0  501  0.00000000000E+00  0.00000000000E+00 -0.10987672701E+04  0.10987672701E+04  0.50400001928E-02 0. -1.
    10030    2    1    2    0    0  0.00000000000E+00  0.00000000000E+00  0.10381520407E+04  0.32356865809E+04  0.30646219979E+04 0.  0.
        5    1    3    3  502    0 -0.94238655699E+03 -0.64131572137E+03 -0.56208311014E+03  0.12709593975E+04  0.46999998093E+01 0. -1.
       -5    1    3    3    0  502  0.94238655699E+03  0.64131572137E+03  0.16002351508E+04  0.19647271834E+04  0.46999998093E+01 0.  1.
</event>
<event>
 5   0  0.4811500E-07  0.2552894E+04  0.7818609E-02  0.8384380E-01
        1   -1    0    0  501    0  0.00000000000E+00  0.00000000000E+00  0.15593143140E+04  0.15593143140E+04  0.50400001928E-02 0. -1.
       -1   -1    0    0    0  501  0.00000000000E+00  0.00000000000E+00 -0.10448932967E+04  0.10448932967E+04  0.50400001928E-02 0.  1.
    10030    2    1    2    0    0  0.00000000000E+00  0.00000000000E+00  0.51442101723E+03  0.26042076107E+04  0.25528941021E+04 0.  0.
        5    1    3    3  502    0 -0.68668933086E+03  0.75347772337E+03  0.10407802691E+04  0.14568859170E+04  0.46999998093E+01 0. -1.
       -5    1    3    3    0  502  0.68668933086E+03 -0.75347772337E+03 -0.52635925187E+03  0.11473216937E+04  0.46999998093E+01 0.  1.
</event>
<event>
 5   0  0.4811500E-07  0.3765481E+04  0.7818609E-02  0.8053603E-01
        1   -1    0    0  501    0  0.00000000000E+00  0.00000000000E+00  0.14521722295E+04  0.14521722295E+04  0.50400001928E-02 0.  1.
       -1   -1    0    0    0  501  0.00000000000E+00  0.00000000000E+00 -0.24409722714E+04  0.24409722714E+04  0.50400001928E-02 0. -1.
    10030    2    1    2    0    0  0.00000000000E+00  0.00000000000E+00 -0.98880004188E+03  0.38931445009E+04  0.37654811887E+04 0.  0.
        2    1    3    3  502    0 -0.14249072948E+04  0.47973821898E+03 -0.16660470934E+04  0.22441529527E+04  0.25500000920E-02 0. -1.
       -2    1    3    3    0  502  0.14249072948E+04 -0.47973821898E+03  0.67724705149E+03  0.16489915483E+04  0.25500000920E-02 0.  1.
</event>
<event>
 5   0  0.5071661E-07  0.3639830E+04  0.7818609E-02  0.8081429E-01
       -1   -1    0    0    0  501  0.00000000000E+00  0.00000000000E+00  0.15528632968E+04  0.15528632968E+04  0.50400001928E-02 0. -1.
        1   -1    0    0  501    0  0.00000000000E+00  0.00000000000E+00 -0.21328923877E+04  0.21328923877E+04  0.50400001928E-02 0.  1.
    10030    2    1    2    0    0  0.00000000000E+00  0.00000000000E+00 -0.58002909089E+03  0.36857556845E+04  0.36398298339E+04 0.  0.
        1    1    3    3  502    0  0.12481437376E+04 -0.83529890096E+03  0.75081805052E+03  0.16790815312E+04  0.50400001928E-02 0. -1.
       -1    1    3    3    0  502 -0.12481437376E+04  0.83529890096E+03 -0.13308471414E+04  0.20066741533E+04  0.50400001928E-02 0.  1.
</event>
<event>
 5   0  0.1468942E-06  0.3561933E+04  0.7818609E-02  0.8099267E-01
        2   -1    0    0  501    0  0.00000000000E+00  0.00000000000E+00  0.12170605652E+04  0.12170605652E+04  0.25500000920E-02 0.  1.
       -2   -1    0    0    0  501  0.00000000000E+00  0.00000000000E+00 -0.26061498322E+04  0.26061498322E+04  0.25500000920E-02 0. -1.
    10030    2    1    2    0    0  0.00000000000E+00  0.00000000000E+00 -0.13890892670E+04  0.38232103974E+04  0.35619332884E+04 0.  0.
        2    1    3    3  502    0  0.12847259987E+04  0.44456502505E+03  0.54036293238E+03  0.14629255114E+04  0.25500000920E-02 0.  1.
       -2    1    3    3    0  502 -0.12847259987E+04 -0.44456502505E+03 -0.19294521994E+04  0.23602848860E+04  0.25500000920E-02 0. -1.
</event>
<event>
 5   0  0.5071661E-07  0.3509681E+04  0.7818609E-02  0.8111499E-01
       -1   -1    0    0    0  501  0.00000000000E+00  0.00000000000E+00  0.11851262946E+04  0.11851262946E+04  0.50400001928E-02 0.  1.
        1   -1    0    0  501    0  0.00000000000E+00  0.00000000000E+00 -0.25984281761E+04  0.25984281761E+04  0.50400001928E-02 0. -1.
    10030    2    1    2    0    0  0.00000000000E+00  0.00000000000E+00 -0.14133018815E+04  0.37835544707E+04  0.35096812141E+04 0.  0.
        1    1    3    3  502    0  0.16443828885E+04  0.34841164620E+03 -0.12500481283E+04  0.20947568074E+04  0.50400001928E-02 0. -1.
       -1    1    3    3    0  502 -0.16443828885E+04 -0.34841164620E+03 -0.16325375322E+03  0.16887976632E+04  0.50400001928E-02 0.  1.
</event>
<event>
 5   0  0.1491854E-06  0.3538044E+04  0.7818609E-02  0.8104833E-01
       -2   -1    0    0    0  501  0.00000000000E+00  0.00000000000E+00  0.13194272691E+04  0.13194272691E+04  0.25500000920E-02 0. -1.
        2   -1    0    0  501    0  0.00000000000E+00  0.00000000000E+00 -0.23718163177E+04  0.23718163177E+04  0.25500000920E-02 0.  1.
    10030    2    1    2    0    0  0.00000000000E+00  0.00000000000E+00 -0.10523890486E+04  0.36912435868E+04  0.35380441641E+04 0.  0.
        5    1    3    3  502    0 -0.14113522046E+04 -0.34352600696E+03 -0.15796139917E+04  0.21459561076E+04  0.46999998093E+01 0.  1.
       -5    1    3    3    0  502  0.14113522046E+04  0.34352600696E+03  0.52722494310E+03  0.15452874792E+04  0.46999998093E+01 0. -1.
</event>
<event>
 5   0  0.4811500E-07  0.3630314E+04  0.7818609E-02  0.8083583E-01
        1   -1    0    0  501    0  0.00000000000E+00  0.00000000000E+00  0.10817702047E+04  0.10817702047E+04  0.50400001928E-02 0. -1.
       -1   -1    0    0    0  501  0.00000000000E+00  0.00000000000E+00 -0.30457435788E+04  0.30457435788E+04  0.50400001928E-02 0.  1.
    10030    2    1    2    0    0  0.00000000000E+00  0.00000000000E+00 -0.19639733741E+04  0.41275137835E+04  0.36303138458E+04 0.  0.
        3    1    3    3  502    0  0.44566131722E+03 -0.87418957105E+03  0.75423885277E+03  0.12376177411E+04  0.10100000352E+00 0. -1.
       -3    1    3    3    0  502 -0.44566131722E+03  0.87418957105E+03 -0.27182122269E+04  0.28898960425E+04  0.10100000352E+00 0.  1.
</event>
<event>
 5   0  0.4811500E-07  0.3685690E+04  0.7818609E-02  0.8071140E-01
        1   -1    0    0  501    0  0.00000000000E+00  0.00000000000E+00  0.29972859035E+04  0.29972859035E+04  0.50400001928E-02 0.  1.
       -1   -1    0    0    0  501  0.00000000000E+00  0.00000000000E+00 -0.11330510941E+04  0.11330510941E+04  0.50400001928E-02 0. -1.
    10030    2    1    2    0    0  0.00000000000E+00  0.00000000000E+00  0.18642348094E+04  0.41303369977E+04  0.36856902053E+04 0.  0.
        5    1    3    3  502    0 -0.80519685202E+02 -0.97975823598E+03  0.26788973296E+04  0.28535806652E+04  0.46999998093E+01 0.  1.
       -5    1    3    3    0  502  0.80519685202E+02  0.97975823598E+03 -0.81466252015E+03  0.12767563324E+04  0.46999998093E+01 0. -1.
</event>
<event>
 5   0  0.4811500E-07  0.3607174E+04  0.7818609E-02  0.8088850E-01
        1   -1    0    0  501    0  0.00000000000E+00  0.00000000000E+00  0.24200402271E+04  0.24200402272E+04  0.50400001928E-02 0.  1.
       -1   -1    0    0    0  501  0.00000000000E+00  0.00000000000E+00 -0.13441621331E+04  0.13441621331E+04  0.50400001928E-02 0. -1.
    10030    2    1    2    0    0  0.00000000000E+00  0.00000000000E+00  0.10758780940E+04  0.37642023603E+04  0.36071742037E+04 0.  0.
        5    1    3    3  502    0 -0.14717450760E+04 -0.68655750535E+03  0.13566361433E+04  0.21160998304E+04  0.46999998093E+01 0.  1.
       -5    1    3    3    0  502  0.14717450760E+04  0.68655750535E+03 -0.28075804926E+03  0.16481025299E+04  0.46999998093E+01 0. -1.
</event>
<event>
 5   0  0.1468942E-06  0.3946894E+04  0.7818609E-02  0.8015346E-01
        2   -1    0    0  501    0  0.00000000000E+00  0.00000000000E+00  0.16456161801E+04  0.16456161801E+04  0.25500000920E-02 0.  1.
       -2   -1    0    0    0  501  0.00000000000E+00  0.00000000000E+00 -0.23665859314E+04  0.23665859314E+04  0.25500000920E-02 0. -1.
    10030    2    1    2    0    0  0.00000000000E+00  0.00000000000E+00 -0.72096975137E+03  0.40122021115E+04  0.39468935128E+04 0.  0.
        2    1    3    3  502    0  0.10746404284E+02 -0.85983994251E+03 -0.21661227091E+04  0.23305638379E+04  0.25500000920E-02 0. -1.
       -2    1    3    3    0  502 -0.10746404284E+02  0.85983994251E+03  0.14451529577E+04  0.16816382736E+04  0.25500000920E-02 0.  1.
</event>
<event>
 5   0  0.4811500E-07  0.3640288E+04  0.7818609E-02  0.8081325E-01
       -1   -1    0    0    0  501  0.00000000000E+00  0.00000000000E+00  0.13650972379E+04  0.13650972379E+04  0.50400001928E-02 0.  1.
        1   -1    0    0  501    0  0.00000000000E+00  0.00000000000E+00 -0.24268782492E+04  0.24268782492E+04  0.50400001928E-02 0. -1.
    10030    2    1    2    0    0  0.00000000000E+00  0.00000000000E+00 -0.10617810113E+04  0.37919754871E+04  0.36402883373E+04 0.  0.
        5    1    3    3  502    0 -0.14616541558E+04 -0.28940836499E+03  0.55799625824E+03  0.15910914452E+04  0.46999998093E+01 0.  1.
       -5    1    3    3    0  502  0.14616541558E+04  0.28940836499E+03 -0.16197772696E+04  0.22008840419E+04  0.46999998093E+01 0. -1.
</event>
<event>
 5   0  0.5071661E-07  0.3540530E+04  0.7818609E-02  0.8104252E-01
       -1   -1    0    0    0  501  0.00000000000E+00  0.00000000000E+00  0.14599214960E+04  0.14599214960E+04  0.50400001928E-02 0. -1.
        1   -1    0    0  501    0  0.00000000000E+00  0.00000000000E+00 -0.21465797653E+04  0.21465797653E+04  0.50400001928E-02 0.  1.
    10030    2    1    2    0    0  0.00000000000E+00  0.00000000000E+00 -0.68665826930E+03  0.36065012613E+04  0.35405298712E+04 0.  0.
        1    1    3    3  502    0 -0.97321103916E+02 -0.10353115324E+04  0.11160194666E+04  0.15253985762E+04  0.50400001928E-02 0. -1.
       -1    1    3    3    0  502  0.97321103916E+02  0.10353115324E+04 -0.18026777359E+04  0.20811026851E+04  0.50400001928E-02 0.  1.
</event>
<event>
 5   0  0.1468942E-06  0.3606887E+04  0.7818609E-02  0.8088916E-01
       -2   -1    0    0    0  501  0.00000000000E+00  0.00000000000E+00  0.13539580292E+04  0.13539580292E+04  0.25500000920E-02 0. -1.
        2   -1    0    0  501    0  0.00000000000E+00  0.00000000000E+00 -0.24021488874E+04  0.24021488874E+04  0.25500000920E-02 0.  1.
    10030    2    1    2    0    0  0.00000000000E+00  0.00000000000E+00 -0.10481908583E+04  0.37561069166E+04  0.36068871750E+04 0.  0.
        2    1    3    3  502    0 -0.13496526244E+04  0.54665938559E+03 -0.16320718950E+04  0.21872488110E+04  0.25500000920E-02 0.  1.
       -2    1    3    3    0  502  0.13496526244E+04 -0.54665938559E+03  0.58388103679E+03  0.15688581056E+04  0.25500000920E-02 0. -1.
</event>
<event>
 5   0  0.4811500E-07  0.2872590E+04  0.7818609E-02  0.8281080E-01
        1   -1    0    0  501    0  0.00000000000E+00  0.00000000000E+00  0.23709861831E+04  0.23709861832E+04  0.50400001928E-02 0.  1.
       -1   -1    0    0    0  501  0.00000000000E+00  0.00000000000E+00 -0.87007844077E+03  0.87007844078E+03  0.50400001928E-02 0. -1.
    10030    2    1    2    0    0  0.00000000000E+00  0.00000000000E+00  0.15009077424E+04  0.32410646239E+04  0.28725904416E+04 0.  0.
        2    1    3    3  502    0  0.13080110181E+04  0.24918029983E+03  0.14290214124E+03  0.13391805954E+04  0.25500000920E-02 0.  1.
       -2    1    3    3    0  502 -0.13080110181E+04 -0.24918029983E+03  0.13580056011E+04  0.19018840285E+04  0.25500000920E-02 0. -1.
</event>
<event>
 5   0  0.4811500E-07  0.3568467E+04  0.7818609E-02  0.8097753E-01
       -1   -1    0    0    0  501  0.00000000000E+00  0.00000000000E+00  0.16323187032E+04  0.16323187032E+04  0.50400001928E-02 0.  1.
        1   -1    0    0  501    0  0.00000000000E+00  0.00000000000E+00 -0.19502865259E+04  0.19502865259E+04  0.50400001928E-02 0. -1.
    10030    2    1    2    0    0  0.00000000000E+00  0.00000000000E+00 -0.31796782266E+03  0.35826052291E+04  0.35684669945E+04 0.  0.
        2    1    3    3  502    0  0.79436652805E+03  0.36013583107E+03  0.14037090265E+04  0.16526085528E+04  0.25500000920E-02 0.  1.
       -2    1    3    3    0  502 -0.79436652805E+03 -0.36013583107E+03 -0.17216768491E+04  0.19299966763E+04  0.25500000920E-02 0. -1.
</event>
<event>
 5   0  0.4811500E-07  0.2548635E+04  0.7818609E-02  0.8385861E-01
       -1   -1    0    0    0  501  0.00000000000E+00  0.00000000000E+00  0.10691752417E+04  0.10691752417E+04  0.50400001928E-02 0.  1.
        1   -1    0    0  501    0  0.00000000000E+00  0.00000000000E+00 -0.15188202478E+04  0.15188202478E+04  0.50400001928E-02 0. -1.
    10030    2    1    2    0    0  0.00000000000E+00  0.00000000000E+00 -0.44964500618E+03  0.25879954895E+04  0.25486349331E+04 0.  0.
        4    1    3    3  502    0  0.12089017633E+04 -0.34865999900E+03 -0.43012334973E+03  0.13296672430E+04  0.12699999809E+01 0.  1.
       -4    1    3    3    0  502 -0.12089017633E+04  0.34865999900E+03 -0.19521656448E+02  0.12583282466E+04  0.12699999809E+01 0. -1.
</event>
<event>
 5   0  0.4811500E-07  0.3506456E+04  0.7818609E-02  0.8112262E-01
        1   -1    0    0  501    0  0.00000000000E+00  0.00000000000E+00  0.20245298909E+04  0.20245298909E+04  0.50400001928E-02 0. -1.
       -1   -1    0    0    0  501  0.00000000000E+00  0.00000000000E+00 -0.15182828820E+04  0.15182828820E+04  0.50400001928E-02 0.  1.
    10030    2    1    2    0    0  0.00000000000E+00  0.00000000000E+00  0.50624700892E+03  0.35428127729E+04  0.35064563750E+04 0.  0.
        4    1    3    3  502    0 -0.12855659659E+04  0.10371838806E+04  0.84690491898E+03  0.18562542416E+04  0.12699999809E+01 0. -1.
       -4    1    3    3    0  502  0.12855659659E+04 -0.10371838806E+04 -0.34065791006E+03  0.16865585313E+04  0.12699999809E+01 0.  1.
</event>
<event>
 5   0  0.4811500E-07  0.3517899E+04  0.7818609E-02  0.8109561E-01
        1   -1    0    0  501    0  0.00000000000E+00  0.00000000000E+00  0.16986940795E+04  0.16986940795E+04  0.50400001928E-02 0.  1.
       -1   -1    0    0    0  501  0.00000000000E+00  0.00000000000E+00 -0.18213422899E+04  0.18213422899E+04  0.50400001928E-02 0. -1.
    10030    2    1    2    0    0  0.00000000000E+00  0.00000000000E+00 -0.12264821044E+03  0.35200363694E+04  0.35178990119E+04 0.  0.
        5    1    3    3  502    0 -0.25447296619E+02  0.89315426188E+03 -0.15773384093E+04  0.18128404916E+04  0.46999998093E+01 0. -1.
       -5    1    3    3    0  502  0.25447296619E+02 -0.89315426188E+03  0.14546901989E+04  0.17071958778E+04  0.46999998093E+01 0.  1.
</event>
<event>
 5   0  0.4811500E-07  0.3586504E+04  0.7818609E-02  0.8093590E-01
       -1   -1    0    0    0  501  0.00000000000E+00  0.00000000000E+00  0.17065122577E+04  0.17065122577E+04  0.50400001928E-02 0. -1.
        1   -1    0    0  501    0  0.00000000000E+00  0.00000000000E+00 -0.18844003796E+04  0.18844003796E+04  0.50400001928E-02 0.  1.
    10030    2    1    2    0    0  0.00000000000E+00  0.00000000000E+00 -0.17788812191E+03  0.35909126374E+04  0.35865037830E+04 0.  0.
        3    1    3    3  502    0  0.16200416696E+04 -0.25150101596E+02  0.68049579377E+03  0.17573394875E+04  0.10100000352E+00 0. -1.
       -3    1    3    3    0  502 -0.16200416696E+04  0.25150101596E+02 -0.85838391568E+03  0.18335731498E+04  0.10100000352E+00 0.  1.
</event>
<event>
 5   0  0.1505671E-06  0.2395912E+04  0.7818609E-02  0.8441036E-01
        2   -1    0    0  501    0  0.00000000000E+00  0.00000000000E+00  0.16969758095E+04  0.16969758095E+04  0.25500000920E-02 0.  1.
       -2   -1    0    0    0  501  0.00000000000E+00  0.00000000000E+00 -0.84568025591E+03  0.84568025591E+03  0.25500000920E-02 0. -1.
    10030    2    1    2    0    0  0.00000000000E+00  0.00000000000E+00  0.85129555356E+03  0.25426560654E+04  0.23959122996E+04 0.  0.
        3    1    3    3  502    0 -0.97275896714E+01 -0.66301211277E+03  0.14844618792E+04  0.16258249502E+04  0.10100000352E+00 0.  1.
       -3    1    3    3    0  502  0.97275896714E+01  0.66301211277E+03 -0.63316632562E+03  0.91683111520E+03  0.10100000352E+00 0. -1.
</event>
<event>
 5   0  0.4811500E-07  0.3594895E+04  0.7818609E-02  0.8091662E-01
       -1   -1    0    0    0  501  0.00000000000E+00  0.00000000000E+00  0.23468251535E+04  0.23468251535E+04  0.50400001928E-02 0. -1.
        1   -1    0    0  501    0  0.00000000000E+00  0.00000000000E+00 -0.13766758550E+04  0.13766758550E+04  0.50400001928E-02 0.  1.
    10030    2    1    2    0    0  0.00000000000E+00  0.00000000000E+00  0.97014929852E+03  0.37235010086E+04  0.35948950053E+04 0.  0.
        5    1    3    3  502    0  0.16097993433E+04  0.44427589578E+03 -0.20350940702E+03  0.16823415723E+04  0.46999998093E+01 0.  1.
       -5    1    3    3    0  502 -0.16097993433E+04 -0.44427589578E+03  0.11736587055E+04  0.20411594363E+04  0.46999998093E+01 0. -1.
</event>
<event>
 5   0  0.1379425E-06  0.3514156E+04  0.7818609E-02  0.8110443E-01
        2   -1    0    0  501    0  0.00000000000E+00  0.00000000000E+00  0.22215317281E+04  0.22215317281E+04  0.25500000920E-02 0. -1.
       -2   -1    0    0    0  501  0.00000000000E+00  0.00000000000E+00 -0.13897268371E+04  0.13897268371E+04  0.25500000920E-02 0.  1.
    10030    2    1    2    0    0  0.00000000000E+00  0.00000000000E+00  0.83180489102E+03  0.36112585651E+04  0.35141555241E+04 0.  0.
        4    1    3    3  502    0 -0.31156997903E+03 -0.13263500974E+04  0.15560832560E+04  0.20682546132E+04  0.12699999809E+01 0. -1.
       -4    1    3    3    0  502  0.31156997903E+03  0.13263500974E+04 -0.72427836498E+03  0.15430039519E+04  0.12699999809E+01 0.  1.
</event>
<event>
 5   0  0.4811500E-07  0.2710700E+04  0.7818609E-02  0.8331542E-01
        1   -1    0    0  501    0  0.00000000000E+00  0.00000000000E+00  0.14280769053E+04  0.14280769053E+04  0.50400001928E-02 0. -1.
       -1   -1    0    0    0  501  0.00000000000E+00  0.00000000000E+00 -0.12863268696E+04  0.12863268696E+04  0.50400001928E-02 0.  1.
    10030    2    1    2    0    0  0.00000000000E+00  0.00000000000E+00  0.14175003565E+03  0.27144037749E+04  0.27107000536E+04 0.  0.
        3    1    3    3  502    0  0.17167959112E+03  0.11676897294E+04  0.73811907621E+03  0.13920463236E+04  0.10100000352E+00 0. -1.
       -3    1    3    3    0  502 -0.17167959112E+03 -0.11676897294E+04 -0.59636904056E+03  0.13223574513E+04  0.10100000352E+00 0.  1.
</event>
<event>
 5   0  0.4811500E-07  0.2548064E+04  0.7818609E-02  0.8386060E-01
       -1   -1    0    0    0  501  0.00000000000E+00  0.00000000000E+00  0.10011760388E+04  0.10011760388E+04  0.50400001928E-02 0. -1.
        1   -1    0    0  501    0  0.00000000000E+00  0.00000000000E+00 -0.16212511110E+04  0.16212511110E+04  0.50400001928E-02 0.  1.
    10030    2    1    2    0    0  0.00000000000E+00  0.00000000000E+00 -0.62007507219E+03  0.26224271498E+04  0.25480641791E+04 0.  0.
        2    1    3    3  502    0  0.12068617722E+04 -0.15970432743E+03  0.76608393729E+02  0.12197908245E+04  0.25500000920E-02 0. -1.
       -2    1    3    3    0  502 -0.12068617722E+04  0.15970432743E+03 -0.69668346592E+03  0.14026363253E+04  0.25500000920E-02 0.  1.
</event>
<event>
 5   0  0.4811500E-07  0.2847710E+04  0.7818609E-02  0.8288607E-01
        3   -1    0    0  501    0  0.00000000000E+00  0.00000000000E+00  0.15902009065E+04  0.15902009097E+04  0.10100000352E+00 0. -1.
       -3   -1    0    0    0  501  0.00000000000E+00  0.00000000000E+00 -0.12749103245E+04  0.12749103285E+04  0.10100000352E+00 0.  1.
    10030    2    1    2    0    0  0.00000000000E+00  0.00000000000E+00  0.31529058199E+03  0.28651112383E+04  0.28477103533E+04 0.  0.
        3    1    3    3  502    0 -0.21074676005E+03  0.10100079325E+04  0.11448818566E+04  0.15411958657E+04  0.10100000352E+00 0. -1.
       -3    1    3    3    0  502  0.21074676005E+03 -0.10100079325E+04 -0.82959127461E+03  0.13239153726E+04  0.10100000352E+00 0.  1.
</event>
<event>
 5   0  0.1444091E-06  0.3589609E+04  0.7818609E-02  0.8092876E-01
       -2   -1    0    0    0  501  0.00000000000E+00  0.00000000000E+00  0.10791680746E+04  0.10791680746E+04  0.25500000920E-02 0.  1.
        2   -1    0    0  501    0  0.00000000000E+00  0.00000000000E+00 -0.29850053581E+04  0.29850053581E+04  0.25500000920E-02 0. -1.
    10030    2    1    2    0    0  0.00000000000E+00  0.00000000000E+00 -0.19058372834E+04  0.40641734327E+04  0.35896086054E+04 0.  0.
        1    1    3    3  502    0  0.10611345197E+04  0.47268312452E+03 -0.25019667719E+04  0.27584911696E+04  0.50400001928E-02 0. -1.
       -1    1    3    3    0  502 -0.10611345197E+04 -0.47268312452E+03  0.59612948850E+03  0.13056822631E+04  0.50400001928E-02 0.  1.
</event>
<event>
 5   0  0.1505671E-06  0.3480847E+04  0.7818609E-02  0.8118344E-01
        2   -1    0    0  501    0  0.00000000000E+00  0.00000000000E+00  0.26347381921E+04  0.26347381921E+04  0.25500000920E-02 0.  1.
       -2   -1    0    0    0  501  0.00000000000E+00  0.00000000000E+00 -0.11496678381E+04  0.11496678381E+04  0.25500000920E-02 0. -1.
    10030    2    1    2    0    0  0.00000000000E+00  0.00000000000E+00  0.14850703540E+04  0.37844060303E+04  0.34808468863E+04 0.  0.
        3    1    3    3  502    0 -0.39307475471E+03 -0.10100906547E+04 -0.73793886605E+03  0.13112378403E+04  0.10100000352E+00 0. -1.
       -3    1    3    3    0  502  0.39307475471E+03  0.10100906547E+04  0.22230092200E+04  0.24731681900E+04  0.10100000352E+00 0.  1.
</event>
<event>
 5   0  0.1444091E-06  0.3560814E+04  0.7818609E-02  0.8099527E-01
       -2   -1    0    0    0  501  0.00000000000E+00  0.00000000000E+00  0.15425035887E+04  0.15425035887E+04  0.25500000920E-02 0. -1.
        2   -1    0    0  501    0  0.00000000000E+00  0.00000000000E+00 -0.20550027337E+04  0.20550027337E+04  0.25500000920E-02 0.  1.
    10030    2    1    2    0    0  0.00000000000E+00  0.00000000000E+00 -0.51249914501E+03  0.35975063224E+04  0.35608140033E+04 0.  0.
        1    1    3    3  502    0  0.12924059628E+04  0.20777599387E+03 -0.14754845171E+04  0.19724448272E+04  0.50400001928E-02 0.  1.
       -1    1    3    3    0  502 -0.12924059628E+04 -0.20777599387E+03  0.96298537204E+03  0.16250614952E+04  0.50400001928E-02 0. -1.
</event>
<event>
 5   0  0.1505671E-06  0.3681378E+04  0.7818609E-02  0.8072101E-01
       -2   -1    0    0    0  501  0.00000000000E+00  0.00000000000E+00  0.17301034006E+04  0.17301034006E+04  0.25500000920E-02 0. -1.
        2   -1    0    0  501    0  0.00000000000E+00  0.00000000000E+00 -0.19583431818E+04  0.19583431818E+04  0.25500000920E-02 0.  1.
    10030    2    1    2    0    0  0.00000000000E+00  0.00000000000E+00 -0.22823978121E+03  0.36884465824E+04  0.36813781106E+04 0.  0.
        3    1    3    3  502    0  0.12920807592E+04 -0.79143763769E+02  0.11969796109E+04  0.17630929138E+04  0.10100000352E+00 0. -1.
       -3    1    3    3    0  502 -0.12920807592E+04  0.79143763769E+02 -0.14252193921E+04  0.19253536686E+04  0.10100000352E+00 0.  1.
</event>
<event>
 5   0  0.1468942E-06  0.3632524E+04  0.7818609E-02  0.8083082E-01
       -2   -1    0    0    0  501  0.00000000000E+00  0.00000000000E+00  0.21086208717E+04  0.21086208717E+04  0.25500000920E-02 0. -1.
        2   -1    0    0  501    0  0.00000000000E+00  0.00000000000E+00 -0.15644388804E+04  0.15644388804E+04  0.25500000920E-02 0.  1.
    10030    2    1    2    0    0  0.00000000000E+00  0.00000000000E+00  0.54418199128E+03  0.36730597521E+04  0.36325244532E+04 0.  0.
        2    1    3    3  502    0  0.17109180654E+04 -0.22549278465E-01 -0.34427477264E+03  0.17452122352E+04  0.25500000920E-02 0.  1.
       -2    1    3    3    0  502 -0.17109180654E+04  0.22549278465E-01  0.88845676392E+03  0.19278475169E+04  0.25500000920E-02 0. -1.
</event>
<event>
 5   0  0.1444091E-06  0.3589654E+04  0.7818609E-02  0.8092866E-01
        2   -1    0    0  501    0  0.00000000000E+00  0.00000000000E+00  0.19002445246E+04  0.19002445246E+04  0.25500000920E-02 0. -1.
       -2   -1    0    0    0  501  0.00000000000E+00  0.00000000000E+00 -0.16952578064E+04  0.16952578064E+04  0.25500000920E-02 0.  1.
    10030    2    1    2    0    0  0.00000000000E+00  0.00000000000E+00  0.20498671824E+03  0.35955023310E+04  0.35896542254E+04 0.  0.
        1    1    3    3  502    0  0.11162429001E+03  0.10511644857E+04 -0.13503860819E+04  0.17149196273E+04  0.50400001928E-02 0.  1.
       -1    1    3    3    0  502 -0.11162429001E+03 -0.10511644857E+04  0.15553728001E+04  0.18805827037E+04  0.50400001928E-02 0. -1.
</event>
<event>
 5   0  0.4811500E-07  0.3639369E+04  0.7818609E-02  0.8081533E-01
        1   -1    0    0  501    0  0.00000000000E+00  0.00000000000E+00  0.25009630187E+04  0.25009630187E+04  0.50400001928E-02 0.  1.
       -1   -1    0    0    0  501  0.00000000000E+00  0.00000000000E+00 -0.13239908285E+04  0.13239908285E+04  0.50400001928E-02 0. -1.
    10030    2    1    2    0    0  0.00000000000E+00  0.00000000000E+00  0.11769721902E+04  0.38249538472E+04  0.36393692306E+04 0.  0.
        5    1    3    3  502    0  0.75426253643E+03 -0.69843852082E+03 -0.98958062370E+03  0.14268918116E+04  0.46999998093E+01 0. -1.
       -5    1    3    3    0  502 -0.75426253643E+03  0.69843852082E+03  0.21665528139E+04  0.23980620356E+04  0.46999998093E+01 0.  1.
</event>
<event>
 5   0  0.4811500E-07  0.3076405E+04  0.7818609E-02  0.8222243E-01
       -1   -1    0    0    0  501  0.00000000000E+00  0.00000000000E+00  0.20041136483E+04  0.20041136483E+04  0.50400001928E-02 0.  1.
        1   -1    0    0  501    0  0.00000000000E+00  0.00000000000E+00 -0.11806050880E+04  0.11806050880E+04  0.50400001928E-02 0. -1.
    10030    2    1    2    0    0  0.00000000000E+00  0.00000000000E+00  0.82350856035E+03  0.31847187363E+04  0.30764048954E+04 0.  0.
        5    1    3    3  502    0  0.93696260975E+03  0.12194077192E+04  0.37603491912E+03  0.15831230110E+04  0.46999998093E+01 0. -1.
       -5    1    3    3    0  502 -0.93696260975E+03 -0.12194077192E+04  0.44747364122E+03  0.16015957253E+04  0.46999998093E+01 0.  1.
</event>
<event>
 5   0  0.1468942E-06  0.2387779E+04  0.7818609E-02  0.8444093E-01
        2   -1    0    0  501    0  0.00000000000E+00  0.00000000000E+00  0.12283415990E+04  0.12283415990E+04  0.25500000920E-02 0. -1.
       -2   -1    0    0    0  501  0.00000000000E+00  0.00000000000E+00 -0.11604032696E+04  0.11604032696E+04  0.25500000920E-02 0.  1.
    10030    2    1    2    0    0  0.00000000000E+00  0.00000000000E+00  0.67938329341E+02  0.23887448686E+04  0.23877785556E+04 0.  0.
        2    1    3    3  502    0  0.50901142439E+03 -0.66565044742E+03 -0.81677986637E+03  0.11701762681E+04  0.25500000920E-02 0.  1.
       -2    1    3    3    0  502 -0.50901142439E+03  0.66565044742E+03  0.88471819572E+03  0.12185686005E+04  0.25500000920E-02 0. -1.
</event>
<event>
 5   0  0.4811500E-07  0.2868093E+04  0.7818609E-02  0.8282434E-01
        1   -1    0    0  501    0  0.00000000000E+00  0.00000000000E+00  0.16125384728E+04  0.16125384728E+04  0.50400001928E-02 0.  1.
       -1   -1    0    0    0  501  0.00000000000E+00  0.00000000000E+00 -0.12753122507E+04  0.12753122507E+04  0.50400001928E-02 0. -1.
    10030    2    1    2    0    0  0.00000000000E+00  0.00000000000E+00  0.33722622215E+03  0.28878507235E+04  0.28680934915E+04 0.  0.
        3    1    3    3  502    0 -0.29265912512E+03 -0.10064641623E+04  0.11540637032E+04  0.15590004858E+04  0.10100000352E+00 0.  1.
       -3    1    3    3    0  502  0.29265912512E+03  0.10064641623E+04 -0.81683748105E+03  0.13288502377E+04  0.10100000352E+00 0. -1.
</event>
<event>
 5   0  0.4811500E-07  0.3587716E+04  0.7818609E-02  0.8093311E-01
       -1   -1    0    0    0  501  0.00000000000E+00  0.00000000000E+00  0.10497918097E+04  0.10497918097E+04  0.50400001928E-02 0.  1.
        1   -1    0    0  501    0  0.00000000000E+00  0.00000000000E+00 -0.30652990398E+04  0.30652990399E+04  0.50400001928E-02 0. -1.
    10030    2    1    2    0    0  0.00000000000E+00  0.00000000000E+00 -0.20155072302E+04  0.41150908496E+04  0.35877156110E+04 0.  0.
        3    1    3    3  502    0  0.56144647218E+03 -0.62627031983E+03  0.80960482686E+03  0.11674316428E+04  0.10100000352E+00 0.  1.
       -3    1    3    3    0  502 -0.56144647218E+03  0.62627031983E+03 -0.28251120570E+04  0.29476592068E+04  0.10100000352E+00 0. -1.
</event>
<event>
 5   0  0.1491854E-06  0.3575949E+04  0.7818609E-02  0.8096023E-01
        2   -1    0    0  501    0  0.00000000000E+00  0.00000000000E+00  0.20696653997E+04  0.20696653997E+04  0.25500000920E-02 0. -1.
       -2   -1    0    0    0  501  0.00000000000E+00  0.00000000000E+00 -0.15446227658E+04  0.15446227658E+04  0.25500000920E-02 0.  1.
    10030    2    1    2    0    0  0.00000000000E+00  0.00000000000E+00  0.52504263387E+03  0.36142881655E+04  0.35759487099E+04 0.  0.
        5    1    3    3  502    0  0.26666858887E+02 -0.17870190629E+04  0.21017851610E+03  0.17995403166E+04  0.46999998093E+01 0.  1.
       -5    1    3    3    0  502 -0.26666858887E+02  0.17870190629E+04  0.31486411777E+03  0.18147478489E+04  0.46999998093E+01 0. -1.
</event>
<event>
 5   0  0.1505671E-06  0.3617670E+04  0.7818609E-02  0.8086456E-01
       -2   -1    0    0    0  501  0.00000000000E+00  0.00000000000E+00  0.16614959568E+04  0.16614959568E+04  0.25500000920E-02 0.  1.
        2   -1    0    0  501    0  0.00000000000E+00  0.00000000000E+00 -0.19692396546E+04  0.19692396546E+04  0.25500000920E-02 0. -1.
    10030    2    1    2    0    0  0.00000000000E+00  0.00000000000E+00 -0.30774369785E+03  0.36307356114E+04  0.36176698158E+04 0.  0.
        3    1    3    3  502    0  0.81784082126E+03  0.15711202104E+04 -0.52207751751E+03  0.18465771765E+04  0.10100000352E+00 0.  1.
       -3    1    3    3    0  502 -0.81784082126E+03 -0.15711202104E+04  0.21433381966E+03  0.17841584349E+04  0.10100000352E+00 0. -1.
</event>
<event>
 5   0  0.4811500E-07  0.3610298E+04  0.7818609E-02  0.8088137E-01
        1   -1    0    0  501    0  0.00000000000E+00  0.00000000000E+00  0.27514229998E+04  0.27514229998E+04  0.50400001928E-02 0.  1.
       -1   -1    0    0    0  501  0.00000000000E+00  0.00000000000E+00 -0.11843193543E+04  0.11843193543E+04  0.50400001928E-02 0. -1.
    10030    2    1    2    0    0  0.00000000000E+00  0.00000000000E+00  0.15671036456E+04  0.39357423541E+04  0.36102983314E+04 0.  0.
        5    1    3    3  502    0  0.25774939492E+03 -0.27521464537E+03  0.27080062414E+04  0.27341356486E+04  0.46999998093E+01 0.  1.
       -5    1    3    3    0  502 -0.25774939492E+03  0.27521464537E+03 -0.11409025958E+04  0.12016067055E+04  0.46999998093E+01 0. -1.
</event>
<event>
 5   0  0.1468942E-06  0.3584206E+04  0.7818609E-02  0.8094119E-01
        2   -1    0    0  501    0  0.00000000000E+00  0.00000000000E+00  0.14014568200E+04  0.14014568200E+04  0.25500000920E-02 0. -1.
       -2   -1    0    0    0  501  0.00000000000E+00  0.00000000000E+00 -0.22916391658E+04  0.22916391658E+04  0.25500000920E-02 0.  1.
    10030    2    1    2    0    0  0.00000000000E+00  0.00000000000E+00 -0.89018234588E+03  0.36930959858E+04  0.35842060978E+04 0.  0.
        2    1    3    3  502    0  0.45513863554E+03 -0.29931230280E+03  0.13140837557E+04  0.14225171876E+04  0.25500000920E-02 0. -1.
       -2    1    3    3    0  502 -0.45513863554E+03  0.29931230280E+03 -0.22042661016E+04  0.22705787982E+04  0.25500000920E-02 0.  1.
</event>
<event>
 5   0  0.5071661E-07  0.3584535E+04  0.7818609E-02  0.8094043E-01
       -1   -1    0    0    0  501  0.00000000000E+00  0.00000000000E+00  0.23066636337E+04  0.23066636337E+04  0.50400001928E-02 0. -1.
        1   -1    0    0  501    0  0.00000000000E+00  0.00000000000E+00 -0.13925836747E+04  0.13925836747E+04  0.50400001928E-02 0.  1.
    10030    2    1    2    0    0  0.00000000000E+00  0.00000000000E+00  0.91407995896E+03  0.36992473084E+04  0.35845346249E+04 0.  0.
        1    1    3    3  502    0 -0.45255125307E+03  0.41494993538E+03 -0.12806616028E+04  0.14202394961E+04  0.50400001928E-02 0.  1.
       -1    1    3    3    0  502  0.45255125307E+03 -0.41494993538E+03  0.21947415617E+04  0.22790078122E+04  0.50400001928E-02 0. -1.
</event>
<event>
 5   0  0.4811500E-07  0.3582627E+04  0.7818609E-02  0.8094483E-01
       -3   -1    0    0    0  501  0.00000000000E+00  0.00000000000E+00  0.21450365720E+04  0.21450365744E+04  0.10100000352E+00 0. -1.
        3   -1    0    0  501    0  0.00000000000E+00  0.00000000000E+00 -0.14959204960E+04  0.14959204994E+04  0.10100000352E+00 0.  1.
    10030    2    1    2    0    0  0.00000000000E+00  0.00000000000E+00  0.64911607606E+03  0.36409570738E+04  0.35826270715E+04 0.  0.
        4    1    3    3  502    0 -0.21996126933E+03  0.28919460435E+03 -0.14580776932E+04  0.15026671792E+04  0.12699999809E+01 0.  1.
       -4    1    3    3    0  502  0.21996126933E+03 -0.28919460435E+03  0.21071937693E+04  0.21382898946E+04  0.12699999809E+01 0. -1.
</event>
<event>
 5   0  0.1444091E-06  0.3312266E+04  0.7818609E-02  0.8159781E-01
       -2   -1    0    0    0  501  0.00000000000E+00  0.00000000000E+00  0.20848730709E+04  0.20848730709E+04  0.25500000920E-02 0.  1.
        2   -1    0    0  501    0  0.00000000000E+00  0.00000000000E+00 -0.13155600598E+04  0.13155600598E+04  0.25500000920E-02 0. -1.
    10030    2    1    2    0    0  0.00000000000E+00  0.00000000000E+00  0.76931301107E+03  0.34004331306E+04  0.33122655339E+04 0.  0.
        1    1    3    3  502    0  0.92841702524E+03  0.13628657209E+04  0.54174791066E+03  0.17357568795E+04  0.50400001928E-02 0.  1.
       -1    1    3    3    0  502 -0.92841702524E+03 -0.13628657209E+04  0.22756510041E+03  0.16646762511E+04  0.50400001928E-02 0. -1.
</event>
<event>
 5   0  0.4811500E-07  0.3626928E+04  0.7818609E-02  0.8084351E-01
       -1   -1    0    0    0  501  0.00000000000E+00  0.00000000000E+00  0.14333206153E+04  0.14333206153E+04  0.50400001928E-02 0. -1.
        1   -1    0    0  501    0  0.00000000000E+00  0.00000000000E+00 -0.22944289291E+04  0.22944289291E+04  0.50400001928E-02 0.  1.
    10030    2    1    2    0    0  0.00000000000E+00  0.00000000000E+00 -0.86110831383E+03  0.37277495444E+04  0.36269283336E+04 0.  0.
        2    1    3    3  502    0 -0.10719336814E+04  0.13692329380E+04  0.98349144278E+02  0.17416983694E+04  0.25500000920E-02 0.  1.
       -2    1    3    3    0  502  0.10719336814E+04 -0.13692329380E+04 -0.95945745811E+03  0.19860511750E+04  0.25500000920E-02 0. -1.
</event>
<event>
 5   0  0.4811500E-07  0.3589750E+04  0.7818609E-02  0.8092844E-01
        1   -1    0    0  501    0  0.00000000000E+00  0.00000000000E+00  0.11402112142E+04  0.11402112142E+04  0.50400001928E-02 0.  1.
       -1   -1    0    0    0  501  0.00000000000E+00  0.00000000000E+00 -0.28254205649E+04  0.28254205649E+04  0.50400001928E-02 0. -1.
    10030    2    1    2    0    0  0.00000000000E+00  0.00000000000E+00 -0.16852093507E+04  0.39656317791E+04  0.35897499707E+04 0.  0.
        3    1    3    3  502    0  0.12178859676E+04 -0.12256542266E+04 -0.30582293634E+03  0.17547085775E+04  0.10100000352E+00 0.  1.
       -3    1    3    3    0  502 -0.12178859676E+04  0.12256542266E+04 -0.13793864144E+04  0.22109232016E+04  0.10100000352E+00 0. -1.
</event>
<event>
 5   0  0.4811500E-07  0.3642833E+04  0.7818609E-02  0.8080750E-01
        1   -1    0    0  501    0  0.00000000000E+00  0.00000000000E+00  0.16050280801E+04  0.16050280801E+04  0.50400001928E-02 0. -1.
       -1   -1    0    0    0  501  0.00000000000E+00  0.00000000000E+00 -0.20669778905E+04  0.20669778905E+04  0.50400001928E-02 0.  1.
    10030    2    1    2    0    0  0.00000000000E+00  0.00000000000E+00 -0.46194981037E+03  0.36720059706E+04  0.36428327193E+04 0.  0.
        5    1    3    3  502    0  0.14354291617E+04 -0.46513318645E+03  0.79735656181E+03  0.17066356776E+04  0.46999998093E+01 0. -1.
       -5    1    3    3    0  502 -0.14354291617E+04  0.46513318645E+03 -0.12593063722E+04  0.19653702930E+04  0.46999998093E+01 0.  1.
</event>
<event>
 5   0  0.4811500E-07  0.2408309E+04  0.7818609E-02  0.8436399E-01
       -1   -1    0    0    0  501  0.00000000000E+00  0.00000000000E+00  0.13938662838E+04  0.13938662838E+04  0.50400001928E-02 0.  1.
        1   -1    0    0  501    0  0.00000000000E+00  0.00000000000E+00 -0.10402630656E+04  0.10402630656E+04  0.50400001928E-02 0. -1.
    10030    2    1    2    0    0  0.00000000000E+00  0.00000000000E+00  0.35360321824E+03  0.24341293494E+04  0.24083086292E+04 0.  0.
        2    1    3    3  502    0 -0.46192764590E+03  0.91796753465E+03 -0.45757899548E+03  0.11249089216E+04  0.25500000920E-02 0. -1.
       -2    1    3    3    0  502  0.46192764590E+03 -0.91796753465E+03  0.81118221371E+03  0.13092204278E+04  0.25500000920E-02 0.  1.
</event>
<event>
 5   0  0.1379425E-06  0.3641969E+04  0.7818609E-02  0.8080945E-01
       -2   -1    0    0    0  501  0.00000000000E+00  0.00000000000E+00  0.16856445031E+04  0.16856445031E+04  0.25500000920E-02 0. -1.
        2   -1    0    0  501    0  0.00000000000E+00  0.00000000000E+00 -0.19671908391E+04  0.19671908391E+04  0.25500000920E-02 0.  1.
    10030    2    1    2    0    0  0.00000000000E+00  0.00000000000E+00 -0.28154633601E+03  0.36528353422E+04  0.36419689315E+04 0.  0.
        4    1    3    3  502    0 -0.32517946711E+03  0.11796174671E+04  0.12118587064E+04  0.17221620689E+04  0.12699999809E+01 0. -1.
       -4    1    3    3    0  502  0.32517946711E+03 -0.11796174671E+04 -0.14934050424E+04  0.19306732733E+04  0.12699999809E+01 0.  1.
</event>
<event>
 5   0  0.4811500E-07  0.3661868E+04  0.7818609E-02  0.8076465E-01
        1   -1    0    0  501    0  0.00000000000E+00  0.00000000000E+00  0.25864234108E+04  0.25864234108E+04  0.50400001928E-02 0. -1.
       -1   -1    0    0    0  501  0.00000000000E+00  0.00000000000E+00 -0.12961214052E+04  0.12961214052E+04  0.50400001928E-02 0.  1.
    10030    2    1    2    0    0  0.00000000000E+00  0.00000000000E+00  0.12903020056E+04  0.38825448160E+04  0.36618676905E+04 0.  0.
        4    1    3    3  502    0  0.17196551270E+04 -0.58354772681E+03  0.39745876195E+03  0.18589558321E+04  0.12699999809E+01 0. -1.
       -4    1    3    3    0  502 -0.17196551270E+04  0.58354772681E+03  0.89284324364E+03  0.20235889839E+04  0.12699999809E+01 0.  1.
</event>
<event>
 5   0  0.4811500E-07  0.3381527E+04  0.7818609E-02  0.8142455E-01
        1   -1    0    0  501    0  0.00000000000E+00  0.00000000000E+00  0.29508399152E+04  0.29508399152E+04  0.50400001928E-02 0.  1.
       -1   -1    0    0    0  501  0.00000000000E+00  0.00000000000E+00 -0.96876865956E+03  0.96876865958E+03  0.50400001928E-02 0. -1.
    10030    2    1    2    0    0  0.00000000000E+00  0.00000000000E+00  0.19820712557E+04  0.39196085748E+04  0.33815270097E+04 0.  0.
        3    1    3    3  502    0 -0.56857796455E+02 -0.60547880734E+03 -0.83760624881E+03  0.10350949876E+04  0.10100000352E+00 0. -1.
       -3    1    3    3    0  502  0.56857796455E+02  0.60547880734E+03  0.28196775045E+04  0.28845135872E+04  0.10100000352E+00 0.  1.
</event>
<event>
 5   0  0.1491854E-06  0.3615078E+04  0.7818609E-02  0.8087047E-01
        2   -1    0    0  501    0  0.00000000000E+00  0.00000000000E+00  0.16609613184E+04  0.16609613184E+04  0.25500000920E-02 0.  1.
       -2   -1    0    0    0  501  0.00000000000E+00  0.00000000000E+00 -0.19670516322E+04  0.19670516322E+04  0.25500000920E-02 0. -1.
    10030    2    1    2    0    0  0.00000000000E+00  0.00000000000E+00 -0.30609031377E+03  0.36280129506E+04  0.36150776879E+04 0.  0.
        5    1    3    3  502    0  0.67215751757E+02  0.16425388603E+04 -0.90721441132E+03  0.18776346670E+04  0.46999998093E+01 0. -1.
       -5    1    3    3    0  502 -0.67215751757E+02 -0.16425388603E+04  0.60112409755E+03  0.17503782835E+04  0.46999998093E+01 0.  1.
</event>
<event>
 5   0  0.1444091E-06  0.3490332E+04  0.7818609E-02  0.8116085E-01
        2   -1    0    0  501    0  0.00000000000E+00  0.00000000000E+00  0.24657387837E+04  0.24657387837E+04  0.25500000920E-02 0.  1.
       -2   -1    0    0    0  501  0.00000000000E+00  0.00000000000E+00 -0.12351693251E+04  0.12351693251E+04  0.25500000920E-02 0. -1.
    10030    2    1    2    0    0  0.00000000000E+00  0.00000000000E+00  0.12305694586E+04  0.37009081089E+04  0.34903323105E+04 0.  0.
        1    1    3    3  502    0  0.68890282336E+03 -0.23151876246E+03 -0.10670758893E+04  0.12910611879E+04  0.50400001928E-02 0. -1.
       -1    1    3    3    0  502 -0.68890282336E+03  0.23151876246E+03  0.22976453479E+04  0.24098469209E+04  0.50400001928E-02 0.  1.
</event>
<event>
 5   0  0.1505671E-06  0.3588910E+04  0.7818609E-02  0.8093037E-01
       -2   -1    0    0    0  501  0.00000000000E+00  0.00000000000E+00  0.21069410518E+04  0.21069410518E+04  0.25500000920E-02 0. -1.
        2   -1    0    0  501    0  0.00000000000E+00  0.00000000000E+00 -0.15283147503E+04  0.15283147503E+04  0.25500000920E-02 0.  1.
    10030    2    1    2    0    0  0.00000000000E+00  0.00000000000E+00  0.57862630144E+03  0.36352558021E+04  0.35889101897E+04 0.  0.
        3    1    3    3  502    0  0.21445995501E+03 -0.46821791669E+03 -0.14518519650E+04  0.15404853873E+04  0.10100000352E+00 0.  1.
       -3    1    3    3    0  502 -0.21445995501E+03  0.46821791669E+03  0.20304782665E+04  0.20947704148E+04  0.10100000352E+00 0. -1.
</event>
<event>
 5   0  0.1505671E-06  0.2655077E+04  0.7818609E-02  0.8349730E-01
       -2   -1    0    0    0  501  0.00000000000E+00  0.00000000000E+00  0.10633274966E+04  0.10633274966E+04  0.25500000920E-02 0. -1.
        2   -1    0    0  501    0  0.00000000000E+00  0.00000000000E+00 -0.16573991578E+04  0.16573991578E+04  0.25500000920E-02 0.  1.
    10030    2    1    2    0    0  0.00000000000E+00  0.00000000000E+00 -0.59407166116E+03  0.27207266544E+04  0.26550767201E+04 0.  0.
        3    1    3    3  502    0  0.35095437584E+03 -0.53383618410E+03 -0.14895142569E+04  0.16207414282E+04  0.10100000352E+00 0.  1.
       -3    1    3    3    0  502 -0.35095437584E+03  0.53383618410E+03  0.89544259577E+03  0.10999852262E+04  0.10100000352E+00 0. -1.
</event>
<event>
 5   0  0.4811500E-07  0.3074454E+04  0.7818609E-02  0.8222784E-01
       -1   -1    0    0    0  501  0.00000000000E+00  0.00000000000E+00  0.11160463120E+04  0.11160463120E+04  0.50400001928E-02 0.  1.
        1   -1    0    0  501    0  0.00000000000E+00  0.00000000000E+00 -0.21173561999E+04  0.21173561999E+04  0.50400001928E-02 0. -1.
    10030    2    1    2    0    0  0.00000000000E+00  0.00000000000E+00 -0.10013098879E+04  0.32334025119E+04  0.30744544739E+04 0.  0.
        4    1    3    3  502    0  0.62073951804E+03  0.32400521087E+03 -0.19398969150E+04  0.20624011685E+04  0.12699999809E+01 0. -1.
       -4    1    3    3    0  502 -0.62073951804E+03 -0.32400521087E+03  0.93858702711E+03  0.11710013434E+04  0.12699999809E+01 0.  1.
</event>
<event>
 5   0  0.1379425E-06  0.3574659E+04  0.7818609E-02  0.8096321E-01
        2   -1    0    0  501    0  0.00000000000E+00  0.00000000000E+00  0.12105634516E+04  0.12105634516E+04  0.25500000920E-02 0.  1.
       -2   -1    0    0    0  501  0.00000000000E+00  0.00000000000E+00 -0.26388919440E+04  0.26388919440E+04  0.25500000920E-02 0. -1.
    10030    2    1    2    0    0  0.00000000000E+00  0.00000000000E+00 -0.14283284924E+04  0.38494553956E+04  0.35746586635E+04 0.  0.
        4    1    3    3  502    0 -0.23662340426E+03  0.56227118077E+03  0.10949849382E+04  0.12534485007E+04  0.12699999809E+01 0.  1.
       -4    1    3    3    0  502  0.23662340426E+03 -0.56227118077E+03 -0.25233134306E+04  0.25960068948E+04  0.12699999809E+01 0. -1.
</event>
<event>
 5   0  0.4811500E-07  0.3614052E+04  0.7818609E-02  0.8087281E-01
       -1   -1    0    0    0  501  0.00000000000E+00  0.00000000000E+00  0.22107180452E+04  0.22107180452E+04  0.50400001928E-02 0. -1.
        1   -1    0    0  501    0  0.00000000000E+00  0.00000000000E+00 -0.14770506815E+04  0.14770506815E+04  0.50400001928E-02 0.  1.
    10030    2    1    2    0    0  0.00000000000E+00  0.00000000000E+00  0.73366736368E+03  0.36877687268E+04  0.36140517956E+04 0.  0.
        2    1    3    3  502    0  0.37945467279E+03  0.21332187351E+03  0.21564169798E+04  0.21999150577E+04  0.25500000920E-02 0. -1.
       -2    1    3    3    0  502 -0.37945467279E+03 -0.21332187351E+03 -0.14227496161E+04  0.14878536691E+04  0.25500000920E-02 0.  1.
</event>
<event>
 5   0  0.5071661E-07  0.3008496E+04  0.7818609E-02  0.8241309E-01
       -1   -1    0    0    0  501  0.00000000000E+00  0.00000000000E+00  0.14301109205E+04  0.14301109205E+04  0.50400001928E-02 0. -1.
        1   -1    0    0  501    0  0.00000000000E+00  0.00000000000E+00 -0.15822287924E+04  0.15822287924E+04  0.50400001928E-02 0.  1.
    10030    2    1    2    0    0  0.00000000000E+00  0.00000000000E+00 -0.15211787194E+03  0.30123397129E+04  0.30084964183E+04 0.  0.
        1    1    3    3  502    0  0.13206345146E+04  0.60587577425E+03 -0.46591696591E+03  0.15258570032E+04  0.50400001928E-02 0. -1.
       -1    1    3    3    0  502 -0.13206345146E+04 -0.60587577425E+03  0.31379909398E+03  0.14864827098E+04  0.50400001928E-02 0.  1.
</event>
<event>
 5   0  0.4811500E-07  0.2696063E+04  0.7818609E-02  0.8336284E-01
        1   -1    0    0  501    0  0.00000000000E+00  0.00000000000E+00  0.13500134822E+04  0.13500134822E+04  0.50400001928E-02 0.  1.
       -1   -1    0    0    0  501  0.00000000000E+00  0.00000000000E+00 -0.13460521035E+04  0.13460521035E+04  0.50400001928E-02 0. -1.
    10030    2    1    2    0    0  0.00000000000E+00  0.00000000000E+00  0.39613786941E+01  0.26960655857E+04  0.26960626754E+04 0.  0.
        5    1    3    3  502    0 -0.11642169568E+04  0.41967540590E+03  0.53643222633E+03  0.13488180723E+04  0.46999998093E+01 0.  1.
       -5    1    3    3    0  502  0.11642169568E+04 -0.41967540590E+03 -0.53247084764E+03  0.13472475134E+04  0.46999998093E+01 0. -1.
</event>
<event>
 5   0  0.1468942E-06  0.3645419E+04  0.7818609E-02  0.8080166E-01
       -2   -1    0    0    0  501  0.00000000000E+00  0.00000000000E+00  0.12645117842E+04  0.12645117842E+04  0.25500000920E-02 0. -1.
        2   -1    0    0  501    0  0.00000000000E+00  0.00000000000E+00 -0.26273149327E+04  0.26273149327E+04  0.25500000920E-02 0.  1.
    10030    2    1    2    0    0  0.00000000000E+00  0.00000000000E+00 -0.13628031485E+04  0.38918267170E+04  0.36454194235E+04 0.  0.
        2    1    3    3  502    0 -0.12161574666E+04 -0.32455654577E+02  0.76760991065E+03  0.14385121926E+04  0.25500000920E-02 0. -1.
       -2    1    3    3    0  502  0.12161574666E+04  0.32455654577E+02 -0.21304130591E+04  0.24533145244E+04  0.25500000920E-02 0.  1.
</event>
<event>
 5   0  0.1379425E-06  0.3585618E+04  0.7818609E-02  0.8093794E-01
        2   -1    0    0  501    0  0.00000000000E+00  0.00000000000E+00  0.16595025348E+04  0.16595025348E+04  0.25500000920E-02 0. -1.
       -2   -1    0    0    0  501  0.00000000000E+00  0.00000000000E+00 -0.19368241854E+04  0.19368241854E+04  0.25500000920E-02 0.  1.
    10030    2    1    2    0    0  0.00000000000E+00  0.00000000000E+00 -0.27732165064E+03  0.35963267201E+04  0.35856182982E+04 0.  0.
        4    1    3    3  502    0  0.77132438686E+02  0.46925735740E+03  0.15950880456E+04  0.16644696954E+04  0.12699999809E+01 0. -1.
       -4    1    3    3    0  502 -0.77132438686E+02 -0.46925735740E+03 -0.18724096963E+04  0.19318570248E+04  0.12699999809E+01 0.  1.
</event>
<event>
 5   0  0.1505671E-06  0.3618567E+04  0.7818609E-02  0.8086252E-01
        2   -1    0    0  501    0  0.00000000000E+00  0.00000000000E+00  0.22848308834E+04  0.22848308834E+04  0.25500000920E-02 0. -1.
       -2   -1    0    0    0  501  0.00000000000E+00  0.00000000000E+00 -0.14327130525E+04  0.14327130525E+04  0.25500000920E-02 0.  1.
    10030    2    1    2    0    0  0.00000000000E+00  0.00000000000E+00  0.85211783084E+03  0.37175439359E+04  0.36185671360E+04 0.  0.
        3    1    3    3  502    0  0.12822641780E+04  0.32392128379E+03 -0.84237014018E+03  0.15680286616E+04  0.10100000352E+00 0.  1.
       -3    1    3    3    0  502 -0.12822641780E+04 -0.32392128379E+03  0.16944879710E+04  0.21495152743E+04  0.10100000352E+00 0. -1.
</event>
<event>
 5   0  0.4811500E-07  0.3561668E+04  0.7818609E-02  0.8099329E-01
        1   -1    0    0  501    0  0.00000000000E+00  0.00000000000E+00  0.12936953253E+04  0.12936953253E+04  0.50400001928E-02 0. -1.
       -1   -1    0    0    0  501  0.00000000000E+00  0.00000000000E+00 -0.24514033445E+04  0.24514033445E+04  0.50400001928E-02 0.  1.
    10030    2    1    2    0    0  0.00000000000E+00  0.00000000000E+00 -0.11577080192E+04  0.37450986699E+04  0.35616676135E+04 0.  0.
        5    1    3    3  502    0  0.43622549406E+03  0.10664849017E+04  0.84889146382E+03  0.14311958407E+04  0.46999998093E+01 0. -1.
       -5    1    3    3    0  502 -0.43622549406E+03 -0.10664849017E+04 -0.20065994831E+04  0.23139028291E+04  0.46999998093E+01 0.  1.
</event>
<event>
 5   0  0.1491854E-06  0.3649375E+04  0.7818609E-02  0.8079274E-01
        2   -1    0    0  501    0  0.00000000000E+00  0.00000000000E+00  0.16821944224E+04  0.16821944224E+04  0.25500000920E-02 0. -1.
       -2   -1    0    0    0  501  0.00000000000E+00  0.00000000000E+00 -0.19792505511E+04  0.19792505511E+04  0.25500000920E-02 0.  1.
    10030    2    1    2    0    0  0.00000000000E+00  0.00000000000E+00 -0.29705612864E+03  0.36614449735E+04  0.36493748712E+04 0.  0.
        5    1    3    3  502    0  0.73217415497E+03 -0.15456744778E+04 -0.78645612420E+03  0.18824781300E+04  0.46999998093E+01 0.  1.
       -5    1    3    3    0  502 -0.73217415497E+03  0.15456744778E+04  0.48939999557E+03  0.17789668435E+04  0.46999998093E+01 0. -1.
</event>
<event>
 5   0  0.1379425E-06  0.3451861E+04  0.7818609E-02  0.8125294E-01
       -2   -1    0    0    0  501  0.00000000000E+00  0.00000000000E+00  0.14019955488E+04  0.14019955488E+04  0.25500000920E-02 0.  1.
        2   -1    0    0  501    0  0.00000000000E+00  0.00000000000E+00 -0.21247112786E+04  0.21247112786E+04  0.25500000920E-02 0. -1.
    10030    2    1    2    0    0  0.00000000000E+00  0.00000000000E+00 -0.72271572982E+03  0.35267068275E+04  0.34518608055E+04 0.  0.
        4    1    3    3  502    0 -0.11189057134E+03 -0.25412006881E+03 -0.21017421573E+04  0.21200042967E+04  0.12699999809E+01 0. -1.
       -4    1    3    3    0  502  0.11189057134E+03  0.25412006881E+03  0.13790264275E+04  0.14067025307E+04  0.12699999809E+01 0.  1.
</event>
<event>
 5   0  0.1444091E-06  0.2730918E+04  0.7818609E-02  0.8325042E-01
       -2   -1    0    0    0  501  0.00000000000E+00  0.00000000000E+00  0.13539795801E+04  0.13539795801E+04  0.25500000920E-02 0. -1.
        2   -1    0    0  501    0  0.00000000000E+00  0.00000000000E+00 -0.13770355603E+04  0.13770355603E+04  0.25500000920E-02 0.  1.
    10030    2    1    2    0    0  0.00000000000E+00  0.00000000000E+00 -0.23055980172E+02  0.27310151404E+04  0.27309178162E+04 0.  0.
        1    1    3    3  502    0  0.10143590612E+04 -0.80959500368E+03 -0.43593639297E+03  0.13690905425E+04  0.50400001928E-02 0.  1.
       -1    1    3    3    0  502 -0.10143590612E+04  0.80959500368E+03  0.41288041279E+03  0.13619245978E+04  0.50400001928E-02 0. -1.
</event>
<event>
 5   0  0.4811500E-07  0.3481161E+04  0.7818609E-02  0.8118269E-01
       -1   -1    0    0    0  501  0.00000000000E+00  0.00000000000E+00  0.30851001929E+04  0.30851001929E+04  0.50400001928E-02 0.  1.
        1   -1    0    0  501    0  0.00000000000E+00  0.00000000000E+00 -0.98201690845E+03  0.98201690846E+03  0.50400001928E-02 0. -1.
    10030    2    1    2    0    0  0.00000000000E+00  0.00000000000E+00  0.21030832844E+04  0.40671171013E+04  0.34811610441E+04 0.  0.
        4    1    3    3  502    0 -0.15679581677E+04  0.57443712876E+03  0.16252675918E+04  0.23302289991E+04  0.12699999809E+01 0.  1.
       -4    1    3    3    0  502  0.15679581677E+04 -0.57443712876E+03  0.47781569264E+03  0.17368881022E+04  0.12699999809E+01 0. -1.
</event>
<event>
 5   0  0.4811500E-07  0.3615413E+04  0.7818609E-02  0.8086970E-01
        1   -1    0    0  501    0  0.00000000000E+00  0.00000000000E+00  0.19472515286E+04  0.19472515286E+04  0.50400001928E-02 0.  1.
       -1   -1    0    0    0  501  0.00000000000E+00  0.00000000000E+00 -0.16781612862E+04  0.16781612862E+04  0.50400001928E-02 0. -1.
    10030    2    1    2    0    0  0.00000000000E+00  0.00000000000E+00  0.26909024239E+03  0.36254128148E+04  0.36154126347E+04 0.  0.
        5    1    3    3  502    0 -0.11208656544E+04 -0.56255052907E+03 -0.11709688236E+04  0.17158068040E+04  0.46999998093E+01 0. -1.
       -5    1    3    3    0  502  0.11208656544E+04  0.56255052907E+03  0.14400590660E+04  0.19096060108E+04  0.46999998093E+01 0.  1.
</event>
<event>
 5   0  0.1491854E-06  0.3603512E+04  0.7818609E-02  0.8089688E-01
        2   -1    0    0  501    0  0.00000000000E+00  0.00000000000E+00  0.20086366384E+04  0.20086366384E+04  0.25500000920E-02 0. -1.
       -2   -1    0    0    0  501  0.00000000000E+00  0.00000000000E+00 -0.16161834555E+04  0.16161834555E+04  0.25500000920E-02 0.  1.
    10030    2    1    2    0    0  0.00000000000E+00  0.00000000000E+00  0.39245318287E+03  0.36248200939E+04  0.36035123438E+04 0.  0.
        5    1    3    3  502    0 -0.19399249370E+02  0.13493704693E+04 -0.10046188329E+04  0.16823965299E+04  0.46999998093E+01 0.  1.
       -5    1    3    3    0  502  0.19399249370E+02 -0.13493704693E+04  0.13970720158E+04  0.19424235639E+04  0.46999998093E+01 0. -1.
</event>
<event>
 5   0  0.1491854E-06  0.3556041E+04  0.7818609E-02  0.8100636E-01
       -2   -1    0    0    0  501  0.00000000000E+00  0.00000000000E+00  0.18895129131E+04  0.18895129131E+04  0.25500000920E-02 0.  1.
        2   -1    0    0  501    0  0.00000000000E+00  0.00000000000E+00 -0.16731070153E+04  0.16731070153E+04  0.25500000920E-02 0. -1.
    10030    2    1    2    0    0  0.00000000000E+00  0.00000000000E+00  0.21640589778E+03  0.35626199284E+04  0.35560412317E+04 0.  0.
        5    1    3    3  502    0 -0.10911746403E+04 -0.83159049716E+03 -0.10248758413E+04  0.17124828264E+04  0.46999998093E+01 0.  1.
       -5    1    3    3    0  502  0.10911746403E+04  0.83159049716E+03  0.12412817390E+04  0.18501371020E+04  0.46999998093E+01 0. -1.
</event>
<event>
 5   0  0.1491854E-06  0.2273826E+04  0.7818609E-02  0.8488313E-01
       -2   -1    0    0    0  501  0.00000000000E+00  0.00000000000E+00  0.84749430192E+03  0.84749430193E+03  0.25500000920E-02 0.  1.
        2   -1    0    0  501    0  0.00000000000E+00  0.00000000000E+00 -0.15251677108E+04  0.15251677108E+04  0.25500000920E-02 0. -1.
    10030    2    1    2    0    0  0.00000000000E+00  0.00000000000E+00 -0.67767340891E+03  0.23726620128E+04  0.22738258020E+04 0.  0.
        5    1    3    3  502    0 -0.77252228907E+03  0.83404594743E+03 -0.35052748725E+03  0.11896700966E+04  0.46999998093E+01 0.  1.
       -5    1    3    3    0  502  0.77252228907E+03 -0.83404594743E+03 -0.32714592166E+03  0.11829919161E+04  0.46999998093E+01 0. -1.
</event>
<event>
 5   0  0.1379425E-06  0.3982816E+04  0.7818609E-02  0.8008022E-01
       -2   -1    0    0    0  501  0.00000000000E+00  0.00000000000E+00  0.27649624854E+04  0.27649624854E+04  0.25500000920E-02 0. -1.
        2   -1    0    0  501    0  0.00000000000E+00  0.00000000000E+00 -0.14342708593E+04  0.14342708593E+04  0.25500000920E-02 0.  1.
    10030    2    1    2    0    0  0.00000000000E+00  0.00000000000E+00  0.13306916261E+04  0.41992333446E+04  0.39828156471E+04 0.  0.
        4    1    3    3  502    0 -0.47527778391E+03 -0.14744622833E+04  0.19846488184E+04  0.25176895245E+04  0.12699999809E+01 0. -1.
       -4    1    3    3    0  502  0.47527778391E+03  0.14744622833E+04 -0.65395719228E+03  0.16815438201E+04  0.12699999809E+01 0.  1.
</event>
<event>
 5   0  0.1379425E-06  0.3612566E+04  0.7818609E-02  0.8087619E-01
        2   -1    0    0  501    0  0.00000000000E+00  0.00000000000E+00  0.20105132388E+04  0.20105132388E+04  0.25500000920E-02 0. -1.
       -2   -1    0    0    0  501  0.00000000000E+00  0.00000000000E+00 -0.16227984452E+04  0.16227984452E+04  0.25500000920E-02 0.  1.
    10030    2    1    2    0    0  0.00000000000E+00  0.00000000000E+00  0.38771479367E+03  0.36333116840E+04  0.36125657131E+04 0.  0.
        4    1    3    3  502    0 -0.97268247027E+03 -0.14075813899E+04 -0.38848378437E+03  0.17545135568E+04  0.12699999809E+01 0.  1.
       -4    1    3    3    0  502  0.97268247027E+03  0.14075813899E+04  0.77619857804E+03  0.18787981272E+04  0.12699999809E+01 0. -1.
</event>
<event>
 5   0  0.4811500E-07  0.3593377E+04  0.7818609E-02  0.8092010E-01
        1   -1    0    0  501    0  0.00000000000E+00  0.00000000000E+00  0.10649302970E+04  0.10649302970E+04  0.50400001928E-02 0.  1.
       -1   -1    0    0    0  501  0.00000000000E+00  0.00000000000E+00 -0.30312690750E+04  0.30312690750E+04  0.50400001928E-02 0. -1.
    10030    2    1    2    0    0  0.00000000000E+00  0.00000000000E+00 -0.19663387780E+04  0.40961993720E+04  0.35933773954E+04 0.  0.
        5    1    3    3  502    0  0.14600663020E+04 -0.54941488628E+03 -0.19991905556E+04  0.25358302962E+04  0.46999998093E+01 0. -1.
       -5    1    3    3    0  502 -0.14600663020E+04  0.54941488628E+03  0.32851777549E+02  0.15603690758E+04  0.46999998093E+01 0.  1.
</event>
<event>
 5   0  0.1444091E-06  0.3690434E+04  0.7818609E-02  0.8070085E-01
       -2   -1    0    0    0  501  0.00000000000E+00  0.00000000000E+00  0.12695986204E+04  0.12695986204E+04  0.25500000920E-02 0.  1.
        2   -1    0    0  501    0  0.00000000000E+00  0.00000000000E+00 -0.26818132698E+04  0.26818132698E+04  0.25500000920E-02 0. -1.
    10030    2    1    2    0    0  0.00000000000E+00  0.00000000000E+00 -0.14122146494E+04  0.39514118902E+04  0.36904343524E+04 0.  0.
        1    1    3    3  502    0  0.89381893114E+03 -0.16132059265E+04 -0.64293695928E+03  0.19531291756E+04  0.50400001928E-02 0.  1.
       -1    1    3    3    0  502 -0.89381893114E+03  0.16132059265E+04 -0.76927769016E+03  0.19982827146E+04  0.50400001928E-02 0. -1.
</event>
<event>
 5   0  0.1468942E-06  0.2585370E+04  0.7818609E-02  0.8373188E-01
        2   -1    0    0  501    0  0.00000000000E+00  0.00000000000E+00  0.10852327929E+04  0.10852327929E+04  0.25500000920E-02 0. -1.
       -2   -1    0    0    0  501  0.00000000000E+00  0.00000000000E+00 -0.15397935366E+04  0.15397935366E+04  0.25500000920E-02 0.  1.
    10030    2    1    2    0    0  0.00000000000E+00  0.00000000000E+00 -0.45456074371E+03  0.26250263296E+04  0.25853699467E+04 0.  0.
        2    1    3    3  502    0 -0.53563314664E+03 -0.34718263744E+03  0.91405966655E+03  0.11148738608E+04  0.25500000920E-02 0. -1.
       -2    1    3    3    0  502  0.53563314664E+03  0.34718263744E+03 -0.13686204103E+04  0.15101524688E+04  0.25500000920E-02 0.  1.
</event>
<event>
 5   0  0.5071661E-07  0.3492709E+04  0.7818609E-02  0.8115520E-01
        1   -1    0    0  501    0  0.00000000000E+00  0.00000000000E+00  0.22828260785E+04  0.22828260785E+04  0.50400001928E-02 0.  1.
       -1   -1    0    0    0  501  0.00000000000E+00  0.00000000000E+00 -0.13359554922E+04  0.13359554922E+04  0.50400001928E-02 0. -1.
    10030    2    1    2    0    0  0.00000000000E+00  0.00000000000E+00  0.94687058635E+03  0.36187815707E+04  0.34927089987E+04 0.  0.
        1    1    3    3  502    0  0.60803460822E+03 -0.12398960469E+04 -0.63412447650E+03  0.15195927558E+04  0.50400001928E-02 0. -1.
       -1    1    3    3    0  502 -0.60803460822E+03  0.12398960469E+04  0.15809950628E+04  0.20991888149E+04  0.50400001928E-02 0.  1.
</event>
<event>
 5   0  0.1491854E-06  0.3205820E+04  0.7818609E-02  0.8187282E-01
        2   -1    0    0  501    0  0.00000000000E+00  0.00000000000E+00  0.26258468656E+04  0.26258468656E+04  0.25500000920E-02 0.  1.
       -2   -1    0    0    0  501  0.00000000000E+00  0.00000000000E+00 -0.97847318011E+03  0.97847318011E+03  0.25500000920E-02 0. -1.
    10030    2    1    2    0    0  0.00000000000E+00  0.00000000000E+00  0.16473736855E+04  0.36043200457E+04  0.32058201653E+04 0.  0.
        5    1    3    3  502    0 -0.27972094410E+03 -0.49374549319E+02  0.25973176420E+04  0.26128074319E+04  0.46999998093E+01 0.  1.
       -5    1    3    3    0  502  0.27972094410E+03  0.49374549319E+02 -0.94994395656E+03  0.99151261378E+03  0.46999998093E+01 0. -1.
</event>
<event>
 5   0  0.1468942E-06  0.3538258E+04  0.7818609E-02  0.8104783E-01
       -2   -1    0    0    0  501  0.00000000000E+00  0.00000000000E+00  0.14488553144E+04  0.14488553144E+04  0.25500000920E-02 0.  1.
        2   -1    0    0  501    0  0.00000000000E+00  0.00000000000E+00 -0.21602003757E+04  0.21602003757E+04  0.25500000920E-02 0. -1.
    10030    2    1    2    0    0  0.00000000000E+00  0.00000000000E+00 -0.71134506125E+03  0.36090556901E+04  0.35382582125E+04 0.  0.
        2    1    3    3  502    0  0.74581269289E+03 -0.10221216182E+04 -0.16168793284E+04  0.20531117695E+04  0.25500000920E-02 0. -1.
       -2    1    3    3    0  502 -0.74581269289E+03  0.10221216182E+04  0.90553426719E+03  0.15559439207E+04  0.25500000920E-02 0.  1.
</event>
<event>
 5   0  0.5071661E-07  0.3599317E+04  0.7818609E-02  0.8090648E-01
        1   -1    0    0  501    0  0.00000000000E+00  0.00000000000E+00  0.26805461803E+04  0.26805461803E+04  0.50400001928E-02 0.  1.
       -1   -1    0    0    0  501  0.00000000000E+00  0.00000000000E+00 -0.12082505225E+04  0.12082505226E+04  0.50400001928E-02 0. -1.
    10030    2    1    2    0    0  0.00000000000E+00  0.00000000000E+00  0.14722956577E+04  0.38887967028E+04  0.35993173370E+04 0.  0.
        1    1    3    3  502    0  0.35143665659E+03 -0.11598872004E+04 -0.70123538235E+03  0.14002060930E+04  0.50400001928E-02 0. -1.
       -1    1    3    3    0  502 -0.35143665659E+03  0.11598872004E+04  0.21735310401E+04  0.24885906099E+04  0.50400001928E-02 0.  1.
</event>
<event>
 5   0  0.1491854E-06  0.3572432E+04  0.7818609E-02  0.8096836E-01
        2   -1    0    0  501    0  0.00000000000E+00  0.00000000000E+00  0.18510384752E+04  0.18510384752E+04  0.25500000920E-02 0.  1.
       -2   -1    0    0    0  501  0.00000000000E+00  0.00000000000E+00 -0.17236633747E+04  0.17236633747E+04  0.25500000920E-02 0. -1.
    10030    2    1    2    0    0  0.00000000000E+00  0.00000000000E+00  0.12737510057E+03  0.35747018499E+04  0.35724317907E+04 0.  0.
        5    1    3    3  502    0 -0.16898178720E+04  0.33118235930E+03  0.53873013689E+03  0.18042778184E+04  0.46999998093E+01 0. -1.
       -5    1    3    3    0  502  0.16898178720E+04 -0.33118235930E+03 -0.41135503632E+03  0.17704240315E+04  0.46999998093E+01 0.  1.
</event>
<event>
 5   0  0.1491854E-06  0.3595777E+04  0.7818609E-02  0.8091460E-01
        2   -1    0    0  501    0  0.00000000000E+00  0.00000000000E+00  0.31225069920E+04  0.31225069920E+04  0.25500000920E-02 0.  1.
       -2   -1    0    0    0  501  0.00000000000E+00  0.00000000000E+00 -0.10351946744E+04  0.10351946744E+04  0.25500000920E-02 0. -1.
    10030    2    1    2    0    0  0.00000000000E+00  0.00000000000E+00  0.20873123176E+04  0.41577016664E+04  0.35957767499E+04 0.  0.
        5    1    3    3  502    0  0.97411281078E+03  0.35174902095E+03 -0.65561656622E+03  0.12257562212E+04  0.46999998093E+01 0. -1.
       -5    1    3    3    0  502 -0.97411281078E+03 -0.35174902095E+03  0.27429288839E+04  0.29319454452E+04  0.46999998093E+01 0.  1.
</event>
<event>
 5   0  0.1505671E-06  0.3618369E+04  0.7818609E-02  0.8086297E-01
        2   -1    0    0  501    0  0.00000000000E+00  0.00000000000E+00  0.18081277751E+04  0.18081277751E+04  0.25500000920E-02 0.  1.
       -2   -1    0    0    0  501  0.00000000000E+00  0.00000000000E+00 -0.18102417636E+04  0.18102417636E+04  0.25500000920E-02 0. -1.
    10030    2    1    2    0    0  0.00000000000E+00  0.00000000000E+00 -0.21139884908E+01  0.36183695387E+04  0.36183689212E+04 0.  0.
        3    1    3    3  502    0 -0.37499904977E+02 -0.65435708582E+03  0.16852288458E+04  0.18081995773E+04  0.10100000352E+00 0.  1.
       -3    1    3    3    0  502  0.37499904977E+02  0.65435708582E+03 -0.16873428343E+04  0.18101699614E+04  0.10100000352E+00 0. -1.
</event>
<event>
 5   0  0.4811500E-07  0.3601323E+04  0.7818609E-02  0.8090189E-01
       -1   -1    0    0    0  501  0.00000000000E+00  0.00000000000E+00  0.13696532608E+04  0.13696532608E+04  0.50400001928E-02 0. -1.
        1   -1    0    0  501    0  0.00000000000E+00  0.00000000000E+00 -0.23673016386E+04  0.23673016386E+04  0.50400001928E-02 0.  1.
    10030    2    1    2    0    0  0.00000000000E+00  0.00000000000E+00 -0.99764837783E+03  0.37369548994E+04  0.36013233171E+04 0.  0.
        2    1    3    3  502    0  0.52002671694E+03  0.51977457603E+03  0.12067925877E+04  0.14131318926E+04  0.25500000920E-02 0. -1.
       -2    1    3    3    0  502 -0.52002671694E+03 -0.51977457603E+03 -0.22044409655E+04  0.23238230068E+04  0.25500000920E-02 0.  1.
</event>
<event>
 5   0  0.4811500E-07  0.4033533E+04  0.7818609E-02  0.7997816E-01
        1   -1    0    0  501    0  0.00000000000E+00  0.00000000000E+00  0.22427206504E+04  0.22427206504E+04  0.50400001928E-02 0. -1.
       -1   -1    0    0    0  501  0.00000000000E+00  0.00000000000E+00 -0.18135775914E+04  0.18135775915E+04  0.50400001928E-02 0.  1.
    10030    2    1    2    0    0  0.00000000000E+00  0.00000000000E+00  0.42914305892E+03  0.40562982418E+04  0.40335333966E+04 0.  0.
        5    1    3    3  502    0 -0.72341227531E+03 -0.60571651066E+03  0.20070758542E+04  0.22177902033E+04  0.46999998093E+01 0. -1.
       -5    1    3    3    0  502  0.72341227531E+03  0.60571651066E+03 -0.15779327953E+04  0.18385080385E+04  0.46999998093E+01 0.  1.
</event>
<event>
 5   0  0.1468942E-06  0.3625416E+04  0.7818609E-02  0.8084694E-01
        2   -1    0    0  501    0  0.00000000000E+00  0.00000000000E+00  0.19839016013E+04  0.19839016013E+04  0.25500000920E-02 0. -1.
       -2   -1    0    0    0  501  0.00000000000E+00  0.00000000000E+00 -0.16562872398E+04  0.16562872398E+04  0.25500000920E-02 0.  1.
    10030    2    1    2    0    0  0.00000000000E+00  0.00000000000E+00  0.32761436158E+03  0.36401888411E+04  0.36254163387E+04 0.  0.
        2    1    3    3  502    0 -0.13279563841E+04  0.12124908956E+04 -0.65835432165E+02  0.17994267516E+04  0.25500000920E-02 0.  1.
       -2    1    3    3    0  502  0.13279563841E+04 -0.12124908956E+04  0.39344979374E+03  0.18407620895E+04  0.25500000920E-02 0. -1.
</event>
<event>
 5   0  0.1444091E-06  0.3617792E+04  0.7818609E-02  0.8086428E-01
       -2   -1    0    0    0  501  0.00000000000E+00  0.00000000000E+00  0.32004780457E+04  0.32004780457E+04  0.25500000920E-02 0. -1.
        2   -1    0    0  501    0  0.00000000000E+00  0.00000000000E+00 -0.10223797824E+04  0.10223797824E+04  0.25500000920E-02 0.  1.
    10030    2    1    2    0    0  0.00000000000E+00  0.00000000000E+00  0.21780982633E+04  0.42228578280E+04  0.36177916180E+04 0.  0.
        1    1    3    3  502    0 -0.97443996362E+03 -0.13370163386E+04  0.23531469029E+03  0.16710831625E+04  0.50400001928E-02 0.  1.
       -1    1    3    3    0  502  0.97443996362E+03  0.13370163386E+04  0.19427835730E+04  0.25517746656E+04  0.50400001928E-02 0. -1.
</event>
<event>
 5   0  0.4811500E-07  0.3608987E+04  0.7818609E-02  0.8088436E-01
       -1   -1    0    0    0  501  0.00000000000E+00  0.00000000000E+00  0.17019951909E+04  0.17019951909E+04  0.50400001928E-02 0. -1.
        1   -1    0    0  501    0  0.00000000000E+00  0.00000000000E+00 -0.19131649808E+04  0.19131649808E+04  0.50400001928E-02 0.  1.
    10030    2    1    2    0    0  0.00000000000E+00  0.00000000000E+00 -0.21116978995E+03  0.36151601717E+04  0.36089874462E+04 0.  0.
        2    1    3    3  502    0  0.10633508050E+04  0.12970866083E+04 -0.77234260922E+03  0.18465269318E+04  0.25500000920E-02 0.  1.
       -2    1    3    3    0  502 -0.10633508050E+04 -0.12970866083E+04  0.56117281927E+03  0.17686332399E+04  0.25500000920E-02 0. -1.
</event>
<event>
 5   0  0.4811500E-07  0.3462072E+04  0.7818609E-02  0.8122838E-01
       -1   -1    0    0    0  501  0.00000000000E+00  0.00000000000E+00  0.21201757557E+04  0.21201757557E+04  0.50400001928E-02 0. -1.
        1   -1    0    0  501    0  0.00000000000E+00  0.00000000000E+00 -0.14133193913E+04  0.14133193913E+04  0.50400001928E-02 0.  1.
    10030    2    1    2    0    0  0.00000000000E+00  0.00000000000E+00  0.70685636440E+03  0.35334951470E+04  0.34620719280E+04 0.  0.
        3    1    3    3  502    0  0.86783690608E+02  0.65634121633E+03  0.19858528118E+04  0.20933051860E+04  0.10100000352E+00 0. -1.
       -3    1    3    3    0  502 -0.86783690608E+02 -0.65634121633E+03 -0.12789964474E+04  0.14401899611E+04  0.10100000352E+00 0.  1.
</event>
<event>
 5   0  0.1468942E-06  0.3740387E+04  0.7818609E-02  0.8059070E-01
       -2   -1    0    0    0  501  0.00000000000E+00  0.00000000000E+00  0.30978876203E+04  0.30978876203E+04  0.25500000920E-02 0.  1.
        2   -1    0    0  501    0  0.00000000000E+00  0.00000000000E+00 -0.11290351776E+04  0.11290351776E+04  0.25500000920E-02 0. -1.
    10030    2    1    2    0    0  0.00000000000E+00  0.00000000000E+00  0.19688524427E+04  0.42269227979E+04  0.37403871990E+04 0.  0.
        2    1    3    3  502    0 -0.15889657807E+04  0.92929455690E+03  0.61094760042E+03  0.19394993158E+04  0.25500000920E-02 0.  1.
       -2    1    3    3    0  502  0.15889657807E+04 -0.92929455690E+03  0.13579048423E+04  0.22874234821E+04  0.25500000920E-02 0. -1.
</event>
<event>
 5   0  0.5071661E-07  0.3249081E+04  0.7818609E-02  0.8175974E-01
        1   -1    0    0  501    0  0.00000000000E+00  0.00000000000E+00  0.27469999952E+04  0.27469999952E+04  0.50400001928E-02 0.  1.
       -1   -1    0    0    0  501  0.00000000000E+00  0.00000000000E+00 -0.96073233418E+03  0.96073233420E+03  0.50400001928E-02 0. -1.
    10030    2    1    2    0    0  0.00000000000E+00  0.00000000000E+00  0.17862676610E+04  0.37077323294E+04  0.32490809269E+04 0.  0.
        1    1    3    3  502    0 -0.63321935180E+03  0.99499416187E+03  0.21680496553E+04  0.24680801117E+04  0.50400001928E-02 0.  1.
       -1    1    3    3    0  502  0.63321935180E+03 -0.99499416187E+03 -0.38178199432E+03  0.12396522177E+04  0.50400001928E-02 0. -1.
</event>
<event>
 5   0  0.5071661E-07  0.3602959E+04  0.7818609E-02  0.8089814E-01
        1   -1    0    0  501    0  0.00000000000E+00  0.00000000000E+00  0.15349412861E+04  0.15349412862E+04  0.50400001928E-02 0. -1.
       -1   -1    0    0    0  501  0.00000000000E+00  0.00000000000E+00 -0.21143016017E+04  0.21143016017E+04  0.50400001928E-02 0.  1.
    10030    2    1    2    0    0  0.00000000000E+00  0.00000000000E+00 -0.57936031556E+03  0.36492428879E+04  0.36029592392E+04 0.  0.
        1    1    3    3  502    0  0.88291442624E+03 -0.84568053215E+03 -0.16297850429E+04  0.20373788879E+04  0.50400001928E-02 0.  1.
       -1    1    3    3    0  502 -0.88291442624E+03  0.84568053215E+03  0.10504247274E+04  0.16118640000E+04  0.50400001928E-02 0. -1.
</event>
<event>
 5   0  0.4811500E-07  0.3738453E+04  0.7818609E-02  0.8059493E-01
       -1   -1    0    0    0  501  0.00000000000E+00  0.00000000000E+00  0.32249715133E+04  0.32249715133E+04  0.50400001928E-02 0. -1.
        1   -1    0    0  501    0  0.00000000000E+00  0.00000000000E+00 -0.10834225442E+04  0.10834225442E+04  0.50400001928E-02 0.  1.
    10030    2    1    2    0    0  0.00000000000E+00  0.00000000000E+00  0.21415489691E+04  0.43083940575E+04  0.37384525365E+04 0.  0.
        2    1    3    3  502    0  0.13686267829E+04  0.71133607117E+03 -0.14607085210E+03  0.15493466271E+04  0.25500000920E-02 0.  1.
       -2    1    3    3    0  502 -0.13686267829E+04 -0.71133607117E+03  0.22876198212E+04  0.27590474304E+04  0.25500000920E-02 0. -1.
</event>
<event>
 5   0  0.1379425E-06  0.3506782E+04  0.7818609E-02  0.8112185E-01
       -2   -1    0    0    0  501  0.00000000000E+00  0.00000000000E+00  0.16274660614E+04  0.16274660614E+04  0.25500000920E-02 0.  1.
        2   -1    0    0  501    0  0.00000000000E+00  0.00000000000E+00 -0.18890588904E+04  0.18890588904E+04  0.25500000920E-02 0. -1.
    10030    2    1    2    0    0  0.00000000000E+00  0.00000000000E+00 -0.26159282905E+03  0.35165249518E+04  0.35067815627E+04 0.  0.
        4    1    3    3  502    0 -0.91910843141E+03  0.14911443462E+04 -0.20915345531E+03  0.17640914236E+04  0.12699999809E+01 0.  1.
       -4    1    3    3    0  502  0.91910843141E+03 -0.14911443462E+04 -0.52439373741E+02  0.17524335282E+04  0.12699999809E+01 0. -1.
</event>
<event>
 5   0  0.1491854E-06  0.3694646E+04  0.7818609E-02  0.8069149E-01
        2   -1    0    0  501    0  0.00000000000E+00  0.00000000000E+00  0.21642171796E+04  0.21642171796E+04  0.25500000920E-02 0.  1.
       -2   -1    0    0    0  501  0.00000000000E+00  0.00000000000E+00 -0.15768301376E+04  0.15768301376E+04  0.25500000920E-02 0. -1.
    10030    2    1    2    0    0  0.00000000000E+00  0.00000000000E+00  0.58738704199E+03  0.37410473172E+04  0.36946463284E+04 0.  0.
        5    1    3    3  502    0 -0.95455327562E+03 -0.53076063277E+03 -0.12148841110E+04  0.16336597866E+04  0.46999998093E+01 0. -1.
       -5    1    3    3    0  502  0.95455327562E+03  0.53076063277E+03  0.18022711529E+04  0.21073875306E+04  0.46999998093E+01 0.  1.
</event>
<event>
 5   0  0.1379425E-06  0.2544301E+04  0.7818609E-02  0.8387371E-01
       -2   -1    0    0    0  501  0.00000000000E+00  0.00000000000E+00  0.15256472420E+04  0.15256472420E+04  0.25500000920E-02 0. -1.
        2   -1    0    0  501    0  0.00000000000E+00  0.00000000000E+00 -0.10607740095E+04  0.10607740095E+04  0.25500000920E-02 0.  1.
    10030    2    1    2    0    0  0.00000000000E+00  0.00000000000E+00  0.46487323253E+03  0.25864212515E+04  0.25443010372E+04 0.  0.
        4    1    3    3  502    0  0.33651709811E+03  0.63588220759E+03 -0.83411068412E+03  0.11015135884E+04  0.12699999809E+01 0.  1.
       -4    1    3    3    0  502 -0.33651709811E+03 -0.63588220759E+03  0.12989839167E+04  0.14849076631E+04  0.12699999809E+01 0. -1.
</event>
<event>
 5   0  0.1444091E-06  0.3581851E+04  0.7818609E-02  0.8094662E-01
        2   -1    0    0  501    0  0.00000000000E+00  0.00000000000E+00  0.11217648478E+04  0.11217648478E+04  0.25500000920E-02 0.  1.
       -2   -1    0    0    0  501  0.00000000000E+00  0.00000000000E+00 -0.28592579159E+04  0.28592579159E+04  0.25500000920E-02 0. -1.
    10030    2    1    2    0    0  0.00000000000E+00  0.00000000000E+00 -0.17374930681E+04  0.39810227637E+04  0.35818514882E+04 0.  0.
        1    1    3    3  502    0 -0.10491404363E+04  0.13011708645E+04 -0.15389465042E+03  0.16785186437E+04  0.50400001928E-02 0.  1.
       -1    1    3    3    0  502  0.10491404363E+04 -0.13011708645E+04 -0.15835984176E+04  0.23025041199E+04  0.50400001928E-02 0. -1.
</event>
<event>
 5   0  0.1491854E-06  0.3628651E+04  0.7818609E-02  0.8083960E-01
        2   -1    0    0  501    0  0.00000000000E+00  0.00000000000E+00  0.23764822186E+04  0.23764822186E+04  0.25500000920E-02 0. -1.
       -2   -1    0    0    0  501  0.00000000000E+00  0.00000000000E+00 -0.13851472070E+04  0.13851472070E+04  0.25500000920E-02 0.  1.
    10030    2    1    2    0    0  0.00000000000E+00  0.00000000000E+00  0.99133501162E+03  0.37616294257E+04  0.36286513791E+04 0.  0.
        5    1    3    3  502    0 -0.10071884970E+04  0.20369478782E+03 -0.10544002272E+04  0.14723118434E+04  0.46999998093E+01 0.  1.
       -5    1    3    3    0  502  0.10071884970E+04 -0.20369478782E+03  0.20457352388E+04  0.22893175823E+04  0.46999998093E+01 0. -1.
</event>
<event>
 5   0  0.1505671E-06  0.3546536E+04  0.7818609E-02  0.8102849E-01
       -2   -1    0    0    0  501  0.00000000000E+00  0.00000000000E+00  0.21043381018E+04  0.21043381019E+04  0.25500000920E-02 0. -1.
        2   -1    0    0  501    0  0.00000000000E+00  0.00000000000E+00 -0.14942842920E+04  0.14942842920E+04  0.25500000920E-02 0.  1.
    10030    2    1    2    0    0  0.00000000000E+00  0.00000000000E+00  0.61005380987E+03  0.35986223938E+04  0.35465359835E+04 0.  0.
        3    1    3    3  502    0  0.63850983054E+03  0.12154130833E+04  0.14438088634E+04  0.19923623694E+04  0.10100000352E+00 0. -1.
       -3    1    3    3    0  502 -0.63850983054E+03 -0.12154130833E+04 -0.83375505348E+03  0.16062600245E+04  0.10100000352E+00 0.  1.
</event>
<event>
 5   0  0.1379425E-06  0.2821553E+04  0.7818609E-02  0.8296608E-01
        2   -1    0    0  501    0  0.00000000000E+00  0.00000000000E+00  0.15284473420E+04  0.15284473420E+04  0.25500000920E-02 0. -1.
       -2   -1    0    0    0  501  0.00000000000E+00  0.00000000000E+00 -0.13021645862E+04  0.13021645862E+04  0.25500000920E-02 0.  1.
    10030    2    1    2    0    0  0.00000000000E+00  0.00000000000E+00  0.22628275576E+03  0.28306119282E+04  0.28215527644E+04 0.  0.
        4    1    3    3  502    0 -0.64181013753E+03  0.14465112421E+03 -0.11388415370E+04  0.13152208407E+04  0.12699999809E+01 0.  1.
       -4    1    3    3    0  502  0.64181013753E+03 -0.14465112421E+03  0.13651242928E+04  0.15153910875E+04  0.12699999809E+01 0. -1.
</event>
<event>
 5   0  0.4811500E-07  0.3623152E+04  0.7818609E-02  0.8085209E-01
        1   -1    0    0  501    0  0.00000000000E+00  0.00000000000E+00  0.23062236789E+04  0.23062236789E+04  0.50400001928E-02 0.  1.
       -1   -1    0    0    0  501  0.00000000000E+00  0.00000000000E+00 -0.14230219770E+04  0.14230219771E+04  0.50400001928E-02 0. -1.
    10030    2    1    2    0    0  0.00000000000E+00  0.00000000000E+00  0.88320170187E+03  0.37292456560E+04  0.36231516552E+04 0.  0.
        3    1    3    3  502    0  0.95220049979E+03 -0.13123670220E+04  0.12732290398E+04  0.20615783250E+04  0.10100000352E+00 0.  1.
       -3    1    3    3    0  502 -0.95220049979E+03  0.13123670220E+04 -0.39002733792E+03  0.16676673310E+04  0.10100000352E+00 0. -1.
</event>
<event>
 5   0  0.4811500E-07  0.3615739E+04  0.7818609E-02  0.8086896E-01
        1   -1    0    0  501    0  0.00000000000E+00  0.00000000000E+00  0.28387465376E+04  0.28387465376E+04  0.50400001928E-02 0. -1.
       -1   -1    0    0    0  501  0.00000000000E+00  0.00000000000E+00 -0.11513504038E+04  0.11513504038E+04  0.50400001928E-02 0.  1.
    10030    2    1    2    0    0  0.00000000000E+00  0.00000000000E+00  0.16873961338E+04  0.39900969414E+04  0.36157389133E+04 0.  0.
        2    1    3    3  502    0 -0.42539808483E+03 -0.18829407217E+03  0.27715637971E+04  0.28103352238E+04  0.25500000920E-02 0. -1.
       -2    1    3    3    0  502  0.42539808483E+03  0.18829407217E+03 -0.10841676633E+04  0.11797617176E+04  0.25500000920E-02 0.  1.
</event>
<event>
 5   0  0.4811500E-07  0.3595676E+04  0.7818609E-02  0.8091483E-01
       -1   -1    0    0    0  501  0.00000000000E+00  0.00000000000E+00  0.26151786676E+04  0.26151786677E+04  0.50400001928E-02 0. -1.
        1   -1    0    0  501    0  0.00000000000E+00  0.00000000000E+00 -0.12359467575E+04  0.12359467575E+04  0.50400001928E-02 0.  1.
    10030    2    1    2    0    0  0.00000000000E+00  0.00000000000E+00  0.13792319102E+04  0.38511254251E+04  0.35956760669E+04 0.  0.
        3    1    3    3  502    0 -0.15437163957E+04  0.86313282771E+03  0.10352876623E+04  0.20493606668E+04  0.10100000352E+00 0. -1.
       -3    1    3    3    0  502  0.15437163957E+04 -0.86313282771E+03  0.34394424788E+03  0.18017647583E+04  0.10100000352E+00 0.  1.
</event>
<event>
 5   0  0.1379425E-06  0.2503882E+04  0.7818609E-02  0.8401604E-01
        2   -1    0    0  501    0  0.00000000000E+00  0.00000000000E+00  0.15808621178E+04  0.15808621178E+04  0.25500000920E-02 0. -1.
       -2   -1    0    0    0  501  0.00000000000E+00  0.00000000000E+00 -0.99145636339E+03  0.99145636340E+03  0.25500000920E-02 0.  1.
    10030    2    1    2    0    0  0.00000000000E+00  0.00000000000E+00  0.58940575437E+03  0.25723184812E+04  0.25038816316E+04 0.  0.
        4    1    3    3  502    0 -0.63146998696E+02  0.79183355889E+03 -0.69940570509E+03  0.10583751139E+04  0.12699999809E+01 0.  1.
       -4    1    3    3    0  502  0.63146998696E+02 -0.79183355889E+03  0.12888114595E+04  0.15139433673E+04  0.12699999809E+01 0. -1.
</event>
<event>
 5   0  0.5071661E-07  0.3595237E+04  0.7818609E-02  0.8091584E-01
       -1   -1    0    0    0  501  0.00000000000E+00  0.00000000000E+00  0.25220336569E+04  0.25220336569E+04  0.50400001928E-02 0.  1.
        1   -1    0    0  501    0  0.00000000000E+00  0.00000000000E+00 -0.12812803244E+04  0.12812803245E+04  0.50400001928E-02 0. -1.
    10030    2    1    2    0    0  0.00000000000E+00  0.00000000000E+00  0.12407533325E+04  0.38033139814E+04  0.35952369058E+04 0.  0.
        1    1    3    3  502    0 -0.33027194601E+03  0.10387415035E+04 -0.89181913513E+03  0.14083340652E+04  0.50400001928E-02 0. -1.
       -1    1    3    3    0  502  0.33027194601E+03 -0.10387415035E+04  0.21325724676E+04  0.23949799162E+04  0.50400001928E-02 0.  1.
</event>
<event>
 5   0  0.4811500E-07  0.3554245E+04  0.7818609E-02  0.8101054E-01
       -1   -1    0    0    0  501  0.00000000000E+00  0.00000000000E+00  0.19652912361E+04  0.19652912361E+04  0.50400001928E-02 0.  1.
        1   -1    0    0  501    0  0.00000000000E+00  0.00000000000E+00 -0.16069703620E+04  0.16069703620E+04  0.50400001928E-02 0. -1.
    10030    2    1    2    0    0  0.00000000000E+00  0.00000000000E+00  0.35832087410E+03  0.35722615981E+04  0.35542452190E+04 0.  0.
        5    1    3    3  502    0 -0.58618827403E+02 -0.14197526346E+04 -0.89349302528E+03  0.16785367398E+04  0.46999998093E+01 0. -1.
       -5    1    3    3    0  502  0.58618827403E+02  0.14197526346E+04  0.12518138994E+04  0.18937248584E+04  0.46999998093E+01 0.  1.
</event>
<event>
 5   0  0.5071661E-07  0.3132621E+04  0.7818609E-02  0.8206842E-01
       -1   -1    0    0    0  501  0.00000000000E+00  0.00000000000E+00  0.14630762917E+04  0.14630762917E+04  0.50400001928E-02 0. -1.
        1   -1    0    0  501    0  0.00000000000E+00  0.00000000000E+00 -0.16768288540E+04  0.16768288540E+04  0.50400001928E-02 0.  1.
    10030    2    1    2    0    0  0.00000000000E+00  0.00000000000E+00 -0.21375256224E+03  0.31399051457E+04  0.31326209739E+04 0.  0.
        1    1    3    3  502    0 -0.84264668717E+03  0.48347999445E+03  0.11246067415E+04  0.14861179857E+04  0.50400001928E-02 0. -1.
       -1    1    3    3    0  502  0.84264668717E+03 -0.48347999445E+03 -0.13383593038E+04  0.16537871600E+04  0.50400001928E-02 0.  1.
</event>
<event>
 5   0  0.4811500E-07  0.2885622E+04  0.7818609E-02  0.8277168E-01
       -1   -1    0    0    0  501  0.00000000000E+00  0.00000000000E+00  0.13114459862E+04  0.13114459862E+04  0.50400001928E-02 0.  1.
        1   -1    0    0  501    0  0.00000000000E+00  0.00000000000E+00 -0.15873350456E+04  0.15873350456E+04  0.50400001928E-02 0. -1.
    10030    2    1    2    0    0  0.00000000000E+00  0.00000000000E+00 -0.27588905947E+03  0.28987810318E+04  0.28856224107E+04 0.  0.
        2    1    3    3  502    0  0.14364011814E+04  0.12707564460E+03 -0.89687980344E+02  0.14447977392E+04  0.25500000920E-02 0.  1.
       -2    1    3    3    0  502 -0.14364011814E+04 -0.12707564460E+03 -0.18620107912E+03  0.14539832926E+04  0.25500000920E-02 0. -1.
</event>
<event>
 5   0  0.1491854E-06  0.3631261E+04  0.7818609E-02  0.8083368E-01
       -2   -1    0    0    0  501  0.00000000000E+00  0.00000000000E+00  0.11218870264E+04  0.11218870264E+04  0.25500000920E-02 0. -1.
        2   -1    0    0  501    0  0.00000000000E+00  0.00000000000E+00 -0.29383655009E+04  0.29383655009E+04  0.25500000920E-02 0.  1.
    10030    2    1    2    0    0  0.00000000000E+00  0.00000000000E+00 -0.18164784745E+04  0.40602525272E+04  0.36312610119E+04 0.  0.
        5    1    3    3  502    0 -0.25444119897E+03 -0.15414452857E+04  0.12608303257E+03  0.15673904790E+04  0.46999998093E+01 0. -1.
       -5    1    3    3    0  502  0.25444119897E+03  0.15414452857E+04 -0.19425615071E+04  0.24928620482E+04  0.46999998093E+01 0.  1.
</event>
<event>
 5   0  0.1379425E-06  0.3663653E+04  0.7818609E-02  0.8076065E-01
       -2   -1    0    0    0  501  0.00000000000E+00  0.00000000000E+00  0.17631637827E+04  0.17631637827E+04  0.25500000920E-02 0.  1.
        2   -1    0    0  501    0  0.00000000000E+00  0.00000000000E+00 -0.19031629873E+04  0.19031629873E+04  0.25500000920E-02 0. -1.
    10030    2    1    2    0    0  0.00000000000E+00  0.00000000000E+00 -0.13999920465E+03  0.36663267700E+04  0.36636528502E+04 0.  0.
        4    1    3    3  502    0 -0.13316014214E+04  0.12433083245E+04 -0.26147273540E+03  0.18404748136E+04  0.12699999809E+01 0. -1.
       -4    1    3    3    0  502  0.13316014214E+04 -0.12433083245E+04  0.12147353075E+03  0.18258519564E+04  0.12699999809E+01 0.  1.
</event>
<event>
 5   0  0.4811500E-07  0.3403382E+04  0.7818609E-02  0.8137077E-01
       -1   -1    0    0    0  501  0.00000000000E+00  0.00000000000E+00  0.14810983704E+04  0.14810983705E+04  0.50400001928E-02 0. -1.
        1   -1    0    0  501    0  0.00000000000E+00  0.00000000000E+00 -0.19551388832E+04  0.19551388832E+04  0.50400001928E-02 0.  1.
    10030    2    1    2    0    0  0.00000000000E+00  0.00000000000E+00 -0.47404051280E+03  0.34362372537E+04  0.34033824434E+04 0.  0.
        3    1    3    3  502    0 -0.10260603371E+04 -0.52817196250E+03 -0.14996878539E+04  0.18923078784E+04  0.10100000352E+00 0.  1.
       -3    1    3    3    0  502  0.10260603371E+04  0.52817196250E+03  0.10256473411E+04  0.15439293753E+04  0.10100000352E+00 0. -1.
</event>
<event>
 5   0  0.4811500E-07  0.2826240E+04  0.7818609E-02  0.8295168E-01
       -1   -1    0    0    0  501  0.00000000000E+00  0.00000000000E+00  0.94745985617E+03  0.94745985618E+03  0.50400001928E-02 0. -1.
        1   -1    0    0  501    0  0.00000000000E+00  0.00000000000E+00 -0.21076441557E+04  0.21076441557E+04  0.50400001928E-02 0.  1.
    10030    2    1    2    0    0  0.00000000000E+00  0.00000000000E+00 -0.11601842995E+04  0.30551040119E+04  0.28262400667E+04 0.  0.
        2    1    3    3  502    0  0.60596300800E+03 -0.72512614148E+03 -0.17158444270E+04  0.19588571121E+04  0.25500000920E-02 0.  1.
       -2    1    3    3    0  502 -0.60596300800E+03  0.72512614148E+03  0.55566012741E+03  0.10962468998E+04  0.25500000920E-02 0. -1.
</event>
<event>
 5   0  0.1379425E-06  0.3553180E+04  0.7818609E-02  0.8101301E-01
        2   -1    0    0  501    0  0.00000000000E+00  0.00000000000E+00  0.19303145434E+04  0.19303145434E+04  0.25500000920E-02 0. -1.
       -2   -1    0    0    0  501  0.00000000000E+00  0.00000000000E+00 -0.16351073303E+04  0.16351073303E+04  0.25500000920E-02 0.  1.
    10030    2    1    2    0    0  0.00000000000E+00  0.00000000000E+00  0.29520721305E+03  0.35654218737E+04  0.35531796801E+04 0.  0.
        4    1    3    3  502    0 -0.11870747044E+04  0.40071358060E+03  0.14115275076E+04  0.18873603909E+04  0.12699999809E+01 0. -1.
       -4    1    3    3    0  502  0.11870747044E+04 -0.40071358060E+03 -0.11163202945E+04  0.16780614829E+04  0.12699999809E+01 0.  1.
</event>
<event>
 5   0  0.5071661E-07  0.3440124E+04  0.7818609E-02  0.8128128E-01
       -1   -1    0    0    0  501  0.00000000000E+00  0.00000000000E+00  0.25948932291E+04  0.25948932291E+04  0.50400001928E-02 0.  1.
        1   -1    0    0  501    0  0.00000000000E+00  0.00000000000E+00 -0.11401676944E+04  0.11401676944E+04  0.50400001928E-02 0. -1.
    10030    2    1    2    0    0  0.00000000000E+00  0.00000000000E+00  0.14547255347E+04  0.37350609235E+04  0.34401240851E+04 0.  0.
        1    1    3    3  502    0 -0.13990324575E+04  0.72670887640E+03  0.14742468615E+04  0.21584256802E+04  0.50400001928E-02 0.  1.
       -1    1    3    3    0  502  0.13990324575E+04 -0.72670887640E+03 -0.19521326852E+02  0.15766352433E+04  0.50400001928E-02 0. -1.
</event>
<event>
 5   0  0.1379425E-06  0.2833196E+04  0.7818609E-02  0.8293036E-01
        2   -1    0    0  501    0  0.00000000000E+00  0.00000000000E+00  0.25078632904E+04  0.25078632904E+04  0.25500000920E-02 0.  1.
       -2   -1    0    0    0  501  0.00000000000E+00  0.00000000000E+00 -0.80018305211E+03  0.80018305212E+03  0.25500000920E-02 0. -1.
    10030    2    1    2    0    0  0.00000000000E+00  0.00000000000E+00  0.17076802383E+04  0.33080463425E+04  0.28331958648E+04 0.  0.
        4    1    3    3  502    0  0.88299806201E+03 -0.10833286456E+04  0.58386994435E+03  0.15146591223E+04  0.12699999809E+01 0. -1.
       -4    1    3    3    0  502 -0.88299806201E+03  0.10833286456E+04  0.11238102940E+04  0.17933872202E+04  0.12699999809E+01 0.  1.
</event>
<event>
 5   0  0.4811500E-07  0.2643774E+04  0.7818609E-02  0.8353483E-01
        1   -1    0    0  501    0  0.00000000000E+00  0.00000000000E+00  0.14339769449E+04  0.14339769449E+04  0.50400001928E-02 0.  1.
       -1   -1    0    0    0  501  0.00000000000E+00  0.00000000000E+00 -0.12185584062E+04  0.12185584062E+04  0.50400001928E-02 0. -1.
    10030    2    1    2    0    0  0.00000000000E+00  0.00000000000E+00  0.21541853875E+03  0.26525353511E+04  0.26437735610E+04 0.  0.
        4    1    3    3  502    0 -0.96543915836E+03  0.75667177331E+03  0.60204704179E+03  0.13664139909E+04  0.12699999809E+01 0.  1.
       -4    1    3    3    0  502  0.96543915836E+03 -0.75667177331E+03 -0.38662850304E+03  0.12861213602E+04  0.12699999809E+01 0. -1.
</event>
<event>
 5   0  0.5071661E-07  0.3657544E+04  0.7818609E-02  0.8077436E-01
        1   -1    0    0  501    0  0.00000000000E+00  0.00000000000E+00  0.23080300126E+04  0.23080300126E+04  0.50400001928E-02 0.  1.
       -1   -1    0    0    0  501  0.00000000000E+00  0.00000000000E+00 -0.14490313091E+04  0.14490313092E+04  0.50400001928E-02 0. -1.
    10030    2    1    2    0    0  0.00000000000E+00  0.00000000000E+00  0.85899870346E+03  0.37570613218E+04  0.36575443952E+04 0.  0.
        1    1    3    3  502    0 -0.66871798448E+01 -0.10013868190E+04 -0.11423606763E+04  0.15191471932E+04  0.50400001928E-02 0. -1.
       -1    1    3    3    0  502  0.66871798448E+01  0.10013868190E+04  0.20013593798E+04  0.22379141286E+04  0.50400001928E-02 0.  1.
</event>
<event>
 5   0  0.1505671E-06  0.3603931E+04  0.7818609E-02  0.8089592E-01
        2   -1    0    0  501    0  0.00000000000E+00  0.00000000000E+00  0.19987965914E+04  0.19987965914E+04  0.25500000920E-02 0. -1.
       -2   -1    0    0    0  501  0.00000000000E+00  0.00000000000E+00 -0.16245175773E+04  0.16245175773E+04  0.25500000920E-02 0.  1.
    10030    2    1    2    0    0  0.00000000000E+00  0.00000000000E+00  0.37427901410E+03  0.36233141686E+04  0.36039312957E+04 0.  0.
        3    1    3    3  502    0  0.63707084757E+03  0.16581333836E+04 -0.11749940073E+03  0.17801886704E+04  0.10100000352E+00 0. -1.
       -3    1    3    3    0  502 -0.63707084757E+03 -0.16581333836E+04  0.49177841483E+03  0.18431254982E+04  0.10100000352E+00 0.  1.
</event>
<event>
 5   0  0.4811500E-07  0.2552640E+04  0.7818609E-02  0.8384468E-01
        1   -1    0    0  501    0  0.00000000000E+00  0.00000000000E+00  0.13170559136E+04  0.13170559136E+04  0.50400001928E-02 0. -1.
       -1   -1    0    0    0  501  0.00000000000E+00  0.00000000000E+00 -0.12368444492E+04  0.12368444492E+04  0.50400001928E-02 0.  1.
    10030    2    1    2    0    0  0.00000000000E+00  0.00000000000E+00  0.80211464474E+02  0.25539003628E+04  0.25526404338E+04 0.  0.
        5    1    3    3  502    0 -0.12679479371E+04  0.87907580401E+02 -0.76362601850E+02  0.12732922096E+04  0.46999998093E+01 0. -1.
       -5    1    3    3    0  502  0.12679479371E+04 -0.87907580401E+02  0.15657406632E+03  0.12806081533E+04  0.46999998093E+01 0.  1.
</event>
<event>
 5   0  0.1505671E-06  0.3603349E+04  0.7818609E-02  0.8089725E-01
        2   -1    0    0  501    0  0.00000000000E+00  0.00000000000E+00  0.20776843143E+04  0.20776843143E+04  0.25500000920E-02 0.  1.
       -2   -1    0    0    0  501  0.00000000000E+00  0.00000000000E+00 -0.15623309967E+04  0.15623309967E+04  0.25500000920E-02 0. -1.
    10030    2    1    2    0    0  0.00000000000E+00  0.00000000000E+00  0.51535331756E+03  0.36400153109E+04  0.36033487788E+04 0.  0.
        3    1    3    3  502    0 -0.62249747540E+03 -0.10659315973E+04  0.15834018046E+04  0.20077038033E+04  0.10100000352E+00 0.  1.
       -3    1    3    3    0  502  0.62249747540E+03  0.10659315973E+04 -0.10680484870E+04  0.16323115076E+04  0.10100000352E+00 0. -1.
</event>
<event>
 5   0  0.1379425E-06  0.3623334E+04  0.7818609E-02  0.8085168E-01
       -2   -1    0    0    0  501  0.00000000000E+00  0.00000000000E+00  0.14431502280E+04  0.14431502280E+04  0.25500000920E-02 0.  1.
        2   -1    0    0  501    0  0.00000000000E+00  0.00000000000E+00 -0.22742860489E+04  0.22742860489E+04  0.25500000920E-02 0. -1.
    10030    2    1    2    0    0  0.00000000000E+00  0.00000000000E+00 -0.83113582090E+03  0.37174362768E+04  0.36233335093E+04 0.  0.
        4    1    3    3  502    0 -0.13353719310E+04 -0.98867034091E+03 -0.11564354217E+04  0.20243595863E+04  0.12699999809E+01 0. -1.
       -4    1    3    3    0  502  0.13353719310E+04  0.98867034091E+03  0.32529960081E+03  0.16930766906E+04  0.12699999809E+01 0.  1.
</event>
<event>
 5   0  0.1444091E-06  0.2601735E+04  0.7818609E-02  0.8367612E-01
        2   -1    0    0  501    0  0.00000000000E+00  0.00000000000E+00  0.17013410953E+04  0.17013410953E+04  0.25500000920E-02 0.  1.
       -2   -1    0    0    0  501  0.00000000000E+00  0.00000000000E+00 -0.99466035394E+03  0.99466035394E+03  0.25500000920E-02 0. -1.
    10030    2    1    2    0    0  0.00000000000E+00  0.00000000000E+00  0.70668074131E+03  0.26960014492E+04  0.26017352179E+04 0.  0.
        1    1    3    3  502    0 -0.21510207537E+03 -0.59917517337E+03 -0.82221306553E+03  0.10398625469E+04  0.50400001928E-02 0. -1.
       -1    1    3    3    0  502  0.21510207537E+03  0.59917517337E+03  0.15288938068E+04  0.16561389023E+04  0.50400001928E-02 0.  1.
</event>
<event>
 5   0  0.1444091E-06  0.3550121E+04  0.7818609E-02  0.8102013E-01
        2   -1    0    0  501    0  0.00000000000E+00  0.00000000000E+00  0.28120638792E+04  0.28120638792E+04  0.25500000920E-02 0. -1.
       -2   -1    0    0    0  501  0.00000000000E+00  0.00000000000E+00 -0.11204726210E+04  0.11204726210E+04  0.25500000920E-02 0.  1.
    10030    2    1    2    0    0  0.00000000000E+00  0.00000000000E+00  0.16915912582E+04  0.39325365003E+04  0.35501214544E+04 0.  0.
        1    1    3    3  502    0  0.66962591850E+03 -0.34701161902E+03  0.26257535818E+04  0.27319219987E+04  0.50400001928E-02 0. -1.
       -1    1    3    3    0  502 -0.66962591850E+03  0.34701161902E+03 -0.93416232364E+03  0.12006145016E+04  0.50400001928E-02 0.  1.
</event>
<event>
 5   0  0.4811500E-07  0.2289343E+04  0.7818609E-02  0.8482135E-01
        1   -1    0    0  501    0  0.00000000000E+00  0.00000000000E+00  0.10396783997E+04  0.10396783997E+04  0.50400001928E-02 0.  1.
       -1   -1    0    0    0  501  0.00000000000E+00  0.00000000000E+00 -0.12602678486E+04  0.12602678486E+04  0.50400001928E-02 0. -1.
    10030    2    1    2    0    0  0.00000000000E+00  0.00000000000E+00 -0.22058944884E+03  0.22999462483E+04  0.22893433644E+04 0.  0.
        2    1    3    3  502    0 -0.40187537091E+03 -0.10084604192E+04  0.25439758746E+03  0.11149952302E+04  0.25500000920E-02 0. -1.
       -2    1    3    3    0  502  0.40187537091E+03  0.10084604192E+04 -0.47498703630E+03  0.11849510182E+04  0.25500000920E-02 0.  1.
</event>
<event>
 5   0  0.4811500E-07  0.3628459E+04  0.7818609E-02  0.8084004E-01
       -1   -1    0    0    0  501  0.00000000000E+00  0.00000000000E+00  0.13622083675E+04  0.13622083675E+04  0.50400001928E-02 0. -1.
        1   -1    0    0  501    0  0.00000000000E+00  0.00000000000E+00 -0.24162448932E+04  0.24162448932E+04  0.50400001928E-02 0.  1.
    10030    2    1    2    0    0  0.00000000000E+00  0.00000000000E+00 -0.10540365257E+04  0.37784532607E+04  0.36284591834E+04 0.  0.
        4    1    3    3  502    0  0.15264672702E+04  0.63095681537E+03 -0.13085206242E+04  0.21072343644E+04  0.12699999809E+01 0.  1.
       -4    1    3    3    0  502 -0.15264672702E+04 -0.63095681537E+03  0.25448409848E+03  0.16712188963E+04  0.12699999809E+01 0. -1.
</event>
<event>
 5   0  0.1491854E-06  0.2628809E+04  0.7818609E-02  0.8358481E-01
       -2   -1    0    0    0  501  0.00000000000E+00  0.00000000000E+00  0.73598052897E+03  0.73598052898E+03  0.25500000920E-02 0.  1.
        2   -1    0    0  501    0  0.00000000000E+00  0.00000000000E+00 -0.23474250502E+04  0.23474250502E+04  0.25500000920E-02 0. -1.
    10030    2    1    2    0    0  0.00000000000E+00  0.00000000000E+00 -0.16114445212E+04  0.30834055792E+04  0.26288089548E+04 0.  0.
        5    1    3    3  502    0 -0.86608847218E+03 -0.92326137996E+03 -0.12206079364E+04  0.17585296818E+04  0.46999998093E+01 0. -1.
       -5    1    3    3    0  502  0.86608847218E+03  0.92326137996E+03 -0.39083658478E+03  0.13248758973E+04  0.46999998093E+01 0.  1.
</event>
<event>
 5   0  0.5071661E-07  0.3586293E+04  0.7818609E-02  0.8093639E-01
       -1   -1    0    0    0  501  0.00000000000E+00  0.00000000000E+00  0.27559090697E+04  0.27559090697E+04  0.50400001928E-02 0.  1.
        1   -1    0    0  501    0  0.00000000000E+00  0.00000000000E+00 -0.11667202003E+04  0.11667202003E+04  0.50400001928E-02 0. -1.
    10030    2    1    2    0    0  0.00000000000E+00  0.00000000000E+00  0.15891888694E+04  0.39226292701E+04  0.35862932295E+04 0.  0.
        1    1    3    3  502    0 -0.11974903465E+04 -0.67028850401E+03  0.20570052111E+04  0.24727596420E+04  0.50400001928E-02 0.  1.
       -1    1    3    3    0  502  0.11974903465E+04  0.67028850401E+03 -0.46781634175E+03  0.14498696280E+04  0.50400001928E-02 0. -1.
</event>
<event>
 5   0  0.4811500E-07  0.3386358E+04  0.7818609E-02  0.8141263E-01
       -1   -1    0    0    0  501  0.00000000000E+00  0.00000000000E+00  0.88679843015E+03  0.88679843017E+03  0.50400001928E-02 0. -1.
        1   -1    0    0  501    0  0.00000000000E+00  0.00000000000E+00 -0.32328147412E+04  0.32328147412E+04  0.50400001928E-02 0.  1.
    10030    2    1    2    0    0  0.00000000000E+00  0.00000000000E+00 -0.23460163110E+04  0.41196131713E+04  0.33863579477E+04 0.  0.
        4    1    3    3  502    0  0.15944981714E+04  0.17319692403E+03 -0.51289869675E+03  0.16838908157E+04  0.12699999809E+01 0. -1.
       -4    1    3    3    0  502 -0.15944981714E+04 -0.17319692403E+03 -0.18331176143E+04  0.24357223557E+04  0.12699999809E+01 0.  1.
</event>
<event>
 5   0  0.4811500E-07  0.3692777E+04  0.7818609E-02  0.8069565E-01
        1   -1    0    0  501    0  0.00000000000E+00  0.00000000000E+00  0.18442018496E+04  0.18442018496E+04  0.50400001928E-02 0.  1.
       -1   -1    0    0    0  501  0.00000000000E+00  0.00000000000E+00 -0.18485772727E+04  0.18485772728E+04  0.50400001928E-02 0. -1.
    10030    2    1    2    0    0  0.00000000000E+00  0.00000000000E+00 -0.43754231217E+01  0.36927791224E+04  0.36927765303E+04 0.  0.
        5    1    3    3  502    0 -0.13930869178E+04  0.10172935135E+04  0.65625810315E+03  0.18456093956E+04  0.46999998093E+01 0.  1.
       -5    1    3    3    0  502  0.13930869178E+04 -0.10172935135E+04 -0.66063352628E+03  0.18471697267E+04  0.46999998093E+01 0. -1.
</event>
<event>
 5   0  0.1379425E-06  0.3571600E+04  0.7818609E-02  0.8097028E-01
        2   -1    0    0  501    0  0.00000000000E+00  0.00000000000E+00  0.26587618639E+04  0.26587618639E+04  0.25500000920E-02 0. -1.
       -2   -1    0    0    0  501  0.00000000000E+00  0.00000000000E+00 -0.11994612414E+04  0.11994612414E+04  0.25500000920E-02 0.  1.
    10030    2    1    2    0    0  0.00000000000E+00  0.00000000000E+00  0.14593006225E+04  0.38582231053E+04  0.35716000929E+04 0.  0.
        4    1    3    3  502    0 -0.17123067061E+03  0.67352686961E+03  0.25066943162E+04  0.26012451623E+04  0.12699999809E+01 0. -1.
       -4    1    3    3    0  502  0.17123067061E+03 -0.67352686961E+03 -0.10473936937E+04  0.12569779430E+04  0.12699999809E+01 0.  1.
</event>
<event>
 5   0  0.5071661E-07  0.3563130E+04  0.7818609E-02  0.8098990E-01
        1   -1    0    0  501    0  0.00000000000E+00  0.00000000000E+00  0.11793315865E+04  0.11793315866E+04  0.50400001928E-02 0.  1.
       -1   -1    0    0    0  501  0.00000000000E+00  0.00000000000E+00 -0.26913333329E+04  0.26913333329E+04  0.50400001928E-02 0. -1.
    10030    2    1    2    0    0  0.00000000000E+00  0.00000000000E+00 -0.15120017464E+04  0.38706649195E+04  0.35631303145E+04 0.  0.
        1    1    3    3  502    0  0.12282110725E+04 -0.72220338398E+03  0.40584041920E+03  0.14814812224E+04  0.50400001928E-02 0.  1.
       -1    1    3    3    0  502 -0.12282110725E+04  0.72220338398E+03 -0.19178421656E+04  0.23891836971E+04  0.50400001928E-02 0. -1.
</event>
<event>
 5   0  0.1468942E-06  0.3605132E+04  0.7818609E-02  0.8089317E-01
        2   -1    0    0  501    0  0.00000000000E+00  0.00000000000E+00  0.17684824119E+04  0.17684824119E+04  0.25500000920E-02 0. -1.
       -2   -1    0    0    0  501  0.00000000000E+00  0.00000000000E+00 -0.18373062423E+04  0.18373062423E+04  0.25500000920E-02 0.  1.
    10030    2    1    2    0    0  0.00000000000E+00  0.00000000000E+00 -0.68823830346E+02  0.36057886542E+04  0.36051317728E+04 0.  0.
        2    1    3    3  502    0 -0.93098601297E+03 -0.45554333687E+03  0.14406412217E+04  0.17747399297E+04  0.25500000920E-02 0. -1.
       -2    1    3    3    0  502  0.93098601297E+03  0.45554333687E+03 -0.15094650521E+04  0.18310487245E+04  0.25500000920E-02 0.  1.
</event>
<event>
 5   0  0.1491854E-06  0.3619913E+04  0.7818609E-02  0.8085946E-01
        2   -1    0    0  501    0  0.00000000000E+00  0.00000000000E+00  0.14657755865E+04  0.14657755866E+04  0.25500000920E-02 0.  1.
       -2   -1    0    0    0  501  0.00000000000E+00  0.00000000000E+00 -0.22349549053E+04  0.22349549053E+04  0.25500000920E-02 0. -1.
    10030    2    1    2    0    0  0.00000000000E+00  0.00000000000E+00 -0.76917931871E+03  0.37007304918E+04  0.36199128924E+04 0.  0.
        5    1    3    3  502    0 -0.14501286780E+03  0.71715042387E+03  0.13078419112E+04  0.14986013535E+04  0.46999998093E+01 0.  1.
       -5    1    3    3    0  502  0.14501286780E+03 -0.71715042387E+03 -0.20770212299E+04  0.22021291383E+04  0.46999998093E+01 0. -1.
</event>
<event>
 5   0  0.4811500E-07  0.2214680E+04  0.7818609E-02  0.8512343E-01
       -1   -1    0    0    0  501  0.00000000000E+00  0.00000000000E+00  0.63096891622E+03  0.63096891624E+03  0.50400001928E-02 0. -1.
        1   -1    0    0  501    0  0.00000000000E+00  0.00000000000E+00 -0.19433632894E+04  0.19433632894E+04  0.50400001928E-02 0.  1.
    10030    2    1    2    0    0  0.00000000000E+00  0.00000000000E+00 -0.13123943732E+04  0.25743322056E+04  0.22146799575E+04 0.  0.
        3    1    3    3  502    0  0.23053632758E+03  0.93261462723E+03 -0.12963430163E+04  0.16135124007E+04  0.10100000352E+00 0.  1.
       -3    1    3    3    0  502 -0.23053632758E+03 -0.93261462723E+03 -0.16051356908E+02  0.96081980491E+03  0.10100000352E+00 0. -1.
</event>
<event>
 5   0  0.4811500E-07  0.3591761E+04  0.7818609E-02  0.8092382E-01
       -3   -1    0    0    0  501  0.00000000000E+00  0.00000000000E+00  0.27352368532E+04  0.27352368551E+04  0.10100000352E+00 0. -1.
        3   -1    0    0  501    0  0.00000000000E+00  0.00000000000E+00 -0.11791249409E+04  0.11791249452E+04  0.10100000352E+00 0.  1.
    10030    2    1    2    0    0  0.00000000000E+00  0.00000000000E+00  0.15561119124E+04  0.39143618003E+04  0.35917605738E+04 0.  0.
        3    1    3    3  502    0  0.43276254752E+03 -0.17212587931E+04  0.10768541696E+04  0.20759648764E+04  0.10100000352E+00 0.  1.
       -3    1    3    3    0  502 -0.43276254752E+03  0.17212587931E+04  0.47925774274E+03  0.18383969238E+04  0.10100000352E+00 0. -1.
</event>
<event>
 5   0  0.4811500E-07  0.3584749E+04  0.7818609E-02  0.8093994E-01
       -1   -1    0    0    0  501  0.00000000000E+00  0.00000000000E+00  0.15490723702E+04  0.15490723703E+04  0.50400001928E-02 0.  1.
        1   -1    0    0  501    0  0.00000000000E+00  0.00000000000E+00 -0.20738904624E+04  0.20738904624E+04  0.50400001928E-02 0. -1.
    10030    2    1    2    0    0  0.00000000000E+00  0.00000000000E+00 -0.52481809217E+03  0.36229628327E+04  0.35847490368E+04 0.  0.
        5    1    3    3  502    0 -0.92234245991E+03 -0.12878255208E+04  0.58520534216E+03  0.16886970029E+04  0.46999998093E+01 0.  1.
       -5    1    3    3    0  502  0.92234245991E+03  0.12878255208E+04 -0.11100234343E+04  0.19342658297E+04  0.46999998093E+01 0. -1.
</event>
<event>
 5   0  0.1468942E-06  0.3646192E+04  0.7818609E-02  0.8079992E-01
       -2   -1    0    0    0  501  0.00000000000E+00  0.00000000000E+00  0.16809533943E+04  0.16809533943E+04  0.25500000920E-02 0.  1.
        2   -1    0    0  501    0  0.00000000000E+00  0.00000000000E+00 -0.19772585887E+04  0.19772585887E+04  0.25500000920E-02 0. -1.
    10030    2    1    2    0    0  0.00000000000E+00  0.00000000000E+00 -0.29630519446E+03  0.36582119830E+04  0.36461922802E+04 0.  0.
        2    1    3    3  502    0  0.29649550794E+03  0.17967877692E+04 -0.23401310491E+03  0.18360604585E+04  0.25500000920E-02 0. -1.
       -2    1    3    3    0  502 -0.29649550794E+03 -0.17967877692E+04 -0.62292089549E+02  0.18221515245E+04  0.25500000920E-02 0.  1.
</event>
<event>
 5   0  0.4811500E-07  0.2339287E+04  0.7818609E-02  0.8462590E-01
        1   -1    0    0  501    0  0.00000000000E+00  0.00000000000E+00  0.48050024717E+03  0.48050024720E+03  0.50400001928E-02 0.  1.
       -1   -1    0    0    0  501  0.00000000000E+00  0.00000000000E+00 -0.28471710383E+04  0.28471710383E+04  0.50400001928E-02 0. -1.
    10030    2    1    2    0    0  0.00000000000E+00  0.00000000000E+00 -0.23666707911E+04  0.33276712855E+04  0.23392874024E+04 0.  0.
        4    1    3    3  502    0 -0.86637681653E+03 -0.72480184682E+03 -0.75158800401E+03  0.13567728793E+04  0.12699999809E+01 0.  1.
       -4    1    3    3    0  502  0.86637681653E+03  0.72480184682E+03 -0.16150827871E+04  0.19708984062E+04  0.12699999809E+01 0. -1.
</event>
<event>
 5   0  0.1505671E-06  0.3579505E+04  0.7818609E-02  0.8095203E-01
       -2   -1    0    0    0  501  0.00000000000E+00  0.00000000000E+00  0.23252316054E+04  0.23252316054E+04  0.25500000920E-02 0. -1.
        2   -1    0    0  501    0  0.00000000000E+00  0.00000000000E+00 -0.13775891722E+04  0.13775891722E+04  0.25500000920E-02 0.  1.
    10030    2    1    2    0    0  0.00000000000E+00  0.00000000000E+00  0.94764243312E+03  0.37028207776E+04  0.35795049280E+04 0.  0.
        3    1    3    3  502    0 -0.46087574581E+03 -0.13167577112E+04  0.16335858472E+04  0.21482225335E+04  0.10100000352E+00 0. -1.
       -3    1    3    3    0  502  0.46087574581E+03  0.13167577112E+04 -0.68594341407E+03  0.15545982441E+04  0.10100000352E+00 0.  1.
</event>
<event>
 5   0  0.1491854E-06  0.2601673E+04  0.7818609E-02  0.8367633E-01
       -2   -1    0    0    0  501  0.00000000000E+00  0.00000000000E+00  0.85488885992E+03  0.85488885992E+03  0.25500000920E-02 0. -1.
        2   -1    0    0  501    0  0.00000000000E+00  0.00000000000E+00 -0.19794097913E+04  0.19794097913E+04  0.25500000920E-02 0.  1.
    10030    2    1    2    0    0  0.00000000000E+00  0.00000000000E+00 -0.11245209313E+04  0.28342986512E+04  0.26016728309E+04 0.  0.
        5    1    3    3  502    0  0.30147467056E+02 -0.56299212229E+03  0.71485810321E+03  0.91044670203E+03  0.46999998093E+01 0. -1.
       -5    1    3    3    0  502 -0.30147467056E+02  0.56299212229E+03 -0.18393790345E+04  0.19238519491E+04  0.46999998093E+01 0.  1.
</event>
<event>
 5   0  0.1379425E-06  0.3483735E+04  0.7818609E-02  0.8117655E-01
        2   -1    0    0  501    0  0.00000000000E+00  0.00000000000E+00  0.25773625060E+04  0.25773625060E+04  0.25500000920E-02 0.  1.
       -2   -1    0    0    0  501  0.00000000000E+00  0.00000000000E+00 -0.11772121338E+04  0.11772121338E+04  0.25500000920E-02 0. -1.
    10030    2    1    2    0    0  0.00000000000E+00  0.00000000000E+00  0.14001503722E+04  0.37545746398E+04  0.34837350159E+04 0.  0.
        4    1    3    3  502    0  0.18189502303E+02  0.12868294505E+04 -0.56499612978E+03  0.14055188125E+04  0.12699999809E+01 0. -1.
       -4    1    3    3    0  502 -0.18189502303E+02 -0.12868294505E+04  0.19651465020E+04  0.23490558274E+04  0.12699999809E+01 0.  1.
</event>
<event>
 5   0  0.4811500E-07  0.3653576E+04  0.7818609E-02  0.8078329E-01
        1   -1    0    0  501    0  0.00000000000E+00  0.00000000000E+00  0.17043238464E+04  0.17043238464E+04  0.50400001928E-02 0. -1.
       -1   -1    0    0    0  501  0.00000000000E+00  0.00000000000E+00 -0.19580517166E+04  0.19580517166E+04  0.50400001928E-02 0.  1.
    10030    2    1    2    0    0  0.00000000000E+00  0.00000000000E+00 -0.25372787023E+03  0.36623755630E+04  0.36535759103E+04 0.  0.
        4    1    3    3  502    0 -0.25323288539E+03 -0.31044323177E+03 -0.19134727636E+04  0.19549633051E+04  0.12699999809E+01 0.  1.
       -4    1    3    3    0  502  0.25323288539E+03  0.31044323177E+03  0.16597448934E+04  0.17074122579E+04  0.12699999809E+01 0. -1.
</event>
<event>
 5   0  0.1444091E-06  0.3512591E+04  0.7818609E-02  0.8110813E-01
       -2   -1    0    0    0  501  0.00000000000E+00  0.00000000000E+00  0.23133274134E+04  0.23133274134E+04  0.25500000920E-02 0. -1.
        2   -1    0    0  501    0  0.00000000000E+00  0.00000000000E+00 -0.13333923292E+04  0.13333923292E+04  0.25500000920E-02 0.  1.
    10030    2    1    2    0    0  0.00000000000E+00  0.00000000000E+00  0.97993508420E+03  0.36467197427E+04  0.35125905130E+04 0.  0.
        1    1    3    3  502    0  0.37279228527E+03  0.15645747643E+04  0.12223884879E+04  0.20201737292E+04  0.50400001928E-02 0. -1.
       -1    1    3    3    0  502 -0.37279228527E+03 -0.15645747643E+04 -0.24245340366E+03  0.16265460135E+04  0.50400001928E-02 0.  1.
</event>
<event>
 5   0  0.4811500E-07  0.2346907E+04  0.7818609E-02  0.8459653E-01
       -1   -1    0    0    0  501  0.00000000000E+00  0.00000000000E+00  0.80805553343E+03  0.80805553344E+03  0.50400001928E-02 0. -1.
        1   -1    0    0  501    0  0.00000000000E+00  0.00000000000E+00 -0.17040818538E+04  0.17040818538E+04  0.50400001928E-02 0.  1.
    10030    2    1    2    0    0  0.00000000000E+00  0.00000000000E+00 -0.89602632035E+03  0.25121373872E+04  0.23469067058E+04 0.  0.
        4    1    3    3  502    0  0.46229290133E+03 -0.10784785342E+04 -0.46157324213E+03  0.12609052883E+04  0.12699999809E+01 0. -1.
       -4    1    3    3    0  502 -0.46229290133E+03  0.10784785342E+04 -0.43445307822E+03  0.12512320989E+04  0.12699999809E+01 0.  1.
</event>
<event>
 5   0  0.1379425E-06  0.3643534E+04  0.7818609E-02  0.8080592E-01
        2   -1    0    0  501    0  0.00000000000E+00  0.00000000000E+00  0.25094030570E+04  0.25094030570E+04  0.25500000920E-02 0. -1.
       -2   -1    0    0    0  501  0.00000000000E+00  0.00000000000E+00 -0.13225593347E+04  0.13225593347E+04  0.25500000920E-02 0.  1.
    10030    2    1    2    0    0  0.00000000000E+00  0.00000000000E+00  0.11868437223E+04  0.38319623917E+04  0.36435336900E+04 0.  0.
        4    1    3    3  502    0  0.96563193013E+03 -0.92930129901E+03  0.18912524740E+04  0.23179481146E+04  0.12699999809E+01 0. -1.
       -4    1    3    3    0  502 -0.96563193013E+03  0.92930129901E+03 -0.70440875166E+03  0.15140142771E+04  0.12699999809E+01 0.  1.
</event>
<event>
 5   0  0.5071661E-07  0.3478051E+04  0.7818609E-02  0.8119011E-01
        1   -1    0    0  501    0  0.00000000000E+00  0.00000000000E+00  0.23987830328E+04  0.23987830328E+04  0.50400001928E-02 0.  1.
       -1   -1    0    0    0  501  0.00000000000E+00  0.00000000000E+00 -0.12607267603E+04  0.12607267603E+04  0.50400001928E-02 0. -1.
    10030    2    1    2    0    0  0.00000000000E+00  0.00000000000E+00  0.11380562725E+04  0.36595097931E+04  0.34780511564E+04 0.  0.
        1    1    3    3  502    0  0.34921051320E+03  0.81993739263E+03 -0.10021880253E+04  0.13411286845E+04  0.50400001928E-02 0. -1.
       -1    1    3    3    0  502 -0.34921051320E+03 -0.81993739263E+03  0.21402442978E+04  0.23183811086E+04  0.50400001928E-02 0.  1.
</event>
<event>
 5   0  0.1491854E-06  0.3343688E+04  0.7818609E-02  0.8151867E-01
       -2   -1    0    0    0  501  0.00000000000E+00  0.00000000000E+00  0.16618883101E+04  0.16618883101E+04  0.25500000920E-02 0.  1.
        2   -1    0    0  501    0  0.00000000000E+00  0.00000000000E+00 -0.16818588883E+04  0.16818588883E+04  0.25500000920E-02 0. -1.
    10030    2    1    2    0    0  0.00000000000E+00  0.00000000000E+00 -0.19970578186E+02  0.33437471984E+04  0.33436875606E+04 0.  0.
        5    1    3    3  502    0 -0.42524215490E+03  0.11667012003E+04  0.11094170748E+04  0.16651879525E+04  0.46999998093E+01 0.  1.
       -5    1    3    3    0  502  0.42524215490E+03 -0.11667012003E+04 -0.11293876530E+04  0.16785592459E+04  0.46999998093E+01 0. -1.
</event>
<event>
 5   0  0.1491854E-06  0.3553979E+04  0.7818609E-02  0.8101115E-01
       -2   -1    0    0    0  501  0.00000000000E+00  0.00000000000E+00  0.14136947196E+04  0.14136947196E+04  0.25500000920E-02 0. -1.
        2   -1    0    0  501    0  0.00000000000E+00  0.00000000000E+00 -0.22336452719E+04  0.22336452719E+04  0.25500000920E-02 0.  1.
    10030    2    1    2    0    0  0.00000000000E+00  0.00000000000E+00 -0.81995055231E+03  0.36473399916E+04  0.35539794746E+04 0.  0.
        5    1    3    3  502    0  0.21307388494E+03 -0.34231051004E+03 -0.21860716330E+04  0.22229503459E+04  0.46999998093E+01 0.  1.
       -5    1    3    3    0  502 -0.21307388494E+03  0.34231051004E+03  0.13661210807E+04  0.14243896457E+04  0.46999998093E+01 0. -1.
</event>
<event>
 5   0  0.1468942E-06  0.3557939E+04  0.7818609E-02  0.8100195E-01
       -2   -1    0    0    0  501  0.00000000000E+00  0.00000000000E+00  0.12820037757E+04  0.12820037757E+04  0.25500000920E-02 0. -1.
        2   -1    0    0  501    0  0.00000000000E+00  0.00000000000E+00 -0.24685826001E+04  0.24685826001E+04  0.25500000920E-02 0.  1.
    10030    2    1    2    0    0  0.00000000000E+00  0.00000000000E+00 -0.11865788244E+04  0.37505863757E+04  0.35579388493E+04 0.  0.
        2    1    3    3  502    0 -0.36344058852E+03 -0.40945577533E+03  0.11909871909E+04  0.13107988337E+04  0.25500000920E-02 0. -1.
       -2    1    3    3    0  502  0.36344058852E+03  0.40945577533E+03 -0.23775660153E+04  0.24397875421E+04  0.25500000920E-02 0.  1.
</event>
<event>
 5   0  0.1468942E-06  0.3773827E+04  0.7818609E-02  0.8051795E-01
       -2   -1    0    0    0  501  0.00000000000E+00  0.00000000000E+00  0.30436726996E+04  0.30436726996E+04  0.25500000920E-02 0. -1.
        2   -1    0    0  501    0  0.00000000000E+00  0.00000000000E+00 -0.11697846860E+04  0.11697846860E+04  0.25500000920E-02 0.  1.
    10030    2    1    2    0    0  0.00000000000E+00  0.00000000000E+00  0.18738880137E+04  0.42134573856E+04  0.37738265530E+04 0.  0.
        2    1    3    3  502    0 -0.15477341525E+04 -0.63673643840E+03  0.19099788608E+04  0.25394750535E+04  0.25500000920E-02 0. -1.
       -2    1    3    3    0  502  0.15477341525E+04  0.63673643840E+03 -0.36090847106E+02  0.16739823321E+04  0.25500000920E-02 0.  1.
</event>
<event>
 5   0  0.1444091E-06  0.2721493E+04  0.7818609E-02  0.8328065E-01
       -2   -1    0    0    0  501  0.00000000000E+00  0.00000000000E+00  0.81754027445E+03  0.81754027445E+03  0.25500000920E-02 0.  1.
        2   -1    0    0  501    0  0.00000000000E+00  0.00000000000E+00 -0.22648809919E+04  0.22648809919E+04  0.25500000920E-02 0. -1.
    10030    2    1    2    0    0  0.00000000000E+00  0.00000000000E+00 -0.14473407175E+04  0.30824212664E+04  0.27214932870E+04 0.  0.
        1    1    3    3  502    0  0.41477525159E+03 -0.11998368565E+04 -0.12785212186E+04  0.18017390205E+04  0.50400001928E-02 0. -1.
       -1    1    3    3    0  502 -0.41477525159E+03  0.11998368565E+04 -0.16881949887E+03  0.12806822459E+04  0.50400001928E-02 0.  1.
</event>
<event>
 5   0  0.4811500E-07  0.3525835E+04  0.7818609E-02  0.8107695E-01
       -1   -1    0    0    0  501  0.00000000000E+00  0.00000000000E+00  0.17441674654E+04  0.17441674654E+04  0.50400001928E-02 0.  1.
        1   -1    0    0  501    0  0.00000000000E+00  0.00000000000E+00 -0.17818687611E+04  0.17818687611E+04  0.50400001928E-02 0. -1.
    10030    2    1    2    0    0  0.00000000000E+00  0.00000000000E+00 -0.37701295688E+02  0.35260362265E+04  0.35258346647E+04 0.  0.
        3    1    3    3  502    0 -0.15613204485E+04 -0.81845092217E+03 -0.35999676002E+02  0.17632014751E+04  0.10100000352E+00 0. -1.
       -3    1    3    3    0  502  0.15613204485E+04  0.81845092217E+03 -0.17016196862E+01  0.17628347514E+04  0.10100000352E+00 0.  1.
</event>
<event>
 5   0  0.4811500E-07  0.3237915E+04  0.7818609E-02  0.8178875E-01
       -1   -1    0    0    0  501  0.00000000000E+00  0.00000000000E+00  0.15619127385E+04  0.15619127385E+04  0.50400001928E-02 0. -1.
        1   -1    0    0  501    0  0.00000000000E+00  0.00000000000E+00 -0.16780859931E+04  0.16780859931E+04  0.50400001928E-02 0.  1.
    10030    2    1    2    0    0  0.00000000000E+00  0.00000000000E+00 -0.11617325456E+03  0.32399987316E+04  0.32379153101E+04 0.  0.
        3    1    3    3  502    0 -0.12247404789E+04  0.10578092901E+04 -0.12514553595E+02  0.16183653355E+04  0.10100000352E+00 0. -1.
       -3    1    3    3    0  502  0.12247404789E+04 -0.10578092901E+04 -0.10365870097E+03  0.16216333961E+04  0.10100000352E+00 0.  1.
</event>
<event>
 5   0  0.4811500E-07  0.3619498E+04  0.7818609E-02  0.8086040E-01
       -3   -1    0    0    0  501  0.00000000000E+00  0.00000000000E+00  0.25283644753E+04  0.25283644774E+04  0.10100000352E+00 0.  1.
        3   -1    0    0  501    0  0.00000000000E+00  0.00000000000E+00 -0.12953793913E+04  0.12953793953E+04  0.10100000352E+00 0. -1.
    10030    2    1    2    0    0  0.00000000000E+00  0.00000000000E+00  0.12329850840E+04  0.38237438726E+04  0.36194978914E+04 0.  0.
        4    1    3    3  502    0  0.56047779702E+03 -0.86998695382E+03 -0.95193224289E+03  0.14061256234E+04  0.12699999809E+01 0. -1.
       -4    1    3    3    0  502 -0.56047779702E+03  0.86998695382E+03  0.21849173269E+04  0.24176182492E+04  0.12699999809E+01 0.  1.
</event>
<event>
 5   0  0.1505671E-06  0.3535426E+04  0.7818609E-02  0.8105445E-01
       -2   -1    0    0    0  501  0.00000000000E+00  0.00000000000E+00  0.16569354153E+04  0.16569354153E+04  0.25500000920E-02 0. -1.
        2   -1    0    0  501    0  0.00000000000E+00  0.00000000000E+00 -0.18858969629E+04  0.18858969629E+04  0.25500000920E-02 0.  1.
    10030    2    1    2    0    0  0.00000000000E+00  0.00000000000E+00 -0.22896154755E+03  0.35428323782E+04  0.35354261228E+04 0.  0.
        3    1    3    3  502    0 -0.13960790322E+04  0.59503484225E+03 -0.10228599184E+04  0.18301217311E+04  0.10100000352E+00 0.  1.
       -3    1    3    3    0  502  0.13960790322E+04 -0.59503484225E+03  0.79389837088E+03  0.17127106472E+04  0.10100000352E+00 0. -1.
</event>
<event>
 5   0  0.5071661E-07  0.2833245E+04  0.7818609E-02  0.8293021E-01
       -1   -1    0    0    0  501  0.00000000000E+00  0.00000000000E+00  0.18780045981E+04  0.18780045981E+04  0.50400001928E-02 0.  1.
        1   -1    0    0  501    0  0.00000000000E+00  0.00000000000E+00 -0.10685911054E+04  0.10685911055E+04  0.50400001928E-02 0. -1.
    10030    2    1    2    0    0  0.00000000000E+00  0.00000000000E+00  0.80941349270E+03  0.29465957036E+04  0.28332447897E+04 0.  0.
        1    1    3    3  502    0 -0.58762220053E+03 -0.58744257046E+03  0.15979676225E+04  0.18010799945E+04  0.50400001928E-02 0.  1.
       -1    1    3    3    0  502  0.58762220053E+03  0.58744257046E+03 -0.78855412977E+03  0.11455157091E+04  0.50400001928E-02 0. -1.
</event>
<event>
 5   0  0.1468942E-06  0.3564418E+04  0.7818609E-02  0.8098691E-01
        2   -1    0    0  501    0  0.00000000000E+00  0.00000000000E+00  0.15651526351E+04  0.15651526351E+04  0.25500000920E-02 0. -1.
       -2   -1    0    0    0  501  0.00000000000E+00  0.00000000000E+00 -0.20293664167E+04  0.20293664167E+04  0.25500000920E-02 0.  1.
    10030    2    1    2    0    0  0.00000000000E+00  0.00000000000E+00 -0.46421378168E+03  0.35945190518E+04  0.35644175932E+04 0.  0.
        2    1    3    3  502    0  0.14577783864E+04  0.83407151273E+02 -0.12625943918E+04  0.19303417249E+04  0.25500000920E-02 0.  1.
       -2    1    3    3    0  502 -0.14577783864E+04 -0.83407151273E+02  0.79838061012E+03  0.16641773269E+04  0.25500000920E-02 0. -1.
</event>
<event>
 5   0  0.4811500E-07  0.2497411E+04  0.7818609E-02  0.8403908E-01
       -1   -1    0    0    0  501  0.00000000000E+00  0.00000000000E+00  0.13756184782E+04  0.13756184782E+04  0.50400001928E-02 0.  1.
        1   -1    0    0  501    0  0.00000000000E+00  0.00000000000E+00 -0.11335017395E+04  0.11335017395E+04  0.50400001928E-02 0. -1.
    10030    2    1    2    0    0  0.00000000000E+00  0.00000000000E+00  0.24211673876E+03  0.25091202177E+04  0.24974114102E+04 0.  0.
        4    1    3    3  502    0  0.11822934490E+04  0.63907264148E+02  0.51960748135E+03  0.12930179757E+04  0.12699999809E+01 0.  1.
       -4    1    3    3    0  502 -0.11822934490E+04 -0.63907264148E+02 -0.27749074259E+03  0.12161022420E+04  0.12699999809E+01 0. -1.
</event>
<event>
 5   0  0.5071661E-07  0.2756201E+04  0.7818609E-02  0.8316997E-01
        1   -1    0    0  501    0  0.00000000000E+00  0.00000000000E+00  0.16582645873E+04  0.16582645873E+04  0.50400001928E-02 0. -1.
       -1   -1    0    0    0  501  0.00000000000E+00  0.00000000000E+00 -0.11452701568E+04  0.11452701568E+04  0.50400001928E-02 0.  1.
    10030    2    1    2    0    0  0.00000000000E+00  0.00000000000E+00  0.51299443053E+03  0.28035347441E+04  0.27562009679E+04 0.  0.
        1    1    3    3  502    0  0.37331804616E+02 -0.34449493427E+03  0.16132292657E+04  0.16500239657E+04  0.50400001928E-02 0. -1.
       -1    1    3    3    0  502 -0.37331804616E+02  0.34449493427E+03 -0.11002348352E+04  0.11535107785E+04  0.50400001928E-02 0.  1.
</event>
<event>
 5   0  0.4811500E-07  0.2498104E+04  0.7818609E-02  0.8403661E-01
       -1   -1    0    0    0  501  0.00000000000E+00  0.00000000000E+00  0.74283324512E+03  0.74283324514E+03  0.50400001928E-02 0.  1.
        1   -1    0    0  501    0  0.00000000000E+00  0.00000000000E+00 -0.21002437547E+04  0.21002437547E+04  0.50400001928E-02 0. -1.
    10030    2    1    2    0    0  0.00000000000E+00  0.00000000000E+00 -0.13574105096E+04  0.28430769998E+04  0.24981039881E+04 0.  0.
        2    1    3    3  502    0  0.65850731323E+03  0.87073433187E+03  0.11997499810E+02  0.10917665035E+04  0.25500000920E-02 0. -1.
       -2    1    3    3    0  502 -0.65850731323E+03 -0.87073433187E+03 -0.13694080094E+04  0.17513104963E+04  0.25500000920E-02 0.  1.
</event>
<event>
 5   0  0.4811500E-07  0.2446337E+04  0.7818609E-02  0.8422357E-01
       -1   -1    0    0    0  501  0.00000000000E+00  0.00000000000E+00  0.71710678473E+03  0.71710678475E+03  0.50400001928E-02 0.  1.
        1   -1    0    0  501    0  0.00000000000E+00  0.00000000000E+00 -0.20863576442E+04  0.20863576442E+04  0.50400001928E-02 0. -1.
    10030    2    1    2    0    0  0.00000000000E+00  0.00000000000E+00 -0.13692508595E+04  0.28034644290E+04  0.24463370349E+04 0.  0.
        3    1    3    3  502    0 -0.32325900439E+03 -0.29276738663E+03 -0.19942266045E+04  0.20413595683E+04  0.10100000352E+00 0. -1.
       -3    1    3    3    0  502  0.32325900439E+03  0.29276738663E+03  0.62497574504E+03  0.76210486069E+03  0.10100000352E+00 0.  1.
</event>
<event>
 5   0  0.1379425E-06  0.3490379E+04  0.7818609E-02  0.8116074E-01
       -2   -1    0    0    0  501  0.00000000000E+00  0.00000000000E+00  0.14088397294E+04  0.14088397294E+04  0.25500000920E-02 0.  1.
        2   -1    0    0  501    0  0.00000000000E+00  0.00000000000E+00 -0.21618406070E+04  0.21618406070E+04  0.25500000920E-02 0. -1.
    10030    2    1    2    0    0  0.00000000000E+00  0.00000000000E+00 -0.75300087765E+03  0.35706803364E+04  0.34903793122E+04 0.  0.
        4    1    3    3  502    0  0.21897748009E+03  0.11497201520E+04  0.94783961617E+03  0.15060574742E+04  0.12699999809E+01 0.  1.
       -4    1    3    3    0  502 -0.21897748009E+03 -0.11497201520E+04 -0.17008404938E+04  0.20646228622E+04  0.12699999809E+01 0. -1.
</event>
<event>
 5   0  0.1379425E-06  0.3614889E+04  0.7818609E-02  0.8087090E-01
        2   -1    0    0  501    0  0.00000000000E+00  0.00000000000E+00  0.26896116280E+04  0.26896116280E+04  0.25500000920E-02 0. -1.
       -2   -1    0    0    0  501  0.00000000000E+00  0.00000000000E+00 -0.12146198311E+04  0.12146198311E+04  0.25500000920E-02 0.  1.
    10030    2    1    2    0    0  0.00000000000E+00  0.00000000000E+00  0.14749917969E+04  0.39042314592E+04  0.36148890005E+04 0.  0.
        4    1    3    3  502    0 -0.11866805781E+04  0.27388784447E+03  0.21799194727E+04  0.24970534368E+04  0.12699999809E+01 0. -1.
       -4    1    3    3    0  502  0.11866805781E+04 -0.27388784447E+03 -0.70492767577E+03  0.14071780224E+04  0.12699999809E+01 0.  1.
</event>
<event>
 5   0  0.4811500E-07  0.3138959E+04  0.7818609E-02  0.8205126E-01
        1   -1    0    0  501    0  0.00000000000E+00  0.00000000000E+00  0.21108442247E+04  0.21108442248E+04  0.50400001928E-02 0. -1.
       -1   -1    0    0    0  501  0.00000000000E+00  0.00000000000E+00 -0.11669579640E+04  0.11669579641E+04  0.50400001928E-02 0.  1.
    10030    2    1    2    0    0  0.00000000000E+00  0.00000000000E+00  0.94388626070E+03  0.32778021888E+04  0.31389593683E+04 0.  0.
        2    1    3    3  502    0 -0.71205019771E+03  0.53330895887E+02 -0.98752089885E+03  0.12186292275E+04  0.25500000920E-02 0.  1.
       -2    1    3    3    0  502  0.71205019771E+03 -0.53330895887E+02  0.19314071596E+04  0.20591729613E+04  0.25500000920E-02 0. -1.
</event>
<event>
 5   0  0.1379425E-06  0.3466456E+04  0.7818609E-02  0.8121786E-01
        2   -1    0    0  501    0  0.00000000000E+00  0.00000000000E+00  0.21072255736E+04  0.21072255736E+04  0.25500000920E-02 0.  1.
       -2   -1    0    0    0  501  0.00000000000E+00  0.00000000000E+00 -0.14256088234E+04  0.14256088234E+04  0.25500000920E-02 0. -1.
    10030    2    1    2    0    0  0.00000000000E+00  0.00000000000E+00  0.68161675016E+03  0.35328343969E+04  0.34664560407E+04 0.  0.
        4    1    3    3  502    0  0.96199927846E+03  0.60808497001E+03 -0.99146030471E+03  0.15093724163E+04  0.12699999809E+01 0. -1.
       -4    1    3    3    0  502 -0.96199927846E+03 -0.60808497001E+03  0.16730770549E+04  0.20234619806E+04  0.12699999809E+01 0.  1.
</event>
<event>
 5   0  0.1444091E-06  0.3448258E+04  0.7818609E-02  0.8126163E-01
        2   -1    0    0  501    0  0.00000000000E+00  0.00000000000E+00  0.22025281575E+04  0.22025281575E+04  0.25500000920E-02 0.  1.
       -2   -1    0    0    0  501  0.00000000000E+00  0.00000000000E+00 -0.13496401623E+04  0.13496401623E+04  0.25500000920E-02 0. -1.
    10030    2    1    2    0    0  0.00000000000E+00  0.00000000000E+00  0.85288799520E+03  0.35521683199E+04  0.34482577978E+04 0.  0.
        1    1    3    3  502    0 -0.88267831111E+03 -0.15180188400E+03 -0.10911977596E+04  0.14116930841E+04  0.50400001928E-02 0. -1.
       -1    1    3    3    0  502  0.88267831111E+03  0.15180188400E+03  0.19440857548E+04  0.21404752358E+04  0.50400001928E-02 0.  1.
</event>
<event>
 5   0  0.1379425E-06  0.3589414E+04  0.7818609E-02  0.8092921E-01
        2   -1    0    0  501    0  0.00000000000E+00  0.00000000000E+00  0.25061666012E+04  0.25061666013E+04  0.25500000920E-02 0. -1.
       -2   -1    0    0    0  501  0.00000000000E+00  0.00000000000E+00 -0.12852187632E+04  0.12852187632E+04  0.25500000920E-02 0.  1.
    10030    2    1    2    0    0  0.00000000000E+00  0.00000000000E+00  0.12209478381E+04  0.37913853644E+04  0.35894135117E+04 0.  0.
        4    1    3    3  502    0 -0.95680679691E+03  0.14499493817E+04  0.13440447090E+03  0.17423830321E+04  0.12699999809E+01 0.  1.
       -4    1    3    3    0  502  0.95680679691E+03 -0.14499493817E+04  0.10865433672E+04  0.20490023323E+04  0.12699999809E+01 0. -1.
</event>
<event>
 5   0  0.4811500E-07  0.3520704E+04  0.7818609E-02  0.8108901E-01
        1   -1    0    0  501    0  0.00000000000E+00  0.00000000000E+00  0.22873473442E+04  0.22873473442E+04  0.50400001928E-02 0.  1.
       -1   -1    0    0    0  501  0.00000000000E+00  0.00000000000E+00 -0.13547740946E+04  0.13547740946E+04  0.50400001928E-02 0. -1.
    10030    2    1    2    0    0  0.00000000000E+00  0.00000000000E+00  0.93257324959E+03  0.36421214389E+04  0.35207038656E+04 0.  0.
        3    1    3    3  502    0  0.11835524632E+04  0.12094868687E+04 -0.35395711241E+02  0.16926038477E+04  0.10100000352E+00 0. -1.
       -3    1    3    3    0  502 -0.11835524632E+04 -0.12094868687E+04  0.96796896083E+03  0.19495175911E+04  0.10100000352E+00 0.  1.
</event>
<event>
 5   0  0.1491854E-06  0.2527122E+04  0.7818609E-02  0.8393386E-01
       -2   -1    0    0    0  501  0.00000000000E+00  0.00000000000E+00  0.13855961884E+04  0.13855961884E+04  0.25500000920E-02 0.  1.
        2   -1    0    0  501    0  0.00000000000E+00  0.00000000000E+00 -0.11522738425E+04  0.11522738425E+04  0.25500000920E-02 0. -1.
    10030    2    1    2    0    0  0.00000000000E+00  0.00000000000E+00  0.23332234587E+03  0.25378700309E+04  0.25271218761E+04 0.  0.
        5    1    3    3  502    0  0.18148193009E+03 -0.12254570045E+04 -0.13316098309E+03  0.12459672942E+04  0.46999998093E+01 0.  1.
       -5    1    3    3    0  502 -0.18148193009E+03  0.12254570045E+04  0.36648332897E+03  0.12919027367E+04  0.46999998093E+01 0. -1.
</event>
<event>
 5   0  0.4811500E-07  0.3584987E+04  0.7818609E-02  0.8093939E-01
        1   -1    0    0  501    0  0.00000000000E+00  0.00000000000E+00  0.21354518587E+04  0.21354518587E+04  0.50400001928E-02 0. -1.
       -1   -1    0    0    0  501  0.00000000000E+00  0.00000000000E+00 -0.15046152505E+04  0.15046152505E+04  0.50400001928E-02 0.  1.
    10030    2    1    2    0    0  0.00000000000E+00  0.00000000000E+00  0.63083660820E+03  0.36400671091E+04  0.35849872709E+04 0.  0.
        3    1    3    3  502    0 -0.26628587941E+03  0.17678462445E+04  0.44720030885E+03  0.18428718458E+04  0.10100000352E+00 0.  1.
       -3    1    3    3    0  502  0.26628587941E+03 -0.17678462445E+04  0.18363629936E+03  0.17971952633E+04  0.10100000352E+00 0. -1.
</event>
<event>
 5   0  0.4811500E-07  0.3532942E+04  0.7818609E-02  0.8106027E-01
       -1   -1    0    0    0  501  0.00000000000E+00  0.00000000000E+00  0.27846162169E+04  0.27846162169E+04  0.50400001928E-02 0.  1.
        1   -1    0    0  501    0  0.00000000000E+00  0.00000000000E+00 -0.11205926306E+04  0.11205926306E+04  0.50400001928E-02 0. -1.
    10030    2    1    2    0    0  0.00000000000E+00  0.00000000000E+00  0.16640235864E+04  0.39052088475E+04  0.35329423498E+04 0.  0.
        3    1    3    3  502    0  0.14722462068E+04 -0.63269217606E+03  0.10303034653E+02  0.16024713557E+04  0.10100000352E+00 0.  1.
       -3    1    3    3    0  502 -0.14722462068E+04  0.63269217606E+03  0.16537205517E+04  0.23027374919E+04  0.10100000352E+00 0. -1.
</event>
<event>
 5   0  0.1505671E-06  0.3589582E+04  0.7818609E-02  0.8092882E-01
       -2   -1    0    0    0  501  0.00000000000E+00  0.00000000000E+00  0.31076892606E+04  0.31076892606E+04  0.25500000920E-02 0. -1.
        2   -1    0    0  501    0  0.00000000000E+00  0.00000000000E+00 -0.10365496187E+04  0.10365496187E+04  0.25500000920E-02 0.  1.
    10030    2    1    2    0    0  0.00000000000E+00  0.00000000000E+00  0.20711396419E+04  0.41442388793E+04  0.35895816570E+04 0.  0.
        3    1    3    3  502    0 -0.14319037689E+04 -0.28352986382E+03  0.22412192661E+04  0.26746591177E+04  0.10100000352E+00 0. -1.
       -3    1    3    3    0  502  0.14319037689E+04  0.28352986382E+03 -0.17007962419E+03  0.14695797616E+04  0.10100000352E+00 0.  1.
</event>
<event>
 5   0  0.5071661E-07  0.3650332E+04  0.7818609E-02  0.8079059E-01
        1   -1    0    0  501    0  0.00000000000E+00  0.00000000000E+00  0.14471985947E+04  0.14471985947E+04  0.50400001928E-02 0. -1.
       -1   -1    0    0    0  501  0.00000000000E+00  0.00000000000E+00 -0.23018474147E+04  0.23018474147E+04  0.50400001928E-02 0.  1.
    10030    2    1    2    0    0  0.00000000000E+00  0.00000000000E+00 -0.85464882000E+03  0.37490460094E+04  0.36503316801E+04 0.  0.
        1    1    3    3  502    0  0.17458408941E+04 -0.36456171720E+03 -0.29069309754E+02  0.17837350414E+04  0.50400001928E-02 0.  1.
       -1    1    3    3    0  502 -0.17458408941E+04  0.36456171720E+03 -0.82557951025E+03  0.19653109680E+04  0.50400001928E-02 0. -1.
</event>
<event>
 5   0  0.4811500E-07  0.2999631E+04  0.7818609E-02  0.8243836E-01
       -1   -1    0    0    0  501  0.00000000000E+00  0.00000000000E+00  0.10189575212E+04  0.10189575212E+04  0.50400001928E-02 0.  1.
        1   -1    0    0  501    0  0.00000000000E+00  0.00000000000E+00 -0.22075955764E+04  0.22075955764E+04  0.50400001928E-02 0. -1.
    10030    2    1    2    0    0  0.00000000000E+00  0.00000000000E+00 -0.11886380552E+04  0.32265530976E+04  0.29996307215E+04 0.  0.
        4    1    3    3  502    0  0.12191510183E+04 -0.86264118549E+03 -0.44618563157E+03  0.15587053124E+04  0.12699999809E+01 0.  1.
       -4    1    3    3    0  502 -0.12191510183E+04  0.86264118549E+03 -0.74245242366E+03  0.16678477852E+04  0.12699999809E+01 0. -1.
</event>
<event>
 5   0  0.4811500E-07  0.2249772E+04  0.7818609E-02  0.8497993E-01
       -1   -1    0    0    0  501  0.00000000000E+00  0.00000000000E+00  0.62748701252E+03  0.62748701254E+03  0.50400001928E-02 0. -1.
        1   -1    0    0  501    0  0.00000000000E+00  0.00000000000E+00 -0.20165651790E+04  0.20165651790E+04  0.50400001928E-02 0.  1.
    10030    2    1    2    0    0  0.00000000000E+00  0.00000000000E+00 -0.13890781665E+04  0.26440521916E+04  0.22497719527E+04 0.  0.
        5    1    3    3  502    0 -0.53964732747E+03  0.84719359518E+03 -0.99449718937E+02  0.10093901933E+04  0.46999998093E+01 0. -1.
       -5    1    3    3    0  502  0.53964732747E+03 -0.84719359518E+03 -0.12896284476E+04  0.16346619983E+04  0.46999998093E+01 0.  1.
</event>
<event>
 5   0  0.4811500E-07  0.3558970E+04  0.7818609E-02  0.8099955E-01
       -1   -1    0    0    0  501  0.00000000000E+00  0.00000000000E+00  0.30893511650E+04  0.30893511650E+04  0.50400001928E-02 0. -1.
        1   -1    0    0  501    0  0.00000000000E+00  0.00000000000E+00 -0.10249939711E+04  0.10249939711E+04  0.50400001928E-02 0.  1.
    10030    2    1    2    0    0  0.00000000000E+00  0.00000000000E+00  0.20643571939E+04  0.41143451362E+04  0.35589696930E+04 0.  0.
        4    1    3    3  502    0  0.49237587715E+03  0.10997470995E+04 -0.48162265613E+03  0.12976284843E+04  0.12699999809E+01 0.  1.
       -4    1    3    3    0  502 -0.49237587715E+03 -0.10997470995E+04  0.25459798500E+04  0.28167166519E+04  0.12699999809E+01 0. -1.
</event>
<event>
 5   0  0.5071661E-07  0.3366349E+04  0.7818609E-02  0.8146215E-01
        1   -1    0    0  501    0  0.00000000000E+00  0.00000000000E+00  0.18229248115E+04  0.18229248115E+04  0.50400001928E-02 0. -1.
       -1   -1    0    0    0  501  0.00000000000E+00  0.00000000000E+00 -0.15541374165E+04  0.15541374165E+04  0.50400001928E-02 0.  1.
    10030    2    1    2    0    0  0.00000000000E+00  0.00000000000E+00  0.26878739499E+03  0.33770622279E+04  0.33663485600E+04 0.  0.
        1    1    3    3  502    0 -0.52055274302E+03  0.43842246166E+03 -0.14099491870E+04  0.15656136571E+04  0.50400001928E-02 0.  1.
       -1    1    3    3    0  502  0.52055274302E+03 -0.43842246166E+03  0.16787365820E+04  0.18114485709E+04  0.50400001928E-02 0. -1.
</event>
<event>
 5   0  0.1379425E-06  0.3602037E+04  0.7818609E-02  0.8090025E-01
        2   -1    0    0  501    0  0.00000000000E+00  0.00000000000E+00  0.11368972783E+04  0.11368972783E+04  0.25500000920E-02 0. -1.
       -2   -1    0    0    0  501  0.00000000000E+00  0.00000000000E+00 -0.28530884233E+04  0.28530884233E+04  0.25500000920E-02 0.  1.
    10030    2    1    2    0    0  0.00000000000E+00  0.00000000000E+00 -0.17161911450E+04  0.39899857017E+04  0.36020374586E+04 0.  0.
        4    1    3    3  502    0 -0.15532801704E+04  0.53870487103E+03 -0.43512685207E+02  0.16446206835E+04  0.12699999809E+01 0. -1.
       -4    1    3    3    0  502  0.15532801704E+04 -0.53870487103E+03 -0.16726784598E+04  0.23453650182E+04  0.12699999809E+01 0.  1.
</event>
<event>
 5   0  0.4811500E-07  0.3557294E+04  0.7818609E-02  0.8100345E-01
       -1   -1    0    0    0  501  0.00000000000E+00  0.00000000000E+00  0.14318035181E+04  0.14318035181E+04  0.50400001928E-02 0.  1.
        1   -1    0    0  501    0  0.00000000000E+00  0.00000000000E+00 -0.22095103447E+04  0.22095103447E+04  0.50400001928E-02 0. -1.
    10030    2    1    2    0    0  0.00000000000E+00  0.00000000000E+00 -0.77770682658E+03  0.36413138628E+04  0.35572937382E+04 0.  0.
        4    1    3    3  502    0  0.15261995217E+04 -0.34000923636E+02  0.54547145535E+03  0.16211051059E+04  0.12699999809E+01 0.  1.
       -4    1    3    3    0  502 -0.15261995217E+04  0.34000923636E+02 -0.13231782819E+04  0.20202087569E+04  0.12699999809E+01 0. -1.
</event>
<event>
 5   0  0.4811500E-07  0.3631702E+04  0.7818609E-02  0.8083268E-01
       -1   -1    0    0    0  501  0.00000000000E+00  0.00000000000E+00  0.10406333425E+04  0.10406333425E+04  0.50400001928E-02 0.  1.
        1   -1    0    0  501    0  0.00000000000E+00  0.00000000000E+00 -0.31685658360E+04  0.31685658360E+04  0.50400001928E-02 0. -1.
    10030    2    1    2    0    0  0.00000000000E+00  0.00000000000E+00 -0.21279324935E+04  0.42091991786E+04  0.36317022218E+04 0.  0.
        4    1    3    3  502    0  0.15149946677E+04  0.84300777246E+03 -0.16896657836E+04  0.24209178054E+04  0.12699999809E+01 0. -1.
       -4    1    3    3    0  502 -0.15149946677E+04 -0.84300777246E+03 -0.43826670993E+03  0.17882813731E+04  0.12699999809E+01 0.  1.
</event>
<event>
 5   0  0.4811500E-07  0.3438116E+04  0.7818609E-02  0.8128614E-01
        1   -1    0    0  501    0  0.00000000000E+00  0.00000000000E+00  0.20608207575E+04  0.20608207576E+04  0.50400001928E-02 0.  1.
       -1   -1    0    0    0  501  0.00000000000E+00  0.00000000000E+00 -0.14339721770E+04  0.14339721770E+04  0.50400001928E-02 0. -1.
    10030    2    1    2    0    0  0.00000000000E+00  0.00000000000E+00  0.62684858057E+03  0.34947929345E+04  0.34381155467E+04 0.  0.
        3    1    3    3  502    0 -0.47782733050E+03  0.58849744544E+03 -0.12549008894E+04  0.14660915570E+04  0.10100000352E+00 0. -1.
       -3    1    3    3    0  502  0.47782733050E+03 -0.58849744544E+03  0.18817494700E+04  0.20287013775E+04  0.10100000352E+00 0.  1.
</event>
<event>
 5   0  0.4811500E-07  0.2452476E+04  0.7818609E-02  0.8420114E-01
        1   -1    0    0  501    0  0.00000000000E+00  0.00000000000E+00  0.11688499385E+04  0.11688499385E+04  0.50400001928E-02 0. -1.
       -1   -1    0    0    0  501  0.00000000000E+00  0.00000000000E+00 -0.12864441002E+04  0.12864441002E+04  0.50400001928E-02 0.  1.
    10030    2    1    2    0    0  0.00000000000E+00  0.00000000000E+00 -0.11759416168E+03  0.24552940387E+04  0.24524763872E+04 0.  0.
        3    1    3    3  502    0  0.48764628315E+03 -0.97942534318E+03  0.49554223584E+03  0.12010974224E+04  0.10100000352E+00 0. -1.
       -3    1    3    3    0  502 -0.48764628315E+03  0.97942534318E+03 -0.61313639752E+03  0.12541966164E+04  0.10100000352E+00 0.  1.
</event>
<event>
 5   0  0.1379425E-06  0.2962061E+04  0.7818609E-02  0.8254648E-01
       -2   -1    0    0    0  501  0.00000000000E+00  0.00000000000E+00  0.11128156922E+04  0.11128156922E+04  0.25500000920E-02 0. -1.
        2   -1    0    0  501    0  0.00000000000E+00  0.00000000000E+00 -0.19710828770E+04  0.19710828770E+04  0.25500000920E-02 0.  1.
    10030    2    1    2    0    0  0.00000000000E+00  0.00000000000E+00 -0.85826718485E+03  0.30838985692E+04  0.29620614147E+04 0.  0.
        4    1    3    3  502    0  0.13815903583E+04 -0.35723933165E+03 -0.16552734015E+02  0.14271255951E+04  0.12699999809E+01 0. -1.
       -4    1    3    3    0  502 -0.13815903583E+04  0.35723933165E+03 -0.84171445084E+03  0.16567729741E+04  0.12699999809E+01 0.  1.
</event>
<event>
 5   0  0.4811500E-07  0.3603635E+04  0.7818609E-02  0.8089660E-01
       -1   -1    0    0    0  501  0.00000000000E+00  0.00000000000E+00  0.14127496855E+04  0.14127496855E+04  0.50400001928E-02 0. -1.
        1   -1    0    0  501    0  0.00000000000E+00  0.00000000000E+00 -0.22980331226E+04  0.22980331226E+04  0.50400001928E-02 0.  1.
    10030    2    1    2    0    0  0.00000000000E+00  0.00000000000E+00 -0.88528343707E+03  0.37107828081E+04  0.36036345937E+04 0.  0.
        2    1    3    3  502    0  0.11158210619E+04 -0.72224224916E+03 -0.16953050934E+04  0.21542399747E+04  0.25500000920E-02 0.  1.
       -2    1    3    3    0  502 -0.11158210619E+04  0.72224224916E+03  0.81002165633E+03  0.15565428335E+04  0.25500000920E-02 0. -1.
</event>
<event>
 5   0  0.4811500E-07  0.3427818E+04  0.7818609E-02  0.8131112E-01
        1   -1    0    0  501    0  0.00000000000E+00  0.00000000000E+00  0.12091986659E+04  0.12091986659E+04  0.50400001928E-02 0. -1.
       -1   -1    0    0    0  501  0.00000000000E+00  0.00000000000E+00 -0.24292821575E+04  0.24292821575E+04  0.50400001928E-02 0.  1.
    10030    2    1    2    0    0  0.00000000000E+00  0.00000000000E+00 -0.12200834916E+04  0.36384808233E+04  0.34278183988E+04 0.  0.
        4    1    3    3  502    0  0.53875992547E+03  0.15888578459E+04 -0.98193294355E+03  0.19439458404E+04  0.12699999809E+01 0. -1.
       -4    1    3    3    0  502 -0.53875992547E+03 -0.15888578459E+04 -0.23815054806E+03  0.16945349829E+04  0.12699999809E+01 0.  1.
</event>
<event>
 5   0  0.1379425E-06  0.3592438E+04  0.7818609E-02  0.8092226E-01
        2   -1    0    0  501    0  0.00000000000E+00  0.00000000000E+00  0.26909368155E+04  0.26909368155E+04  0.25500000920E-02 0. -1.
       -2   -1    0    0    0  501  0.00000000000E+00  0.00000000000E+00 -0.11989886007E+04  0.11989886007E+04  0.25500000920E-02 0.  1.
    10030    2    1    2    0    0  0.00000000000E+00  0.00000000000E+00  0.14919482148E+04  0.38899254162E+04  0.35924379282E+04 0.  0.
        4    1    3    3  502    0  0.61710200965E+03 -0.13960269879E+04  0.17713292314E+04  0.23382290521E+04  0.12699999809E+01 0. -1.
       -4    1    3    3    0  502 -0.61710200965E+03  0.13960269879E+04 -0.27938101659E+03  0.15516963641E+04  0.12699999809E+01 0.  1.
</event>
<event>
 5   0  0.1491854E-06  0.2606865E+04  0.7818609E-02  0.8365873E-01
        2   -1    0    0  501    0  0.00000000000E+00  0.00000000000E+00  0.90983577925E+03  0.90983577926E+03  0.25500000920E-02 0. -1.
       -2   -1    0    0    0  501  0.00000000000E+00  0.00000000000E+00 -0.18673004776E+04  0.18673004776E+04  0.25500000920E-02 0.  1.
    10030    2    1    2    0    0  0.00000000000E+00  0.00000000000E+00 -0.95746469839E+03  0.27771362569E+04  0.26068653860E+04 0.  0.
        5    1    3    3  502    0 -0.89870078118E+02  0.10071734631E+04  0.39744721672E+03  0.10864904030E+04  0.46999998093E+01 0. -1.
       -5    1    3    3    0  502  0.89870078118E+02 -0.10071734631E+04 -0.13549119151E+04  0.16906458539E+04  0.46999998093E+01 0.  1.
</event>
<event>
 5   0  0.4811500E-07  0.3345775E+04  0.7818609E-02  0.8151345E-01
       -1   -1    0    0    0  501  0.00000000000E+00  0.00000000000E+00  0.31785481319E+04  0.31785481319E+04  0.50400001928E-02 0.  1.
        1   -1    0    0  501    0  0.00000000000E+00  0.00000000000E+00 -0.88045020031E+03  0.88045020033E+03  0.50400001928E-02 0. -1.
    10030    2    1    2    0    0  0.00000000000E+00  0.00000000000E+00  0.22980979316E+04  0.40589983323E+04  0.33457754494E+04 0.  0.
        4    1    3    3  502    0 -0.45879628715E+03  0.15650628565E+04  0.69733864649E+03  0.17737526825E+04  0.12699999809E+01 0.  1.
       -4    1    3    3    0  502  0.45879628715E+03 -0.15650628565E+04  0.16007592851E+04  0.22852456498E+04  0.12699999809E+01 0. -1.
</event>
<event>
 5   0  0.1379425E-06  0.3287991E+04  0.7818609E-02  0.8165958E-01
        2   -1    0    0  501    0  0.00000000000E+00  0.00000000000E+00  0.13033112283E+04  0.13033112283E+04  0.25500000920E-02 0. -1.
       -2   -1    0    0    0  501  0.00000000000E+00  0.00000000000E+00 -0.20737342116E+04  0.20737342116E+04  0.25500000920E-02 0.  1.
    10030    2    1    2    0    0  0.00000000000E+00  0.00000000000E+00 -0.77042298324E+03  0.33770454399E+04  0.32879909261E+04 0.  0.
        4    1    3    3  502    0  0.14328300828E+04  0.37264798512E+03 -0.11193083687E+04  0.18559960679E+04  0.12699999809E+01 0.  1.
       -4    1    3    3    0  502 -0.14328300828E+04 -0.37264798512E+03  0.34888538550E+03  0.15210493720E+04  0.12699999809E+01 0. -1.
</event>
<event>
 5   0  0.1505671E-06  0.3568323E+04  0.7818609E-02  0.8097787E-01
        2   -1    0    0  501    0  0.00000000000E+00  0.00000000000E+00  0.26100893485E+04  0.26100893485E+04  0.25500000920E-02 0.  1.
       -2   -1    0    0    0  501  0.00000000000E+00  0.00000000000E+00 -0.12195873076E+04  0.12195873076E+04  0.25500000920E-02 0. -1.
    10030    2    1    2    0    0  0.00000000000E+00  0.00000000000E+00  0.13905020409E+04  0.38296766561E+04  0.35683227663E+04 0.  0.
        3    1    3    3  502    0 -0.89252592485E+03  0.11452035214E+04 -0.41758230528E+03  0.15107841090E+04  0.10100000352E+00 0. -1.
       -3    1    3    3    0  502  0.89252592485E+03 -0.11452035214E+04  0.18080843461E+04  0.23188925471E+04  0.10100000352E+00 0.  1.
</event>
<event>
 5   0  0.4811500E-07  0.3607942E+04  0.7818609E-02  0.8088675E-01
       -1   -1    0    0    0  501  0.00000000000E+00  0.00000000000E+00  0.14157266193E+04  0.14157266193E+04  0.50400001928E-02 0. -1.
        1   -1    0    0  501    0  0.00000000000E+00  0.00000000000E+00 -0.22986856835E+04  0.22986856835E+04  0.50400001928E-02 0.  1.
    10030    2    1    2    0    0  0.00000000000E+00  0.00000000000E+00 -0.88295906420E+03  0.37144123029E+04  0.36079415249E+04 0.  0.
        5    1    3    3  502    0 -0.67448839636E+03 -0.13027697903E+04 -0.15222909573E+04  0.21141276148E+04  0.46999998093E+01 0.  1.
       -5    1    3    3    0  502  0.67448839636E+03  0.13027697903E+04  0.63933189306E+03  0.16002846880E+04  0.46999998093E+01 0. -1.
</event>
<event>
 5   0  0.1468942E-06  0.3241375E+04  0.7818609E-02  0.8177975E-01
        2   -1    0    0  501    0  0.00000000000E+00  0.00000000000E+00  0.16317392077E+04  0.16317392077E+04  0.25500000920E-02 0.  1.
       -2   -1    0    0    0  501  0.00000000000E+00  0.00000000000E+00 -0.16097109131E+04  0.16097109131E+04  0.25500000920E-02 0. -1.
    10030    2    1    2    0    0  0.00000000000E+00  0.00000000000E+00  0.22028294541E+02  0.32414501208E+04  0.32413752698E+04 0.  0.
        2    1    3    3  502    0  0.29620101010E+02 -0.14237272694E+04  0.78482250555E+03  0.16259837187E+04  0.25500000920E-02 0.  1.
       -2    1    3    3    0  502 -0.29620101010E+02  0.14237272694E+04 -0.76279421101E+03  0.16154664021E+04  0.25500000920E-02 0. -1.
</event>
<event>
 5   0  0.4811500E-07  0.3604431E+04  0.7818609E-02  0.8089478E-01
       -1   -1    0    0    0  501  0.00000000000E+00  0.00000000000E+00  0.18193826711E+04  0.18193826711E+04  0.50400001928E-02 0.  1.
        1   -1    0    0  501    0  0.00000000000E+00  0.00000000000E+00 -0.17852101270E+04  0.17852101270E+04  0.50400001928E-02 0. -1.
    10030    2    1    2    0    0  0.00000000000E+00  0.00000000000E+00  0.34172544086E+02  0.36045927982E+04  0.36044308119E+04 0.  0.
        5    1    3    3  502    0 -0.66371062458E+03 -0.73197759081E+02  0.16911055182E+04  0.18181665680E+04  0.46999998093E+01 0.  1.
       -5    1    3    3    0  502  0.66371062458E+03  0.73197759081E+02 -0.16569329741E+04  0.17864262302E+04  0.46999998093E+01 0. -1.
</event>
<event>
 5   0  0.1468942E-06  0.2918044E+04  0.7818609E-02  0.8267529E-01
        2   -1    0    0  501    0  0.00000000000E+00  0.00000000000E+00  0.12623751924E+04  0.12623751924E+04  0.25500000920E-02 0.  1.
       -2   -1    0    0    0  501  0.00000000000E+00  0.00000000000E+00 -0.16863020531E+04  0.16863020531E+04  0.25500000920E-02 0. -1.
    10030    2    1    2    0    0  0.00000000000E+00  0.00000000000E+00 -0.42392686070E+03  0.29486772455E+04  0.29180444676E+04 0.  0.
        2    1    3    3  502    0 -0.40855511213E+03 -0.96000005760E+03  0.81865927117E+03  0.13261675582E+04  0.25500000920E-02 0.  1.
       -2    1    3    3    0  502  0.40855511213E+03  0.96000005760E+03 -0.12425861319E+04  0.16225096873E+04  0.25500000920E-02 0. -1.
</event>
<event>
 5   0  0.4811500E-07  0.2815213E+04  0.7818609E-02  0.8298561E-01
        1   -1    0    0  501    0  0.00000000000E+00  0.00000000000E+00  0.19394160827E+04  0.19394160827E+04  0.50400001928E-02 0.  1.
       -1   -1    0    0    0  501  0.00000000000E+00  0.00000000000E+00 -0.10216249327E+04  0.10216249327E+04  0.50400001928E-02 0. -1.
    10030    2    1    2    0    0  0.00000000000E+00  0.00000000000E+00  0.91779115002E+03  0.29610410154E+04  0.28152128338E+04 0.  0.
        3    1    3    3  502    0 -0.92460458062E+03  0.10449087762E+04  0.65462037174E+03  0.15411864982E+04  0.10100000352E+00 0.  1.
       -3    1    3    3    0  502  0.92460458062E+03 -0.10449087762E+04  0.26317077828E+03  0.14198545171E+04  0.10100000352E+00 0. -1.
</event>
<event>
 5   0  0.1444091E-06  0.3625443E+04  0.7818609E-02  0.8084689E-01
        2   -1    0    0  501    0  0.00000000000E+00  0.00000000000E+00  0.29699143110E+04  0.29699143110E+04  0.25500000920E-02 0. -1.
       -2   -1    0    0    0  501  0.00000000000E+00  0.00000000000E+00 -0.11064152425E+04  0.11064152425E+04  0.25500000920E-02 0.  1.
    10030    2    1    2    0    0  0.00000000000E+00  0.00000000000E+00  0.18634990685E+04  0.40763295535E+04  0.36254425731E+04 0.  0.
        1    1    3    3  502    0 -0.44150845460E+03  0.80531732243E+03 -0.82546545652E+03  0.12348517827E+04  0.50400001928E-02 0.  1.
       -1    1    3    3    0  502  0.44150845460E+03 -0.80531732243E+03  0.26889645250E+04  0.28414777708E+04  0.50400001928E-02 0. -1.
</event>
<event>
 5   0  0.4811500E-07  0.2197543E+04  0.7818609E-02  0.8519452E-01
        1   -1    0    0  501    0  0.00000000000E+00  0.00000000000E+00  0.50908713409E+03  0.50908713411E+03  0.50400001928E-02 0.  1.
       -1   -1    0    0    0  501  0.00000000000E+00  0.00000000000E+00 -0.23714963404E+04  0.23714963404E+04  0.50400001928E-02 0. -1.
    10030    2    1    2    0    0  0.00000000000E+00  0.00000000000E+00 -0.18624092063E+04  0.28805834745E+04  0.21975425143E+04 0.  0.
        2    1    3    3  502    0  0.22356771292E+03  0.91751005395E+03 -0.19493528376E+03  0.96426499793E+03  0.25500000920E-02 0.  1.
       -2    1    3    3    0  502 -0.22356771292E+03 -0.91751005395E+03 -0.16674739226E+04  0.19163184766E+04  0.25500000920E-02 0. -1.
</event>
<event>
 5   0  0.5071661E-07  0.3591651E+04  0.7818609E-02  0.8092407E-01
        1   -1    0    0  501    0  0.00000000000E+00  0.00000000000E+00  0.19215764337E+04  0.19215764337E+04  0.50400001928E-02 0. -1.
       -1   -1    0    0    0  501  0.00000000000E+00  0.00000000000E+00 -0.16783036257E+04  0.16783036258E+04  0.50400001928E-02 0.  1.
    10030    2    1    2    0    0  0.00000000000E+00  0.00000000000E+00  0.24327280792E+03  0.35998800594E+04  0.35916507045E+04 0.  0.
        1    1    3    3  502    0  0.69598316556E+03  0.13388647694E+04 -0.85426656682E+03  0.17339904280E+04  0.50400001928E-02 0.  1.
       -1    1    3    3    0  502 -0.69598316556E+03 -0.13388647694E+04  0.10975393747E+04  0.18658896314E+04  0.50400001928E-02 0. -1.
</event>
<event>
 5   0  0.1468942E-06  0.3525477E+04  0.7818609E-02  0.8107779E-01
        2   -1    0    0  501    0  0.00000000000E+00  0.00000000000E+00  0.29294703924E+04  0.29294703924E+04  0.25500000920E-02 0.  1.
       -2   -1    0    0    0  501  0.00000000000E+00  0.00000000000E+00 -0.10606854711E+04  0.10606854711E+04  0.25500000920E-02 0. -1.
    10030    2    1    2    0    0  0.00000000000E+00  0.00000000000E+00  0.18687849213E+04  0.39901558635E+04  0.35254768094E+04 0.  0.
        2    1    3    3  502    0  0.12444870780E+02  0.67228291017E+02 -0.10591842164E+04  0.10613885821E+04  0.25500000920E-02 0. -1.
       -2    1    3    3    0  502 -0.12444870780E+02 -0.67228291017E+02  0.29279691377E+04  0.29287672815E+04  0.25500000920E-02 0.  1.
</event>
<event>
 5   0  0.4811500E-07  0.2865725E+04  0.7818609E-02  0.8283149E-01
       -1   -1    0    0    0  501  0.00000000000E+00  0.00000000000E+00  0.19136835202E+04  0.19136835203E+04  0.50400001928E-02 0. -1.
        1   -1    0    0  501    0  0.00000000000E+00  0.00000000000E+00 -0.10728495332E+04  0.10728495332E+04  0.50400001928E-02 0.  1.
    10030    2    1    2    0    0  0.00000000000E+00  0.00000000000E+00  0.84083398703E+03  0.29865330535E+04  0.28657246703E+04 0.  0.
        3    1    3    3  502    0 -0.19895996889E+03 -0.31209264091E+03  0.18630066276E+04  0.18994158551E+04  0.10100000352E+00 0. -1.
       -3    1    3    3    0  502  0.19895996889E+03  0.31209264091E+03 -0.10221726406E+04  0.10871171984E+04  0.10100000352E+00 0.  1.
</event>
<event>
 5   0  0.1379425E-06  0.3581970E+04  0.7818609E-02  0.8094634E-01
       -2   -1    0    0    0  501  0.00000000000E+00  0.00000000000E+00  0.17419303422E+04  0.17419303422E+04  0.25500000920E-02 0.  1.
        2   -1    0    0  501    0  0.00000000000E+00  0.00000000000E+00 -0.18414213390E+04  0.18414213390E+04  0.25500000920E-02 0. -1.
    10030    2    1    2    0    0  0.00000000000E+00  0.00000000000E+00 -0.99490996812E+02  0.35833516812E+04  0.35819702417E+04 0.  0.
        4    1    3    3  502    0  0.64313584214E+03 -0.92155933452E+03 -0.14448193635E+04  0.18304097696E+04  0.12699999809E+01 0. -1.
       -4    1    3    3    0  502 -0.64313584214E+03  0.92155933452E+03  0.13453283667E+04  0.17529419116E+04  0.12699999809E+01 0.  1.
</event>
<event>
 5   0  0.1505671E-06  0.3468038E+04  0.7818609E-02  0.8121407E-01
       -2   -1    0    0    0  501  0.00000000000E+00  0.00000000000E+00  0.22553939140E+04  0.22553939140E+04  0.25500000920E-02 0. -1.
        2   -1    0    0  501    0  0.00000000000E+00  0.00000000000E+00 -0.13331691476E+04  0.13331691476E+04  0.25500000920E-02 0.  1.
    10030    2    1    2    0    0  0.00000000000E+00  0.00000000000E+00  0.92222476636E+03  0.35885630616E+04  0.34680378209E+04 0.  0.
        3    1    3    3  502    0 -0.12471139884E+04  0.12231609626E+02 -0.78548762081E+03  0.14739178148E+04  0.10100000352E+00 0.  1.
       -3    1    3    3    0  502  0.12471139884E+04 -0.12231609626E+02  0.17077123872E+04  0.21146452468E+04  0.10100000352E+00 0. -1.
</event>
<event>
 5   0  0.1491854E-06  0.3598938E+04  0.7818609E-02  0.8090735E-01
        2   -1    0    0  501    0  0.00000000000E+00  0.00000000000E+00  0.16593473722E+04  0.16593473722E+04  0.25500000920E-02 0. -1.
       -2   -1    0    0    0  501  0.00000000000E+00  0.00000000000E+00 -0.19514232415E+04  0.19514232415E+04  0.25500000920E-02 0.  1.
    10030    2    1    2    0    0  0.00000000000E+00  0.00000000000E+00 -0.29207586931E+03  0.36107706137E+04  0.35989381922E+04 0.  0.
        5    1    3    3  502    0 -0.10967202590E+04 -0.57918562912E+03 -0.14540941803E+04  0.19111942064E+04  0.46999998093E+01 0.  1.
       -5    1    3    3    0  502  0.10967202590E+04  0.57918562912E+03  0.11620183110E+04  0.16995764073E+04  0.46999998093E+01 0. -1.
</event>
<event>
 5   0  0.4811500E-07  0.2385910E+04  0.7818609E-02  0.8444797E-01
       -1   -1    0    0    0  501  0.00000000000E+00  0.00000000000E+00  0.70441098152E+03  0.70441098154E+03  0.50400001928E-02 0. -1.
        1   -1    0    0  501    0  0.00000000000E+00  0.00000000000E+00 -0.20203289728E+04  0.20203289728E+04  0.50400001928E-02 0.  1.
    10030    2    1    2    0    0  0.00000000000E+00  0.00000000000E+00 -0.13159179913E+04  0.27247399544E+04  0.23859102370E+04 0.  0.
        4    1    3    3  502    0 -0.98086783870E+03  0.47450255297E+03 -0.10330523542E+03  0.10944989604E+04  0.12699999809E+01 0. -1.
       -4    1    3    3    0  502  0.98086783870E+03 -0.47450255297E+03 -0.12126127559E+04  0.16302409940E+04  0.12699999809E+01 0.  1.
</event>
<event>
 5   0  0.5071661E-07  0.3583367E+04  0.7818609E-02  0.8094312E-01
        1   -1    0    0  501    0  0.00000000000E+00  0.00000000000E+00  0.23537141885E+04  0.23537141885E+04  0.50400001928E-02 0.  1.
       -1   -1    0    0    0  501  0.00000000000E+00  0.00000000000E+00 -0.13638567225E+04  0.13638567225E+04  0.50400001928E-02 0. -1.
    10030    2    1    2    0    0  0.00000000000E+00  0.00000000000E+00  0.98985746603E+03  0.37175709110E+04  0.35833665282E+04 0.  0.
        1    1    3    3  502    0 -0.14853577611E+04  0.93923603151E+03  0.85681502117E+03  0.19551429569E+04  0.50400001928E-02 0.  1.
       -1    1    3    3    0  502  0.14853577611E+04 -0.93923603151E+03  0.13304244486E+03  0.17624279541E+04  0.50400001928E-02 0. -1.
</event>
<event>
 5   0  0.4811500E-07  0.2321390E+04  0.7818609E-02  0.8469535E-01
       -1   -1    0    0    0  501  0.00000000000E+00  0.00000000000E+00  0.59931933167E+03  0.59931933169E+03  0.50400001928E-02 0. -1.
        1   -1    0    0  501    0  0.00000000000E+00  0.00000000000E+00 -0.22479040930E+04  0.22479040930E+04  0.50400001928E-02 0.  1.
    10030    2    1    2    0    0  0.00000000000E+00  0.00000000000E+00 -0.16485847613E+04  0.28472234247E+04  0.23213895655E+04 0.  0.
        5    1    3    3  502    0 -0.55723845069E+03 -0.54125425447E+03  0.23344556310E+03  0.81116569198E+03  0.46999998093E+01 0. -1.
       -5    1    3    3    0  502  0.55723845069E+03  0.54125425447E+03 -0.18820303244E+04  0.20360577327E+04  0.46999998093E+01 0.  1.
</event>
<event>
 5   0  0.1379425E-06  0.3421980E+04  0.7818609E-02  0.8132533E-01
        2   -1    0    0  501    0  0.00000000000E+00  0.00000000000E+00  0.16018767426E+04  0.16018767426E+04  0.25500000920E-02 0.  1.
       -2   -1    0    0    0  501  0.00000000000E+00  0.00000000000E+00 -0.18275359526E+04  0.18275359526E+04  0.25500000920E-02 0. -1.
    10030    2    1    2    0    0  0.00000000000E+00  0.00000000000E+00 -0.22565921004E+03  0.34294126952E+04  0.34219803265E+04 0.  0.
        4    1    3    3  502    0 -0.15342514755E+04  0.48447293617E+03  0.47053787186E+03  0.16763201119E+04  0.12699999809E+01 0.  1.
       -4    1    3    3    0  502  0.15342514755E+04 -0.48447293617E+03 -0.69619708190E+03  0.17530925833E+04  0.12699999809E+01 0. -1.
</event>
<event>
 5   0  0.1379425E-06  0.2587664E+04  0.7818609E-02  0.8372404E-01
        2   -1    0    0  501    0  0.00000000000E+00  0.00000000000E+00  0.10284196617E+04  0.10284196617E+04  0.25500000920E-02 0.  1.
       -2   -1    0    0    0  501  0.00000000000E+00  0.00000000000E+00 -0.16277408032E+04  0.16277408032E+04  0.25500000920E-02 0. -1.
    10030    2    1    2    0    0  0.00000000000E+00  0.00000000000E+00 -0.59932114150E+03  0.26561604649E+04  0.25876635378E+04 0.  0.
        4    1    3    3  502    0 -0.44754170123E+03  0.74743019694E+03 -0.12815662215E+04  0.15496319132E+04  0.12699999809E+01 0. -1.
       -4    1    3    3    0  502  0.44754170123E+03 -0.74743019694E+03  0.68224507998E+03  0.11065285517E+04  0.12699999809E+01 0.  1.
</event>
<event>
 5   0  0.1491854E-06  0.2340387E+04  0.7818609E-02  0.8462165E-01
        2   -1    0    0  501    0  0.00000000000E+00  0.00000000000E+00  0.15417241817E+04  0.15417241817E+04  0.25500000920E-02 0. -1.
       -2   -1    0    0    0  501  0.00000000000E+00  0.00000000000E+00 -0.88819549852E+03  0.88819549853E+03  0.25500000920E-02 0.  1.
    10030    2    1    2    0    0  0.00000000000E+00  0.00000000000E+00  0.65352868317E+03  0.24299196802E+04  0.23403867015E+04 0.  0.
        5    1    3    3  502    0 -0.30111061418E+03  0.35697878398E+03 -0.78723554048E+03  0.91534875341E+03  0.46999998093E+01 0.  1.
       -5    1    3    3    0  502  0.30111061418E+03 -0.35697878398E+03  0.14407642236E+04  0.15145709268E+04  0.46999998093E+01 0. -1.
</event>
<event>
 5   0  0.1379425E-06  0.3576917E+04  0.7818609E-02  0.8095800E-01
       -2   -1    0    0    0  501  0.00000000000E+00  0.00000000000E+00  0.14714355248E+04  0.14714355248E+04  0.25500000920E-02 0.  1.
        2   -1    0    0  501    0  0.00000000000E+00  0.00000000000E+00 -0.21737846175E+04  0.21737846175E+04  0.25500000920E-02 0. -1.
    10030    2    1    2    0    0  0.00000000000E+00  0.00000000000E+00 -0.70234909263E+03  0.36452201423E+04  0.35769170577E+04 0.  0.
        4    1    3    3  502    0  0.24524442076E+03 -0.15138570976E+03 -0.21499632521E+04  0.21691947947E+04  0.12699999809E+01 0. -1.
       -4    1    3    3    0  502 -0.24524442076E+03  0.15138570976E+03  0.14476141595E+04  0.14760253476E+04  0.12699999809E+01 0.  1.
</event>
<event>
 5   0  0.1468942E-06  0.3514707E+04  0.7818609E-02  0.8110313E-01
        2   -1    0    0  501    0  0.00000000000E+00  0.00000000000E+00  0.18764034234E+04  0.18764034234E+04  0.25500000920E-02 0.  1.
       -2   -1    0    0    0  501  0.00000000000E+00  0.00000000000E+00 -0.16458572498E+04  0.16458572498E+04  0.25500000920E-02 0. -1.
    10030    2    1    2    0    0  0.00000000000E+00  0.00000000000E+00  0.23054617355E+03  0.35222606732E+04  0.35147074860E+04 0.  0.
        2    1    3    3  502    0 -0.24375603763E+03 -0.52120046642E+02  0.18585972729E+04  0.18752379390E+04  0.25500000920E-02 0.  1.
       -2    1    3    3    0  502  0.24375603763E+03  0.52120046642E+02 -0.16280510993E+04  0.16470227342E+04  0.25500000920E-02 0. -1.
</event>
<event>
 5   0  0.1491854E-06  0.3612383E+04  0.7818609E-02  0.8087661E-01
       -2   -1    0    0    0  501  0.00000000000E+00  0.00000000000E+00  0.17342647966E+04  0.17342647966E+04  0.25500000920E-02 0. -1.
        2   -1    0    0  501    0  0.00000000000E+00  0.00000000000E+00 -0.18811017887E+04  0.18811017887E+04  0.25500000920E-02 0.  1.
    10030    2    1    2    0    0  0.00000000000E+00  0.00000000000E+00 -0.14683699217E+03  0.36153665853E+04  0.36123834851E+04 0.  0.
        5    1    3    3  502    0 -0.17043679101E+02 -0.10264316322E+04 -0.15607325583E+04  0.18680900918E+04  0.46999998093E+01 0.  1.
       -5    1    3    3    0  502  0.17043679101E+02  0.10264316322E+04  0.14138955662E+04  0.17472764935E+04  0.46999998093E+01 0. -1.
</event>
<event>
 5   0  0.1491854E-06  0.3568371E+04  0.7818609E-02  0.8097775E-01
       -2   -1    0    0    0  501  0.00000000000E+00  0.00000000000E+00  0.13283530343E+04  0.13283530343E+04  0.25500000920E-02 0.  1.
        2   -1    0    0  501    0  0.00000000000E+00  0.00000000000E+00 -0.23964394776E+04  0.23964394776E+04  0.25500000920E-02 0. -1.
    10030    2    1    2    0    0  0.00000000000E+00  0.00000000000E+00 -0.10680864433E+04  0.37247925119E+04  0.35683708617E+04 0.  0.
        5    1    3    3  502    0  0.13842146366E+04 -0.73273646098E+03 -0.14261060472E+04  0.21181957958E+04  0.46999998093E+01 0.  1.
       -5    1    3    3    0  502 -0.13842146366E+04  0.73273646098E+03  0.35801960393E+03  0.16065967161E+04  0.46999998093E+01 0. -1.
</event>
<event>
 5   0  0.4811500E-07  0.3501970E+04  0.7818609E-02  0.8113323E-01
        1   -1    0    0  501    0  0.00000000000E+00  0.00000000000E+00  0.26464323287E+04  0.26464323287E+04  0.50400001928E-02 0.  1.
       -1   -1    0    0    0  501  0.00000000000E+00  0.00000000000E+00 -0.11585215969E+04  0.11585215969E+04  0.50400001928E-02 0. -1.
    10030    2    1    2    0    0  0.00000000000E+00  0.00000000000E+00  0.14879107318E+04  0.38049539256E+04  0.35019703069E+04 0.  0.
        2    1    3    3  502    0 -0.11025388482E+04  0.12855747630E+04  0.26090720527E+03  0.17135830744E+04  0.25500000920E-02 0.  1.
       -2    1    3    3    0  502  0.11025388482E+04 -0.12855747630E+04  0.12270035265E+04  0.20913708512E+04  0.25500000920E-02 0. -1.
</event>
<event>
 5   0  0.4811500E-07  0.3676856E+04  0.7818609E-02  0.8073110E-01
        1   -1    0    0  501    0  0.00000000000E+00  0.00000000000E+00  0.20405935013E+04  0.20405935014E+04  0.50400001928E-02 0.  1.
       -1   -1    0    0    0  501  0.00000000000E+00  0.00000000000E+00 -0.16562910937E+04  0.16562910937E+04  0.50400001928E-02 0. -1.
    10030    2    1    2    0    0  0.00000000000E+00  0.00000000000E+00  0.38430240764E+03  0.36968845951E+04  0.36768556361E+04 0.  0.
        2    1    3    3  502    0  0.15070286981E+03  0.16222077102E+04 -0.66427959998E+03  0.17594137083E+04  0.25500000920E-02 0. -1.
       -2    1    3    3    0  502 -0.15070286981E+03 -0.16222077102E+04  0.10485820076E+04  0.19374708867E+04  0.25500000920E-02 0.  1.
</event>
<event>
 5   0  0.1491854E-06  0.3578030E+04  0.7818609E-02  0.8095543E-01
       -2   -1    0    0    0  501  0.00000000000E+00  0.00000000000E+00  0.16772043877E+04  0.16772043877E+04  0.25500000920E-02 0.  1.
        2   -1    0    0  501    0  0.00000000000E+00  0.00000000000E+00 -0.19082790182E+04  0.19082790182E+04  0.25500000920E-02 0. -1.
    10030    2    1    2    0    0  0.00000000000E+00  0.00000000000E+00 -0.23107463043E+03  0.35854834059E+04  0.35780295931E+04 0.  0.
        5    1    3    3  502    0  0.15669788022E+04 -0.73121275684E+03 -0.57524913724E+03  0.18223688766E+04  0.46999998093E+01 0. -1.
       -5    1    3    3    0  502 -0.15669788022E+04  0.73121275684E+03  0.34417450681E+03  0.17631145293E+04  0.46999998093E+01 0.  1.
</event>
<event>
 5   0  0.4811500E-07  0.3624864E+04  0.7818609E-02  0.8084820E-01
        1   -1    0    0  501    0  0.00000000000E+00  0.00000000000E+00  0.19616069819E+04  0.19616069819E+04  0.50400001928E-02 0.  1.
       -1   -1    0    0    0  501  0.00000000000E+00  0.00000000000E+00 -0.16746018253E+04  0.16746018253E+04  0.50400001928E-02 0. -1.
    10030    2    1    2    0    0  0.00000000000E+00  0.00000000000E+00  0.28700515658E+03  0.36362088071E+04  0.36248644843E+04 0.  0.
        3    1    3    3  502    0 -0.79768145512E+03  0.43045948337E+02  0.17754812616E+04  0.19469161199E+04  0.10100000352E+00 0. -1.
       -3    1    3    3    0  502  0.79768145512E+03 -0.43045948337E+02 -0.14884761051E+04  0.16892926872E+04  0.10100000352E+00 0.  1.
</event>
<event>
 5   0  0.1505671E-06  0.3369539E+04  0.7818609E-02  0.8145423E-01
        2   -1    0    0  501    0  0.00000000000E+00  0.00000000000E+00  0.20145313756E+04  0.20145313756E+04  0.25500000920E-02 0. -1.
       -2   -1    0    0    0  501  0.00000000000E+00  0.00000000000E+00 -0.14089867921E+04  0.14089867921E+04  0.25500000920E-02 0.  1.
    10030    2    1    2    0    0  0.00000000000E+00  0.00000000000E+00  0.60554458354E+03  0.34235181677E+04  0.33695389004E+04 0.  0.
        3    1    3    3  502    0  0.31621400386E+03  0.15496345668E+04 -0.28712279222E+03  0.16074197009E+04  0.10100000352E+00 0.  1.
       -3    1    3    3    0  502 -0.31621400386E+03 -0.15496345668E+04  0.89266737576E+03  0.18160984667E+04  0.10100000352E+00 0. -1.
</event>
<event>
 5   0  0.5071661E-07  0.2699582E+04  0.7818609E-02  0.8335141E-01
        1   -1    0    0  501    0  0.00000000000E+00  0.00000000000E+00  0.22486127797E+04  0.22486127797E+04  0.50400001928E-02 0. -1.
       -1   -1    0    0    0  501  0.00000000000E+00  0.00000000000E+00 -0.81024896590E+03  0.81024896591E+03  0.50400001928E-02 0.  1.
    10030    2    1    2    0    0  0.00000000000E+00  0.00000000000E+00  0.14383638138E+04  0.30588617456E+04  0.26995823228E+04 0.  0.
        1    1    3    3  502    0 -0.83266149525E+03 -0.89137552056E+03  0.64280440674E+02  0.12214775722E+04  0.50400001928E-02 0.  1.
       -1    1    3    3    0  502  0.83266149525E+03  0.89137552056E+03  0.13740833731E+04  0.18373841734E+04  0.50400001928E-02 0. -1.
</event>
<event>
 5   0  0.4811500E-07  0.3657965E+04  0.7818609E-02  0.8077342E-01
       -1   -1    0    0    0  501  0.00000000000E+00  0.00000000000E+00  0.23457369732E+04  0.23457369732E+04  0.50400001928E-02 0. -1.
        1   -1    0    0  501    0  0.00000000000E+00  0.00000000000E+00 -0.14260661882E+04  0.14260661882E+04  0.50400001928E-02 0.  1.
    10030    2    1    2    0    0  0.00000000000E+00  0.00000000000E+00  0.91967078498E+03  0.37718031614E+04  0.36579645618E+04 0.  0.
        2    1    3    3  502    0 -0.38982582261E+03  0.97303338531E+03 -0.10856140983E+04  0.15090779010E+04  0.25500000920E-02 0.  1.
       -2    1    3    3    0  502  0.38982582261E+03 -0.97303338531E+03  0.20052848833E+04  0.22627252604E+04  0.25500000920E-02 0. -1.
</event>
<event>
 5   0  0.4811500E-07  0.3552175E+04  0.7818609E-02  0.8101535E-01
       -1   -1    0    0    0  501  0.00000000000E+00  0.00000000000E+00  0.21167720179E+04  0.21167720180E+04  0.50400001928E-02 0. -1.
        1   -1    0    0  501    0  0.00000000000E+00  0.00000000000E+00 -0.14902345879E+04  0.14902345879E+04  0.50400001928E-02 0.  1.
    10030    2    1    2    0    0  0.00000000000E+00  0.00000000000E+00  0.62653743009E+03  0.36070066058E+04  0.35521750384E+04 0.  0.
        5    1    3    3  502    0 -0.15150484831E+03  0.14899898904E+04 -0.65616229113E+03  0.16351130343E+04  0.46999998093E+01 0.  1.
       -5    1    3    3    0  502  0.15150484831E+03 -0.14899898904E+04  0.12826997212E+04  0.19718935715E+04  0.46999998093E+01 0. -1.
</event>
<event>
 5   0  0.1468942E-06  0.3561135E+04  0.7818609E-02  0.8099453E-01
        2   -1    0    0  501    0  0.00000000000E+00  0.00000000000E+00  0.16621995513E+04  0.16621995513E+04  0.25500000920E-02 0. -1.
       -2   -1    0    0    0  501  0.00000000000E+00  0.00000000000E+00 -0.19073649311E+04  0.19073649311E+04  0.25500000920E-02 0.  1.
    10030    2    1    2    0    0  0.00000000000E+00  0.00000000000E+00 -0.24516537980E+03  0.35695644825E+04  0.35611352868E+04 0.  0.
        2    1    3    3  502    0 -0.76748787055E+03 -0.12948858683E+04 -0.10759670744E+04  0.18502627350E+04  0.25500000920E-02 0.  1.
       -2    1    3    3    0  502  0.76748787055E+03  0.12948858683E+04  0.83080169456E+03  0.17193017475E+04  0.25500000920E-02 0. -1.
</event>
<event>
 5   0  0.1379425E-06  0.3152996E+04  0.7818609E-02  0.8201342E-01
       -2   -1    0    0    0  501  0.00000000000E+00  0.00000000000E+00  0.12661149816E+04  0.12661149816E+04  0.25500000920E-02 0. -1.
        2   -1    0    0  501    0  0.00000000000E+00  0.00000000000E+00 -0.19629698108E+04  0.19629698108E+04  0.25500000920E-02 0.  1.
    10030    2    1    2    0    0  0.00000000000E+00  0.00000000000E+00 -0.69685482920E+03  0.32290847924E+04  0.31529957094E+04 0.  0.
        4    1    3    3  502    0  0.46169674326E+02 -0.15757884066E+04 -0.35882786630E+03  0.16167868727E+04  0.12699999809E+01 0.  1.
       -4    1    3    3    0  502 -0.46169674326E+02  0.15757884066E+04 -0.33802696290E+03  0.16122979197E+04  0.12699999809E+01 0. -1.
</event>
<event>
 5   0  0.4811500E-07  0.3544495E+04  0.7818609E-02  0.8103325E-01
       -1   -1    0    0    0  501  0.00000000000E+00  0.00000000000E+00  0.24400275976E+04  0.24400275976E+04  0.50400001928E-02 0.  1.
        1   -1    0    0  501    0  0.00000000000E+00  0.00000000000E+00 -0.12872239344E+04  0.12872239344E+04  0.50400001928E-02 0. -1.
    10030    2    1    2    0    0  0.00000000000E+00  0.00000000000E+00  0.11528036633E+04  0.37272515320E+04  0.35444954079E+04 0.  0.
        3    1    3    3  502    0 -0.36101117442E+00  0.17674021666E+04  0.43868607624E+03  0.18210315847E+04  0.10100000352E+00 0.  1.
       -3    1    3    3    0  502  0.36101117442E+00 -0.17674021666E+04  0.71411758704E+03  0.19062199472E+04  0.10100000352E+00 0. -1.
</event>
<event>
 5   0  0.1468942E-06  0.3575312E+04  0.7818609E-02  0.8096170E-01
        2   -1    0    0  501    0  0.00000000000E+00  0.00000000000E+00  0.18979105693E+04  0.18979105693E+04  0.25500000920E-02 0.  1.
       -2   -1    0    0    0  501  0.00000000000E+00  0.00000000000E+00 -0.16838068298E+04  0.16838068298E+04  0.25500000920E-02 0. -1.
    10030    2    1    2    0    0  0.00000000000E+00  0.00000000000E+00  0.21410373950E+03  0.35817173991E+04  0.35753124501E+04 0.  0.
        2    1    3    3  502    0  0.11987660595E+04  0.13261418684E+04  0.11179939384E+03  0.17911424915E+04  0.25500000920E-02 0.  1.
       -2    1    3    3    0  502 -0.11987660595E+04 -0.13261418684E+04  0.10230434566E+03  0.17905749076E+04  0.25500000920E-02 0. -1.
</event>
<event>
 5   0  0.4811500E-07  0.2362963E+04  0.7818609E-02  0.8453501E-01
       -1   -1    0    0    0  501  0.00000000000E+00  0.00000000000E+00  0.88401620172E+03  0.88401620173E+03  0.50400001928E-02 0.  1.
        1   -1    0    0  501    0  0.00000000000E+00  0.00000000000E+00 -0.15790421560E+04  0.15790421560E+04  0.50400001928E-02 0. -1.
    10030    2    1    2    0    0  0.00000000000E+00  0.00000000000E+00 -0.69502595424E+03  0.24630583577E+04  0.23629632660E+04 0.  0.
        5    1    3    3  502    0 -0.92933799950E+03  0.43666639396E+03 -0.95667416591E+03  0.14034223194E+04  0.46999998093E+01 0. -1.
       -5    1    3    3    0  502  0.92933799950E+03 -0.43666639396E+03  0.26164821167E+03  0.10596360383E+04  0.46999998093E+01 0.  1.
</event>
<event>
 5   0  0.4811500E-07  0.3486203E+04  0.7818609E-02  0.8117067E-01
        3   -1    0    0  501    0  0.00000000000E+00  0.00000000000E+00  0.15053091814E+04  0.15053091848E+04  0.10100000352E+00 0.  1.
       -3   -1    0    0    0  501  0.00000000000E+00  0.00000000000E+00 -0.20184579081E+04  0.20184579107E+04  0.10100000352E+00 0. -1.
    10030    2    1    2    0    0  0.00000000000E+00  0.00000000000E+00 -0.51314872675E+03  0.35237670954E+04  0.34862032252E+04 0.  0.
        4    1    3    3  502    0  0.51378692921E+03 -0.15929673953E+04 -0.74852125764E+03  0.18335233342E+04  0.12699999809E+01 0. -1.
       -4    1    3    3    0  502 -0.51378692921E+03  0.15929673953E+04  0.23537253089E+03  0.16902437612E+04  0.12699999809E+01 0.  1.
</event>
<event>
 5   0  0.4811500E-07  0.3621840E+04  0.7818609E-02  0.8085507E-01
        1   -1    0    0  501    0  0.00000000000E+00  0.00000000000E+00  0.17523870884E+04  0.17523870884E+04  0.50400001928E-02 0.  1.
       -1   -1    0    0    0  501  0.00000000000E+00  0.00000000000E+00 -0.18714082651E+04  0.18714082651E+04  0.50400001928E-02 0. -1.
    10030    2    1    2    0    0  0.00000000000E+00  0.00000000000E+00 -0.11902117665E+03  0.36237953535E+04  0.36218402399E+04 0.  0.
        4    1    3    3  502    0 -0.89099375771E+03  0.75183899604E+03  0.13269857428E+04  0.17663591160E+04  0.12699999809E+01 0.  1.
       -4    1    3    3    0  502  0.89099375771E+03 -0.75183899604E+03 -0.14460069194E+04  0.18574362375E+04  0.12699999809E+01 0. -1.
</event>
<event>
 5   0  0.4811500E-07  0.3592495E+04  0.7818609E-02  0.8092213E-01
       -1   -1    0    0    0  501  0.00000000000E+00  0.00000000000E+00  0.15397049314E+04  0.15397049314E+04  0.50400001928E-02 0.  1.
        1   -1    0    0  501    0  0.00000000000E+00  0.00000000000E+00 -0.20955346074E+04  0.20955346074E+04  0.50400001928E-02 0. -1.
    10030    2    1    2    0    0  0.00000000000E+00  0.00000000000E+00 -0.55582967606E+03  0.36352395388E+04  0.35924949375E+04 0.  0.
        2    1    3    3  502    0  0.67807726768E+03 -0.13642483029E+04 -0.12408373695E+04  0.19648510352E+04  0.25500000920E-02 0. -1.
       -2    1    3    3    0  502 -0.67807726768E+03  0.13642483029E+04  0.68500769342E+03  0.16703885036E+04  0.25500000920E-02 0.  1.
</event>
<event>
 5   0  0.4811500E-07  0.2426113E+04  0.7818609E-02  0.8429791E-01
       -1   -1    0    0    0  501  0.00000000000E+00  0.00000000000E+00  0.15022977063E+04  0.15022977063E+04  0.50400001928E-02 0.  1.
        1   -1    0    0  501    0  0.00000000000E+00  0.00000000000E+00 -0.97950368810E+03  0.97950368811E+03  0.50400001928E-02 0. -1.
    10030    2    1    2    0    0  0.00000000000E+00  0.00000000000E+00  0.52279401822E+03  0.24818013944E+04  0.24261130592E+04 0.  0.
        5    1    3    3  502    0 -0.68722868584E+03 -0.96935096588E+03  0.51104695845E+03  0.12934897160E+04  0.46999998093E+01 0.  1.
       -5    1    3    3    0  502  0.68722868584E+03  0.96935096588E+03  0.11747059771E+02  0.11883116784E+04  0.46999998093E+01 0. -1.
</event>
<event>
 5   0  0.5071661E-07  0.3639142E+04  0.7818609E-02  0.8081584E-01
       -1   -1    0    0    0  501  0.00000000000E+00  0.00000000000E+00  0.11863165904E+04  0.11863165904E+04  0.50400001928E-02 0. -1.
        1   -1    0    0  501    0  0.00000000000E+00  0.00000000000E+00 -0.27908564117E+04  0.27908564117E+04  0.50400001928E-02 0.  1.
    10030    2    1    2    0    0  0.00000000000E+00  0.00000000000E+00 -0.16045398213E+04  0.39771730021E+04  0.36391423509E+04 0.  0.
        1    1    3    3  502    0 -0.84067274437E+03 -0.13768279406E+04 -0.17221497265E+04  0.23597003034E+04  0.50400001928E-02 0.  1.
       -1    1    3    3    0  502  0.84067274437E+03  0.13768279406E+04  0.11760990527E+03  0.16174726987E+04  0.50400001928E-02 0. -1.
</event>
<event>
 5   0  0.1444091E-06  0.3645924E+04  0.7818609E-02  0.8080052E-01
       -2   -1    0    0    0  501  0.00000000000E+00  0.00000000000E+00  0.21928669788E+04  0.21928669788E+04  0.25500000920E-02 0. -1.
        2   -1    0    0  501    0  0.00000000000E+00  0.00000000000E+00 -0.15154550439E+04  0.15154550439E+04  0.25500000920E-02 0.  1.
    10030    2    1    2    0    0  0.00000000000E+00  0.00000000000E+00  0.67741193488E+03  0.37083220227E+04  0.36459244773E+04 0.  0.
        1    1    3    3  502    0  0.13204328897E+04  0.54705008878E+03  0.14896122938E+04  0.20644010273E+04  0.50400001928E-02 0. -1.
       -1    1    3    3    0  502 -0.13204328897E+04 -0.54705008878E+03 -0.81220035894E+03  0.16439209953E+04  0.50400001928E-02 0.  1.
</event>
<event>
 5   0  0.1505671E-06  0.2623396E+04  0.7818609E-02  0.8360297E-01
        2   -1    0    0  501    0  0.00000000000E+00  0.00000000000E+00  0.11439443021E+04  0.11439443021E+04  0.25500000920E-02 0. -1.
       -2   -1    0    0    0  501  0.00000000000E+00  0.00000000000E+00 -0.15040524988E+04  0.15040524988E+04  0.25500000920E-02 0.  1.
    10030    2    1    2    0    0  0.00000000000E+00  0.00000000000E+00 -0.36010819668E+03  0.26479968008E+04  0.26233964900E+04 0.  0.
        3    1    3    3  502    0 -0.84445910976E+03 -0.98563011415E+03 -0.37150177318E+03  0.13500338839E+04  0.10100000352E+00 0. -1.
       -3    1    3    3    0  502  0.84445910976E+03  0.98563011415E+03  0.11393576501E+02  0.12979629169E+04  0.10100000352E+00 0.  1.
</event>
<event>
 5   0  0.4811500E-07  0.3075315E+04  0.7818609E-02  0.8222545E-01
        1   -1    0    0  501    0  0.00000000000E+00  0.00000000000E+00  0.22605183169E+04  0.22605183169E+04  0.50400001928E-02 0. -1.
       -1   -1    0    0    0  501  0.00000000000E+00  0.00000000000E+00 -0.10459508956E+04  0.10459508957E+04  0.50400001928E-02 0.  1.
    10030    2    1    2    0    0  0.00000000000E+00  0.00000000000E+00  0.12145674212E+04  0.33064692125E+04  0.30753153712E+04 0.  0.
        5    1    3    3  502    0 -0.10288183035E+03 -0.15335219187E+04  0.65649432198E+03  0.16713111712E+04  0.46999998093E+01 0.  1.
       -5    1    3    3    0  502  0.10288183035E+03  0.15335219187E+04  0.55807309923E+03  0.16351580413E+04  0.46999998093E+01 0. -1.
</event>
<event>
 5   0  0.4811500E-07  0.3607732E+04  0.7818609E-02  0.8088723E-01
        1   -1    0    0  501    0  0.00000000000E+00  0.00000000000E+00  0.18122307371E+04  0.18122307371E+04  0.50400001928E-02 0.  1.
       -1   -1    0    0    0  501  0.00000000000E+00  0.00000000000E+00 -0.17955401766E+04  0.17955401766E+04  0.50400001928E-02 0. -1.
    10030    2    1    2    0    0  0.00000000000E+00  0.00000000000E+00  0.16690560512E+02  0.36077709136E+04  0.36077323058E+04 0.  0.
        3    1    3    3  502    0  0.48658328004E+03 -0.86776699452E+03  0.15130707375E+04  0.18108467390E+04  0.10100000352E+00 0.  1.
       -3    1    3    3    0  502 -0.48658328004E+03  0.86776699452E+03 -0.14963801770E+04  0.17969241747E+04  0.10100000352E+00 0. -1.
</event>
<event>
 5   0  0.4811500E-07  0.3300390E+04  0.7818609E-02  0.8162796E-01
        1   -1    0    0  501    0  0.00000000000E+00  0.00000000000E+00  0.15585038776E+04  0.15585038776E+04  0.50400001928E-02 0. -1.
       -1   -1    0    0    0  501  0.00000000000E+00  0.00000000000E+00 -0.17472800555E+04  0.17472800555E+04  0.50400001928E-02 0.  1.
    10030    2    1    2    0    0  0.00000000000E+00  0.00000000000E+00 -0.18877617792E+03  0.33057839331E+04  0.33003895175E+04 0.  0.
        3    1    3    3  502    0  0.20359777822E+03 -0.59842048225E+03 -0.16212101169E+04  0.17400808551E+04  0.10100000352E+00 0.  1.
       -3    1    3    3    0  502 -0.20359777822E+03  0.59842048225E+03  0.14324339390E+04  0.15657030781E+04  0.10100000352E+00 0. -1.
</event>
<event>
 5   0  0.1468942E-06  0.3543108E+04  0.7818609E-02  0.8103649E-01
       -2   -1    0    0    0  501  0.00000000000E+00  0.00000000000E+00  0.30171594603E+04  0.30171594603E+04  0.25500000920E-02 0.  1.
        2   -1    0    0  501    0  0.00000000000E+00  0.00000000000E+00 -0.10401847132E+04  0.10401847132E+04  0.25500000920E-02 0. -1.
    10030    2    1    2    0    0  0.00000000000E+00  0.00000000000E+00  0.19769747470E+04  0.40573441735E+04  0.35431077590E+04 0.  0.
        2    1    3    3  502    0 -0.16823078739E+04 -0.16033587915E+03  0.37980011814E+03  0.17320841511E+04  0.25500000920E-02 0.  1.
       -2    1    3    3    0  502  0.16823078739E+04  0.16033587915E+03  0.15971746289E+04  0.23252600224E+04  0.25500000920E-02 0. -1.
</event>
<event>
 5   0  0.1468942E-06  0.3359674E+04  0.7818609E-02  0.8147875E-01
       -2   -1    0    0    0  501  0.00000000000E+00  0.00000000000E+00  0.13091544813E+04  0.13091544813E+04  0.25500000920E-02 0. -1.
        2   -1    0    0  501    0  0.00000000000E+00  0.00000000000E+00 -0.21554767370E+04  0.21554767370E+04  0.25500000920E-02 0.  1.
    10030    2    1    2    0    0  0.00000000000E+00  0.00000000000E+00 -0.84632225567E+03  0.34646312183E+04  0.33596738113E+04 0.  0.
        2    1    3    3  502    0 -0.10280646475E+04  0.77128030147E+03 -0.15386475848E+04  0.20048008911E+04  0.25500000920E-02 0.  1.
       -2    1    3    3    0  502  0.10280646475E+04 -0.77128030147E+03  0.69232532917E+03  0.14598303272E+04  0.25500000920E-02 0. -1.
</event>
<event>
 5   0  0.4811500E-07  0.3447254E+04  0.7818609E-02  0.8126405E-01
        1   -1    0    0  501    0  0.00000000000E+00  0.00000000000E+00  0.24007935327E+04  0.24007935328E+04  0.50400001928E-02 0.  1.
       -1   -1    0    0    0  501  0.00000000000E+00  0.00000000000E+00 -0.12374618558E+04  0.12374618558E+04  0.50400001928E-02 0. -1.
    10030    2    1    2    0    0  0.00000000000E+00  0.00000000000E+00  0.11633316770E+04  0.36382553885E+04  0.34472542235E+04 0.  0.
        4    1    3    3  502    0  0.96693685763E+02 -0.35628679121E+03 -0.11952451498E+04  0.12509606419E+04  0.12699999809E+01 0. -1.
       -4    1    3    3    0  502 -0.96693685763E+02  0.35628679121E+03  0.23585768268E+04  0.23872947466E+04  0.12699999809E+01 0.  1.
</event>
<event>
 5   0  0.1444091E-06  0.3432080E+04  0.7818609E-02  0.8130077E-01
        2   -1    0    0  501    0  0.00000000000E+00  0.00000000000E+00  0.19169587037E+04  0.19169587037E+04  0.25500000920E-02 0. -1.
       -2   -1    0    0    0  501  0.00000000000E+00  0.00000000000E+00 -0.15361796144E+04  0.15361796144E+04  0.25500000920E-02 0.  1.
    10030    2    1    2    0    0  0.00000000000E+00  0.00000000000E+00  0.38077908933E+03  0.34531383181E+04  0.34320797673E+04 0.  0.
        1    1    3    3  502    0  0.85467542803E+02 -0.69041513008E+02  0.19134162535E+04  0.19165680762E+04  0.50400001928E-02 0. -1.
       -1    1    3    3    0  502 -0.85467542803E+02  0.69041513008E+02 -0.15326371642E+04  0.15365702419E+04  0.50400001928E-02 0.  1.
</event>
<event>
 5   0  0.4811500E-07  0.3624836E+04  0.7818609E-02  0.8084826E-01
       -3   -1    0    0    0  501  0.00000000000E+00  0.00000000000E+00  0.22301300271E+04  0.22301300294E+04  0.10100000352E+00 0. -1.
        3   -1    0    0  501    0  0.00000000000E+00  0.00000000000E+00 -0.14729449992E+04  0.14729450026E+04  0.10100000352E+00 0.  1.
    10030    2    1    2    0    0  0.00000000000E+00  0.00000000000E+00  0.75718502793E+03  0.37030750320E+04  0.36248359309E+04 0.  0.
        2    1    3    3  502    0 -0.30137623251E+03  0.63068801301E+03 -0.13297039189E+04  0.15022341746E+04  0.25500000920E-02 0.  1.
       -2    1    3    3    0  502  0.30137623251E+03 -0.63068801301E+03  0.20868889468E+04  0.22008408574E+04  0.25500000920E-02 0. -1.
</event>
<event>
 5   0  0.1491854E-06  0.3619983E+04  0.7818609E-02  0.8085930E-01
        2   -1    0    0  501    0  0.00000000000E+00  0.00000000000E+00  0.11778473908E+04  0.11778473908E+04  0.25500000920E-02 0. -1.
       -2   -1    0    0    0  501  0.00000000000E+00  0.00000000000E+00 -0.27814045119E+04  0.27814045119E+04  0.25500000920E-02 0.  1.
    10030    2    1    2    0    0  0.00000000000E+00  0.00000000000E+00 -0.16035571211E+04  0.39592519027E+04  0.36199834514E+04 0.  0.
        5    1    3    3  502    0  0.82556951941E+03 -0.17409618479E+03  0.94960088309E+03  0.12702906912E+04  0.46999998093E+01 0. -1.
       -5    1    3    3    0  502 -0.82556951941E+03  0.17409618479E+03 -0.25531580042E+04  0.26889612116E+04  0.46999998093E+01 0.  1.
</event>
<event>
 5   0  0.1491854E-06  0.3518407E+04  0.7818609E-02  0.8109442E-01
        2   -1    0    0  501    0  0.00000000000E+00  0.00000000000E+00  0.13498808613E+04  0.13498808613E+04  0.25500000920E-02 0. -1.
       -2   -1    0    0    0  501  0.00000000000E+00  0.00000000000E+00 -0.22926442112E+04  0.22926442112E+04  0.25500000920E-02 0.  1.
    10030    2    1    2    0    0  0.00000000000E+00  0.00000000000E+00 -0.94276334989E+03  0.36425250725E+04  0.35184067658E+04 0.  0.
        5    1    3    3  502    0 -0.17554780613E+04 -0.86466803454E+02 -0.54881817206E+03  0.18413047569E+04  0.46999998093E+01 0.  1.
       -5    1    3    3    0  502  0.17554780613E+04  0.86466803454E+02 -0.39394517783E+03  0.18012203155E+04  0.46999998093E+01 0. -1.
</event>
<event>
 5   0  0.1468942E-06  0.3488923E+04  0.7818609E-02  0.8116420E-01
       -2   -1    0    0    0  501  0.00000000000E+00  0.00000000000E+00  0.13023824275E+04  0.13023824275E+04  0.25500000920E-02 0.  1.
        2   -1    0    0  501    0  0.00000000000E+00  0.00000000000E+00 -0.23365990037E+04  0.23365990037E+04  0.25500000920E-02 0. -1.
    10030    2    1    2    0    0  0.00000000000E+00  0.00000000000E+00 -0.10342165762E+04  0.36389814312E+04  0.34889227464E+04 0.  0.
        2    1    3    3  502    0 -0.35267823955E+02 -0.12859991964E+04 -0.17459616803E+04  0.21687369462E+04  0.25500000920E-02 0. -1.
       -2    1    3    3    0  502  0.35267823955E+02  0.12859991964E+04  0.71174510411E+03  0.14702444850E+04  0.25500000920E-02 0.  1.
</event>
<event>
 5   0  0.4811500E-07  0.3566222E+04  0.7818609E-02  0.8098273E-01
        1   -1    0    0  501    0  0.00000000000E+00  0.00000000000E+00  0.22273489451E+04  0.22273489452E+04  0.50400001928E-02 0. -1.
       -1   -1    0    0    0  501  0.00000000000E+00  0.00000000000E+00 -0.14274753387E+04  0.14274753387E+04  0.50400001928E-02 0.  1.
    10030    2    1    2    0    0  0.00000000000E+00  0.00000000000E+00  0.79987360643E+03  0.36548242839E+04  0.35662224776E+04 0.  0.
        5    1    3    3  502    0 -0.46285605147E+03  0.66917240268E+03 -0.12261259533E+04  0.14715414953E+04  0.46999998093E+01 0.  1.
       -5    1    3    3    0  502  0.46285605147E+03 -0.66917240268E+03  0.20259995598E+04  0.21832827886E+04  0.46999998093E+01 0. -1.
</event>
<event>
 5   0  0.1505671E-06  0.2695607E+04  0.7818609E-02  0.8336432E-01
        2   -1    0    0  501    0  0.00000000000E+00  0.00000000000E+00  0.17744850666E+04  0.17744850666E+04  0.25500000920E-02 0.  1.
       -2   -1    0    0    0  501  0.00000000000E+00  0.00000000000E+00 -0.10237187619E+04  0.10237187620E+04  0.25500000920E-02 0. -1.
    10030    2    1    2    0    0  0.00000000000E+00  0.00000000000E+00  0.75076630462E+03  0.27982038285E+04  0.26956065406E+04 0.  0.
        3    1    3    3  502    0  0.55134150192E+03 -0.47221880770E+03  0.15542134754E+04  0.17153855518E+04  0.10100000352E+00 0.  1.
       -3    1    3    3    0  502 -0.55134150192E+03  0.47221880770E+03 -0.80344717074E+03  0.10828182767E+04  0.10100000352E+00 0. -1.
</event>
<event>
 5   0  0.4811500E-07  0.3615827E+04  0.7818609E-02  0.8086876E-01
        1   -1    0    0  501    0  0.00000000000E+00  0.00000000000E+00  0.25274538985E+04  0.25274538985E+04  0.50400001928E-02 0.  1.
       -1   -1    0    0    0  501  0.00000000000E+00  0.00000000000E+00 -0.12932186992E+04  0.12932186992E+04  0.50400001928E-02 0. -1.
    10030    2    1    2    0    0  0.00000000000E+00  0.00000000000E+00  0.12342351993E+04  0.38206725978E+04  0.36158266789E+04 0.  0.
        3    1    3    3  502    0  0.71513220488E+02  0.33289325550E+03 -0.12590340244E+04  0.13042617624E+04  0.10100000352E+00 0. -1.
       -3    1    3    3    0  502 -0.71513220488E+02 -0.33289325550E+03  0.24932692237E+04  0.25164108353E+04  0.10100000352E+00 0.  1.
</event>
<event>
 5   0  0.1379425E-06  0.3580817E+04  0.7818609E-02  0.8094900E-01
       -2   -1    0    0    0  501  0.00000000000E+00  0.00000000000E+00  0.16889571092E+04  0.16889571092E+04  0.25500000920E-02 0. -1.
        2   -1    0    0  501    0  0.00000000000E+00  0.00000000000E+00 -0.18979534681E+04  0.18979534681E+04  0.25500000920E-02 0.  1.
    10030    2    1    2    0    0  0.00000000000E+00  0.00000000000E+00 -0.20899635889E+03  0.35869105773E+04  0.35808166682E+04 0.  0.
        4    1    3    3  502    0 -0.14879951179E+04 -0.95690255792E+03 -0.38022725260E+03  0.18095210285E+04  0.12699999809E+01 0.  1.
       -4    1    3    3    0  502  0.14879951179E+04  0.95690255792E+03  0.17123089371E+03  0.17773895487E+04  0.12699999809E+01 0. -1.
</event>
<event>
 5   0  0.4811500E-07  0.3661368E+04  0.7818609E-02  0.8076577E-01
        1   -1    0    0  501    0  0.00000000000E+00  0.00000000000E+00  0.21395469627E+04  0.21395469628E+04  0.50400001928E-02 0. -1.
       -1   -1    0    0    0  501  0.00000000000E+00  0.00000000000E+00 -0.15664082314E+04  0.15664082314E+04  0.50400001928E-02 0.  1.
    10030    2    1    2    0    0  0.00000000000E+00  0.00000000000E+00  0.57313873136E+03  0.37059551941E+04  0.36613680361E+04 0.  0.
        2    1    3    3  502    0 -0.56969115469E+03 -0.31449418205E+03  0.20185321663E+04  0.21208316078E+04  0.25500000920E-02 0. -1.
       -2    1    3    3    0  502  0.56969115469E+03  0.31449418205E+03 -0.14453934349E+04  0.15851235864E+04  0.25500000920E-02 0.  1.
</event>
<event>
 5   0  0.5071661E-07  0.3572797E+04  0.7818609E-02  0.8096751E-01
       -1   -1    0    0    0  501  0.00000000000E+00  0.00000000000E+00  0.12426273454E+04  0.12426273454E+04  0.50400001928E-02 0.  1.
        1   -1    0    0  501    0  0.00000000000E+00  0.00000000000E+00 -0.25681233223E+04  0.25681233223E+04  0.50400001928E-02 0. -1.
    10030    2    1    2    0    0  0.00000000000E+00  0.00000000000E+00 -0.13254959768E+04  0.38107506677E+04  0.35727973727E+04 0.  0.
        1    1    3    3  502    0  0.85036403857E+03  0.16400642480E+03  0.10037473756E+04  0.13257171265E+04  0.50400001928E-02 0.  1.
       -1    1    3    3    0  502 -0.85036403857E+03 -0.16400642480E+03 -0.23292433525E+04  0.24850335411E+04  0.50400001928E-02 0. -1.
</event>
<event>
 5   0  0.1491854E-06  0.3645133E+04  0.7818609E-02  0.8080231E-01
       -2   -1    0    0    0  501  0.00000000000E+00  0.00000000000E+00  0.21980920102E+04  0.21980920102E+04  0.25500000920E-02 0. -1.
        2   -1    0    0  501    0  0.00000000000E+00  0.00000000000E+00 -0.15111960777E+04  0.15111960777E+04  0.25500000920E-02 0.  1.
    10030    2    1    2    0    0  0.00000000000E+00  0.00000000000E+00  0.68689593251E+03  0.37092880879E+04  0.36451326583E+04 0.  0.
        5    1    3    3  502    0  0.13869223242E+04 -0.91040062310E+03 -0.42438058978E+03  0.17124554893E+04  0.46999998093E+01 0.  1.
       -5    1    3    3    0  502 -0.13869223242E+04  0.91040062310E+03  0.11112765223E+04  0.19968325986E+04  0.46999998093E+01 0. -1.
</event>
<event>
 5   0  0.4811500E-07  0.3338356E+04  0.7818609E-02  0.8153204E-01
        1   -1    0    0  501    0  0.00000000000E+00  0.00000000000E+00  0.14966645528E+04  0.14966645528E+04  0.50400001928E-02 0. -1.
       -1   -1    0    0    0  501  0.00000000000E+00  0.00000000000E+00 -0.18615760173E+04  0.18615760173E+04  0.50400001928E-02 0.  1.
    10030    2    1    2    0    0  0.00000000000E+00  0.00000000000E+00 -0.36491146452E+03  0.33582405700E+04  0.33383557853E+04 0.  0.
        5    1    3    3  502    0  0.12035994662E+04  0.62848017708E+03 -0.11590595578E+04  0.17852395236E+04  0.46999998093E+01 0.  1.
       -5    1    3    3    0  502 -0.12035994662E+04 -0.62848017708E+03  0.79414809332E+03  0.15730010464E+04  0.46999998093E+01 0. -1.
</event>
<event>
 5   0  0.1505671E-06  0.3361517E+04  0.7818609E-02  0.8147416E-01
       -2   -1    0    0    0  501  0.00000000000E+00  0.00000000000E+00  0.96243159799E+03  0.96243159800E+03  0.25500000920E-02 0. -1.
        2   -1    0    0  501    0  0.00000000000E+00  0.00000000000E+00 -0.29352200561E+04  0.29352200561E+04  0.25500000920E-02 0.  1.
    10030    2    1    2    0    0  0.00000000000E+00  0.00000000000E+00 -0.19727884581E+04  0.38976516541E+04  0.33615166393E+04 0.  0.
        3    1    3    3  502    0 -0.16381150244E+04  0.29113076689E+03 -0.71012701094E+03  0.18089937364E+04  0.10100000352E+00 0. -1.
       -3    1    3    3    0  502  0.16381150244E+04 -0.29113076689E+03 -0.12626614472E+04  0.20886579176E+04  0.10100000352E+00 0.  1.
</event>
<event>
 5   0  0.1444091E-06  0.3570897E+04  0.7818609E-02  0.8097191E-01
        2   -1    0    0  501    0  0.00000000000E+00  0.00000000000E+00  0.20694221893E+04  0.20694221893E+04  0.25500000920E-02 0.  1.
       -2   -1    0    0    0  501  0.00000000000E+00  0.00000000000E+00 -0.15404425813E+04  0.15404425813E+04  0.25500000920E-02 0. -1.
    10030    2    1    2    0    0  0.00000000000E+00  0.00000000000E+00  0.52897960798E+03  0.36098647707E+04  0.35708968393E+04 0.  0.
        1    1    3    3  502    0 -0.55394708628E+03 -0.13728453140E+04  0.12735125146E+04  0.19527917850E+04  0.50400001928E-02 0.  1.
       -1    1    3    3    0  502  0.55394708628E+03  0.13728453140E+04 -0.74453290666E+03  0.16570729856E+04  0.50400001928E-02 0. -1.
</event>
<event>
 5   0  0.4811500E-07  0.3385469E+04  0.7818609E-02  0.8141482E-01
        1   -1    0    0  501    0  0.00000000000E+00  0.00000000000E+00  0.15011670401E+04  0.15011670401E+04  0.50400001928E-02 0. -1.
       -1   -1    0    0    0  501  0.00000000000E+00  0.00000000000E+00 -0.19087487204E+04  0.19087487204E+04  0.50400001928E-02 0.  1.
    10030    2    1    2    0    0  0.00000000000E+00  0.00000000000E+00 -0.40758168026E+03  0.34099157605E+04  0.33854693423E+04 0.  0.
        2    1    3    3  502    0 -0.13911775610E+04  0.92690565724E+03 -0.47183572177E+03  0.17369968486E+04  0.25500000920E-02 0. -1.
       -2    1    3    3    0  502  0.13911775610E+04 -0.92690565724E+03  0.64254041511E+02  0.16729189119E+04  0.25500000920E-02 0.  1.
</event>
<event>
 5   0  0.4811500E-07  0.2478585E+04  0.7818609E-02  0.8410655E-01
       -1   -1    0    0    0  501  0.00000000000E+00  0.00000000000E+00  0.96570297379E+03  0.96570297380E+03  0.50400001928E-02 0.  1.
        1   -1    0    0  501    0  0.00000000000E+00  0.00000000000E+00 -0.15903915542E+04  0.15903915542E+04  0.50400001928E-02 0. -1.
    10030    2    1    2    0    0  0.00000000000E+00  0.00000000000E+00 -0.62468858042E+03  0.25560945280E+04  0.24785849620E+04 0.  0.
        2    1    3    3  502    0 -0.13421244066E+03  0.19372949095E+03 -0.15670683555E+04  0.15846915554E+04  0.25500000920E-02 0. -1.
       -2    1    3    3    0  502  0.13421244066E+03 -0.19372949095E+03  0.94237977505E+03  0.97140297267E+03  0.25500000920E-02 0.  1.
</event>
<event>
 5   0  0.1505671E-06  0.3596786E+04  0.7818609E-02  0.8091228E-01
       -2   -1    0    0    0  501  0.00000000000E+00  0.00000000000E+00  0.16324793730E+04  0.16324793730E+04  0.25500000920E-02 0. -1.
        2   -1    0    0  501    0  0.00000000000E+00  0.00000000000E+00 -0.19811683911E+04  0.19811683911E+04  0.25500000920E-02 0.  1.
    10030    2    1    2    0    0  0.00000000000E+00  0.00000000000E+00 -0.34868901810E+03  0.36136477641E+04  0.35967855277E+04 0.  0.
        3    1    3    3  502    0 -0.78631804097E+03  0.60160394729E+03  0.13340243999E+04  0.16612779661E+04  0.10100000352E+00 0. -1.
       -3    1    3    3    0  502  0.78631804097E+03 -0.60160394729E+03 -0.16827134180E+04  0.19523697980E+04  0.10100000352E+00 0.  1.
</event>
<event>
 5   0  0.1505671E-06  0.3581709E+04  0.7818609E-02  0.8094694E-01
        2   -1    0    0  501    0  0.00000000000E+00  0.00000000000E+00  0.24235596034E+04  0.24235596034E+04  0.25500000920E-02 0. -1.
       -2   -1    0    0    0  501  0.00000000000E+00  0.00000000000E+00 -0.13233261209E+04  0.13233261210E+04  0.25500000920E-02 0.  1.
    10030    2    1    2    0    0  0.00000000000E+00  0.00000000000E+00  0.11002334824E+04  0.37468857243E+04  0.35817089378E+04 0.  0.
        3    1    3    3  502    0 -0.93900212096E+03  0.11066254525E+04  0.16476995486E+04  0.21957364797E+04  0.10100000352E+00 0. -1.
       -3    1    3    3    0  502  0.93900212096E+03 -0.11066254525E+04 -0.54746606620E+03  0.15511492447E+04  0.10100000352E+00 0.  1.
</event>
<event>
 5   0  0.4811500E-07  0.3563707E+04  0.7818609E-02  0.8098856E-01
        1   -1    0    0  501    0  0.00000000000E+00  0.00000000000E+00  0.15152917399E+04  0.15152917399E+04  0.50400001928E-02 0.  1.
       -1   -1    0    0    0  501  0.00000000000E+00  0.00000000000E+00 -0.20953074618E+04  0.20953074618E+04  0.50400001928E-02 0. -1.
    10030    2    1    2    0    0  0.00000000000E+00  0.00000000000E+00 -0.58001572199E+03  0.36105992017E+04  0.35637071088E+04 0.  0.
        4    1    3    3  502    0 -0.14560014295E+04 -0.90310649926E+03  0.20577650612E+03  0.17256555552E+04  0.12699999809E+01 0.  1.
       -4    1    3    3    0  502  0.14560014295E+04  0.90310649926E+03 -0.78579222810E+03  0.18849436465E+04  0.12699999809E+01 0. -1.
</event>
<event>
 5   0  0.4811500E-07  0.3660727E+04  0.7818609E-02  0.8076721E-01
       -1   -1    0    0    0  501  0.00000000000E+00  0.00000000000E+00  0.13500308343E+04  0.13500308343E+04  0.50400001928E-02 0. -1.
        1   -1    0    0  501    0  0.00000000000E+00  0.00000000000E+00 -0.24815960684E+04  0.24815960684E+04  0.50400001928E-02 0.  1.
    10030    2    1    2    0    0  0.00000000000E+00  0.00000000000E+00 -0.11315652341E+04  0.38316269027E+04  0.36607273652E+04 0.  0.
        4    1    3    3  502    0  0.90448969317E+03  0.10445502492E+04  0.69069357367E+03  0.15447478933E+04  0.12699999809E+01 0. -1.
       -4    1    3    3    0  502 -0.90448969317E+03 -0.10445502492E+04 -0.18222588078E+04  0.22868790094E+04  0.12699999809E+01 0.  1.
</event>
<event>
 5   0  0.5071661E-07  0.3524442E+04  0.7818609E-02  0.8108022E-01
       -1   -1    0    0    0  501  0.00000000000E+00  0.00000000000E+00  0.11429014042E+04  0.11429014042E+04  0.50400001928E-02 0.  1.
        1   -1    0    0  501    0  0.00000000000E+00  0.00000000000E+00 -0.27171393095E+04  0.27171393095E+04  0.50400001928E-02 0. -1.
    10030    2    1    2    0    0  0.00000000000E+00  0.00000000000E+00 -0.15742379053E+04  0.38600407137E+04  0.35244417045E+04 0.  0.
        1    1    3    3  502    0 -0.11051041675E+04 -0.70301454332E+03 -0.20783358935E+04  0.24566165259E+04  0.50400001928E-02 0. -1.
       -1    1    3    3    0  502  0.11051041675E+04  0.70301454332E+03  0.50409798822E+03  0.14034241878E+04  0.50400001928E-02 0.  1.
</event>
<event>
 5   0  0.5071661E-07  0.3688759E+04  0.7818609E-02  0.8070458E-01
       -1   -1    0    0    0  501  0.00000000000E+00  0.00000000000E+00  0.25265988533E+04  0.25265988533E+04  0.50400001928E-02 0.  1.
        1   -1    0    0  501    0  0.00000000000E+00  0.00000000000E+00 -0.13463693657E+04  0.13463693657E+04  0.50400001928E-02 0. -1.
    10030    2    1    2    0    0  0.00000000000E+00  0.00000000000E+00  0.11802294875E+04  0.38729682190E+04  0.36887587590E+04 0.  0.
        1    1    3    3  502    0 -0.11841487242E+04 -0.41213250151E+03  0.20103180700E+04  0.23692699598E+04  0.50400001928E-02 0.  1.
       -1    1    3    3    0  502  0.11841487242E+04  0.41213250151E+03 -0.83008858247E+03  0.15036982592E+04  0.50400001928E-02 0. -1.
</event>
<event>
 5   0  0.4811500E-07  0.3562757E+04  0.7818609E-02  0.8099076E-01
       -1   -1    0    0    0  501  0.00000000000E+00  0.00000000000E+00  0.14956270506E+04  0.14956270506E+04  0.50400001928E-02 0. -1.
        1   -1    0    0  501    0  0.00000000000E+00  0.00000000000E+00 -0.21217248536E+04  0.21217248536E+04  0.50400001928E-02 0.  1.
    10030    2    1    2    0    0  0.00000000000E+00  0.00000000000E+00 -0.62609780297E+03  0.36173519043E+04  0.35627568455E+04 0.  0.
        2    1    3    3  502    0 -0.47809647700E+03 -0.12563025887E+04  0.87381064578E+03  0.16032521574E+04  0.25500000920E-02 0. -1.
       -2    1    3    3    0  502  0.47809647700E+03  0.12563025887E+04 -0.14999084488E+04  0.20140997468E+04  0.25500000920E-02 0.  1.
</event>
<event>
 5   0  0.4811500E-07  0.3685230E+04  0.7818609E-02  0.8071243E-01
        1   -1    0    0  501    0  0.00000000000E+00  0.00000000000E+00  0.23937701080E+04  0.23937701080E+04  0.50400001928E-02 0.  1.
       -1   -1    0    0    0  501  0.00000000000E+00  0.00000000000E+00 -0.14183611163E+04  0.14183611163E+04  0.50400001928E-02 0. -1.
    10030    2    1    2    0    0  0.00000000000E+00  0.00000000000E+00  0.97540899169E+03  0.38121312243E+04  0.36852302194E+04 0.  0.
        5    1    3    3  502    0 -0.13553503014E+04  0.11791084675E+04  0.91161735209E+03  0.20145320807E+04  0.46999998093E+01 0. -1.
       -5    1    3    3    0  502  0.13553503014E+04 -0.11791084675E+04  0.63791639609E+02  0.17975991436E+04  0.46999998093E+01 0.  1.
</event>
<event>
 5   0  0.4811500E-07  0.3742922E+04  0.7818609E-02  0.8058516E-01
        1   -1    0    0  501    0  0.00000000000E+00  0.00000000000E+00  0.14899621785E+04  0.14899621785E+04  0.50400001928E-02 0.  1.
       -1   -1    0    0    0  501  0.00000000000E+00  0.00000000000E+00 -0.23506407984E+04  0.23506407984E+04  0.50400001928E-02 0. -1.
    10030    2    1    2    0    0  0.00000000000E+00  0.00000000000E+00 -0.86067861997E+03  0.38406029769E+04  0.37429217918E+04 0.  0.
        2    1    3    3  502    0  0.78927987687E+03 -0.10503934582E+04  0.93713609940E+03  0.16138504298E+04  0.25500000920E-02 0.  1.
       -2    1    3    3    0  502 -0.78927987687E+03  0.10503934582E+04 -0.17978147194E+04  0.22267525471E+04  0.25500000920E-02 0. -1.
</event>
<event>
 5   0  0.1444091E-06  0.3564559E+04  0.7818609E-02  0.8098659E-01
        2   -1    0    0  501    0  0.00000000000E+00  0.00000000000E+00  0.20774151315E+04  0.20774151315E+04  0.25500000920E-02 0.  1.
       -2   -1    0    0    0  501  0.00000000000E+00  0.00000000000E+00 -0.15290731467E+04  0.15290731467E+04  0.25500000920E-02 0. -1.
    10030    2    1    2    0    0  0.00000000000E+00  0.00000000000E+00  0.54834198482E+03  0.36064882782E+04  0.35645587060E+04 0.  0.
        1    1    3    3  502    0  0.11222839486E+04  0.11043207343E+04 -0.57080196575E+03  0.16747717545E+04  0.50400001928E-02 0.  1.
       -1    1    3    3    0  502 -0.11222839486E+04 -0.11043207343E+04  0.11191439506E+04  0.19317165237E+04  0.50400001928E-02 0. -1.
</event>
<event>
 5   0  0.1444091E-06  0.3565105E+04  0.7818609E-02  0.8098532E-01
        2   -1    0    0  501    0  0.00000000000E+00  0.00000000000E+00  0.18559109481E+04  0.18559109481E+04  0.25500000920E-02 0.  1.
       -2   -1    0    0    0  501  0.00000000000E+00  0.00000000000E+00 -0.17120934815E+04  0.17120934815E+04  0.25500000920E-02 0. -1.
    10030    2    1    2    0    0  0.00000000000E+00  0.00000000000E+00  0.14381746663E+03  0.35680044297E+04  0.35651047876E+04 0.  0.
        1    1    3    3  502    0 -0.62195539256E+03  0.11427369641E+04 -0.11476129191E+04  0.17348463020E+04  0.50400001928E-02 0. -1.
       -1    1    3    3    0  502  0.62195539256E+03 -0.11427369641E+04  0.12914303858E+04  0.18331581276E+04  0.50400001928E-02 0.  1.
</event>
<event>
 5   0  0.1468942E-06  0.3619119E+04  0.7818609E-02  0.8086126E-01
        2   -1    0    0  501    0  0.00000000000E+00  0.00000000000E+00  0.30670253707E+04  0.30670253707E+04  0.25500000920E-02 0.  1.
       -2   -1    0    0    0  501  0.00000000000E+00  0.00000000000E+00 -0.10676484680E+04  0.10676484680E+04  0.25500000920E-02 0. -1.
    10030    2    1    2    0    0  0.00000000000E+00  0.00000000000E+00  0.19993769027E+04  0.41346738386E+04  0.36191186431E+04 0.  0.
        2    1    3    3  502    0 -0.53932473311E+03 -0.16299763676E+04  0.34657798546E+03  0.17515166076E+04  0.25500000920E-02 0. -1.
       -2    1    3    3    0  502  0.53932473311E+03  0.16299763676E+04  0.16527989172E+04  0.23831572310E+04  0.25500000920E-02 0.  1.
</event>
<event>
 5   0  0.4811500E-07  0.3636912E+04  0.7818609E-02  0.8082089E-01
       -1   -1    0    0    0  501  0.00000000000E+00  0.00000000000E+00  0.21143907770E+04  0.21143907770E+04  0.50400001928E-02 0.  1.
        1   -1    0    0  501    0  0.00000000000E+00  0.00000000000E+00 -0.15639408623E+04  0.15639408623E+04  0.50400001928E-02 0. -1.
    10030    2    1    2    0    0  0.00000000000E+00  0.00000000000E+00  0.55044991470E+03  0.36783316394E+04  0.36369119512E+04 0.  0.
        4    1    3    3  502    0 -0.17701416002E+04 -0.14588123822E+03  0.66966382875E+03  0.18981922655E+04  0.12699999809E+01 0.  1.
       -4    1    3    3    0  502  0.17701416002E+04  0.14588123822E+03 -0.11921391406E+03  0.17801393739E+04  0.12699999809E+01 0. -1.
</event>
<event>
 5   0  0.4811500E-07  0.3647473E+04  0.7818609E-02  0.8079703E-01
        1   -1    0    0  501    0  0.00000000000E+00  0.00000000000E+00  0.21426878539E+04  0.21426878540E+04  0.50400001928E-02 0. -1.
       -1   -1    0    0    0  501  0.00000000000E+00  0.00000000000E+00 -0.15522628448E+04  0.15522628448E+04  0.50400001928E-02 0.  1.
    10030    2    1    2    0    0  0.00000000000E+00  0.00000000000E+00  0.59042500913E+03  0.36949506988E+04  0.36474729574E+04 0.  0.
        4    1    3    3  502    0  0.15860172027E+04  0.84286777800E+03  0.61577500063E+03  0.18986987973E+04  0.12699999809E+01 0. -1.
       -4    1    3    3    0  502 -0.15860172027E+04 -0.84286777800E+03 -0.25349991496E+02  0.17962519015E+04  0.12699999809E+01 0.  1.
</event>
<event>
 5   0  0.5071661E-07  0.3678993E+04  0.7818609E-02  0.8072633E-01
       -1   -1    0    0    0  501  0.00000000000E+00  0.00000000000E+00  0.19898883622E+04  0.19898883623E+04  0.50400001928E-02 0. -1.
        1   -1    0    0  501    0  0.00000000000E+00  0.00000000000E+00 -0.17004710756E+04  0.17004710757E+04  0.50400001928E-02 0.  1.
    10030    2    1    2    0    0  0.00000000000E+00  0.00000000000E+00  0.28941728660E+03  0.36903594379E+04  0.36789931252E+04 0.  0.
        1    1    3    3  502    0  0.67324144462E+03 -0.14470309542E+03 -0.15663029245E+04  0.17109932437E+04  0.50400001928E-02 0.  1.
       -1    1    3    3    0  502 -0.67324144462E+03  0.14470309542E+03  0.18557202112E+04  0.19793661942E+04  0.50400001928E-02 0. -1.
</event>
<event>
 5   0  0.4811500E-07  0.3580233E+04  0.7818609E-02  0.8095035E-01
       -1   -1    0    0    0  501  0.00000000000E+00  0.00000000000E+00  0.22171747966E+04  0.22171747966E+04  0.50400001928E-02 0.  1.
        1   -1    0    0  501    0  0.00000000000E+00  0.00000000000E+00 -0.14453154617E+04  0.14453154617E+04  0.50400001928E-02 0. -1.
    10030    2    1    2    0    0  0.00000000000E+00  0.00000000000E+00  0.77185933487E+03  0.36624902584E+04  0.35802329617E+04 0.  0.
        2    1    3    3  502    0 -0.23895125288E+02 -0.13625363631E+04  0.15733924908E+04  0.20814995191E+04  0.25500000920E-02 0.  1.
       -2    1    3    3    0  502  0.23895125288E+02  0.13625363631E+04 -0.80153315593E+03  0.15809907393E+04  0.25500000920E-02 0. -1.
</event>
<event>
 5   0  0.4811500E-07  0.3556314E+04  0.7818609E-02  0.8100573E-01
       -1   -1    0    0    0  501  0.00000000000E+00  0.00000000000E+00  0.12248070992E+04  0.12248070993E+04  0.50400001928E-02 0.  1.
        1   -1    0    0  501    0  0.00000000000E+00  0.00000000000E+00 -0.25815017243E+04  0.25815017243E+04  0.50400001928E-02 0. -1.
    10030    2    1    2    0    0  0.00000000000E+00  0.00000000000E+00 -0.13566946250E+04  0.38063088235E+04  0.35563136187E+04 0.  0.
        2    1    3    3  502    0  0.16743102467E+04 -0.55106723376E+03 -0.92901547356E+03  0.19925008528E+04  0.25500000920E-02 0. -1.
       -2    1    3    3    0  502 -0.16743102467E+04  0.55106723376E+03 -0.42767915147E+03  0.18138079708E+04  0.25500000920E-02 0.  1.
</event>
<event>
 5   0  0.1505671E-06  0.3606903E+04  0.7818609E-02  0.8088912E-01
       -2   -1    0    0    0  501  0.00000000000E+00  0.00000000000E+00  0.16406568826E+04  0.16406568826E+04  0.25500000920E-02 0.  1.
        2   -1    0    0  501    0  0.00000000000E+00  0.00000000000E+00 -0.19823999817E+04  0.19823999817E+04  0.25500000920E-02 0. -1.
    10030    2    1    2    0    0  0.00000000000E+00  0.00000000000E+00 -0.34174309914E+03  0.36230568643E+04  0.36069034775E+04 0.  0.
        3    1    3    3  502    0  0.13201124790E+04 -0.65182586754E+03  0.87536124203E+03  0.17128430264E+04  0.10100000352E+00 0.  1.
       -3    1    3    3    0  502 -0.13201124790E+04  0.65182586754E+03 -0.12171043412E+04  0.19102138379E+04  0.10100000352E+00 0. -1.
</event>
<event>
 5   0  0.1444091E-06  0.3436137E+04  0.7818609E-02  0.8129094E-01
       -2   -1    0    0    0  501  0.00000000000E+00  0.00000000000E+00  0.18249373099E+04  0.18249373099E+04  0.25500000920E-02 0.  1.
        2   -1    0    0  501    0  0.00000000000E+00  0.00000000000E+00 -0.16174581336E+04  0.16174581336E+04  0.25500000920E-02 0. -1.
    10030    2    1    2    0    0  0.00000000000E+00  0.00000000000E+00  0.20747917628E+03  0.34423954436E+04  0.34361371889E+04 0.  0.
        1    1    3    3  502    0 -0.16083651775E+04 -0.25083115382E+03 -0.44681101934E+03  0.16880150766E+04  0.50400001928E-02 0. -1.
       -1    1    3    3    0  502  0.16083651775E+04  0.25083115382E+03  0.65429019562E+03  0.17543803669E+04  0.50400001928E-02 0.  1.
</event>
<event>
 5   0  0.1505671E-06  0.3494219E+04  0.7818609E-02  0.8115161E-01
        2   -1    0    0  501    0  0.00000000000E+00  0.00000000000E+00  0.11790967338E+04  0.11790967338E+04  0.25500000920E-02 0. -1.
       -2   -1    0    0    0  501  0.00000000000E+00  0.00000000000E+00 -0.25887539022E+04  0.25887539022E+04  0.25500000920E-02 0.  1.
    10030    2    1    2    0    0  0.00000000000E+00  0.00000000000E+00 -0.14096571684E+04  0.37678506360E+04  0.34942188087E+04 0.  0.
        3    1    3    3  502    0  0.17113853679E+04  0.33043299435E+03 -0.57558686277E+03  0.18355724143E+04  0.10100000352E+00 0. -1.
       -3    1    3    3    0  502 -0.17113853679E+04 -0.33043299435E+03 -0.83407030558E+03  0.19322782217E+04  0.10100000352E+00 0.  1.
</event>
<event>
 5   0  0.4811500E-07  0.3598690E+04  0.7818609E-02  0.8090792E-01
        1   -1    0    0  501    0  0.00000000000E+00  0.00000000000E+00  0.18739864508E+04  0.18739864508E+04  0.50400001928E-02 0.  1.
       -1   -1    0    0    0  501  0.00000000000E+00  0.00000000000E+00 -0.17276767633E+04  0.17276767633E+04  0.50400001928E-02 0. -1.
    10030    2    1    2    0    0  0.00000000000E+00  0.00000000000E+00  0.14630968745E+03  0.36016632141E+04  0.35986902316E+04 0.  0.
        4    1    3    3  502    0 -0.92185626604E+03 -0.38038692202E+03  0.15720997408E+04  0.18617229637E+04  0.12699999809E+01 0.  1.
       -4    1    3    3    0  502  0.92185626604E+03  0.38038692202E+03 -0.14257900534E+04  0.17399402504E+04  0.12699999809E+01 0. -1.
</event>
<event>
 5   0  0.1468942E-06  0.3080597E+04  0.7818609E-02  0.8221083E-01
        2   -1    0    0  501    0  0.00000000000E+00  0.00000000000E+00  0.20338405185E+04  0.20338405185E+04  0.25500000920E-02 0.  1.
       -2   -1    0    0    0  501  0.00000000000E+00  0.00000000000E+00 -0.11665221086E+04  0.11665221086E+04  0.25500000920E-02 0. -1.
    10030    2    1    2    0    0  0.00000000000E+00  0.00000000000E+00  0.86731840994E+03  0.32003626271E+04  0.30805972993E+04 0.  0.
        2    1    3    3  502    0 -0.10467974217E+04  0.72888048577E+01  0.16074903299E+04  0.19182969346E+04  0.25500000920E-02 0.  1.
       -2    1    3    3    0  502  0.10467974217E+04 -0.72888048577E+01 -0.74017191994E+03  0.12820656925E+04  0.25500000920E-02 0. -1.
</event>
<event>
 5   0  0.1468942E-06  0.2262088E+04  0.7818609E-02  0.8493021E-01
       -2   -1    0    0    0  501  0.00000000000E+00  0.00000000000E+00  0.48288074618E+03  0.48288074618E+03  0.25500000920E-02 0. -1.
        2   -1    0    0  501    0  0.00000000000E+00  0.00000000000E+00 -0.26492273308E+04  0.26492273308E+04  0.25500000920E-02 0.  1.
    10030    2    1    2    0    0  0.00000000000E+00  0.00000000000E+00 -0.21663465847E+04  0.31321080770E+04  0.22620883009E+04 0.  0.
        2    1    3    3  502    0  0.26292557131E+03 -0.21722037110E+03  0.40998902457E+03  0.53329686474E+03  0.25500000920E-02 0. -1.
       -2    1    3    3    0  502 -0.26292557131E+03  0.21722037110E+03 -0.25763356092E+04  0.25988112123E+04  0.25500000920E-02 0.  1.
</event>
<event>
 5   0  0.4811500E-07  0.3585292E+04  0.7818609E-02  0.8093869E-01
        1   -1    0    0  501    0  0.00000000000E+00  0.00000000000E+00  0.30587764712E+04  0.30587764712E+04  0.50400001928E-02 0.  1.
       -1   -1    0    0    0  501  0.00000000000E+00  0.00000000000E+00 -0.10506093441E+04  0.10506093441E+04  0.50400001928E-02 0. -1.
    10030    2    1    2    0    0  0.00000000000E+00  0.00000000000E+00  0.20081671272E+04  0.41093858153E+04  0.35852916992E+04 0.  0.
        4    1    3    3  502    0  0.16452300780E+04  0.15985927241E+03  0.17992051082E+04  0.24432514465E+04  0.12699999809E+01 0.  1.
       -4    1    3    3    0  502 -0.16452300780E+04 -0.15985927241E+03  0.20896201893E+03  0.16661343688E+04  0.12699999809E+01 0. -1.
</event>
<event>
 5   0  0.4811500E-07  0.3283929E+04  0.7818609E-02  0.8166997E-01
       -1   -1    0    0    0  501  0.00000000000E+00  0.00000000000E+00  0.15567781790E+04  0.15567781790E+04  0.50400001928E-02 0.  1.
        1   -1    0    0  501    0  0.00000000000E+00  0.00000000000E+00 -0.17318119375E+04  0.17318119376E+04  0.50400001928E-02 0. -1.
    10030    2    1    2    0    0  0.00000000000E+00  0.00000000000E+00 -0.17503375859E+03  0.32885901165E+04  0.32839287656E+04 0.  0.
        2    1    3    3  502    0  0.58510447543E+03  0.10876562803E+04 -0.11710432781E+04  0.17019652730E+04  0.25500000920E-02 0. -1.
       -2    1    3    3    0  502 -0.58510447543E+03 -0.10876562803E+04  0.99600951949E+03  0.15866248435E+04  0.25500000920E-02 0.  1.
</event>
<event>
 5   0  0.4811500E-07  0.3177403E+04  0.7818609E-02  0.8194810E-01
       -1   -1    0    0    0  501  0.00000000000E+00  0.00000000000E+00  0.91473408949E+03  0.91473408951E+03  0.50400001928E-02 0.  1.
        1   -1    0    0  501    0  0.00000000000E+00  0.00000000000E+00 -0.27592425754E+04  0.27592425754E+04  0.50400001928E-02 0. -1.
    10030    2    1    2    0    0  0.00000000000E+00  0.00000000000E+00 -0.18445084859E+04  0.36739766649E+04  0.31774034965E+04 0.  0.
        5    1    3    3  502    0 -0.41062222087E+02 -0.12660150641E+04  0.18649419351E+03  0.12803446501E+04  0.46999998093E+01 0.  1.
       -5    1    3    3    0  502  0.41062222087E+02  0.12660150641E+04 -0.20310026794E+04  0.23936320149E+04  0.46999998093E+01 0. -1.
</event>
<event>
 5   0  0.1379425E-06  0.3478850E+04  0.7818609E-02  0.8118821E-01
       -2   -1    0    0    0  501  0.00000000000E+00  0.00000000000E+00  0.15780030063E+04  0.15780030063E+04  0.25500000920E-02 0.  1.
        2   -1    0    0  501    0  0.00000000000E+00  0.00000000000E+00 -0.19173593647E+04  0.19173593647E+04  0.25500000920E-02 0. -1.
    10030    2    1    2    0    0  0.00000000000E+00  0.00000000000E+00 -0.33935635843E+03  0.34953623709E+04  0.34788497188E+04 0.  0.
        4    1    3    3  502    0  0.75855404276E+03 -0.65488880766E+03  0.12587992803E+04  0.16089937313E+04  0.12699999809E+01 0.  1.
       -4    1    3    3    0  502 -0.75855404276E+03  0.65488880766E+03 -0.15981556388E+04  0.18863686397E+04  0.12699999809E+01 0. -1.
</event>
<event>
 5   0  0.4811500E-07  0.3799036E+04  0.7818609E-02  0.8046362E-01
       -1   -1    0    0    0  501  0.00000000000E+00  0.00000000000E+00  0.19896769516E+04  0.19896769516E+04  0.50400001928E-02 0.  1.
        1   -1    0    0  501    0  0.00000000000E+00  0.00000000000E+00 -0.18134447926E+04  0.18134447926E+04  0.50400001928E-02 0. -1.
    10030    2    1    2    0    0  0.00000000000E+00  0.00000000000E+00  0.17623215903E+03  0.38031217442E+04  0.37990363550E+04 0.  0.
        5    1    3    3  502    0 -0.16489740990E+04  0.78456648137E+03  0.61163837374E+03  0.19258202754E+04  0.46999998093E+01 0.  1.
       -5    1    3    3    0  502  0.16489740990E+04 -0.78456648137E+03 -0.43540621471E+03  0.18773014688E+04  0.46999998093E+01 0. -1.
</event>
<event>
 5   0  0.1444091E-06  0.2498263E+04  0.7818609E-02  0.8403605E-01
       -2   -1    0    0    0  501  0.00000000000E+00  0.00000000000E+00  0.89615741503E+03  0.89615741503E+03  0.25500000920E-02 0. -1.
        2   -1    0    0  501    0  0.00000000000E+00  0.00000000000E+00 -0.17411326982E+04  0.17411326982E+04  0.25500000920E-02 0.  1.
    10030    2    1    2    0    0  0.00000000000E+00  0.00000000000E+00 -0.84497528317E+03  0.26372901132E+04  0.24982625787E+04 0.  0.
        1    1    3    3  502    0 -0.80411984840E+02 -0.50137240996E+03  0.78228969386E+03  0.93264009453E+03  0.50400001928E-02 0. -1.
       -1    1    3    3    0  502  0.80411984840E+02  0.50137240996E+03 -0.16272649770E+04  0.17046500187E+04  0.50400001928E-02 0.  1.
</event>
<event>
 5   0  0.4811500E-07  0.3631547E+04  0.7818609E-02  0.8083303E-01
       -1   -1    0    0    0  501  0.00000000000E+00  0.00000000000E+00  0.18684204303E+04  0.18684204303E+04  0.50400001928E-02 0.  1.
        1   -1    0    0  501    0  0.00000000000E+00  0.00000000000E+00 -0.17646102271E+04  0.17646102271E+04  0.50400001928E-02 0. -1.
    10030    2    1    2    0    0  0.00000000000E+00  0.00000000000E+00  0.10381020322E+03  0.36330306574E+04  0.36315472184E+04 0.  0.
        5    1    3    3  502    0  0.88703479350E+03  0.91773010087E+03 -0.12401147892E+04  0.17795971576E+04  0.46999998093E+01 0. -1.
       -5    1    3    3    0  502 -0.88703479350E+03 -0.91773010087E+03  0.13439249924E+04  0.18534334998E+04  0.46999998093E+01 0.  1.
</event>
<event>
 5   0  0.5071661E-07  0.3565769E+04  0.7818609E-02  0.8098378E-01
       -1   -1    0    0    0  501  0.00000000000E+00  0.00000000000E+00  0.12352488995E+04  0.12352488995E+04  0.50400001928E-02 0.  1.
        1   -1    0    0  501    0  0.00000000000E+00  0.00000000000E+00 -0.25733090970E+04  0.25733090970E+04  0.50400001928E-02 0. -1.
    10030    2    1    2    0    0  0.00000000000E+00  0.00000000000E+00 -0.13380601975E+04  0.38085579964E+04  0.35657690503E+04 0.  0.
        1    1    3    3  502    0 -0.78503837693E+03 -0.14190880860E+04  0.12206325446E+03  0.16263442708E+04  0.50400001928E-02 0.  1.
       -1    1    3    3    0  502  0.78503837693E+03  0.14190880860E+04 -0.14601234520E+04  0.21822137256E+04  0.50400001928E-02 0. -1.
</event>
<event>
 5   0  0.4811500E-07  0.3541707E+04  0.7818609E-02  0.8103976E-01
        1   -1    0    0  501    0  0.00000000000E+00  0.00000000000E+00  0.18260227156E+04  0.18260227156E+04  0.50400001928E-02 0. -1.
       -1   -1    0    0    0  501  0.00000000000E+00  0.00000000000E+00 -0.17173515490E+04  0.17173515490E+04  0.50400001928E-02 0.  1.
    10030    2    1    2    0    0  0.00000000000E+00  0.00000000000E+00  0.10867116661E+03  0.35433742647E+04  0.35417074635E+04 0.  0.
        3    1    3    3  502    0 -0.88922530004E+03 -0.99340198363E+02 -0.14745631869E+04  0.17247975857E+04  0.10100000352E+00 0.  1.
       -3    1    3    3    0  502  0.88922530004E+03  0.99340198363E+02  0.15832343535E+04  0.18185766790E+04  0.10100000352E+00 0. -1.
</event>
<event>
 5   0  0.4811500E-07  0.3418398E+04  0.7818609E-02  0.8133406E-01
        1   -1    0    0  501    0  0.00000000000E+00  0.00000000000E+00  0.22328964905E+04  0.22328964905E+04  0.50400001928E-02 0.  1.
       -1   -1    0    0    0  501  0.00000000000E+00  0.00000000000E+00 -0.13083277770E+04  0.13083277771E+04  0.50400001928E-02 0. -1.
    10030    2    1    2    0    0  0.00000000000E+00  0.00000000000E+00  0.92456871342E+03  0.35412242675E+04  0.34183975788E+04 0.  0.
        5    1    3    3  502    0  0.44430263673E+03  0.15052117907E+04 -0.23899663598E+03  0.15875165668E+04  0.46999998093E+01 0.  1.
       -5    1    3    3    0  502 -0.44430263673E+03 -0.15052117907E+04  0.11635653494E+04  0.19537077008E+04  0.46999998093E+01 0. -1.
</event>
<event>
 5   0  0.1379425E-06  0.3647463E+04  0.7818609E-02  0.8079706E-01
       -2   -1    0    0    0  501  0.00000000000E+00  0.00000000000E+00  0.27305971397E+04  0.27305971397E+04  0.25500000920E-02 0. -1.
        2   -1    0    0  501    0  0.00000000000E+00  0.00000000000E+00 -0.12180470090E+04  0.12180470090E+04  0.25500000920E-02 0.  1.
    10030    2    1    2    0    0  0.00000000000E+00  0.00000000000E+00  0.15125501307E+04  0.39486441487E+04  0.36474625036E+04 0.  0.
        4    1    3    3  502    0 -0.72745247368E+03  0.80926033414E+03 -0.82809719637E+03  0.13674194563E+04  0.12699999809E+01 0.  1.
       -4    1    3    3    0  502  0.72745247368E+03 -0.80926033414E+03  0.23406473271E+04  0.25812246924E+04  0.12699999809E+01 0. -1.
</event>
<event>
 5   0  0.1505671E-06  0.3627372E+04  0.7818609E-02  0.8084250E-01
        2   -1    0    0  501    0  0.00000000000E+00  0.00000000000E+00  0.21840569362E+04  0.21840569362E+04  0.25500000920E-02 0. -1.
       -2   -1    0    0    0  501  0.00000000000E+00  0.00000000000E+00 -0.15061223453E+04  0.15061223453E+04  0.25500000920E-02 0.  1.
    10030    2    1    2    0    0  0.00000000000E+00  0.00000000000E+00  0.67793459088E+03  0.36901792815E+04  0.36273720267E+04 0.  0.
        3    1    3    3  502    0  0.12454356453E+04 -0.52601105266E+03 -0.89095720887E+03  0.16191362921E+04  0.10100000352E+00 0.  1.
       -3    1    3    3    0  502 -0.12454356453E+04  0.52601105266E+03  0.15688917998E+04  0.20710429893E+04  0.10100000352E+00 0. -1.
</event>
<event>
 5   0  0.1468942E-06  0.3587967E+04  0.7818609E-02  0.8093254E-01
       -2   -1    0    0    0  501  0.00000000000E+00  0.00000000000E+00  0.15101864011E+04  0.15101864011E+04  0.25500000920E-02 0. -1.
        2   -1    0    0  501    0  0.00000000000E+00  0.00000000000E+00 -0.21311120408E+04  0.21311120408E+04  0.25500000920E-02 0.  1.
    10030    2    1    2    0    0  0.00000000000E+00  0.00000000000E+00 -0.62092563979E+03  0.36412984419E+04  0.35879667909E+04 0.  0.
        2    1    3    3  502    0 -0.19334080702E+03 -0.71794874123E+02  0.14981152205E+04  0.15122448167E+04  0.25500000920E-02 0. -1.
       -2    1    3    3    0  502  0.19334080702E+03  0.71794874123E+02 -0.21190408603E+04  0.21290536252E+04  0.25500000920E-02 0.  1.
</event>
<event>
 5   0  0.1444091E-06  0.3589426E+04  0.7818609E-02  0.8092918E-01
        2   -1    0    0  501    0  0.00000000000E+00  0.00000000000E+00  0.11663652181E+04  0.11663652181E+04  0.25500000920E-02 0.  1.
       -2   -1    0    0    0  501  0.00000000000E+00  0.00000000000E+00 -0.27615667323E+04  0.27615667323E+04  0.25500000920E-02 0. -1.
    10030    2    1    2    0    0  0.00000000000E+00  0.00000000000E+00 -0.15952015142E+04  0.39279319503E+04  0.35894263519E+04 0.  0.
        1    1    3    3  502    0 -0.11374151301E+04 -0.25206639306E+03 -0.22915372073E+04  0.25706795633E+04  0.50400001928E-02 0. -1.
       -1    1    3    3    0  502  0.11374151301E+04  0.25206639306E+03  0.69633569305E+03  0.13572523871E+04  0.50400001928E-02 0.  1.
</event>
<event>
 5   0  0.1491854E-06  0.3664963E+04  0.7818609E-02  0.8075771E-01
        2   -1    0    0  501    0  0.00000000000E+00  0.00000000000E+00  0.21453435901E+04  0.21453435901E+04  0.25500000920E-02 0.  1.
       -2   -1    0    0    0  501  0.00000000000E+00  0.00000000000E+00 -0.15652451046E+04  0.15652451046E+04  0.25500000920E-02 0. -1.
    10030    2    1    2    0    0  0.00000000000E+00  0.00000000000E+00  0.58009848556E+03  0.37105886947E+04  0.36649630569E+04 0.  0.
        5    1    3    3  502    0  0.93786005948E+03  0.14381307803E+03  0.18772720495E+04  0.21034343656E+04  0.46999998093E+01 0.  1.
       -5    1    3    3    0  502 -0.93786005948E+03 -0.14381307803E+03 -0.12971735639E+04  0.16071543291E+04  0.46999998093E+01 0. -1.
</event>
<event>
 5   0  0.1505671E-06  0.3390102E+04  0.7818609E-02  0.8140340E-01
       -2   -1    0    0    0  501  0.00000000000E+00  0.00000000000E+00  0.15306804911E+04  0.15306804911E+04  0.25500000920E-02 0. -1.
        2   -1    0    0  501    0  0.00000000000E+00  0.00000000000E+00 -0.18770722325E+04  0.18770722325E+04  0.25500000920E-02 0.  1.
    10030    2    1    2    0    0  0.00000000000E+00  0.00000000000E+00 -0.34639174141E+03  0.34077527236E+04  0.33901019729E+04 0.  0.
        3    1    3    3  502    0  0.28278937173E+03  0.12791934448E+04  0.90799344840E+03  0.15939754736E+04  0.10100000352E+00 0. -1.
       -3    1    3    3    0  502 -0.28278937173E+03 -0.12791934448E+04 -0.12543851898E+04  0.18137772500E+04  0.10100000352E+00 0.  1.
</event>
<event>
 5   0  0.5071661E-07  0.2652448E+04  0.7818609E-02  0.8350601E-01
       -1   -1    0    0    0  501  0.00000000000E+00  0.00000000000E+00  0.12400812470E+04  0.12400812470E+04  0.50400001928E-02 0.  1.
        1   -1    0    0  501    0  0.00000000000E+00  0.00000000000E+00 -0.14183501861E+04  0.14183501861E+04  0.50400001928E-02 0. -1.
    10030    2    1    2    0    0  0.00000000000E+00  0.00000000000E+00 -0.17826893904E+03  0.26584314331E+04  0.26524475245E+04 0.  0.
        1    1    3    3  502    0 -0.39262311088E+03 -0.54728644057E+03 -0.12341627566E+04  0.14059989562E+04  0.50400001928E-02 0. -1.
       -1    1    3    3    0  502  0.39262311088E+03  0.54728644057E+03  0.10558938175E+04  0.12524324769E+04  0.50400001928E-02 0.  1.
</event>
<event>
 5   0  0.4811500E-07  0.3625669E+04  0.7818609E-02  0.8084637E-01
       -1   -1    0    0    0  501  0.00000000000E+00  0.00000000000E+00  0.11018753926E+04  0.11018753926E+04  0.50400001928E-02 0. -1.
        1   -1    0    0  501    0  0.00000000000E+00  0.00000000000E+00 -0.29825239582E+04  0.29825239583E+04  0.50400001928E-02 0.  1.
    10030    2    1    2    0    0  0.00000000000E+00  0.00000000000E+00 -0.18806485656E+04  0.40843993509E+04  0.36256694595E+04 0.  0.
        3    1    3    3  502    0  0.54940793980E+03  0.10448078078E+04  0.60957514130E+03  0.13285534625E+04  0.10100000352E+00 0. -1.
       -3    1    3    3    0  502 -0.54940793980E+03 -0.10448078078E+04 -0.24902237069E+04  0.27558458884E+04  0.10100000352E+00 0.  1.
</event>
<event>
 5   0  0.4811500E-07  0.3587972E+04  0.7818609E-02  0.8093252E-01
        1   -1    0    0  501    0  0.00000000000E+00  0.00000000000E+00  0.18390662066E+04  0.18390662067E+04  0.50400001928E-02 0.  1.
       -1   -1    0    0    0  501  0.00000000000E+00  0.00000000000E+00 -0.17500111301E+04  0.17500111302E+04  0.50400001928E-02 0. -1.
    10030    2    1    2    0    0  0.00000000000E+00  0.00000000000E+00  0.89055076498E+02  0.35890773368E+04  0.35879723136E+04 0.  0.
        5    1    3    3  502    0 -0.75484381087E+03 -0.11398369556E+04 -0.11174440826E+04  0.17657068930E+04  0.46999998093E+01 0. -1.
       -5    1    3    3    0  502  0.75484381087E+03  0.11398369556E+04  0.12064991591E+04  0.18233704438E+04  0.46999998093E+01 0.  1.
</event>
<event>
 5   0  0.4811500E-07  0.2219222E+04  0.7818609E-02  0.8510470E-01
        1   -1    0    0  501    0  0.00000000000E+00  0.00000000000E+00  0.16714069115E+04  0.16714069115E+04  0.50400001928E-02 0.  1.
       -1   -1    0    0    0  501  0.00000000000E+00  0.00000000000E+00 -0.73664673740E+03  0.73664673741E+03  0.50400001928E-02 0. -1.
    10030    2    1    2    0    0  0.00000000000E+00  0.00000000000E+00  0.93476017414E+03  0.24080536490E+04  0.22192218891E+04 0.  0.
        3    1    3    3  502    0  0.93239956518E+03  0.41776070782E+03  0.93704132931E+03  0.13863402978E+04  0.10100000352E+00 0.  1.
       -3    1    3    3    0  502 -0.93239956518E+03 -0.41776070782E+03 -0.22811551707E+01  0.10217133512E+04  0.10100000352E+00 0. -1.
</event>
<event>
 5   0  0.1468942E-06  0.3421935E+04  0.7818609E-02  0.8132544E-01
       -2   -1    0    0    0  501  0.00000000000E+00  0.00000000000E+00  0.18263335745E+04  0.18263335745E+04  0.25500000920E-02 0.  1.
        2   -1    0    0  501    0  0.00000000000E+00  0.00000000000E+00 -0.16028888446E+04  0.16028888446E+04  0.25500000920E-02 0. -1.
    10030    2    1    2    0    0  0.00000000000E+00  0.00000000000E+00  0.22344472984E+03  0.34292224191E+04  0.34219349574E+04 0.  0.
        2    1    3    3  502    0 -0.10342741748E+04 -0.99329985596E+03  0.10470062731E+04  0.17755533809E+04  0.25500000920E-02 0.  1.
       -2    1    3    3    0  502  0.10342741748E+04  0.99329985596E+03 -0.82356154321E+03  0.16536690382E+04  0.25500000920E-02 0. -1.
</event>
<event>
 5   0  0.1444091E-06  0.3502421E+04  0.7818609E-02  0.8113217E-01
        2   -1    0    0  501    0  0.00000000000E+00  0.00000000000E+00  0.17277854748E+04  0.17277854748E+04  0.25500000920E-02 0. -1.
       -2   -1    0    0    0  501  0.00000000000E+00  0.00000000000E+00 -0.17749527885E+04  0.17749527885E+04  0.25500000920E-02 0.  1.
    10030    2    1    2    0    0  0.00000000000E+00  0.00000000000E+00 -0.47167313623E+02  0.35027382633E+04  0.35024206752E+04 0.  0.
        1    1    3    3  502    0  0.16550281363E+04  0.80855801823E+02 -0.59027588867E+03  0.17590001187E+04  0.50400001928E-02 0.  1.
       -1    1    3    3    0  502 -0.16550281363E+04 -0.80855801823E+02  0.54310857505E+03  0.17437381446E+04  0.50400001928E-02 0. -1.
</event>
<event>
 5   0  0.4811500E-07  0.3766920E+04  0.7818609E-02  0.8053291E-01
        1   -1    0    0  501    0  0.00000000000E+00  0.00000000000E+00  0.12291489351E+04  0.12291489351E+04  0.50400001928E-02 0.  1.
       -1   -1    0    0    0  501  0.00000000000E+00  0.00000000000E+00 -0.28860789187E+04  0.28860789187E+04  0.50400001928E-02 0. -1.
    10030    2    1    2    0    0  0.00000000000E+00  0.00000000000E+00 -0.16569299836E+04  0.41152278538E+04  0.37669196060E+04 0.  0.
        3    1    3    3  502    0  0.16574354852E+04  0.62986080863E+03 -0.13442394732E+03  0.17781695177E+04  0.10100000352E+00 0.  1.
       -3    1    3    3    0  502 -0.16574354852E+04 -0.62986080863E+03 -0.15225060363E+04  0.23370583361E+04  0.10100000352E+00 0. -1.
</event>
<event>
 5   0  0.4811500E-07  0.2444124E+04  0.7818609E-02  0.8423166E-01
       -1   -1    0    0    0  501  0.00000000000E+00  0.00000000000E+00  0.10262917995E+04  0.10262917995E+04  0.50400001928E-02 0. -1.
        1   -1    0    0  501    0  0.00000000000E+00  0.00000000000E+00 -0.14551767645E+04  0.14551767645E+04  0.50400001928E-02 0.  1.
    10030    2    1    2    0    0  0.00000000000E+00  0.00000000000E+00 -0.42888496499E+03  0.24814685640E+04  0.24441243669E+04 0.  0.
        2    1    3    3  502    0 -0.30406019766E+03  0.11549904832E+04  0.48317495104E+02  0.11953201247E+04  0.25500000920E-02 0.  1.
       -2    1    3    3    0  502  0.30406019766E+03 -0.11549904832E+04 -0.47720246009E+03  0.12861484393E+04  0.25500000920E-02 0. -1.
</event>
<event>
 5   0  0.1468942E-06  0.3648613E+04  0.7818609E-02  0.8079446E-01
        2   -1    0    0  501    0  0.00000000000E+00  0.00000000000E+00  0.22509044975E+04  0.22509044975E+04  0.25500000920E-02 0.  1.
       -2   -1    0    0    0  501  0.00000000000E+00  0.00000000000E+00 -0.14785583524E+04  0.14785583524E+04  0.25500000920E-02 0. -1.
    10030    2    1    2    0    0  0.00000000000E+00  0.00000000000E+00  0.77234614512E+03  0.37294628499E+04  0.36486126926E+04 0.  0.
        2    1    3    3  502    0  0.43359032513E+03  0.66378322772E+03 -0.12932455792E+04  0.15169353551E+04  0.25500000920E-02 0. -1.
       -2    1    3    3    0  502 -0.43359032513E+03 -0.66378322772E+03  0.20655917243E+04  0.22125274948E+04  0.25500000920E-02 0.  1.
</event>
<event>
 5   0  0.4811500E-07  0.3486699E+04  0.7818609E-02  0.8116949E-01
        1   -1    0    0  501    0  0.00000000000E+00  0.00000000000E+00  0.18458410852E+04  0.18458410852E+04  0.50400001928E-02 0.  1.
       -1   -1    0    0    0  501  0.00000000000E+00  0.00000000000E+00 -0.16465489244E+04  0.16465489244E+04  0.50400001928E-02 0. -1.
    10030    2    1    2    0    0  0.00000000000E+00  0.00000000000E+00  0.19929216083E+03  0.34923900097E+04  0.34866991000E+04 0.  0.
        2    1    3    3  502    0  0.69448080540E+03 -0.92048142470E+03  0.14093267895E+04  0.18209315313E+04  0.25500000920E-02 0.  1.
       -2    1    3    3    0  502 -0.69448080540E+03  0.92048142470E+03 -0.12100346286E+04  0.16714584783E+04  0.25500000920E-02 0. -1.
</event>
<event>
 5   0  0.4811500E-07  0.3582194E+04  0.7818609E-02  0.8094583E-01
        3   -1    0    0  501    0  0.00000000000E+00  0.00000000000E+00  0.13492090476E+04  0.13492090514E+04  0.10100000352E+00 0. -1.
       -3   -1    0    0    0  501  0.00000000000E+00  0.00000000000E+00 -0.23777106343E+04  0.23777106364E+04  0.10100000352E+00 0.  1.
    10030    2    1    2    0    0  0.00000000000E+00  0.00000000000E+00 -0.10285015867E+04  0.37269196878E+04  0.35821941384E+04 0.  0.
        1    1    3    3  502    0  0.62338885502E+03  0.62873301514E+03  0.11056076453E+04  0.14164346558E+04  0.50400001928E-02 0. -1.
       -1    1    3    3    0  502 -0.62338885502E+03 -0.62873301514E+03 -0.21341092320E+04  0.23104850320E+04  0.50400001928E-02 0.  1.
</event>
<event>
 5   0  0.1444091E-06  0.3613703E+04  0.7818609E-02  0.8087360E-01
       -2   -1    0    0    0  501  0.00000000000E+00  0.00000000000E+00  0.16479185807E+04  0.16479185807E+04  0.25500000920E-02 0.  1.
        2   -1    0    0  501    0  0.00000000000E+00  0.00000000000E+00 -0.19811131387E+04  0.19811131387E+04  0.25500000920E-02 0. -1.
    10030    2    1    2    0    0  0.00000000000E+00  0.00000000000E+00 -0.33319455805E+03  0.36290317194E+04  0.36137034476E+04 0.  0.
        1    1    3    3  502    0 -0.10865174636E+04 -0.20312700780E+03 -0.16019718539E+04  0.19463028029E+04  0.50400001928E-02 0. -1.
       -1    1    3    3    0  502  0.10865174636E+04  0.20312700780E+03  0.12687772958E+04  0.16827289165E+04  0.50400001928E-02 0.  1.
</event>
<event>
 5   0  0.4811500E-07  0.3627465E+04  0.7818609E-02  0.8084229E-01
        1   -1    0    0  501    0  0.00000000000E+00  0.00000000000E+00  0.20859544552E+04  0.20859544552E+04  0.50400001928E-02 0. -1.
       -1   -1    0    0    0  501  0.00000000000E+00  0.00000000000E+00 -0.15770362702E+04  0.15770362703E+04  0.50400001928E-02 0.  1.
    10030    2    1    2    0    0  0.00000000000E+00  0.00000000000E+00  0.50891818495E+03  0.36629907255E+04  0.36274651392E+04 0.  0.
        4    1    3    3  502    0 -0.54618586295E+03  0.11722054501E+04 -0.10297027348E+04  0.16530801400E+04  0.12699999809E+01 0.  1.
       -4    1    3    3    0  502  0.54618586295E+03 -0.11722054501E+04  0.15386209197E+04  0.20099105855E+04  0.12699999809E+01 0. -1.
</event>
<event>
 5   0  0.5071661E-07  0.2245201E+04  0.7818609E-02  0.8499847E-01
        1   -1    0    0  501    0  0.00000000000E+00  0.00000000000E+00  0.21338941760E+04  0.21338941760E+04  0.50400001928E-02 0.  1.
       -1   -1    0    0    0  501  0.00000000000E+00  0.00000000000E+00 -0.59057820956E+03  0.59057820958E+03  0.50400001928E-02 0. -1.
    10030    2    1    2    0    0  0.00000000000E+00  0.00000000000E+00  0.15433159664E+04  0.27244723856E+04  0.22452005718E+04 0.  0.
        1    1    3    3  502    0  0.40376210005E+03  0.85053824241E+03  0.29763020660E+02  0.94197928463E+03  0.50400001928E-02 0. -1.
       -1    1    3    3    0  502 -0.40376210005E+03 -0.85053824241E+03  0.15135529458E+04  0.17824931009E+04  0.50400001928E-02 0.  1.
</event>
<event>
 5   0  0.4811500E-07  0.3478092E+04  0.7818609E-02  0.8119002E-01
       -1   -1    0    0    0  501  0.00000000000E+00  0.00000000000E+00  0.10430482516E+04  0.10430482516E+04  0.50400001928E-02 0.  1.
        1   -1    0    0  501    0  0.00000000000E+00  0.00000000000E+00 -0.28994644317E+04  0.28994644317E+04  0.50400001928E-02 0. -1.
    10030    2    1    2    0    0  0.00000000000E+00  0.00000000000E+00 -0.18564161801E+04  0.39425126833E+04  0.34780921816E+04 0.  0.
        2    1    3    3  502    0  0.56439590688E+03 -0.29372225415E+03 -0.27627953684E+04  0.28351108884E+04  0.25500000920E-02 0. -1.
       -2    1    3    3    0  502 -0.56439590688E+03  0.29372225415E+03  0.90637918826E+03  0.11074017948E+04  0.25500000920E-02 0.  1.
</event>
<event>
 5   0  0.1379425E-06  0.3499891E+04  0.7818609E-02  0.8113816E-01
       -2   -1    0    0    0  501  0.00000000000E+00  0.00000000000E+00  0.16248223076E+04  0.16248223076E+04  0.25500000920E-02 0. -1.
        2   -1    0    0  501    0  0.00000000000E+00  0.00000000000E+00 -0.18847039992E+04  0.18847039992E+04  0.25500000920E-02 0.  1.
    10030    2    1    2    0    0  0.00000000000E+00  0.00000000000E+00 -0.25988169156E+03  0.35095263068E+04  0.34998909133E+04 0.  0.
        4    1    3    3  502    0  0.12593306045E+04  0.67506967942E+03 -0.11430067516E+04  0.18297810499E+04  0.12699999809E+01 0.  1.
       -4    1    3    3    0  502 -0.12593306045E+04 -0.67506967942E+03  0.88312506007E+03  0.16797452569E+04  0.12699999809E+01 0. -1.
</event>
<event>
 5   0  0.1491854E-06  0.2942095E+04  0.7818609E-02  0.8260462E-01
        2   -1    0    0  501    0  0.00000000000E+00  0.00000000000E+00  0.19148395305E+04  0.19148395305E+04  0.25500000920E-02 0. -1.
       -2   -1    0    0    0  501  0.00000000000E+00  0.00000000000E+00 -0.11301107702E+04  0.11301107702E+04  0.25500000920E-02 0.  1.
    10030    2    1    2    0    0  0.00000000000E+00  0.00000000000E+00  0.78472876025E+03  0.30449503007E+04  0.29420950200E+04 0.  0.
        5    1    3    3  502    0  0.23850163904E+03  0.80354434785E+03 -0.85877846483E+03  0.12000371213E+04  0.46999998093E+01 0.  1.
       -5    1    3    3    0  502 -0.23850163904E+03 -0.80354434785E+03  0.16435072251E+04  0.18449131794E+04  0.46999998093E+01 0. -1.
</event>
<event>
 5   0  0.4811500E-07  0.3667387E+04  0.7818609E-02  0.8075228E-01
        1   -1    0    0  501    0  0.00000000000E+00  0.00000000000E+00  0.18135874516E+04  0.18135874516E+04  0.50400001928E-02 0.  1.
       -1   -1    0    0    0  501  0.00000000000E+00  0.00000000000E+00 -0.18540229512E+04  0.18540229513E+04  0.50400001928E-02 0. -1.
    10030    2    1    2    0    0  0.00000000000E+00  0.00000000000E+00 -0.40435499669E+02  0.36676104028E+04  0.36673874949E+04 0.  0.
        3    1    3    3  502    0 -0.21470977872E+03  0.13443953300E+04  0.12082435201E+04  0.18202613841E+04  0.10100000352E+00 0.  1.
       -3    1    3    3    0  502  0.21470977872E+03 -0.13443953300E+04 -0.12486790198E+04  0.18473490187E+04  0.10100000352E+00 0. -1.
</event>
<event>
 5   0  0.1379425E-06  0.3354483E+04  0.7818609E-02  0.8149169E-01
        2   -1    0    0  501    0  0.00000000000E+00  0.00000000000E+00  0.96166837463E+03  0.96166837464E+03  0.25500000920E-02 0.  1.
       -2   -1    0    0    0  501  0.00000000000E+00  0.00000000000E+00 -0.29252686467E+04  0.29252686467E+04  0.25500000920E-02 0. -1.
    10030    2    1    2    0    0  0.00000000000E+00  0.00000000000E+00 -0.19636002720E+04  0.38869370213E+04  0.33544825800E+04 0.  0.
        4    1    3    3  502    0  0.13577307649E+04 -0.23241523342E+03 -0.20906059689E+04  0.25036143075E+04  0.12699999809E+01 0.  1.
       -4    1    3    3    0  502 -0.13577307649E+04  0.23241523342E+03  0.12700569681E+03  0.13833227138E+04  0.12699999809E+01 0. -1.
</event>
<event>
 5   0  0.4811500E-07  0.3515255E+04  0.7818609E-02  0.8110184E-01
       -1   -1    0    0    0  501  0.00000000000E+00  0.00000000000E+00  0.19750170286E+04  0.19750170286E+04  0.50400001928E-02 0. -1.
        1   -1    0    0  501    0  0.00000000000E+00  0.00000000000E+00 -0.15641655556E+04  0.15641655556E+04  0.50400001928E-02 0.  1.
    10030    2    1    2    0    0  0.00000000000E+00  0.00000000000E+00  0.41085147304E+03  0.35391825842E+04  0.35152545330E+04 0.  0.
        4    1    3    3  502    0  0.12506644426E+04  0.12265384052E+04  0.35025898947E+03  0.17864044838E+04  0.12699999809E+01 0.  1.
       -4    1    3    3    0  502 -0.12506644426E+04 -0.12265384052E+04  0.60592483569E+02  0.17527781004E+04  0.12699999809E+01 0. -1.
</event>
<event>
 5   0  0.4811500E-07  0.3549643E+04  0.7818609E-02  0.8102125E-01
       -1   -1    0    0    0  501  0.00000000000E+00  0.00000000000E+00  0.13127659111E+04  0.13127659111E+04  0.50400001928E-02 0. -1.
        1   -1    0    0  501    0  0.00000000000E+00  0.00000000000E+00 -0.23995078031E+04  0.23995078032E+04  0.50400001928E-02 0.  1.
    10030    2    1    2    0    0  0.00000000000E+00  0.00000000000E+00 -0.10867418921E+04  0.37122737142E+04  0.35496433890E+04 0.  0.
        5    1    3    3  502    0  0.15835174490E+04  0.18852118821E+03 -0.13581026650E+04  0.20946438094E+04  0.46999998093E+01 0.  1.
       -5    1    3    3    0  502 -0.15835174490E+04 -0.18852118821E+03  0.27136077291E+03  0.16176299048E+04  0.46999998093E+01 0. -1.
</event>
<event>
 5   0  0.4811500E-07  0.3579445E+04  0.7818609E-02  0.8095216E-01
       -1   -1    0    0    0  501  0.00000000000E+00  0.00000000000E+00  0.15528145960E+04  0.15528145960E+04  0.50400001928E-02 0.  1.
        1   -1    0    0  501    0  0.00000000000E+00  0.00000000000E+00 -0.20627741905E+04  0.20627741905E+04  0.50400001928E-02 0. -1.
    10030    2    1    2    0    0  0.00000000000E+00  0.00000000000E+00 -0.50995959454E+03  0.36155887865E+04  0.35794445777E+04 0.  0.
        2    1    3    3  502    0  0.10863774259E+04  0.67339674652E+03  0.10104379412E+04  0.16293139424E+04  0.25500000920E-02 0.  1.
       -2    1    3    3    0  502 -0.10863774259E+04 -0.67339674652E+03 -0.15203975357E+04  0.19862748441E+04  0.25500000920E-02 0. -1.
</event>
<event>
 5   0  0.4811500E-07  0.3666154E+04  0.7818609E-02  0.8075504E-01
        1   -1    0    0  501    0  0.00000000000E+00  0.00000000000E+00  0.14527347686E+04  0.14527347686E+04  0.50400001928E-02 0. -1.
       -1   -1    0    0    0  501  0.00000000000E+00  0.00000000000E+00 -0.23129971938E+04  0.23129971938E+04  0.50400001928E-02 0.  1.
    10030    2    1    2    0    0  0.00000000000E+00  0.00000000000E+00 -0.86026242521E+03  0.37657319625E+04  0.36661540847E+04 0.  0.
        2    1    3    3  502    0 -0.10090084712E+04  0.14792840621E+04 -0.83294616212E+03  0.19748870196E+04  0.25500000920E-02 0.  1.
       -2    1    3    3    0  502  0.10090084712E+04 -0.14792840621E+04 -0.27316263097E+02  0.17908449429E+04  0.25500000920E-02 0. -1.
</event>
<event>
 5   0  0.4811500E-07  0.3529733E+04  0.7818609E-02  0.8106780E-01
        1   -1    0    0  501    0  0.00000000000E+00  0.00000000000E+00  0.10375405504E+04  0.10375405504E+04  0.50400001928E-02 0. -1.
       -1   -1    0    0    0  501  0.00000000000E+00  0.00000000000E+00 -0.30020544097E+04  0.30020544097E+04  0.50400001928E-02 0.  1.
    10030    2    1    2    0    0  0.00000000000E+00  0.00000000000E+00 -0.19645138593E+04  0.40395949600E+04  0.35297326723E+04 0.  0.
        5    1    3    3  502    0  0.16478382487E+04 -0.62597596923E+03 -0.88305048609E+03  0.19715519417E+04  0.46999998093E+01 0. -1.
       -5    1    3    3    0  502 -0.16478382487E+04  0.62597596923E+03 -0.10814633732E+04  0.20680430183E+04  0.46999998093E+01 0.  1.
</event>
<event>
 5   0  0.4811500E-07  0.3583589E+04  0.7818609E-02  0.8094261E-01
        1   -1    0    0  501    0  0.00000000000E+00  0.00000000000E+00  0.12076401457E+04  0.12076401457E+04  0.50400001928E-02 0.  1.
       -1   -1    0    0    0  501  0.00000000000E+00  0.00000000000E+00 -0.26585135016E+04  0.26585135016E+04  0.50400001928E-02 0. -1.
    10030    2    1    2    0    0  0.00000000000E+00  0.00000000000E+00 -0.14508733559E+04  0.38661536473E+04  0.35835890570E+04 0.  0.
        5    1    3    3  502    0  0.55536935109E+03  0.17020294720E+04 -0.64789370834E+03  0.19039768347E+04  0.46999998093E+01 0.  1.
       -5    1    3    3    0  502 -0.55536935109E+03 -0.17020294720E+04 -0.80297964752E+03  0.19621768126E+04  0.46999998093E+01 0. -1.
</event>
<event>
 5   0  0.4811500E-07  0.3462891E+04  0.7818609E-02  0.8122641E-01
       -1   -1    0    0    0  501  0.00000000000E+00  0.00000000000E+00  0.24043642194E+04  0.24043642195E+04  0.50400001928E-02 0.  1.
        1   -1    0    0  501    0  0.00000000000E+00  0.00000000000E+00 -0.12468594443E+04  0.12468594444E+04  0.50400001928E-02 0. -1.
    10030    2    1    2    0    0  0.00000000000E+00  0.00000000000E+00  0.11575047751E+04  0.36512236638E+04  0.34628914131E+04 0.  0.
        2    1    3    3  502    0 -0.23335739429E+03  0.14257250911E+04 -0.42748560237E+03  0.15066159594E+04  0.25500000920E-02 0. -1.
       -2    1    3    3    0  502  0.23335739429E+03 -0.14257250911E+04  0.15849903775E+04  0.21446077044E+04  0.25500000920E-02 0.  1.
</event>
<event>
 5   0  0.4811500E-07  0.2597659E+04  0.7818609E-02  0.8368997E-01
        1   -1    0    0  501    0  0.00000000000E+00  0.00000000000E+00  0.12847229140E+04  0.12847229140E+04  0.50400001928E-02 0.  1.
       -1   -1    0    0    0  501  0.00000000000E+00  0.00000000000E+00 -0.13130913512E+04  0.13130913512E+04  0.50400001928E-02 0. -1.
    10030    2    1    2    0    0  0.00000000000E+00  0.00000000000E+00 -0.28368437152E+02  0.25978142652E+04  0.25976593673E+04 0.  0.
        2    1    3    3  502    0  0.85412002800E+03  0.11441576947E+03 -0.98601711694E+03  0.13095196621E+04  0.25500000920E-02 0. -1.
       -2    1    3    3    0  502 -0.85412002800E+03 -0.11441576947E+03  0.95764867978E+03  0.12882946031E+04  0.25500000920E-02 0.  1.
</event>
<event>
 5   0  0.1491854E-06  0.3613506E+04  0.7818609E-02  0.8087405E-01
        2   -1    0    0  501    0  0.00000000000E+00  0.00000000000E+00  0.13653050820E+04  0.13653050820E+04  0.25500000920E-02 0. -1.
       -2   -1    0    0    0  501  0.00000000000E+00  0.00000000000E+00 -0.23909361028E+04  0.23909361028E+04  0.25500000920E-02 0.  1.
    10030    2    1    2    0    0  0.00000000000E+00  0.00000000000E+00 -0.10256310208E+04  0.37562411848E+04  0.36135064478E+04 0.  0.
        5    1    3    3  502    0  0.64075465526E+03  0.15420729547E+04 -0.12298293572E+04  0.20738991933E+04  0.46999998093E+01 0.  1.
       -5    1    3    3    0  502 -0.64075465526E+03 -0.15420729547E+04  0.20419833645E+03  0.16823419916E+04  0.46999998093E+01 0. -1.
</event>
<event>
 5   0  0.1444091E-06  0.3400503E+04  0.7818609E-02  0.8137783E-01
        2   -1    0    0  501    0  0.00000000000E+00  0.00000000000E+00  0.11045199623E+04  0.11045199623E+04  0.25500000920E-02 0. -1.
       -2   -1    0    0    0  501  0.00000000000E+00  0.00000000000E+00 -0.26172957188E+04  0.26172957188E+04  0.25500000920E-02 0.  1.
    10030    2    1    2    0    0  0.00000000000E+00  0.00000000000E+00 -0.15127757566E+04  0.37218156811E+04  0.34005031208E+04 0.  0.
        1    1    3    3  502    0 -0.33860564370E+03  0.13836188445E+04  0.25966204972E+03  0.14479223974E+04  0.50400001928E-02 0. -1.
       -1    1    3    3    0  502  0.33860564370E+03 -0.13836188445E+04 -0.17724378063E+04  0.22738932838E+04  0.50400001928E-02 0.  1.
</event>
<event>
 5   0  0.4811500E-07  0.3545465E+04  0.7818609E-02  0.8103099E-01
       -1   -1    0    0    0  501  0.00000000000E+00  0.00000000000E+00  0.25138626739E+04  0.25138626739E+04  0.50400001928E-02 0.  1.
        1   -1    0    0  501    0  0.00000000000E+00  0.00000000000E+00 -0.12501001612E+04  0.12501001613E+04  0.50400001928E-02 0. -1.
    10030    2    1    2    0    0  0.00000000000E+00  0.00000000000E+00  0.12637625127E+04  0.37639628352E+04  0.35454647842E+04 0.  0.
        5    1    3    3  502    0 -0.95711656803E+03 -0.50849504430E+03  0.21211590980E+04  0.23820111973E+04  0.46999998093E+01 0.  1.
       -5    1    3    3    0  502  0.95711656803E+03  0.50849504430E+03 -0.85739658536E+03  0.13819516379E+04  0.46999998093E+01 0. -1.
</event>
<event>
 5   0  0.4811500E-07  0.3599596E+04  0.7818609E-02  0.8090584E-01
       -1   -1    0    0    0  501  0.00000000000E+00  0.00000000000E+00  0.18342496806E+04  0.18342496806E+04  0.50400001928E-02 0. -1.
        1   -1    0    0  501    0  0.00000000000E+00  0.00000000000E+00 -0.17659930016E+04  0.17659930016E+04  0.50400001928E-02 0.  1.
    10030    2    1    2    0    0  0.00000000000E+00  0.00000000000E+00  0.68256679065E+02  0.36002426822E+04  0.35995955879E+04 0.  0.
        2    1    3    3  502    0  0.49560177771E+03  0.28557539515E+03  0.17409220507E+04  0.18324802904E+04  0.25500000920E-02 0. -1.
       -2    1    3    3    0  502 -0.49560177771E+03 -0.28557539515E+03 -0.16726653716E+04  0.17677623918E+04  0.25500000920E-02 0.  1.
</event>
<event>
 5   0  0.5071661E-07  0.3640580E+04  0.7818609E-02  0.8081259E-01
       -1   -1    0    0    0  501  0.00000000000E+00  0.00000000000E+00  0.20480786756E+04  0.20480786756E+04  0.50400001928E-02 0. -1.
        1   -1    0    0  501    0  0.00000000000E+00  0.00000000000E+00 -0.16178358634E+04  0.16178358635E+04  0.50400001928E-02 0.  1.
    10030    2    1    2    0    0  0.00000000000E+00  0.00000000000E+00  0.43024281215E+03  0.36659145391E+04  0.36405796970E+04 0.  0.
        1    1    3    3  502    0 -0.92466213457E+03 -0.81202025429E+03  0.15657527100E+04  0.19914714422E+04  0.50400001928E-02 0. -1.
       -1    1    3    3    0  502  0.92466213457E+03  0.81202025429E+03 -0.11355098978E+04  0.16744430968E+04  0.50400001928E-02 0.  1.
</event>
<event>
 5   0  0.1491854E-06  0.2771298E+04  0.7818609E-02  0.8312235E-01
        2   -1    0    0  501    0  0.00000000000E+00  0.00000000000E+00  0.20510245763E+04  0.20510245763E+04  0.25500000920E-02 0.  1.
       -2   -1    0    0    0  501  0.00000000000E+00  0.00000000000E+00 -0.93612846390E+03  0.93612846390E+03  0.25500000920E-02 0. -1.
    10030    2    1    2    0    0  0.00000000000E+00  0.00000000000E+00  0.11148961124E+04  0.29871530402E+04  0.27712975199E+04 0.  0.
        5    1    3    3  502    0 -0.50928385188E+03 -0.36608123493E+03  0.18892482270E+04  0.19906447362E+04  0.46999998093E+01 0.  1.
       -5    1    3    3    0  502  0.50928385188E+03  0.36608123493E+03 -0.77435211468E+03  0.99650830396E+03  0.46999998093E+01 0. -1.
</event>
<event>
 5   0  0.1491854E-06  0.3608717E+04  0.7818609E-02  0.8088498E-01
        2   -1    0    0  501    0  0.00000000000E+00  0.00000000000E+00  0.28087628568E+04  0.28087628568E+04  0.25500000920E-02 0.  1.
       -2   -1    0    0    0  501  0.00000000000E+00  0.00000000000E+00 -0.11591258815E+04  0.11591258815E+04  0.25500000920E-02 0. -1.
    10030    2    1    2    0    0  0.00000000000E+00  0.00000000000E+00  0.16496369753E+04  0.39678887384E+04  0.36087170698E+04 0.  0.
        5    1    3    3  502    0 -0.75449728286E+03 -0.10947892317E+04  0.21659995027E+04  0.25415360606E+04  0.46999998093E+01 0.  1.
       -5    1    3    3    0  502  0.75449728286E+03  0.10947892317E+04 -0.51636252736E+03  0.14263526778E+04  0.46999998093E+01 0. -1.
</event>
<event>
 5   0  0.1379425E-06  0.3593458E+04  0.7818609E-02  0.8091992E-01
        2   -1    0    0  501    0  0.00000000000E+00  0.00000000000E+00  0.24031871526E+04  0.24031871526E+04  0.25500000920E-02 0.  1.
       -2   -1    0    0    0  501  0.00000000000E+00  0.00000000000E+00 -0.13433138382E+04  0.13433138382E+04  0.25500000920E-02 0. -1.
    10030    2    1    2    0    0  0.00000000000E+00  0.00000000000E+00  0.10598733145E+04  0.37465009908E+04  0.35934576986E+04 0.  0.
        4    1    3    3  502    0  0.71288239162E+03 -0.15507596769E+04 -0.55378714286E+02  0.17076666228E+04  0.12699999809E+01 0. -1.
       -4    1    3    3    0  502 -0.71288239162E+03  0.15507596769E+04  0.11152520288E+04  0.20388343680E+04  0.12699999809E+01 0.  1.
</event>
<event>
 5   0  0.4811500E-07  0.2382638E+04  0.7818609E-02  0.8446032E-01
       -1   -1    0    0    0  501  0.00000000000E+00  0.00000000000E+00  0.88384973432E+03  0.88384973433E+03  0.50400001928E-02 0.  1.
        1   -1    0    0  501    0  0.00000000000E+00  0.00000000000E+00 -0.16057497866E+04  0.16057497866E+04  0.50400001928E-02 0. -1.
    10030    2    1    2    0    0  0.00000000000E+00  0.00000000000E+00 -0.72190005230E+03  0.24895995210E+04  0.23826384722E+04 0.  0.
        5    1    3    3  502    0  0.60465887054E+03 -0.16135053105E+03  0.69824931683E+03  0.93766760744E+03  0.46999998093E+01 0.  1.
       -5    1    3    3    0  502 -0.60465887054E+03  0.16135053105E+03 -0.14201493691E+04  0.15519319135E+04  0.46999998093E+01 0. -1.
</event>
<event>
 5   0  0.1468942E-06  0.2607629E+04  0.7818609E-02  0.8365614E-01
       -2   -1    0    0    0  501  0.00000000000E+00  0.00000000000E+00  0.77089033412E+03  0.77089033412E+03  0.25500000920E-02 0. -1.
        2   -1    0    0  501    0  0.00000000000E+00  0.00000000000E+00 -0.22051550791E+04  0.22051550791E+04  0.25500000920E-02 0.  1.
    10030    2    1    2    0    0  0.00000000000E+00  0.00000000000E+00 -0.14342647450E+04  0.29760454133E+04  0.26076293722E+04 0.  0.
        2    1    3    3  502    0 -0.15039776944E+03 -0.32143847924E+03  0.71470848296E+03  0.79796641571E+03  0.25500000920E-02 0. -1.
       -2    1    3    3    0  502  0.15039776944E+03  0.32143847924E+03 -0.21489732280E+04  0.21780789975E+04  0.25500000920E-02 0.  1.
</event>
<event>
 5   0  0.4811500E-07  0.3578582E+04  0.7818609E-02  0.8095415E-01
        1   -1    0    0  501    0  0.00000000000E+00  0.00000000000E+00  0.15834408399E+04  0.15834408399E+04  0.50400001928E-02 0. -1.
       -1   -1    0    0    0  501  0.00000000000E+00  0.00000000000E+00 -0.20219020245E+04  0.20219020245E+04  0.50400001928E-02 0.  1.
    10030    2    1    2    0    0  0.00000000000E+00  0.00000000000E+00 -0.43846118455E+03  0.36053428644E+04  0.35785819761E+04 0.  0.
        2    1    3    3  502    0 -0.31258251538E+03  0.98789250173E+02 -0.19913885548E+04  0.20181911508E+04  0.25500000920E-02 0.  1.
       -2    1    3    3    0  502  0.31258251538E+03 -0.98789250173E+02  0.15529273702E+04  0.15871517136E+04  0.25500000920E-02 0. -1.
</event>
<event>
 5   0  0.1468942E-06  0.3596762E+04  0.7818609E-02  0.8091234E-01
       -2   -1    0    0    0  501  0.00000000000E+00  0.00000000000E+00  0.15160147667E+04  0.15160147667E+04  0.25500000920E-02 0.  1.
        2   -1    0    0  501    0  0.00000000000E+00  0.00000000000E+00 -0.21333392835E+04  0.21333392835E+04  0.25500000920E-02 0. -1.
    10030    2    1    2    0    0  0.00000000000E+00  0.00000000000E+00 -0.61732451677E+03  0.36493540501E+04  0.35967617970E+04 0.  0.
        2    1    3    3  502    0 -0.81970972128E+03 -0.15388377648E+04 -0.75581965980E+03  0.19003181448E+04  0.25500000920E-02 0. -1.
       -2    1    3    3    0  502  0.81970972128E+03  0.15388377648E+04  0.13849514303E+03  0.17490359053E+04  0.25500000920E-02 0.  1.
</event>
<event>
 5   0  0.4811500E-07  0.3550245E+04  0.7818609E-02  0.8101985E-01
        1   -1    0    0  501    0  0.00000000000E+00  0.00000000000E+00  0.22968381187E+04  0.22968381187E+04  0.50400001928E-02 0.  1.
       -1   -1    0    0    0  501  0.00000000000E+00  0.00000000000E+00 -0.13719117524E+04  0.13719117524E+04  0.50400001928E-02 0. -1.
    10030    2    1    2    0    0  0.00000000000E+00  0.00000000000E+00  0.92492636637E+03  0.36687498711E+04  0.35502446160E+04 0.  0.
        5    1    3    3  502    0 -0.10402113888E+03  0.13228680106E+03  0.22885698175E+04  0.22947536022E+04  0.46999998093E+01 0.  1.
       -5    1    3    3    0  502  0.10402113888E+03 -0.13228680106E+03 -0.13636434512E+04  0.13739962689E+04  0.46999998093E+01 0. -1.
</event>
<event>
 5   0  0.1379425E-06  0.3597595E+04  0.7818609E-02  0.8091043E-01
       -2   -1    0    0    0  501  0.00000000000E+00  0.00000000000E+00  0.20224681761E+04  0.20224681761E+04  0.25500000920E-02 0.  1.
        2   -1    0    0  501    0  0.00000000000E+00  0.00000000000E+00 -0.15998635565E+04  0.15998635565E+04  0.25500000920E-02 0. -1.
    10030    2    1    2    0    0  0.00000000000E+00  0.00000000000E+00  0.42260461969E+03  0.36223317326E+04  0.35975953798E+04 0.  0.
        4    1    3    3  502    0 -0.20909178958E+03 -0.14601489919E+04  0.12479038388E+04  0.19321024970E+04  0.12699999809E+01 0.  1.
       -4    1    3    3    0  502  0.20909178958E+03  0.14601489919E+04 -0.82529921913E+03  0.16902292356E+04  0.12699999809E+01 0. -1.
</event>
<event>
 5   0  0.5071661E-07  0.3591808E+04  0.7818609E-02  0.8092371E-01
       -1   -1    0    0    0  501  0.00000000000E+00  0.00000000000E+00  0.11458333647E+04  0.11458333647E+04  0.50400001928E-02 0.  1.
        1   -1    0    0  501    0  0.00000000000E+00  0.00000000000E+00 -0.28147828158E+04  0.28147828158E+04  0.50400001928E-02 0. -1.
    10030    2    1    2    0    0  0.00000000000E+00  0.00000000000E+00 -0.16689494512E+04  0.39606161805E+04  0.35918084941E+04 0.  0.
        1    1    3    3  502    0 -0.48748323950E+03 -0.49089571044E+03 -0.26619500698E+04  0.27503811884E+04  0.50400001928E-02 0. -1.
       -1    1    3    3    0  502  0.48748323950E+03  0.49089571044E+03  0.99300061867E+03  0.12102349921E+04  0.50400001928E-02 0.  1.
</event>
<event>
 5   0  0.4811500E-07  0.3606763E+04  0.7818609E-02  0.8088944E-01
       -1   -1    0    0    0  501  0.00000000000E+00  0.00000000000E+00  0.12568057723E+04  0.12568057724E+04  0.50400001928E-02 0.  1.
        1   -1    0    0  501    0  0.00000000000E+00  0.00000000000E+00 -0.25876592700E+04  0.25876592701E+04  0.50400001928E-02 0. -1.
    10030    2    1    2    0    0  0.00000000000E+00  0.00000000000E+00 -0.13308534977E+04  0.38444650424E+04  0.36067631514E+04 0.  0.
        5    1    3    3  502    0  0.31274083735E+03 -0.15460702982E+04  0.26626330040E+03  0.15997057334E+04  0.46999998093E+01 0.  1.
       -5    1    3    3    0  502 -0.31274083735E+03  0.15460702982E+04 -0.15971167981E+04  0.22447593090E+04  0.46999998093E+01 0. -1.
</event>
<event>
 5   0  0.4811500E-07  0.3600712E+04  0.7818609E-02  0.8090329E-01
       -1   -1    0    0    0  501  0.00000000000E+00  0.00000000000E+00  0.12630670744E+04  0.12630670744E+04  0.50400001928E-02 0. -1.
        1   -1    0    0  501    0  0.00000000000E+00  0.00000000000E+00 -0.25661988110E+04  0.25661988110E+04  0.50400001928E-02 0.  1.
    10030    2    1    2    0    0  0.00000000000E+00  0.00000000000E+00 -0.13031317366E+04  0.38292658855E+04  0.36007117211E+04 0.  0.
        4    1    3    3  502    0  0.14164392260E+03  0.13067624534E+04 -0.19599373825E+04  0.23598828926E+04  0.12699999809E+01 0.  1.
       -4    1    3    3    0  502 -0.14164392260E+03 -0.13067624534E+04  0.65680564590E+03  0.14693829929E+04  0.12699999809E+01 0. -1.
</event>
<event>
 5   0  0.1468942E-06  0.3602636E+04  0.7818609E-02  0.8089888E-01
        2   -1    0    0  501    0  0.00000000000E+00  0.00000000000E+00  0.10362348775E+04  0.10362348775E+04  0.25500000920E-02 0. -1.
       -2   -1    0    0    0  501  0.00000000000E+00  0.00000000000E+00 -0.31312852614E+04  0.31312852614E+04  0.25500000920E-02 0.  1.
    10030    2    1    2    0    0  0.00000000000E+00  0.00000000000E+00 -0.20950503839E+04  0.41675201389E+04  0.36026362566E+04 0.  0.
        2    1    3    3  502    0  0.11523918029E+04  0.74665831761E+03 -0.23961948993E+04  0.27617486320E+04  0.25500000920E-02 0.  1.
       -2    1    3    3    0  502 -0.11523918029E+04 -0.74665831761E+03  0.30114451540E+03  0.14057715070E+04  0.25500000920E-02 0. -1.
</event>
<event>
 5   0  0.1444091E-06  0.3375572E+04  0.7818609E-02  0.8143928E-01
        2   -1    0    0  501    0  0.00000000000E+00  0.00000000000E+00  0.27099164669E+04  0.27099164669E+04  0.25500000920E-02 0.  1.
       -2   -1    0    0    0  501  0.00000000000E+00  0.00000000000E+00 -0.10511843027E+04  0.10511843027E+04  0.25500000920E-02 0. -1.
    10030    2    1    2    0    0  0.00000000000E+00  0.00000000000E+00  0.16587321642E+04  0.37611007697E+04  0.33755720415E+04 0.  0.
        1    1    3    3  502    0 -0.14526586961E+04  0.31622956077E+03 -0.60890361932E+02  0.14879267652E+04  0.50400001928E-02 0.  1.
       -1    1    3    3    0  502  0.14526586961E+04 -0.31622956077E+03  0.17196225261E+04  0.22731740045E+04  0.50400001928E-02 0. -1.
</event>
<event>
 5   0  0.4811500E-07  0.3532088E+04  0.7818609E-02  0.8106227E-01
        1   -1    0    0  501    0  0.00000000000E+00  0.00000000000E+00  0.10700935083E+04  0.10700935083E+04  0.50400001928E-02 0. -1.
       -1   -1    0    0    0  501  0.00000000000E+00  0.00000000000E+00 -0.29146165603E+04  0.29146165603E+04  0.50400001928E-02 0.  1.
    10030    2    1    2    0    0  0.00000000000E+00  0.00000000000E+00 -0.18445230520E+04  0.39847100686E+04  0.35320884815E+04 0.  0.
        5    1    3    3  502    0  0.10191985339E+03  0.12676353298E+04 -0.23046902312E+04  0.26322815461E+04  0.46999998093E+01 0.  1.
       -5    1    3    3    0  502 -0.10191985339E+03 -0.12676353298E+04  0.46016717919E+03  0.13524285226E+04  0.46999998093E+01 0. -1.
</event>
<event>
 5   0  0.1491854E-06  0.2851484E+04  0.7818609E-02  0.8287460E-01
        2   -1    0    0  501    0  0.00000000000E+00  0.00000000000E+00  0.18879555023E+04  0.18879555023E+04  0.25500000920E-02 0. -1.
       -2   -1    0    0    0  501  0.00000000000E+00  0.00000000000E+00 -0.10766888092E+04  0.10766888092E+04  0.25500000920E-02 0.  1.
    10030    2    1    2    0    0  0.00000000000E+00  0.00000000000E+00  0.81126669313E+03  0.29646443115E+04  0.28514842181E+04 0.  0.
        5    1    3    3  502    0 -0.11040835872E+04  0.88843923956E+03  0.24325064388E+03  0.14378865795E+04  0.46999998093E+01 0. -1.
       -5    1    3    3    0  502  0.11040835872E+04 -0.88843923956E+03  0.56801604925E+03  0.15267577319E+04  0.46999998093E+01 0.  1.
</event>
<event>
 5   0  0.1491854E-06  0.3656470E+04  0.7818609E-02  0.8077678E-01
       -2   -1    0    0    0  501  0.00000000000E+00  0.00000000000E+00  0.16761409892E+04  0.16761409892E+04  0.25500000920E-02 0.  1.
        2   -1    0    0  501    0  0.00000000000E+00  0.00000000000E+00 -0.19941298246E+04  0.19941298246E+04  0.25500000920E-02 0. -1.
    10030    2    1    2    0    0  0.00000000000E+00  0.00000000000E+00 -0.31798883541E+03  0.36702708139E+04  0.36564697384E+04 0.  0.
        5    1    3    3  502    0 -0.10303736805E+04 -0.14764829653E+04 -0.47760193745E+03  0.18627392649E+04  0.46999998093E+01 0. -1.
       -5    1    3    3    0  502  0.10303736805E+04  0.14764829653E+04  0.15961310204E+03  0.18075315490E+04  0.46999998093E+01 0.  1.
</event>
<event>
 5   0  0.1491854E-06  0.2762158E+04  0.7818609E-02  0.8315114E-01
       -2   -1    0    0    0  501  0.00000000000E+00  0.00000000000E+00  0.10582508160E+04  0.10582508160E+04  0.25500000920E-02 0. -1.
        2   -1    0    0  501    0  0.00000000000E+00  0.00000000000E+00 -0.18023888096E+04  0.18023888097E+04  0.25500000920E-02 0.  1.
    10030    2    1    2    0    0  0.00000000000E+00  0.00000000000E+00 -0.74413799365E+03  0.28606396257E+04  0.27621581624E+04 0.  0.
        5    1    3    3  502    0  0.11507961865E+04  0.51854333322E+03 -0.95253266647E+03  0.15813157882E+04  0.46999998093E+01 0.  1.
       -5    1    3    3    0  502 -0.11507961865E+04 -0.51854333322E+03  0.20839467282E+03  0.12793238374E+04  0.46999998093E+01 0. -1.
</event>
<event>
 5   0  0.4811500E-07  0.3646778E+04  0.7818609E-02  0.8079860E-01
       -1   -1    0    0    0  501  0.00000000000E+00  0.00000000000E+00  0.14951337156E+04  0.14951337156E+04  0.50400001928E-02 0.  1.
        1   -1    0    0  501    0  0.00000000000E+00  0.00000000000E+00 -0.22237124088E+04  0.22237124088E+04  0.50400001928E-02 0. -1.
    10030    2    1    2    0    0  0.00000000000E+00  0.00000000000E+00 -0.72857869321E+03  0.37188461245E+04  0.36467779731E+04 0.  0.
        4    1    3    3  502    0  0.21331317306E+03 -0.11067695503E+04 -0.18258986135E+04  0.21457746170E+04  0.12699999809E+01 0. -1.
       -4    1    3    3    0  502 -0.21331317306E+03  0.11067695503E+04  0.10973199203E+04  0.15730715075E+04  0.12699999809E+01 0.  1.
</event>
<event>
 5   0  0.1379425E-06  0.3414779E+04  0.7818609E-02  0.8134289E-01
       -2   -1    0    0    0  501  0.00000000000E+00  0.00000000000E+00  0.15289582682E+04  0.15289582682E+04  0.25500000920E-02 0.  1.
        2   -1    0    0  501    0  0.00000000000E+00  0.00000000000E+00 -0.19066440036E+04  0.19066440036E+04  0.25500000920E-02 0. -1.
    10030    2    1    2    0    0  0.00000000000E+00  0.00000000000E+00 -0.37768573535E+03  0.34356022718E+04  0.34147791225E+04 0.  0.
        4    1    3    3  502    0 -0.85482130762E+02 -0.17050886782E+04 -0.16540044778E+03  0.17152240426E+04  0.12699999809E+01 0.  1.
       -4    1    3    3    0  502  0.85482130762E+02  0.17050886782E+04 -0.21228528757E+03  0.17203782292E+04  0.12699999809E+01 0. -1.
</event>
<event>
 5   0  0.5071661E-07  0.3532407E+04  0.7818609E-02  0.8106153E-01
       -1   -1    0    0    0  501  0.00000000000E+00  0.00000000000E+00  0.14989641154E+04  0.14989641154E+04  0.50400001928E-02 0. -1.
        1   -1    0    0  501    0  0.00000000000E+00  0.00000000000E+00 -0.20810868877E+04  0.20810868877E+04  0.50400001928E-02 0.  1.
    10030    2    1    2    0    0  0.00000000000E+00  0.00000000000E+00 -0.58212277227E+03  0.35800510031E+04  0.35324068654E+04 0.  0.
        1    1    3    3  502    0  0.26795062856E+03  0.15444542375E+04 -0.11158798495E+04  0.19241424764E+04  0.50400001928E-02 0.  1.
       -1    1    3    3    0  502 -0.26795062856E+03 -0.15444542375E+04  0.53375707721E+03  0.16559085266E+04  0.50400001928E-02 0. -1.
</event>
<event>
 5   0  0.5071661E-07  0.3590048E+04  0.7818609E-02  0.8092775E-01
        1   -1    0    0  501    0  0.00000000000E+00  0.00000000000E+00  0.19061479267E+04  0.19061479267E+04  0.50400001928E-02 0.  1.
       -1   -1    0    0    0  501  0.00000000000E+00  0.00000000000E+00 -0.16903779214E+04  0.16903779214E+04  0.50400001928E-02 0. -1.
    10030    2    1    2    0    0  0.00000000000E+00  0.00000000000E+00  0.21577000529E+03  0.35965258481E+04  0.35900475597E+04 0.  0.
        1    1    3    3  502    0 -0.98912280650E+03 -0.25716480154E+03 -0.13704515157E+04  0.17095715892E+04  0.50400001928E-02 0. -1.
       -1    1    3    3    0  502  0.98912280650E+03  0.25716480154E+03  0.15862215210E+04  0.18869542589E+04  0.50400001928E-02 0.  1.
</event>
<event>
 5   0  0.4811500E-07  0.3591323E+04  0.7818609E-02  0.8092482E-01
        1   -1    0    0  501    0  0.00000000000E+00  0.00000000000E+00  0.16690751509E+04  0.16690751509E+04  0.50400001928E-02 0.  1.
       -1   -1    0    0    0  501  0.00000000000E+00  0.00000000000E+00 -0.19318488276E+04  0.19318488276E+04  0.50400001928E-02 0. -1.
    10030    2    1    2    0    0  0.00000000000E+00  0.00000000000E+00 -0.26277367669E+03  0.36009239785E+04  0.35913233624E+04 0.  0.
        2    1    3    3  502    0 -0.89915614590E+03  0.15105098017E+04 -0.49880775419E+03  0.18272741479E+04  0.25500000920E-02 0.  1.
       -2    1    3    3    0  502  0.89915614590E+03 -0.15105098017E+04  0.23603407750E+03  0.17736498306E+04  0.25500000920E-02 0. -1.
</event>
<event>
 5   0  0.1379425E-06  0.3493747E+04  0.7818609E-02  0.8115273E-01
       -2   -1    0    0    0  501  0.00000000000E+00  0.00000000000E+00  0.11879332484E+04  0.11879332484E+04  0.25500000920E-02 0.  1.
        2   -1    0    0  501    0  0.00000000000E+00  0.00000000000E+00 -0.25688034203E+04  0.25688034203E+04  0.25500000920E-02 0. -1.
    10030    2    1    2    0    0  0.00000000000E+00  0.00000000000E+00 -0.13808701718E+04  0.37567366687E+04  0.34937469809E+04 0.  0.
        4    1    3    3  502    0  0.31278638131E+03  0.14244717176E+04 -0.17243830617E+04  0.22584183738E+04  0.12699999809E+01 0. -1.
       -4    1    3    3    0  502 -0.31278638131E+03 -0.14244717176E+04  0.34351288987E+03  0.14983182949E+04  0.12699999809E+01 0.  1.
</event>
<event>
 5   0  0.4811500E-07  0.3499608E+04  0.7818609E-02  0.8113883E-01
       -1   -1    0    0    0  501  0.00000000000E+00  0.00000000000E+00  0.18418326867E+04  0.18418326867E+04  0.50400001928E-02 0.  1.
        1   -1    0    0  501    0  0.00000000000E+00  0.00000000000E+00 -0.16623735970E+04  0.16623735970E+04  0.50400001928E-02 0. -1.
    10030    2    1    2    0    0  0.00000000000E+00  0.00000000000E+00  0.17945908974E+03  0.35042062837E+04  0.34996079943E+04 0.  0.
        4    1    3    3  502    0  0.25137141037E+03 -0.11539577947E+03 -0.16403452672E+04  0.16635017223E+04  0.12699999809E+01 0. -1.
       -4    1    3    3    0  502 -0.25137141037E+03  0.11539577947E+03  0.18198043569E+04  0.18407045613E+04  0.12699999809E+01 0.  1.
</event>
<event>
 5   0  0.5071661E-07  0.3658245E+04  0.7818609E-02  0.8077279E-01
       -1   -1    0    0    0  501  0.00000000000E+00  0.00000000000E+00  0.13876041393E+04  0.13876041393E+04  0.50400001928E-02 0. -1.
        1   -1    0    0  501    0  0.00000000000E+00  0.00000000000E+00 -0.24111259339E+04  0.24111259339E+04  0.50400001928E-02 0.  1.
    10030    2    1    2    0    0  0.00000000000E+00  0.00000000000E+00 -0.10235217946E+04  0.37987300733E+04  0.36582445661E+04 0.  0.
        1    1    3    3  502    0 -0.98343491487E+02  0.11518873607E+04  0.96012552727E+03  0.15027830722E+04  0.50400001928E-02 0. -1.
       -1    1    3    3    0  502  0.98343491487E+02 -0.11518873607E+04 -0.19836473218E+04  0.22959470010E+04  0.50400001928E-02 0.  1.
</event>
<event>
 5   0  0.1444091E-06  0.3640540E+04  0.7818609E-02  0.8081268E-01
       -2   -1    0    0    0  501  0.00000000000E+00  0.00000000000E+00  0.17298182578E+04  0.17298182578E+04  0.25500000920E-02 0.  1.
        2   -1    0    0  501    0  0.00000000000E+00  0.00000000000E+00 -0.19154515566E+04  0.19154515566E+04  0.25500000920E-02 0. -1.
    10030    2    1    2    0    0  0.00000000000E+00  0.00000000000E+00 -0.18563329876E+03  0.36452698144E+04  0.36405401108E+04 0.  0.
        1    1    3    3  502    0  0.83376152467E+03 -0.16989288609E+03  0.15184231360E+04  0.17405834346E+04  0.50400001928E-02 0.  1.
       -1    1    3    3    0  502 -0.83376152467E+03  0.16989288609E+03 -0.17040564348E+04  0.19046863799E+04  0.50400001928E-02 0. -1.
</event>
<event>
 5   0  0.1491854E-06  0.3630436E+04  0.7818609E-02  0.8083555E-01
        2   -1    0    0  501    0  0.00000000000E+00  0.00000000000E+00  0.12307309792E+04  0.12307309792E+04  0.25500000920E-02 0.  1.
       -2   -1    0    0    0  501  0.00000000000E+00  0.00000000000E+00 -0.26772835913E+04  0.26772835913E+04  0.25500000920E-02 0. -1.
    10030    2    1    2    0    0  0.00000000000E+00  0.00000000000E+00 -0.14465526121E+04  0.39080145705E+04  0.36304357072E+04 0.  0.
        5    1    3    3  502    0 -0.15605976659E+04  0.71480774242E+03 -0.13588234538E+04  0.21892552277E+04  0.46999998093E+01 0. -1.
       -5    1    3    3    0  502  0.15605976659E+04 -0.71480774242E+03 -0.87729158265E+02  0.17187593428E+04  0.46999998093E+01 0.  1.
</event>
<event>
 5   0  0.4811500E-07  0.3487705E+04  0.7818609E-02  0.8116710E-01
       -1   -1    0    0    0  501  0.00000000000E+00  0.00000000000E+00  0.11684814459E+04  0.11684814459E+04  0.50400001928E-02 0. -1.
        1   -1    0    0  501    0  0.00000000000E+00  0.00000000000E+00 -0.26025410544E+04  0.26025410544E+04  0.50400001928E-02 0.  1.
    10030    2    1    2    0    0  0.00000000000E+00  0.00000000000E+00 -0.14340596085E+04  0.37710225003E+04  0.34877046517E+04 0.  0.
        4    1    3    3  502    0 -0.60207133938E+03 -0.15067143007E+04 -0.26104416508E+02  0.16227633639E+04  0.12699999809E+01 0. -1.
       -4    1    3    3    0  502  0.60207133938E+03  0.15067143007E+04 -0.14079551920E+04  0.21482591364E+04  0.12699999809E+01 0.  1.
</event>
<event>
 5   0  0.1379425E-06  0.2864633E+04  0.7818609E-02  0.8283479E-01
       -2   -1    0    0    0  501  0.00000000000E+00  0.00000000000E+00  0.14976726061E+04  0.14976726061E+04  0.25500000920E-02 0.  1.
        2   -1    0    0  501    0  0.00000000000E+00  0.00000000000E+00 -0.13698125591E+04  0.13698125591E+04  0.25500000920E-02 0. -1.
    10030    2    1    2    0    0  0.00000000000E+00  0.00000000000E+00  0.12786004697E+03  0.28674851652E+04  0.28646331320E+04 0.  0.
        4    1    3    3  502    0 -0.11392894159E+04  0.57668738932E+03 -0.58554598757E+03  0.14047827002E+04  0.12699999809E+01 0. -1.
       -4    1    3    3    0  502  0.11392894159E+04 -0.57668738932E+03  0.71340603455E+03  0.14627024650E+04  0.12699999809E+01 0.  1.
</event>
<event>
 5   0  0.1468942E-06  0.3569670E+04  0.7818609E-02  0.8097475E-01
        2   -1    0    0  501    0  0.00000000000E+00  0.00000000000E+00  0.14311572095E+04  0.14311572095E+04  0.25500000920E-02 0.  1.
       -2   -1    0    0    0  501  0.00000000000E+00  0.00000000000E+00 -0.22259160577E+04  0.22259160577E+04  0.25500000920E-02 0. -1.
    10030    2    1    2    0    0  0.00000000000E+00  0.00000000000E+00 -0.79475884818E+03  0.36570732671E+04  0.35696699083E+04 0.  0.
        2    1    3    3  502    0 -0.55631513708E+03  0.10427824187E+04 -0.17675698393E+04  0.21263077956E+04  0.25500000920E-02 0. -1.
       -2    1    3    3    0  502  0.55631513708E+03 -0.10427824187E+04  0.97281099115E+03  0.15307654716E+04  0.25500000920E-02 0.  1.
</event>
<event>
 5   0  0.5071661E-07  0.3652074E+04  0.7818609E-02  0.8078667E-01
        1   -1    0    0  501    0  0.00000000000E+00  0.00000000000E+00  0.24259782471E+04  0.24259782471E+04  0.50400001928E-02 0.  1.
       -1   -1    0    0    0  501  0.00000000000E+00  0.00000000000E+00 -0.13744601333E+04  0.13744601333E+04  0.50400001928E-02 0. -1.
    10030    2    1    2    0    0  0.00000000000E+00  0.00000000000E+00  0.10515181138E+04  0.38004383803E+04  0.36520735944E+04 0.  0.
        1    1    3    3  502    0  0.11315537167E+03  0.55475914951E+03 -0.12808113249E+04  0.14003712015E+04  0.50400001928E-02 0. -1.
       -1    1    3    3    0  502 -0.11315537167E+03 -0.55475914951E+03  0.23323294387E+04  0.24000671788E+04  0.50400001928E-02 0.  1.
</event>
<event>
 5   0  0.1468942E-06  0.2851704E+04  0.7818609E-02  0.8287394E-01
       -2   -1    0    0    0  501  0.00000000000E+00  0.00000000000E+00  0.16344560607E+04  0.16344560607E+04  0.25500000920E-02 0.  1.
        2   -1    0    0  501    0  0.00000000000E+00  0.00000000000E+00 -0.12438721721E+04  0.12438721721E+04  0.25500000920E-02 0. -1.
    10030    2    1    2    0    0  0.00000000000E+00  0.00000000000E+00  0.39058388852E+03  0.28783282328E+04  0.28517043398E+04 0.  0.
        2    1    3    3  502    0  0.50220642930E+03  0.98976968417E+03  0.10987459408E+04  0.15617611750E+04  0.25500000920E-02 0.  1.
       -2    1    3    3    0  502 -0.50220642930E+03 -0.98976968417E+03 -0.70816205230E+03  0.13165670578E+04  0.25500000920E-02 0. -1.
</event>
<event>
 5   0  0.4811500E-07  0.3564988E+04  0.7818609E-02  0.8098559E-01
       -1   -1    0    0    0  501  0.00000000000E+00  0.00000000000E+00  0.24587209994E+04  0.24587209994E+04  0.50400001928E-02 0. -1.
        1   -1    0    0  501    0  0.00000000000E+00  0.00000000000E+00 -0.12922509121E+04  0.12922509121E+04  0.50400001928E-02 0.  1.
    10030    2    1    2    0    0  0.00000000000E+00  0.00000000000E+00  0.11664700874E+04  0.37509719115E+04  0.35649877722E+04 0.  0.
        2    1    3    3  502    0 -0.13400199154E+04  0.11726603392E+04  0.66805590172E+03  0.19018633843E+04  0.25500000920E-02 0. -1.
       -2    1    3    3    0  502  0.13400199154E+04 -0.11726603392E+04  0.49841418566E+03  0.18491085272E+04  0.25500000920E-02 0.  1.
</event>
<event>
 5   0  0.4811500E-07  0.3499473E+04  0.7818609E-02  0.8113915E-01
       -1   -1    0    0    0  501  0.00000000000E+00  0.00000000000E+00  0.21543701521E+04  0.21543701521E+04  0.50400001928E-02 0.  1.
        1   -1    0    0  501    0  0.00000000000E+00  0.00000000000E+00 -0.14211012342E+04  0.14211012342E+04  0.50400001928E-02 0. -1.
    10030    2    1    2    0    0  0.00000000000E+00  0.00000000000E+00  0.73326891793E+03  0.35754713863E+04  0.34994731501E+04 0.  0.
        4    1    3    3  502    0 -0.14493444507E+04  0.62901697001E+01 -0.63492843634E+03  0.15823320243E+04  0.12699999809E+01 0. -1.
       -4    1    3    3    0  502  0.14493444507E+04 -0.62901697001E+01  0.13681973543E+04  0.19931393620E+04  0.12699999809E+01 0.  1.
</event>
<event>
 5   0  0.1444091E-06  0.3590034E+04  0.7818609E-02  0.8092778E-01
        2   -1    0    0  501    0  0.00000000000E+00  0.00000000000E+00  0.22151532092E+04  0.22151532092E+04  0.25500000920E-02 0. -1.
       -2   -1    0    0    0  501  0.00000000000E+00  0.00000000000E+00 -0.14545655092E+04  0.14545655092E+04  0.25500000920E-02 0.  1.
    10030    2    1    2    0    0  0.00000000000E+00  0.00000000000E+00  0.76058770005E+03  0.36697187184E+04  0.35900336799E+04 0.  0.
        1    1    3    3  502    0 -0.89787502966E+03 -0.11876552066E+04  0.14052365589E+04  0.20472894874E+04  0.50400001928E-02 0. -1.
       -1    1    3    3    0  502  0.89787502966E+03  0.11876552066E+04 -0.64464885883E+03  0.16224292311E+04  0.50400001928E-02 0.  1.
</event>
<event>
 5   0  0.1468942E-06  0.3430808E+04  0.7818609E-02  0.8130386E-01
        2   -1    0    0  501    0  0.00000000000E+00  0.00000000000E+00  0.23600278003E+04  0.23600278003E+04  0.25500000920E-02 0. -1.
       -2   -1    0    0    0  501  0.00000000000E+00  0.00000000000E+00 -0.12468541648E+04  0.12468541648E+04  0.25500000920E-02 0.  1.
    10030    2    1    2    0    0  0.00000000000E+00  0.00000000000E+00  0.11131736355E+04  0.36068819650E+04  0.34308077718E+04 0.  0.
        2    1    3    3  502    0 -0.27514019096E+03  0.65764506800E+03 -0.10837480838E+04  0.12971927649E+04  0.25500000920E-02 0.  1.
       -2    1    3    3    0  502  0.27514019096E+03 -0.65764506800E+03  0.21969217194E+04  0.23096892001E+04  0.25500000920E-02 0. -1.
</event>
<event>
 5   0  0.5071661E-07  0.2415764E+04  0.7818609E-02  0.8433625E-01
        1   -1    0    0  501    0  0.00000000000E+00  0.00000000000E+00  0.22139777555E+04  0.22139777555E+04  0.50400001928E-02 0.  1.
       -1   -1    0    0    0  501  0.00000000000E+00  0.00000000000E+00 -0.65898529121E+03  0.65898529123E+03  0.50400001928E-02 0. -1.
    10030    2    1    2    0    0  0.00000000000E+00  0.00000000000E+00  0.15549924643E+04  0.28729630467E+04  0.24157638759E+04 0.  0.
        1    1    3    3  502    0  0.37749637047E+02 -0.46515998640E+03 -0.54743375326E+03  0.71936260834E+03  0.50400001928E-02 0. -1.
       -1    1    3    3    0  502 -0.37749637047E+02  0.46515998640E+03  0.21024262175E+04  0.21536004384E+04  0.50400001928E-02 0.  1.
</event>
<event>
 5   0  0.4811500E-07  0.3612307E+04  0.7818609E-02  0.8087678E-01
        1   -1    0    0  501    0  0.00000000000E+00  0.00000000000E+00  0.17192086178E+04  0.17192086178E+04  0.50400001928E-02 0. -1.
       -1   -1    0    0    0  501  0.00000000000E+00  0.00000000000E+00 -0.18974958140E+04  0.18974958140E+04  0.50400001928E-02 0.  1.
    10030    2    1    2    0    0  0.00000000000E+00  0.00000000000E+00 -0.17828719628E+03  0.36167044318E+04  0.36123073821E+04 0.  0.
        2    1    3    3  502    0  0.41157538325E+03 -0.15578429914E+04 -0.90617740164E+03  0.18486282929E+04  0.25500000920E-02 0.  1.
       -2    1    3    3    0  502 -0.41157538325E+03  0.15578429914E+04  0.72789020536E+03  0.17680761389E+04  0.25500000920E-02 0. -1.
</event>
<event>
 5   0  0.1444091E-06  0.3514230E+04  0.7818609E-02  0.8110426E-01
       -2   -1    0    0    0  501  0.00000000000E+00  0.00000000000E+00  0.32493481336E+04  0.32493481336E+04  0.25500000920E-02 0. -1.
        2   -1    0    0  501    0  0.00000000000E+00  0.00000000000E+00 -0.95017598303E+03  0.95017598303E+03  0.25500000920E-02 0.  1.
    10030    2    1    2    0    0  0.00000000000E+00  0.00000000000E+00  0.22991721506E+04  0.41995241167E+04  0.35142296778E+04 0.  0.
        1    1    3    3  502    0 -0.15877291147E+04 -0.56893142358E+03  0.17385260664E+04  0.24221972649E+04  0.50400001928E-02 0. -1.
       -1    1    3    3    0  502  0.15877291147E+04  0.56893142358E+03  0.56064608422E+03  0.17773268518E+04  0.50400001928E-02 0.  1.
</event>
<event>
 5   0  0.4811500E-07  0.3057977E+04  0.7818609E-02  0.8227366E-01
       -1   -1    0    0    0  501  0.00000000000E+00  0.00000000000E+00  0.10066936432E+04  0.10066936432E+04  0.50400001928E-02 0.  1.
        1   -1    0    0  501    0  0.00000000000E+00  0.00000000000E+00 -0.23222613479E+04  0.23222613479E+04  0.50400001928E-02 0. -1.
    10030    2    1    2    0    0  0.00000000000E+00  0.00000000000E+00 -0.13155677047E+04  0.33289549911E+04  0.30579769370E+04 0.  0.
        2    1    3    3  502    0 -0.10080657990E+04  0.82098502674E+02  0.59050458358E+03  0.11711671454E+04  0.25500000920E-02 0.  1.
       -2    1    3    3    0  502  0.10080657990E+04 -0.82098502674E+02 -0.19060722882E+04  0.21577878457E+04  0.25500000920E-02 0. -1.
</event>
<event>
 5   0  0.4811500E-07  0.2510514E+04  0.7818609E-02  0.8399249E-01
        1   -1    0    0  501    0  0.00000000000E+00  0.00000000000E+00  0.13552134622E+04  0.13552134622E+04  0.50400001928E-02 0.  1.
       -1   -1    0    0    0  501  0.00000000000E+00  0.00000000000E+00 -0.11626730353E+04  0.11626730353E+04  0.50400001928E-02 0. -1.
    10030    2    1    2    0    0  0.00000000000E+00  0.00000000000E+00  0.19254042686E+03  0.25178864976E+04  0.25105140108E+04 0.  0.
        3    1    3    3  502    0 -0.11713699110E+04  0.29925091996E+03 -0.24237733797E+03  0.12330471871E+04  0.10100000352E+00 0. -1.
       -3    1    3    3    0  502  0.11713699110E+04 -0.29925091996E+03  0.43491776483E+03  0.12848393105E+04  0.10100000352E+00 0.  1.
</event>
<event>
 5   0  0.1379425E-06  0.3585986E+04  0.7818609E-02  0.8093709E-01
        2   -1    0    0  501    0  0.00000000000E+00  0.00000000000E+00  0.21246792301E+04  0.21246792301E+04  0.25500000920E-02 0.  1.
       -2   -1    0    0    0  501  0.00000000000E+00  0.00000000000E+00 -0.15130862869E+04  0.15130862870E+04  0.25500000920E-02 0. -1.
    10030    2    1    2    0    0  0.00000000000E+00  0.00000000000E+00  0.61159294319E+03  0.36377655171E+04  0.35859855032E+04 0.  0.
        4    1    3    3  502    0 -0.13766885121E+04 -0.58542815859E+03  0.13084117872E+04  0.19874456989E+04  0.12699999809E+01 0.  1.
       -4    1    3    3    0  502  0.13766885121E+04  0.58542815859E+03 -0.69681884398E+03  0.16503198182E+04  0.12699999809E+01 0. -1.
</event>
<event>
 5   0  0.1379425E-06  0.3522540E+04  0.7818609E-02  0.8108469E-01
        2   -1    0    0  501    0  0.00000000000E+00  0.00000000000E+00  0.18299162251E+04  0.18299162251E+04  0.25500000920E-02 0. -1.
       -2   -1    0    0    0  501  0.00000000000E+00  0.00000000000E+00 -0.16951985587E+04  0.16951985588E+04  0.25500000920E-02 0.  1.
    10030    2    1    2    0    0  0.00000000000E+00  0.00000000000E+00  0.13471766633E+03  0.35251147838E+04  0.35225396221E+04 0.  0.
        4    1    3    3  502    0  0.46461792829E+03 -0.84781005993E+03 -0.14059327771E+04  0.17062532941E+04  0.12699999809E+01 0.  1.
       -4    1    3    3    0  502 -0.46461792829E+03  0.84781005993E+03  0.15406504434E+04  0.18188614897E+04  0.12699999809E+01 0. -1.
</event>
<event>
 5   0  0.1379425E-06  0.3640182E+04  0.7818609E-02  0.8081349E-01
       -2   -1    0    0    0  501  0.00000000000E+00  0.00000000000E+00  0.17952132167E+04  0.17952132167E+04  0.25500000920E-02 0. -1.
        2   -1    0    0  501    0  0.00000000000E+00  0.00000000000E+00 -0.18453130817E+04  0.18453130817E+04  0.25500000920E-02 0.  1.
    10030    2    1    2    0    0  0.00000000000E+00  0.00000000000E+00 -0.50099864998E+02  0.36405262985E+04  0.36401815523E+04 0.  0.
        4    1    3    3  502    0 -0.12276286995E+04 -0.79620601153E+03 -0.11076091827E+04  0.18351610151E+04  0.12699999809E+01 0.  1.
       -4    1    3    3    0  502  0.12276286995E+04  0.79620601153E+03  0.10575093177E+04  0.18053652834E+04  0.12699999809E+01 0. -1.
</event>
<event>
 5   0  0.1505671E-06  0.3659632E+04  0.7818609E-02  0.8076967E-01
        2   -1    0    0  501    0  0.00000000000E+00  0.00000000000E+00  0.22199667444E+04  0.22199667444E+04  0.25500000920E-02 0.  1.
       -2   -1    0    0    0  501  0.00000000000E+00  0.00000000000E+00 -0.15082331102E+04  0.15082331102E+04  0.25500000920E-02 0. -1.
    10030    2    1    2    0    0  0.00000000000E+00  0.00000000000E+00  0.71173363418E+03  0.37281998546E+04  0.36596324118E+04 0.  0.
        3    1    3    3  502    0  0.78683486459E+03 -0.15494112104E+04  0.93970408489E+03  0.19755576379E+04  0.10100000352E+00 0.  1.
       -3    1    3    3    0  502 -0.78683486459E+03  0.15494112104E+04 -0.22797045071E+03  0.17526422167E+04  0.10100000352E+00 0. -1.
</event>
<event>
 5   0  0.5071661E-07  0.2552670E+04  0.7818609E-02  0.8384458E-01
        1   -1    0    0  501    0  0.00000000000E+00  0.00000000000E+00  0.19649261496E+04  0.19649261496E+04  0.50400001928E-02 0.  1.
       -1   -1    0    0    0  501  0.00000000000E+00  0.00000000000E+00 -0.82905475773E+03  0.82905475774E+03  0.50400001928E-02 0. -1.
    10030    2    1    2    0    0  0.00000000000E+00  0.00000000000E+00  0.11358713918E+04  0.27939809073E+04  0.25526702669E+04 0.  0.
        1    1    3    3  502    0  0.52425886103E+03  0.11352934518E+04  0.28825573305E+03  0.12832887215E+04  0.50400001928E-02 0.  1.
       -1    1    3    3    0  502 -0.52425886103E+03 -0.11352934518E+04  0.84761565880E+03  0.15106921858E+04  0.50400001928E-02 0. -1.
</event>
<event>
 5   0  0.1468942E-06  0.3587994E+04  0.7818609E-02  0.8093247E-01
        2   -1    0    0  501    0  0.00000000000E+00  0.00000000000E+00  0.25409523424E+04  0.25409523424E+04  0.25500000920E-02 0. -1.
       -2   -1    0    0    0  501  0.00000000000E+00  0.00000000000E+00 -0.12666215655E+04  0.12666215655E+04  0.25500000920E-02 0.  1.
    10030    2    1    2    0    0  0.00000000000E+00  0.00000000000E+00  0.12743307769E+04  0.38075739080E+04  0.35879938873E+04 0.  0.
        2    1    3    3  502    0  0.12368894625E+04  0.63443809419E+03  0.18405934574E+04  0.23065540343E+04  0.25500000920E-02 0. -1.
       -2    1    3    3    0  502 -0.12368894625E+04 -0.63443809419E+03 -0.56626268048E+03  0.15010198737E+04  0.25500000920E-02 0.  1.
</event>
<event>
 5   0  0.1444091E-06  0.2409157E+04  0.7818609E-02  0.8436083E-01
        2   -1    0    0  501    0  0.00000000000E+00  0.00000000000E+00  0.14401690180E+04  0.14401690180E+04  0.25500000920E-02 0.  1.
       -2   -1    0    0    0  501  0.00000000000E+00  0.00000000000E+00 -0.10075274646E+04  0.10075274646E+04  0.25500000920E-02 0. -1.
    10030    2    1    2    0    0  0.00000000000E+00  0.00000000000E+00  0.43264155338E+03  0.24476964826E+04  0.24091573956E+04 0.  0.
        1    1    3    3  502    0 -0.41403509871E+03 -0.43805910771E+03 -0.84328607161E+03  0.10365578823E+04  0.50400001928E-02 0. -1.
       -1    1    3    3    0  502  0.41403509871E+03  0.43805910771E+03  0.12759276250E+04  0.14111386002E+04  0.50400001928E-02 0.  1.
</event>
<event>
 5   0  0.4811500E-07  0.3560885E+04  0.7818609E-02  0.8099511E-01
        1   -1    0    0  501    0  0.00000000000E+00  0.00000000000E+00  0.20582288669E+04  0.20582288669E+04  0.50400001928E-02 0.  1.
       -1   -1    0    0    0  501  0.00000000000E+00  0.00000000000E+00 -0.15401471777E+04  0.15401471777E+04  0.50400001928E-02 0. -1.
    10030    2    1    2    0    0  0.00000000000E+00  0.00000000000E+00  0.51808168920E+03  0.35983760445E+04  0.35608849351E+04 0.  0.
        2    1    3    3  502    0  0.14832625460E+03  0.17473562108E+04 -0.51967245572E+02  0.17544101573E+04  0.25500000920E-02 0.  1.
       -2    1    3    3    0  502 -0.14832625460E+03 -0.17473562108E+04  0.57004893477E+03  0.18439658873E+04  0.25500000920E-02 0. -1.
</event>
<event>
 5   0  0.4811500E-07  0.3633585E+04  0.7818609E-02  0.8082842E-01
        1   -1    0    0  501    0  0.00000000000E+00  0.00000000000E+00  0.17016035991E+04  0.17016035991E+04  0.50400001928E-02 0. -1.
       -1   -1    0    0    0  501  0.00000000000E+00  0.00000000000E+00 -0.19397786921E+04  0.19397786921E+04  0.50400001928E-02 0.  1.
    10030    2    1    2    0    0  0.00000000000E+00  0.00000000000E+00 -0.23817509302E+03  0.36413822912E+04  0.36335846784E+04 0.  0.
        2    1    3    3  502    0  0.10170209084E+04 -0.31237286153E+03 -0.15949413973E+04  0.19172236160E+04  0.25500000920E-02 0.  1.
       -2    1    3    3    0  502 -0.10170209084E+04  0.31237286153E+03  0.13567663043E+04  0.17241586752E+04  0.25500000920E-02 0. -1.
</event>
<event>
 5   0  0.1379425E-06  0.3587521E+04  0.7818609E-02  0.8093356E-01
       -2   -1    0    0    0  501  0.00000000000E+00  0.00000000000E+00  0.21580240699E+04  0.21580240699E+04  0.25500000920E-02 0. -1.
        2   -1    0    0  501    0  0.00000000000E+00  0.00000000000E+00 -0.14909828126E+04  0.14909828126E+04  0.25500000920E-02 0.  1.
    10030    2    1    2    0    0  0.00000000000E+00  0.00000000000E+00  0.66704125732E+03  0.36490068825E+04  0.35875210368E+04 0.  0.
        4    1    3    3  502    0 -0.13958537789E+04 -0.35033349650E+03  0.14225879510E+04  0.20235857832E+04  0.12699999809E+01 0. -1.
       -4    1    3    3    0  502  0.13958537789E+04  0.35033349650E+03 -0.75554669366E+03  0.16254210993E+04  0.12699999809E+01 0.  1.
</event>
<event>
 5   0  0.1379425E-06  0.3566639E+04  0.7818609E-02  0.8098176E-01
        2   -1    0    0  501    0  0.00000000000E+00  0.00000000000E+00  0.14603159568E+04  0.14603159568E+04  0.25500000920E-02 0. -1.
       -2   -1    0    0    0  501  0.00000000000E+00  0.00000000000E+00 -0.21777675016E+04  0.21777675016E+04  0.25500000920E-02 0.  1.
    10030    2    1    2    0    0  0.00000000000E+00  0.00000000000E+00 -0.71745154480E+03  0.36380834585E+04  0.35666391087E+04 0.  0.
        4    1    3    3  502    0  0.89244642917E+03 -0.14247378194E+04 -0.96552740146E+03  0.19387065943E+04  0.12699999809E+01 0.  1.
       -4    1    3    3    0  502 -0.89244642917E+03  0.14247378194E+04  0.24807585666E+03  0.16993768642E+04  0.12699999809E+01 0. -1.
</event>
<event>
 5   0  0.1379425E-06  0.3576346E+04  0.7818609E-02  0.8095931E-01
       -2   -1    0    0    0  501  0.00000000000E+00  0.00000000000E+00  0.15755272085E+04  0.15755272085E+04  0.25500000920E-02 0.  1.
        2   -1    0    0  501    0  0.00000000000E+00  0.00000000000E+00 -0.20295196319E+04  0.20295196319E+04  0.25500000920E-02 0. -1.
    10030    2    1    2    0    0  0.00000000000E+00  0.00000000000E+00 -0.45399242346E+03  0.36050468404E+04  0.35763464039E+04 0.  0.
        4    1    3    3  502    0 -0.16983487739E+04 -0.53075638922E+03 -0.40582021380E+03  0.18250431670E+04  0.12699999809E+01 0.  1.
       -4    1    3    3    0  502  0.16983487739E+04  0.53075638922E+03 -0.48172209659E+02  0.17800036734E+04  0.12699999809E+01 0. -1.
</event>
<event>
 5   0  0.4811500E-07  0.3628617E+04  0.7818609E-02  0.8083968E-01
        1   -1    0    0  501    0  0.00000000000E+00  0.00000000000E+00  0.18788439326E+04  0.18788439326E+04  0.50400001928E-02 0.  1.
       -1   -1    0    0    0  501  0.00000000000E+00  0.00000000000E+00 -0.17519902407E+04  0.17519902407E+04  0.50400001928E-02 0. -1.
    10030    2    1    2    0    0  0.00000000000E+00  0.00000000000E+00  0.12685369189E+03  0.36308341734E+04  0.36286174964E+04 0.  0.
        3    1    3    3  502    0 -0.10892016327E+04 -0.14475390085E+04  0.16342210173E+03  0.18189107101E+04  0.10100000352E+00 0.  1.
       -3    1    3    3    0  502  0.10892016327E+04  0.14475390085E+04 -0.36568409833E+02  0.18119234633E+04  0.10100000352E+00 0. -1.
</event>
<event>
 5   0  0.4811500E-07  0.3396001E+04  0.7818609E-02  0.8138888E-01
       -3   -1    0    0    0  501  0.00000000000E+00  0.00000000000E+00  0.14874409740E+04  0.14874409774E+04  0.10100000352E+00 0.  1.
        3   -1    0    0  501    0  0.00000000000E+00  0.00000000000E+00 -0.19383665069E+04  0.19383665095E+04  0.10100000352E+00 0. -1.
    10030    2    1    2    0    0  0.00000000000E+00  0.00000000000E+00 -0.45092553289E+03  0.34258074869E+04  0.33960010455E+04 0.  0.
        5    1    3    3  502    0  0.11753523513E+04  0.56284539117E+03  0.87263880452E+03  0.15683649631E+04  0.46999998093E+01 0.  1.
       -5    1    3    3    0  502 -0.11753523513E+04 -0.56284539117E+03 -0.13235643374E+04  0.18574425239E+04  0.46999998093E+01 0. -1.
</event>
<event>
 5   0  0.4811500E-07  0.3535401E+04  0.7818609E-02  0.8105451E-01
       -1   -1    0    0    0  501  0.00000000000E+00  0.00000000000E+00  0.12298258955E+04  0.12298258956E+04  0.50400001928E-02 0.  1.
        1   -1    0    0  501    0  0.00000000000E+00  0.00000000000E+00 -0.25408190082E+04  0.25408190082E+04  0.50400001928E-02 0. -1.
    10030    2    1    2    0    0  0.00000000000E+00  0.00000000000E+00 -0.13109931126E+04  0.37706449038E+04  0.35354009743E+04 0.  0.
        3    1    3    3  502    0 -0.14999053431E+04 -0.91100210579E+03 -0.42893753272E+03  0.18065514917E+04  0.10100000352E+00 0. -1.
       -3    1    3    3    0  502  0.14999053431E+04  0.91100210579E+03 -0.88205557992E+03  0.19640934121E+04  0.10100000352E+00 0.  1.
</event>
<event>
 5   0  0.1468942E-06  0.3637412E+04  0.7818609E-02  0.8081975E-01
       -2   -1    0    0    0  501  0.00000000000E+00  0.00000000000E+00  0.13409922577E+04  0.13409922577E+04  0.25500000920E-02 0. -1.
        2   -1    0    0  501    0  0.00000000000E+00  0.00000000000E+00 -0.24665996509E+04  0.24665996509E+04  0.25500000920E-02 0.  1.
    10030    2    1    2    0    0  0.00000000000E+00  0.00000000000E+00 -0.11256073932E+04  0.38075919086E+04  0.36374117362E+04 0.  0.
        2    1    3    3  502    0  0.16825101524E+04 -0.16005531140E+03 -0.12659704348E+04  0.21116674117E+04  0.25500000920E-02 0.  1.
       -2    1    3    3    0  502 -0.16825101524E+04  0.16005531140E+03  0.14036304158E+03  0.16959244969E+04  0.25500000920E-02 0. -1.
</event>
<event>
 5   0  0.4811500E-07  0.3537432E+04  0.7818609E-02  0.8104976E-01
        1   -1    0    0  501    0  0.00000000000E+00  0.00000000000E+00  0.23097270597E+04  0.23097270597E+04  0.50400001928E-02 0.  1.
       -1   -1    0    0    0  501  0.00000000000E+00  0.00000000000E+00 -0.13544268608E+04  0.13544268608E+04  0.50400001928E-02 0. -1.
    10030    2    1    2    0    0  0.00000000000E+00  0.00000000000E+00  0.95530019898E+03  0.36641539205E+04  0.35374320464E+04 0.  0.
        2    1    3    3  502    0 -0.18710384834E+03 -0.14391870184E+04 -0.56955081441E+03  0.15590558855E+04  0.25500000920E-02 0. -1.
       -2    1    3    3    0  502  0.18710384834E+03  0.14391870184E+04  0.15248510134E+04  0.21050980350E+04  0.25500000920E-02 0.  1.
</event>
<event>
 5   0  0.4811500E-07  0.3327592E+04  0.7818609E-02  0.8155910E-01
        1   -1    0    0  501    0  0.00000000000E+00  0.00000000000E+00  0.13781289271E+04  0.13781289271E+04  0.50400001928E-02 0. -1.
       -1   -1    0    0    0  501  0.00000000000E+00  0.00000000000E+00 -0.20086776633E+04  0.20086776633E+04  0.50400001928E-02 0.  1.
    10030    2    1    2    0    0  0.00000000000E+00  0.00000000000E+00 -0.63054873627E+03  0.33868065904E+04  0.33275917977E+04 0.  0.
        2    1    3    3  502    0  0.11052070488E+04  0.28972309267E+03  0.91570858959E+03  0.14642214014E+04  0.25500000920E-02 0. -1.
       -2    1    3    3    0  502 -0.11052070488E+04 -0.28972309267E+03 -0.15462573259E+04  0.19225851890E+04  0.25500000920E-02 0.  1.
</event>
<event>
 5   0  0.5071661E-07  0.3596299E+04  0.7818609E-02  0.8091340E-01
       -1   -1    0    0    0  501  0.00000000000E+00  0.00000000000E+00  0.10205418039E+04  0.10205418039E+04  0.50400001928E-02 0.  1.
        1   -1    0    0  501    0  0.00000000000E+00  0.00000000000E+00 -0.31682605744E+04  0.31682605744E+04  0.50400001928E-02 0. -1.
    10030    2    1    2    0    0  0.00000000000E+00  0.00000000000E+00 -0.21477187705E+04  0.41888023784E+04  0.35962994102E+04 0.  0.
        1    1    3    3  502    0 -0.11878767710E+04 -0.78646307977E+03  0.20406524218E+03  0.14391726867E+04  0.50400001928E-02 0.  1.
       -1    1    3    3    0  502  0.11878767710E+04  0.78646307977E+03 -0.23517840127E+04  0.27496296917E+04  0.50400001928E-02 0. -1.
</event>
<event>
 5   0  0.1468942E-06  0.3635410E+04  0.7818609E-02  0.8082428E-01
       -2   -1    0    0    0  501  0.00000000000E+00  0.00000000000E+00  0.21942511489E+04  0.21942511489E+04  0.25500000920E-02 0. -1.
        2   -1    0    0  501    0  0.00000000000E+00  0.00000000000E+00 -0.15057766958E+04  0.15057766958E+04  0.25500000920E-02 0.  1.
    10030    2    1    2    0    0  0.00000000000E+00  0.00000000000E+00  0.68847445318E+03  0.37000278447E+04  0.36354104278E+04 0.  0.
        2    1    3    3  502    0  0.34488767394E+03  0.12767129092E+04 -0.92496827235E+03  0.16138493316E+04  0.25500000920E-02 0.  1.
       -2    1    3    3    0  502 -0.34488767394E+03 -0.12767129092E+04  0.16134427255E+04  0.20861785131E+04  0.25500000920E-02 0. -1.
</event>
<event>
 5   0  0.1379425E-06  0.3262191E+04  0.7818609E-02  0.8172583E-01
        2   -1    0    0  501    0  0.00000000000E+00  0.00000000000E+00  0.28482874074E+04  0.28482874074E+04  0.25500000920E-02 0. -1.
       -2   -1    0    0    0  501  0.00000000000E+00  0.00000000000E+00 -0.93406065410E+03  0.93406065410E+03  0.25500000920E-02 0.  1.
    10030    2    1    2    0    0  0.00000000000E+00  0.00000000000E+00  0.19142267533E+04  0.37823480615E+04  0.32621914099E+04 0.  0.
        4    1    3    3  502    0 -0.41763303777E+03 -0.88368111383E+03  0.24711447138E+04  0.26574174445E+04  0.12699999809E+01 0. -1.
       -4    1    3    3    0  502  0.41763303777E+03  0.88368111383E+03 -0.55691796053E+03  0.11249306169E+04  0.12699999809E+01 0.  1.
</event>
<event>
 5   0  0.5071661E-07  0.2511716E+04  0.7818609E-02  0.8398823E-01
       -1   -1    0    0    0  501  0.00000000000E+00  0.00000000000E+00  0.98160096850E+03  0.98160096851E+03  0.50400001928E-02 0. -1.
        1   -1    0    0  501    0  0.00000000000E+00  0.00000000000E+00 -0.16067422738E+04  0.16067422738E+04  0.50400001928E-02 0.  1.
    10030    2    1    2    0    0  0.00000000000E+00  0.00000000000E+00 -0.62514130528E+03  0.25883432423E+04  0.25117163631E+04 0.  0.
        1    1    3    3  502    0 -0.74349592527E+03  0.10088641498E+04 -0.39620515867E+03  0.13143711772E+04  0.50400001928E-02 0.  1.
       -1    1    3    3    0  502  0.74349592527E+03 -0.10088641498E+04 -0.22893614661E+03  0.12739720652E+04  0.50400001928E-02 0. -1.
</event>
<event>
 5   0  0.1444091E-06  0.3254201E+04  0.7818609E-02  0.8174648E-01
       -2   -1    0    0    0  501  0.00000000000E+00  0.00000000000E+00  0.13752736301E+04  0.13752736301E+04  0.25500000920E-02 0.  1.
        2   -1    0    0  501    0  0.00000000000E+00  0.00000000000E+00 -0.19250391194E+04  0.19250391194E+04  0.25500000920E-02 0. -1.
    10030    2    1    2    0    0  0.00000000000E+00  0.00000000000E+00 -0.54976548925E+03  0.33003127495E+04  0.32542006931E+04 0.  0.
        1    1    3    3  502    0 -0.15207702813E+04 -0.56170382451E+03 -0.41541795893E+03  0.16735667048E+04  0.50400001928E-02 0.  1.
       -1    1    3    3    0  502  0.15207702813E+04  0.56170382451E+03 -0.13434753032E+03  0.16267460447E+04  0.50400001928E-02 0. -1.
</event>
<event>
 5   0  0.4811500E-07  0.3578551E+04  0.7818609E-02  0.8095423E-01
       -1   -1    0    0    0  501  0.00000000000E+00  0.00000000000E+00  0.28729074217E+04  0.28729074217E+04  0.50400001928E-02 0. -1.
        1   -1    0    0  501    0  0.00000000000E+00  0.00000000000E+00 -0.11143783899E+04  0.11143783899E+04  0.50400001928E-02 0.  1.
    10030    2    1    2    0    0  0.00000000000E+00  0.00000000000E+00  0.17585290318E+04  0.39872858116E+04  0.35785505149E+04 0.  0.
        2    1    3    3  502    0  0.12712440096E+04 -0.12486455475E+03  0.22753106560E+04  0.26093468666E+04  0.25500000920E-02 0. -1.
       -2    1    3    3    0  502 -0.12712440096E+04  0.12486455475E+03 -0.51678162419E+03  0.13779389450E+04  0.25500000920E-02 0.  1.
</event>
<event>
 5   0  0.4811500E-07  0.3579743E+04  0.7818609E-02  0.8095148E-01
        1   -1    0    0  501    0  0.00000000000E+00  0.00000000000E+00  0.13809182796E+04  0.13809182796E+04  0.50400001928E-02 0.  1.
       -1   -1    0    0    0  501  0.00000000000E+00  0.00000000000E+00 -0.23199340635E+04  0.23199340635E+04  0.50400001928E-02 0. -1.
    10030    2    1    2    0    0  0.00000000000E+00  0.00000000000E+00 -0.93901578387E+03  0.37008523431E+04  0.35797426476E+04 0.  0.
        4    1    3    3  502    0 -0.65719555987E+03  0.68749882977E+03 -0.20370770849E+04  0.22481648755E+04  0.12699999809E+01 0. -1.
       -4    1    3    3    0  502  0.65719555987E+03 -0.68749882977E+03  0.10980613010E+04  0.14526874676E+04  0.12699999809E+01 0.  1.
</event>
<event>
 5   0  0.5071661E-07  0.3591105E+04  0.7818609E-02  0.8092532E-01
       -1   -1    0    0    0  501  0.00000000000E+00  0.00000000000E+00  0.12881598013E+04  0.12881598013E+04  0.50400001928E-02 0.  1.
        1   -1    0    0  501    0  0.00000000000E+00  0.00000000000E+00 -0.25028022888E+04  0.25028022888E+04  0.50400001928E-02 0. -1.
    10030    2    1    2    0    0  0.00000000000E+00  0.00000000000E+00 -0.12146424875E+04  0.37909620901E+04  0.35911052889E+04 0.  0.
        1    1    3    3  502    0 -0.11834851694E+04  0.13492619036E+04 -0.66382057505E+03  0.19135837026E+04  0.50400001928E-02 0. -1.
       -1    1    3    3    0  502  0.11834851694E+04 -0.13492619036E+04 -0.55082191241E+03  0.18773783875E+04  0.50400001928E-02 0.  1.
</event>
<event>
 5   0  0.5071661E-07  0.3577291E+04  0.7818609E-02  0.8095713E-01
        1   -1    0    0  501    0  0.00000000000E+00  0.00000000000E+00  0.25887830034E+04  0.25887830034E+04  0.50400001928E-02 0.  1.
       -1   -1    0    0    0  501  0.00000000000E+00  0.00000000000E+00 -0.12358133555E+04  0.12358133555E+04  0.50400001928E-02 0. -1.
    10030    2    1    2    0    0  0.00000000000E+00  0.00000000000E+00  0.13529696480E+04  0.38245963589E+04  0.35772909360E+04 0.  0.
        1    1    3    3  502    0  0.16989146421E+04 -0.25633378513E+03  0.14488356050E+03  0.17242416352E+04  0.50400001928E-02 0. -1.
       -1    1    3    3    0  502 -0.16989146421E+04  0.25633378513E+03  0.12080860875E+04  0.21003547237E+04  0.50400001928E-02 0.  1.
</event>
<event>
 5   0  0.5071661E-07  0.3722287E+04  0.7818609E-02  0.8063041E-01
       -1   -1    0    0    0  501  0.00000000000E+00  0.00000000000E+00  0.16782720212E+04  0.16782720212E+04  0.50400001928E-02 0.  1.
        1   -1    0    0  501    0  0.00000000000E+00  0.00000000000E+00 -0.20639413748E+04  0.20639413748E+04  0.50400001928E-02 0. -1.
    10030    2    1    2    0    0  0.00000000000E+00  0.00000000000E+00 -0.38566935365E+03  0.37422133960E+04  0.37222869651E+04 0.  0.
        1    1    3    3  502    0 -0.51396108138E+03 -0.17772103219E+04  0.11285567050E+02  0.18500702380E+04  0.50400001928E-02 0.  1.
       -1    1    3    3    0  502  0.51396108138E+03  0.17772103219E+04 -0.39695492070E+03  0.18921431580E+04  0.50400001928E-02 0. -1.
</event>
<event>
 5   0  0.4811500E-07  0.2935428E+04  0.7818609E-02  0.8262414E-01
       -1   -1    0    0    0  501  0.00000000000E+00  0.00000000000E+00  0.19832025868E+04  0.19832025868E+04  0.50400001928E-02 0.  1.
        1   -1    0    0  501    0  0.00000000000E+00  0.00000000000E+00 -0.10862147563E+04  0.10862147563E+04  0.50400001928E-02 0. -1.
    10030    2    1    2    0    0  0.00000000000E+00  0.00000000000E+00  0.89698783053E+03  0.30694173432E+04  0.29354276789E+04 0.  0.
        2    1    3    3  502    0  0.12414815497E+04 -0.17386801344E+03 -0.34968204037E+03  0.13014545915E+04  0.25500000920E-02 0. -1.
       -2    1    3    3    0  502 -0.12414815497E+04  0.17386801344E+03  0.12466698709E+04  0.17679627517E+04  0.25500000920E-02 0.  1.
</event>
<event>
 5   0  0.4811500E-07  0.3413628E+04  0.7818609E-02  0.8134570E-01
       -1   -1    0    0    0  501  0.00000000000E+00  0.00000000000E+00  0.19525882171E+04  0.19525882171E+04  0.50400001928E-02 0. -1.
        1   -1    0    0  501    0  0.00000000000E+00  0.00000000000E+00 -0.14919757094E+04  0.14919757094E+04  0.50400001928E-02 0.  1.
    10030    2    1    2    0    0  0.00000000000E+00  0.00000000000E+00  0.46061250774E+03  0.34445639265E+04  0.34136280936E+04 0.  0.
        4    1    3    3  502    0  0.61050346302E+02 -0.11112479728E+04 -0.10754897131E+04  0.15476688721E+04  0.12699999809E+01 0.  1.
       -4    1    3    3    0  502 -0.61050346302E+02  0.11112479728E+04  0.15361022208E+04  0.18968950544E+04  0.12699999809E+01 0. -1.
</event>
<event>
 5   0  0.1468942E-06  0.3588145E+04  0.7818609E-02  0.8093213E-01
        2   -1    0    0  501    0  0.00000000000E+00  0.00000000000E+00  0.20994403750E+04  0.20994403750E+04  0.25500000920E-02 0.  1.
       -2   -1    0    0    0  501  0.00000000000E+00  0.00000000000E+00 -0.15331211433E+04  0.15331211433E+04  0.25500000920E-02 0. -1.
    10030    2    1    2    0    0  0.00000000000E+00  0.00000000000E+00  0.56631923175E+03  0.36325615183E+04  0.35881451632E+04 0.  0.
        2    1    3    3  502    0  0.37937559553E+03 -0.10790788711E+04  0.16824263528E+04  0.20344275571E+04  0.25500000920E-02 0.  1.
       -2    1    3    3    0  502 -0.37937559553E+03  0.10790788711E+04 -0.11161071210E+04  0.15981339612E+04  0.25500000920E-02 0. -1.
</event>
<event>
 5   0  0.4811500E-07  0.3892072E+04  0.7818609E-02  0.8026680E-01
       -1   -1    0    0    0  501  0.00000000000E+00  0.00000000000E+00  0.12967550453E+04  0.12967550453E+04  0.50400001928E-02 0.  1.
        1   -1    0    0  501    0  0.00000000000E+00  0.00000000000E+00 -0.29204093525E+04  0.29204093525E+04  0.50400001928E-02 0. -1.
    10030    2    1    2    0    0  0.00000000000E+00  0.00000000000E+00 -0.16236543072E+04  0.42171643978E+04  0.38920717168E+04 0.  0.
        2    1    3    3  502    0  0.11920633188E+04 -0.16349926956E+03  0.84540539945E+03  0.14705295837E+04  0.25500000920E-02 0.  1.
       -2    1    3    3    0  502 -0.11920633188E+04  0.16349926956E+03 -0.24690597066E+04  0.27466348141E+04  0.25500000920E-02 0. -1.
</event>
<event>
 5   0  0.4811500E-07  0.3550229E+04  0.7818609E-02  0.8101988E-01
       -1   -1    0    0    0  501  0.00000000000E+00  0.00000000000E+00  0.33252406663E+04  0.33252406663E+04  0.50400001928E-02 0.  1.
        1   -1    0    0  501    0  0.00000000000E+00  0.00000000000E+00 -0.94761023716E+03  0.94761023718E+03  0.50400001928E-02 0. -1.
    10030    2    1    2    0    0  0.00000000000E+00  0.00000000000E+00  0.23776304291E+04  0.42728509034E+04  0.35502293427E+04 0.  0.
        5    1    3    3  502    0 -0.97420934924E+03  0.84787885110E+03  0.26544843658E+04  0.29519979235E+04  0.46999998093E+01 0.  1.
       -5    1    3    3    0  502  0.97420934924E+03 -0.84787885110E+03 -0.27685393669E+03  0.13208529799E+04  0.46999998093E+01 0. -1.
</event>
<event>
 5   0  0.1379425E-06  0.3365689E+04  0.7818609E-02  0.8146379E-01
       -2   -1    0    0    0  501  0.00000000000E+00  0.00000000000E+00  0.97696036153E+03  0.97696036153E+03  0.25500000920E-02 0.  1.
        2   -1    0    0  501    0  0.00000000000E+00  0.00000000000E+00 -0.28987512647E+04  0.28987512647E+04  0.25500000920E-02 0. -1.
    10030    2    1    2    0    0  0.00000000000E+00  0.00000000000E+00 -0.19217909032E+04  0.38757116262E+04  0.33656886865E+04 0.  0.
        4    1    3    3  502    0  0.90799929602E+03  0.13908282008E+04 -0.12722313969E+04  0.20922332914E+04  0.12699999809E+01 0. -1.
       -4    1    3    3    0  502 -0.90799929602E+03 -0.13908282008E+04 -0.64955950630E+03  0.17834783348E+04  0.12699999809E+01 0.  1.
</event>
<event>
 5   0  0.1444091E-06  0.3517900E+04  0.7818609E-02  0.8109561E-01
        2   -1    0    0  501    0  0.00000000000E+00  0.00000000000E+00  0.12363886313E+04  0.12363886313E+04  0.25500000920E-02 0.  1.
       -2   -1    0    0    0  501  0.00000000000E+00  0.00000000000E+00 -0.25023729911E+04  0.25023729911E+04  0.25500000920E-02 0. -1.
    10030    2    1    2    0    0  0.00000000000E+00  0.00000000000E+00 -0.12659843598E+04  0.37387616224E+04  0.35179002359E+04 0.  0.
        1    1    3    3  502    0  0.97162579497E+02  0.11311814217E+04 -0.20608009737E+04  0.23528520202E+04  0.50400001928E-02 0. -1.
       -1    1    3    3    0  502 -0.97162579497E+02 -0.11311814217E+04  0.79481661389E+03  0.13859096022E+04  0.50400001928E-02 0.  1.
</event>
<event>
 5   0  0.1468942E-06  0.3390774E+04  0.7818609E-02  0.8140174E-01
        2   -1    0    0  501    0  0.00000000000E+00  0.00000000000E+00  0.21293107049E+04  0.21293107049E+04  0.25500000920E-02 0.  1.
       -2   -1    0    0    0  501  0.00000000000E+00  0.00000000000E+00 -0.13498911044E+04  0.13498911044E+04  0.25500000920E-02 0. -1.
    10030    2    1    2    0    0  0.00000000000E+00  0.00000000000E+00  0.77941960048E+03  0.34792018093E+04  0.33907742945E+04 0.  0.
        2    1    3    3  502    0 -0.59774719011E+03  0.79933414705E+03  0.17958874373E+04  0.20546163801E+04  0.25500000920E-02 0.  1.
       -2    1    3    3    0  502  0.59774719011E+03 -0.79933414705E+03 -0.10164678368E+04  0.14245854292E+04  0.25500000920E-02 0. -1.
</event>
<event>
 5   0  0.1491854E-06  0.3657344E+04  0.7818609E-02  0.8077481E-01
        2   -1    0    0  501    0  0.00000000000E+00  0.00000000000E+00  0.32363527368E+04  0.32363527368E+04  0.25500000920E-02 0. -1.
       -2   -1    0    0    0  501  0.00000000000E+00  0.00000000000E+00 -0.10332744594E+04  0.10332744594E+04  0.25500000920E-02 0.  1.
    10030    2    1    2    0    0  0.00000000000E+00  0.00000000000E+00  0.22030782773E+04  0.42696271962E+04  0.36573436396E+04 0.  0.
        5    1    3    3  502    0 -0.10544812338E+04 -0.82206357110E+03  0.25579058908E+04  0.28862820070E+04  0.46999998093E+01 0. -1.
       -5    1    3    3    0  502  0.10544812338E+04  0.82206357110E+03 -0.35482761350E+03  0.13833451892E+04  0.46999998093E+01 0.  1.
</event>
<event>
 5   0  0.4811500E-07  0.3640925E+04  0.7818609E-02  0.8081181E-01
        1   -1    0    0  501    0  0.00000000000E+00  0.00000000000E+00  0.14419932936E+04  0.14419932936E+04  0.50400001928E-02 0. -1.
       -1   -1    0    0    0  501  0.00000000000E+00  0.00000000000E+00 -0.22982658776E+04  0.22982658776E+04  0.50400001928E-02 0.  1.
    10030    2    1    2    0    0  0.00000000000E+00  0.00000000000E+00 -0.85627258399E+03  0.37402591711E+04  0.36409251474E+04 0.  0.
        4    1    3    3  502    0 -0.15073576414E+04  0.88037923143E+03 -0.95884258937E+03  0.19916263140E+04  0.12699999809E+01 0.  1.
       -4    1    3    3    0  502  0.15073576414E+04 -0.88037923143E+03  0.10257000538E+03  0.17486328572E+04  0.12699999809E+01 0. -1.
</event>
<event>
 5   0  0.1444091E-06  0.3406933E+04  0.7818609E-02  0.8136207E-01
       -2   -1    0    0    0  501  0.00000000000E+00  0.00000000000E+00  0.28092767639E+04  0.28092767639E+04  0.25500000920E-02 0.  1.
        2   -1    0    0  501    0  0.00000000000E+00  0.00000000000E+00 -0.10329344578E+04  0.10329344578E+04  0.25500000920E-02 0. -1.
    10030    2    1    2    0    0  0.00000000000E+00  0.00000000000E+00  0.17763423061E+04  0.38422112216E+04  0.34069333841E+04 0.  0.
        1    1    3    3  502    0 -0.11089538143E+04  0.18033378420E+03  0.23321914447E+04  0.25887092867E+04  0.50400001928E-02 0.  1.
       -1    1    3    3    0  502  0.11089538143E+04 -0.18033378420E+03 -0.55584913865E+03  0.12535019350E+04  0.50400001928E-02 0. -1.
</event>
<event>
 5   0  0.5071661E-07  0.3495364E+04  0.7818609E-02  0.8114889E-01
       -1   -1    0    0    0  501  0.00000000000E+00  0.00000000000E+00  0.14928923706E+04  0.14928923707E+04  0.50400001928E-02 0.  1.
        1   -1    0    0  501    0  0.00000000000E+00  0.00000000000E+00 -0.20459563104E+04  0.20459563104E+04  0.50400001928E-02 0. -1.
    10030    2    1    2    0    0  0.00000000000E+00  0.00000000000E+00 -0.55306393976E+03  0.35388486811E+04  0.34953641106E+04 0.  0.
        1    1    3    3  502    0  0.11907114620E+04 -0.73567847136E+03 -0.13361544767E+04  0.19350259390E+04  0.50400001928E-02 0. -1.
       -1    1    3    3    0  502 -0.11907114620E+04  0.73567847136E+03  0.78309053695E+03  0.16038227421E+04  0.50400001928E-02 0.  1.
</event>
<event>
 5   0  0.4811500E-07  0.2248112E+04  0.7818609E-02  0.8498666E-01
        4   -1    0    0  501    0  0.00000000000E+00  0.00000000000E+00  0.74135662238E+03  0.74135771019E+03  0.12699999809E+01 0. -1.
       -4   -1    0    0    0  501  0.00000000000E+00  0.00000000000E+00 -0.17043074873E+04  0.17043079604E+04  0.12699999809E+01 0.  1.
    10030    2    1    2    0    0  0.00000000000E+00  0.00000000000E+00 -0.96295086487E+03  0.24456656706E+04  0.22481116975E+04 0.  0.
        5    1    3    3  502    0 -0.54657858586E+01 -0.10376396703E+04 -0.11350181737E+02  0.10377267833E+04  0.46999998093E+01 0.  1.
       -5    1    3    3    0  502  0.54657858586E+01  0.10376396703E+04 -0.95160068313E+03  0.14079388873E+04  0.46999998093E+01 0. -1.
</event>
<event>
 5   0  0.5071661E-07  0.3491064E+04  0.7818609E-02  0.8115911E-01
        1   -1    0    0  501    0  0.00000000000E+00  0.00000000000E+00  0.11872572375E+04  0.11872572375E+04  0.50400001928E-02 0. -1.
       -1   -1    0    0    0  501  0.00000000000E+00  0.00000000000E+00 -0.25663204945E+04  0.25663204945E+04  0.50400001928E-02 0.  1.
    10030    2    1    2    0    0  0.00000000000E+00  0.00000000000E+00 -0.13790632571E+04  0.37535777320E+04  0.34910643539E+04 0.  0.
        1    1    3    3  502    0 -0.16693582318E+04  0.36162519980E+03 -0.30283033329E+03  0.17347149339E+04  0.50400001928E-02 0. -1.
       -1    1    3    3    0  502  0.16693582318E+04 -0.36162519980E+03 -0.10762329238E+04  0.20188627981E+04  0.50400001928E-02 0.  1.
</event>
<event>
 5   0  0.4811500E-07  0.2943246E+04  0.7818609E-02  0.8260126E-01
        1   -1    0    0  501    0  0.00000000000E+00  0.00000000000E+00  0.15104425145E+04  0.15104425145E+04  0.50400001928E-02 0. -1.
       -1   -1    0    0    0  501  0.00000000000E+00  0.00000000000E+00 -0.14338008295E+04  0.14338008295E+04  0.50400001928E-02 0.  1.
    10030    2    1    2    0    0  0.00000000000E+00  0.00000000000E+00  0.76641685069E+02  0.29442433440E+04  0.29432456440E+04 0.  0.
        5    1    3    3  502    0 -0.88769928106E+03 -0.11130988198E+04 -0.33416628563E+03  0.14624254486E+04  0.46999998093E+01 0.  1.
       -5    1    3    3    0  502  0.88769928106E+03  0.11130988198E+04  0.41080797070E+03  0.14818178954E+04  0.46999998093E+01 0. -1.
</event>
<event>
 5   0  0.4811500E-07  0.3442695E+04  0.7818609E-02  0.8127506E-01
        1   -1    0    0  501    0  0.00000000000E+00  0.00000000000E+00  0.15086985235E+04  0.15086985235E+04  0.50400001928E-02 0. -1.
       -1   -1    0    0    0  501  0.00000000000E+00  0.00000000000E+00 -0.19639686307E+04  0.19639686307E+04  0.50400001928E-02 0.  1.
    10030    2    1    2    0    0  0.00000000000E+00  0.00000000000E+00 -0.45527010718E+03  0.34726671541E+04  0.34426946267E+04 0.  0.
        2    1    3    3  502    0  0.64237341097E+03 -0.11404636245E+04 -0.13552835492E+04  0.18841694130E+04  0.25500000920E-02 0.  1.
       -2    1    3    3    0  502 -0.64237341097E+03  0.11404636245E+04  0.90001344201E+03  0.15884977412E+04  0.25500000920E-02 0. -1.
</event>
<event>
 5   0  0.1444091E-06  0.2281140E+04  0.7818609E-02  0.8485395E-01
       -2   -1    0    0    0  501  0.00000000000E+00  0.00000000000E+00  0.15756962881E+04  0.15756962881E+04  0.25500000920E-02 0.  1.
        2   -1    0    0  501    0  0.00000000000E+00  0.00000000000E+00 -0.82560285596E+03  0.82560285597E+03  0.25500000920E-02 0. -1.
    10030    2    1    2    0    0  0.00000000000E+00  0.00000000000E+00  0.75009343213E+03  0.24012991441E+04  0.22811395009E+04 0.  0.
        1    1    3    3  502    0 -0.10839682647E+04 -0.34090237872E+03  0.47871104740E+03  0.12330311827E+04  0.50400001928E-02 0.  1.
       -1    1    3    3    0  502  0.10839682647E+04  0.34090237872E+03  0.27138238473E+03  0.11682679613E+04  0.50400001928E-02 0. -1.
</event>
<event>
 5   0  0.1505671E-06  0.2722632E+04  0.7818609E-02  0.8327699E-01
        2   -1    0    0  501    0  0.00000000000E+00  0.00000000000E+00  0.16790622853E+04  0.16790622853E+04  0.25500000920E-02 0. -1.
       -2   -1    0    0    0  501  0.00000000000E+00  0.00000000000E+00 -0.11036999437E+04  0.11036999437E+04  0.25500000920E-02 0.  1.
    10030    2    1    2    0    0  0.00000000000E+00  0.00000000000E+00  0.57536234163E+03  0.27827622290E+04  0.27226317781E+04 0.  0.
        3    1    3    3  502    0  0.39966286039E+03 -0.13583723668E+03 -0.10351195979E+04  0.11178795771E+04  0.10100000352E+00 0.  1.
       -3    1    3    3    0  502 -0.39966286039E+03  0.13583723668E+03  0.16104819395E+04  0.16648826519E+04  0.10100000352E+00 0. -1.
</event>
<event>
 5   0  0.5071661E-07  0.3661814E+04  0.7818609E-02  0.8076477E-01
       -1   -1    0    0    0  501  0.00000000000E+00  0.00000000000E+00  0.21680384788E+04  0.21680384788E+04  0.50400001928E-02 0.  1.
        1   -1    0    0  501    0  0.00000000000E+00  0.00000000000E+00 -0.15461995853E+04  0.15461995853E+04  0.50400001928E-02 0. -1.
    10030    2    1    2    0    0  0.00000000000E+00  0.00000000000E+00  0.62183889356E+03  0.37142380641E+04  0.36618138657E+04 0.  0.
        1    1    3    3  502    0 -0.69354999368E+02  0.90492084025E+03  0.19238192375E+04  0.21271512174E+04  0.50400001928E-02 0.  1.
       -1    1    3    3    0  502  0.69354999368E+02 -0.90492084025E+03 -0.13019803439E+04  0.15870868467E+04  0.50400001928E-02 0. -1.
</event>
<event>
 5   0  0.4811500E-07  0.3611990E+04  0.7818609E-02  0.8087751E-01
       -1   -1    0    0    0  501  0.00000000000E+00  0.00000000000E+00  0.15037002833E+04  0.15037002834E+04  0.50400001928E-02 0.  1.
        1   -1    0    0  501    0  0.00000000000E+00  0.00000000000E+00 -0.21690609628E+04  0.21690609628E+04  0.50400001928E-02 0. -1.
    10030    2    1    2    0    0  0.00000000000E+00  0.00000000000E+00 -0.66536067945E+03  0.36727612462E+04  0.36119898031E+04 0.  0.
        2    1    3    3  502    0  0.10866868370E+04 -0.13847719108E+04  0.78016312928E+02  0.17619784538E+04  0.25500000920E-02 0.  1.
       -2    1    3    3    0  502 -0.10866868370E+04  0.13847719108E+04 -0.74337699238E+03  0.19107827923E+04  0.25500000920E-02 0. -1.
</event>
<event>
 5   0  0.4811500E-07  0.3585176E+04  0.7818609E-02  0.8093896E-01
       -3   -1    0    0    0  501  0.00000000000E+00  0.00000000000E+00  0.23701095909E+04  0.23701095930E+04  0.10100000352E+00 0.  1.
        3   -1    0    0  501    0  0.00000000000E+00  0.00000000000E+00 -0.13557906236E+04  0.13557906273E+04  0.10100000352E+00 0. -1.
    10030    2    1    2    0    0  0.00000000000E+00  0.00000000000E+00  0.10143189673E+04  0.37259002203E+04  0.35851763533E+04 0.  0.
        1    1    3    3  502    0 -0.87593853025E+03 -0.13476666137E+04  0.13319735788E+04  0.20874930479E+04  0.50400001928E-02 0.  1.
       -1    1    3    3    0  502  0.87593853025E+03  0.13476666137E+04 -0.31765461150E+03  0.16384071724E+04  0.50400001928E-02 0. -1.
</event>
<event>
 5   0  0.4811500E-07  0.3584193E+04  0.7818609E-02  0.8094122E-01
        1   -1    0    0  501    0  0.00000000000E+00  0.00000000000E+00  0.10082105204E+04  0.10082105204E+04  0.50400001928E-02 0.  1.
       -1   -1    0    0    0  501  0.00000000000E+00  0.00000000000E+00 -0.31854558092E+04  0.31854558092E+04  0.50400001928E-02 0. -1.
    10030    2    1    2    0    0  0.00000000000E+00  0.00000000000E+00 -0.21772452888E+04  0.41936663296E+04  0.35841931082E+04 0.  0.
        4    1    3    3  502    0 -0.12937109659E+03 -0.37069267174E+03 -0.31345148999E+04  0.31590085800E+04  0.12699999809E+01 0. -1.
       -4    1    3    3    0  502  0.12937109659E+03  0.37069267174E+03  0.95726961118E+03  0.10346577496E+04  0.12699999809E+01 0.  1.
</event>
<event>
 5   0  0.4811500E-07  0.2595322E+04  0.7818609E-02  0.8369792E-01
        1   -1    0    0  501    0  0.00000000000E+00  0.00000000000E+00  0.18642194222E+04  0.18642194222E+04  0.50400001928E-02 0. -1.
       -1   -1    0    0    0  501  0.00000000000E+00  0.00000000000E+00 -0.90328639312E+03  0.90328639313E+03  0.50400001928E-02 0.  1.
    10030    2    1    2    0    0  0.00000000000E+00  0.00000000000E+00  0.96093302910E+03  0.27675058154E+04  0.25953219746E+04 0.  0.
        2    1    3    3  502    0  0.11345319164E+03  0.78128627508E+03  0.15786683173E+04  0.17650704027E+04  0.25500000920E-02 0. -1.
       -2    1    3    3    0  502 -0.11345319164E+03 -0.78128627508E+03 -0.61773528819E+03  0.10024354127E+04  0.25500000920E-02 0.  1.
</event>
<event>
 5   0  0.4811500E-07  0.3529826E+04  0.7818609E-02  0.8106758E-01
       -1   -1    0    0    0  501  0.00000000000E+00  0.00000000000E+00  0.23948806958E+04  0.23948806958E+04  0.50400001928E-02 0.  1.
        1   -1    0    0  501    0  0.00000000000E+00  0.00000000000E+00 -0.13006567240E+04  0.13006567240E+04  0.50400001928E-02 0. -1.
    10030    2    1    2    0    0  0.00000000000E+00  0.00000000000E+00  0.10942239718E+04  0.36955374198E+04  0.35298258768E+04 0.  0.
        3    1    3    3  502    0  0.65972400164E+03 -0.68611451047E+03  0.21031320024E+04  0.23084958544E+04  0.10100000352E+00 0.  1.
       -3    1    3    3    0  502 -0.65972400164E+03  0.68611451047E+03 -0.10089080306E+04  0.13870415655E+04  0.10100000352E+00 0. -1.
</event>
<event>
 5   0  0.1444091E-06  0.2667035E+04  0.7818609E-02  0.8345781E-01
       -2   -1    0    0    0  501  0.00000000000E+00  0.00000000000E+00  0.74402086606E+03  0.74402086607E+03  0.25500000920E-02 0. -1.
        2   -1    0    0  501    0  0.00000000000E+00  0.00000000000E+00 -0.23900789050E+04  0.23900789050E+04  0.25500000920E-02 0.  1.
    10030    2    1    2    0    0  0.00000000000E+00  0.00000000000E+00 -0.16460580390E+04  0.31340997711E+04  0.26670347406E+04 0.  0.
        1    1    3    3  502    0  0.45882222911E+02 -0.21837264190E+03  0.72192628820E+03  0.75562514167E+03  0.50400001928E-02 0. -1.
       -1    1    3    3    0  502 -0.45882222911E+02  0.21837264190E+03 -0.23679843272E+04  0.23784746294E+04  0.50400001928E-02 0.  1.
</event>
<event>
 5   0  0.4811500E-07  0.3621378E+04  0.7818609E-02  0.8085612E-01
       -1   -1    0    0    0  501  0.00000000000E+00  0.00000000000E+00  0.12676658314E+04  0.12676658315E+04  0.50400001928E-02 0.  1.
        1   -1    0    0  501    0  0.00000000000E+00  0.00000000000E+00 -0.25863247505E+04  0.25863247505E+04  0.50400001928E-02 0. -1.
    10030    2    1    2    0    0  0.00000000000E+00  0.00000000000E+00 -0.13186589191E+04  0.38539905820E+04  0.36213784753E+04 0.  0.
        5    1    3    3  502    0  0.40729386931E+03  0.48861248814E+03  0.11448336805E+04  0.13096933632E+04  0.46999998093E+01 0.  1.
       -5    1    3    3    0  502 -0.40729386931E+03 -0.48861248814E+03 -0.24634925996E+04  0.25442972188E+04  0.46999998093E+01 0. -1.
</event>
<event>
 5   0  0.1468942E-06  0.3589463E+04  0.7818609E-02  0.8092910E-01
       -2   -1    0    0    0  501  0.00000000000E+00  0.00000000000E+00  0.15192484084E+04  0.15192484084E+04  0.25500000920E-02 0.  1.
        2   -1    0    0  501    0  0.00000000000E+00  0.00000000000E+00 -0.21201675315E+04  0.21201675315E+04  0.25500000920E-02 0. -1.
    10030    2    1    2    0    0  0.00000000000E+00  0.00000000000E+00 -0.60091912311E+03  0.36394159399E+04  0.35894629948E+04 0.  0.
        2    1    3    3  502    0  0.16639431703E+04  0.65963140916E+03 -0.43359061947E+03  0.18416897934E+04  0.25500000920E-02 0.  1.
       -2    1    3    3    0  502 -0.16639431703E+04 -0.65963140916E+03 -0.16732850364E+03  0.17977261465E+04  0.25500000920E-02 0. -1.
</event>
<event>
 5   0  0.4811500E-07  0.2419943E+04  0.7818609E-02  0.8432075E-01
        1   -1    0    0  501    0  0.00000000000E+00  0.00000000000E+00  0.23921984899E+04  0.23921984899E+04  0.50400001928E-02 0.  1.
       -1   -1    0    0    0  501  0.00000000000E+00  0.00000000000E+00 -0.61200239687E+03  0.61200239689E+03  0.50400001928E-02 0. -1.
    10030    2    1    2    0    0  0.00000000000E+00  0.00000000000E+00  0.17801960930E+04  0.30042008868E+04  0.24199431478E+04 0.  0.
        2    1    3    3  502    0 -0.34246853216E+02 -0.28093582219E+03 -0.57033417555E+03  0.63669369005E+03  0.25500000920E-02 0. -1.
       -2    1    3    3    0  502  0.34246853216E+02  0.28093582219E+03  0.23505302685E+04  0.23675071967E+04  0.25500000920E-02 0.  1.
</event>
<event>
 5   0  0.1505671E-06  0.3539895E+04  0.7818609E-02  0.8104400E-01
        2   -1    0    0  501    0  0.00000000000E+00  0.00000000000E+00  0.28537018739E+04  0.28537018739E+04  0.25500000920E-02 0. -1.
       -2   -1    0    0    0  501  0.00000000000E+00  0.00000000000E+00 -0.10977717891E+04  0.10977717891E+04  0.25500000920E-02 0.  1.
    10030    2    1    2    0    0  0.00000000000E+00  0.00000000000E+00  0.17559300848E+04  0.39514736630E+04  0.35398945814E+04 0.  0.
        3    1    3    3  502    0 -0.32815233630E+02  0.17292731981E+04  0.45843393145E+03  0.17893083337E+04  0.10100000352E+00 0.  1.
       -3    1    3    3    0  502  0.32815233630E+02 -0.17292731981E+04  0.12974961533E+04  0.21621653293E+04  0.10100000352E+00 0. -1.
</event>
<event>
 5   0  0.5071661E-07  0.3668498E+04  0.7818609E-02  0.8074979E-01
       -1   -1    0    0    0  501  0.00000000000E+00  0.00000000000E+00  0.19533226014E+04  0.19533226014E+04  0.50400001928E-02 0.  1.
        1   -1    0    0  501    0  0.00000000000E+00  0.00000000000E+00 -0.17224343520E+04  0.17224343521E+04  0.50400001928E-02 0. -1.
    10030    2    1    2    0    0  0.00000000000E+00  0.00000000000E+00  0.23088824936E+03  0.36757569535E+04  0.36684983027E+04 0.  0.
        1    1    3    3  502    0  0.14712922167E+03  0.65022253762E+03 -0.15967475809E+04  0.17303292153E+04  0.50400001928E-02 0. -1.
       -1    1    3    3    0  502 -0.14712922167E+03 -0.65022253762E+03  0.18276358303E+04  0.19454277381E+04  0.50400001928E-02 0.  1.
</event>
<event>
 5   0  0.1505671E-06  0.3647046E+04  0.7818609E-02  0.8079799E-01
       -2   -1    0    0    0  501  0.00000000000E+00  0.00000000000E+00  0.27755470536E+04  0.27755470536E+04  0.25500000920E-02 0. -1.
        2   -1    0    0  501    0  0.00000000000E+00  0.00000000000E+00 -0.11980470248E+04  0.11980470248E+04  0.25500000920E-02 0.  1.
    10030    2    1    2    0    0  0.00000000000E+00  0.00000000000E+00  0.15775000288E+04  0.39735940785E+04  0.36470458675E+04 0.  0.
        3    1    3    3  502    0  0.64782249863E+03 -0.14232948959E+04  0.18107070932E+04  0.23925096735E+04  0.10100000352E+00 0. -1.
       -3    1    3    3    0  502 -0.64782249863E+03  0.14232948959E+04 -0.23320706440E+03  0.15810844049E+04  0.10100000352E+00 0.  1.
</event>
<event>
 5   0  0.4811500E-07  0.3570494E+04  0.7818609E-02  0.8097284E-01
        1   -1    0    0  501    0  0.00000000000E+00  0.00000000000E+00  0.10531108047E+04  0.10531108047E+04  0.50400001928E-02 0.  1.
       -1   -1    0    0    0  501  0.00000000000E+00  0.00000000000E+00 -0.30263741857E+04  0.30263741857E+04  0.50400001928E-02 0. -1.
    10030    2    1    2    0    0  0.00000000000E+00  0.00000000000E+00 -0.19732633810E+04  0.40794849904E+04  0.35704942817E+04 0.  0.
        3    1    3    3  502    0  0.14352091734E+04  0.77475123669E+03 -0.18161000301E+04  0.24409596842E+04  0.10100000352E+00 0. -1.
       -3    1    3    3    0  502 -0.14352091734E+04 -0.77475123669E+03 -0.15716335090E+03  0.16385253062E+04  0.10100000352E+00 0.  1.
</event>
<event>
 5   0  0.4811500E-07  0.2298847E+04  0.7818609E-02  0.8478376E-01
        1   -1    0    0  501    0  0.00000000000E+00  0.00000000000E+00  0.21326482331E+04  0.21326482331E+04  0.50400001928E-02 0.  1.
       -1   -1    0    0    0  501  0.00000000000E+00  0.00000000000E+00 -0.61949916892E+03  0.61949916894E+03  0.50400001928E-02 0. -1.
    10030    2    1    2    0    0  0.00000000000E+00  0.00000000000E+00  0.15131490642E+04  0.27521474020E+04  0.22988465003E+04 0.  0.
        5    1    3    3  502    0 -0.14167012974E+03  0.10481116861E+04  0.12953657838E+04  0.16723047378E+04  0.46999998093E+01 0.  1.
       -5    1    3    3    0  502  0.14167012974E+03 -0.10481116861E+04  0.21778328039E+03  0.10798426642E+04  0.46999998093E+01 0. -1.
</event>
<event>
 5   0  0.4811500E-07  0.3580545E+04  0.7818609E-02  0.8094963E-01
       -1   -1    0    0    0  501  0.00000000000E+00  0.00000000000E+00  0.14757049610E+04  0.14757049610E+04  0.50400001928E-02 0. -1.
        1   -1    0    0  501    0  0.00000000000E+00  0.00000000000E+00 -0.21718948847E+04  0.21718948847E+04  0.50400001928E-02 0.  1.
    10030    2    1    2    0    0  0.00000000000E+00  0.00000000000E+00 -0.69618992365E+03  0.36475998457E+04  0.35805452413E+04 0.  0.
        3    1    3    3  502    0  0.15586595882E+04 -0.50838033140E+03  0.38454348396E+03  0.16839667380E+04  0.10100000352E+00 0. -1.
       -3    1    3    3    0  502 -0.15586595882E+04  0.50838033140E+03 -0.10807334076E+04  0.19636331077E+04  0.10100000352E+00 0.  1.
</event>
<event>
 5   0  0.1491854E-06  0.3594548E+04  0.7818609E-02  0.8091742E-01
        2   -1    0    0  501    0  0.00000000000E+00  0.00000000000E+00  0.16670417160E+04  0.16670417160E+04  0.25500000920E-02 0. -1.
       -2   -1    0    0    0  501  0.00000000000E+00  0.00000000000E+00 -0.19376806042E+04  0.19376806042E+04  0.25500000920E-02 0.  1.
    10030    2    1    2    0    0  0.00000000000E+00  0.00000000000E+00 -0.27063888824E+03  0.36047223202E+04  0.35945483163E+04 0.  0.
        5    1    3    3  502    0  0.14229552812E+04 -0.92178020986E+03 -0.73340653683E+03  0.18472649312E+04  0.46999998093E+01 0. -1.
       -5    1    3    3    0  502 -0.14229552812E+04  0.92178020986E+03  0.46276764859E+03  0.17574573890E+04  0.46999998093E+01 0.  1.
</event>
<event>
 5   0  0.1444091E-06  0.3738256E+04  0.7818609E-02  0.8059536E-01
       -2   -1    0    0    0  501  0.00000000000E+00  0.00000000000E+00  0.14865284765E+04  0.14865284765E+04  0.25500000920E-02 0.  1.
        2   -1    0    0  501    0  0.00000000000E+00  0.00000000000E+00 -0.23501999863E+04  0.23501999863E+04  0.25500000920E-02 0. -1.
    10030    2    1    2    0    0  0.00000000000E+00  0.00000000000E+00 -0.86367150985E+03  0.38367284628E+04  0.37382558527E+04 0.  0.
        1    1    3    3  502    0 -0.14877226168E+04  0.51538692444E+03  0.60202063674E+03  0.16856367086E+04  0.50400001928E-02 0.  1.
       -1    1    3    3    0  502  0.14877226168E+04 -0.51538692444E+03 -0.14656921466E+04  0.21510917542E+04  0.50400001928E-02 0. -1.
</event>
<event>
 5   0  0.1444091E-06  0.3232568E+04  0.7818609E-02  0.8180269E-01
        2   -1    0    0  501    0  0.00000000000E+00  0.00000000000E+00  0.16361017534E+04  0.16361017534E+04  0.25500000920E-02 0.  1.
       -2   -1    0    0    0  501  0.00000000000E+00  0.00000000000E+00 -0.15967064060E+04  0.15967064060E+04  0.25500000920E-02 0. -1.
    10030    2    1    2    0    0  0.00000000000E+00  0.00000000000E+00  0.39395347337E+02  0.32328081594E+04  0.32325681125E+04 0.  0.
        1    1    3    3  502    0  0.42971868295E+03  0.26797283636E+03  0.15547079244E+04  0.16351098794E+04  0.50400001928E-02 0.  1.
       -1    1    3    3    0  502 -0.42971868295E+03 -0.26797283636E+03 -0.15153125771E+04  0.15976982800E+04  0.50400001928E-02 0. -1.
</event>
<event>
 5   0  0.4811500E-07  0.3468305E+04  0.7818609E-02  0.8121343E-01
       -1   -1    0    0    0  501  0.00000000000E+00  0.00000000000E+00  0.23407408719E+04  0.23407408719E+04  0.50400001928E-02 0.  1.
        1   -1    0    0  501    0  0.00000000000E+00  0.00000000000E+00 -0.12847578982E+04  0.12847578982E+04  0.50400001928E-02 0. -1.
    10030    2    1    2    0    0  0.00000000000E+00  0.00000000000E+00  0.10559829738E+04  0.36254987701E+04  0.34683052477E+04 0.  0.
        2    1    3    3  502    0  0.88468169040E+03  0.12291719180E+04 -0.35514242112E+03  0.15555228820E+04  0.25500000920E-02 0. -1.
       -2    1    3    3    0  502 -0.88468169040E+03 -0.12291719180E+04  0.14111253949E+04  0.20699758881E+04  0.25500000920E-02 0.  1.
</event>
<event>
 5   0  0.1491854E-06  0.3544168E+04  0.7818609E-02  0.8103402E-01
       -2   -1    0    0    0  501  0.00000000000E+00  0.00000000000E+00  0.10788125027E+04  0.10788125027E+04  0.25500000920E-02 0. -1.
        2   -1    0    0  501    0  0.00000000000E+00  0.00000000000E+00 -0.29108686826E+04  0.29108686826E+04  0.25500000920E-02 0.  1.
    10030    2    1    2    0    0  0.00000000000E+00  0.00000000000E+00 -0.18320561800E+04  0.39896811853E+04  0.35441679015E+04 0.  0.
        5    1    3    3  502    0  0.86348341653E+03 -0.12145947922E+04 -0.19954215251E+04  0.24904965916E+04  0.46999998093E+01 0.  1.
       -5    1    3    3    0  502 -0.86348341653E+03  0.12145947922E+04  0.16336534513E+03  0.14991845937E+04  0.46999998093E+01 0. -1.
</event>
<event>
 5   0  0.1468942E-06  0.3831417E+04  0.7818609E-02  0.8039446E-01
       -2   -1    0    0    0  501  0.00000000000E+00  0.00000000000E+00  0.13750272377E+04  0.13750272377E+04  0.25500000920E-02 0. -1.
        2   -1    0    0  501    0  0.00000000000E+00  0.00000000000E+00 -0.26689936008E+04  0.26689936008E+04  0.25500000920E-02 0.  1.
    10030    2    1    2    0    0  0.00000000000E+00  0.00000000000E+00 -0.12939663631E+04  0.40440208384E+04  0.38314169171E+04 0.  0.
        2    1    3    3  502    0 -0.52707197186E+03  0.17360213469E+04 -0.12962285038E+04  0.22297496080E+04  0.25500000920E-02 0.  1.
       -2    1    3    3    0  502  0.52707197186E+03 -0.17360213469E+04  0.22621406430E+01  0.18142712304E+04  0.25500000920E-02 0. -1.
</event>
<event>
 5   0  0.4811500E-07  0.3606442E+04  0.7818609E-02  0.8089018E-01
        1   -1    0    0  501    0  0.00000000000E+00  0.00000000000E+00  0.18956179292E+04  0.18956179292E+04  0.50400001928E-02 0. -1.
       -1   -1    0    0    0  501  0.00000000000E+00  0.00000000000E+00 -0.17153273241E+04  0.17153273241E+04  0.50400001928E-02 0.  1.
    10030    2    1    2    0    0  0.00000000000E+00  0.00000000000E+00  0.18029060513E+03  0.36109452533E+04  0.36064415870E+04 0.  0.
        5    1    3    3  502    0 -0.13140214646E+02 -0.81339103655E+03 -0.15211516130E+04  0.17250223081E+04  0.46999998093E+01 0.  1.
       -5    1    3    3    0  502  0.13140214646E+02  0.81339103655E+03  0.17014422182E+04  0.18859229452E+04  0.46999998093E+01 0. -1.
</event>
<event>
 5   0  0.4811500E-07  0.3589360E+04  0.7818609E-02  0.8092933E-01
        1   -1    0    0  501    0  0.00000000000E+00  0.00000000000E+00  0.20199943204E+04  0.20199943204E+04  0.50400001928E-02 0.  1.
       -1   -1    0    0    0  501  0.00000000000E+00  0.00000000000E+00 -0.15944975390E+04  0.15944975390E+04  0.50400001928E-02 0. -1.
    10030    2    1    2    0    0  0.00000000000E+00  0.00000000000E+00  0.42549678143E+03  0.36144918593E+04  0.35893598162E+04 0.  0.
        4    1    3    3  502    0  0.10785449790E+04 -0.14058331665E+04 -0.74288103798E+02  0.17734560889E+04  0.12699999809E+01 0. -1.
       -4    1    3    3    0  502 -0.10785449790E+04  0.14058331665E+04  0.49978488522E+03  0.18410357705E+04  0.12699999809E+01 0.  1.
</event>
<event>
 5   0  0.4811500E-07  0.3523284E+04  0.7818609E-02  0.8108294E-01
       -1   -1    0    0    0  501  0.00000000000E+00  0.00000000000E+00  0.14219003205E+04  0.14219003205E+04  0.50400001928E-02 0. -1.
        1   -1    0    0  501    0  0.00000000000E+00  0.00000000000E+00 -0.21825594271E+04  0.21825594271E+04  0.50400001928E-02 0.  1.
    10030    2    1    2    0    0  0.00000000000E+00  0.00000000000E+00 -0.76065910660E+03  0.36044597475E+04  0.35232836666E+04 0.  0.
        3    1    3    3  502    0  0.64068875106E+03  0.12466115370E+04  0.71143163504E+03  0.15718324915E+04  0.10100000352E+00 0. -1.
       -3    1    3    3    0  502 -0.64068875106E+03 -0.12466115370E+04 -0.14720907416E+04  0.20326272560E+04  0.10100000352E+00 0.  1.
</event>
<event>
 5   0  0.4811500E-07  0.2323883E+04  0.7818609E-02  0.8468563E-01
        1   -1    0    0  501    0  0.00000000000E+00  0.00000000000E+00  0.11610192783E+04  0.11610192783E+04  0.50400001928E-02 0. -1.
       -1   -1    0    0    0  501  0.00000000000E+00  0.00000000000E+00 -0.11628648804E+04  0.11628648804E+04  0.50400001928E-02 0.  1.
    10030    2    1    2    0    0  0.00000000000E+00  0.00000000000E+00 -0.18456021268E+01  0.23238841587E+04  0.23238834258E+04 0.  0.
        3    1    3    3  502    0  0.33390733576E+03 -0.97662504532E+03  0.53276074340E+03  0.11615182340E+04  0.10100000352E+00 0. -1.
       -3    1    3    3    0  502 -0.33390733576E+03  0.97662504532E+03 -0.53460634553E+03  0.11623659247E+04  0.10100000352E+00 0.  1.
</event>
<event>
 5   0  0.1468942E-06  0.3550580E+04  0.7818609E-02  0.8101907E-01
       -2   -1    0    0    0  501  0.00000000000E+00  0.00000000000E+00  0.17186219050E+04  0.17186219050E+04  0.25500000920E-02 0.  1.
        2   -1    0    0  501    0  0.00000000000E+00  0.00000000000E+00 -0.18338271277E+04  0.18338271277E+04  0.25500000920E-02 0. -1.
    10030    2    1    2    0    0  0.00000000000E+00  0.00000000000E+00 -0.11520522274E+03  0.35524490327E+04  0.35505804999E+04 0.  0.
        2    1    3    3  502    0 -0.67344608664E+03 -0.12315207887E+04  0.10299295724E+04  0.17409560617E+04  0.25500000920E-02 0.  1.
       -2    1    3    3    0  502  0.67344608664E+03  0.12315207887E+04 -0.11451347952E+04  0.18114929710E+04  0.25500000920E-02 0. -1.
</event>
<event>
 5   0  0.1468942E-06  0.3520257E+04  0.7818609E-02  0.8109006E-01
        2   -1    0    0  501    0  0.00000000000E+00  0.00000000000E+00  0.33790242379E+04  0.33790242379E+04  0.25500000920E-02 0.  1.
       -2   -1    0    0    0  501  0.00000000000E+00  0.00000000000E+00 -0.91684835084E+03  0.91684835085E+03  0.25500000920E-02 0. -1.
    10030    2    1    2    0    0  0.00000000000E+00  0.00000000000E+00  0.24621758870E+04  0.42958725887E+04  0.35202572633E+04 0.  0.
        2    1    3    3  502    0  0.11916349459E+04  0.11304997108E+04  0.20029201958E+04  0.25903113232E+04  0.25500000920E-02 0.  1.
       -2    1    3    3    0  502 -0.11916349459E+04 -0.11304997108E+04  0.45925569123E+03  0.17055612655E+04  0.25500000920E-02 0. -1.
</event>
<event>
 5   0  0.4811500E-07  0.3423717E+04  0.7818609E-02  0.8132110E-01
       -1   -1    0    0    0  501  0.00000000000E+00  0.00000000000E+00  0.16177054842E+04  0.16177054842E+04  0.50400001928E-02 0.  1.
        1   -1    0    0  501    0  0.00000000000E+00  0.00000000000E+00 -0.18114915385E+04  0.18114915385E+04  0.50400001928E-02 0. -1.
    10030    2    1    2    0    0  0.00000000000E+00  0.00000000000E+00 -0.19378605432E+03  0.34291970226E+04  0.34237171591E+04 0.  0.
        4    1    3    3  502    0  0.12261237056E+04  0.51870958529E+03 -0.11747284192E+04  0.17755076590E+04  0.12699999809E+01 0. -1.
       -4    1    3    3    0  502 -0.12261237056E+04 -0.51870958529E+03  0.98094236485E+03  0.16536893637E+04  0.12699999809E+01 0.  1.
</event>
<event>
 5   0  0.5071661E-07  0.3498774E+04  0.7818609E-02  0.8114081E-01
       -1   -1    0    0    0  501  0.00000000000E+00  0.00000000000E+00  0.12026065800E+04  0.12026065800E+04  0.50400001928E-02 0. -1.
        1   -1    0    0  501    0  0.00000000000E+00  0.00000000000E+00 -0.25447674641E+04  0.25447674641E+04  0.50400001928E-02 0.  1.
    10030    2    1    2    0    0  0.00000000000E+00  0.00000000000E+00 -0.13421608841E+04  0.37473740441E+04  0.34987735547E+04 0.  0.
        1    1    3    3  502    0  0.14403067536E+04  0.99188600252E+03 -0.71936952429E+03  0.18909822577E+04  0.50400001928E-02 0.  1.
       -1    1    3    3    0  502 -0.14403067536E+04 -0.99188600252E+03 -0.62279135984E+03  0.18563917863E+04  0.50400001928E-02 0. -1.
</event>
<event>
 5   0  0.5071661E-07  0.3586265E+04  0.7818609E-02  0.8093645E-01
        1   -1    0    0  501    0  0.00000000000E+00  0.00000000000E+00  0.23641407761E+04  0.23641407761E+04  0.50400001928E-02 0. -1.
       -1   -1    0    0    0  501  0.00000000000E+00  0.00000000000E+00 -0.13600394816E+04  0.13600394816E+04  0.50400001928E-02 0.  1.
    10030    2    1    2    0    0  0.00000000000E+00  0.00000000000E+00  0.10041012945E+04  0.37241802577E+04  0.35862653530E+04 0.  0.
        1    1    3    3  502    0 -0.11090947303E+04 -0.13686674118E+04  0.84955855502E+03  0.19557840738E+04  0.50400001928E-02 0.  1.
       -1    1    3    3    0  502  0.11090947303E+04  0.13686674118E+04  0.15454273950E+03  0.17683961839E+04  0.50400001928E-02 0. -1.
</event>
<event>
 5   0  0.4811500E-07  0.3585880E+04  0.7818609E-02  0.8093734E-01
        3   -1    0    0  501    0  0.00000000000E+00  0.00000000000E+00  0.20315521706E+04  0.20315521731E+04  0.10100000352E+00 0. -1.
       -3   -1    0    0    0  501  0.00000000000E+00  0.00000000000E+00 -0.15823535402E+04  0.15823535434E+04  0.10100000352E+00 0.  1.
    10030    2    1    2    0    0  0.00000000000E+00  0.00000000000E+00  0.44919863038E+03  0.36139057165E+04  0.35858799643E+04 0.  0.
        3    1    3    3  502    0 -0.51408671802E+03  0.12295977245E+04 -0.98412331137E+03  0.16567119303E+04  0.10100000352E+00 0.  1.
       -3    1    3    3    0  502  0.51408671802E+03 -0.12295977245E+04  0.14333219417E+04  0.19571937862E+04  0.10100000352E+00 0. -1.
</event>
<event>
 5   0  0.4811500E-07  0.3025639E+04  0.7818609E-02  0.8236447E-01
        1   -1    0    0  501    0  0.00000000000E+00  0.00000000000E+00  0.22922753737E+04  0.22922753737E+04  0.50400001928E-02 0.  1.
       -1   -1    0    0    0  501  0.00000000000E+00  0.00000000000E+00 -0.99840645600E+03  0.99840645601E+03  0.50400001928E-02 0. -1.
    10030    2    1    2    0    0  0.00000000000E+00  0.00000000000E+00  0.12938689177E+04  0.32906818297E+04  0.30256387967E+04 0.  0.
        5    1    3    3  502    0 -0.10665317884E+04 -0.94042049979E+03  0.85244920153E+02  0.14244892272E+04  0.46999998093E+01 0. -1.
       -5    1    3    3    0  502  0.10665317884E+04  0.94042049979E+03  0.12086239976E+04  0.18661926025E+04  0.46999998093E+01 0.  1.
</event>
<event>
 5   0  0.1379425E-06  0.3604932E+04  0.7818609E-02  0.8089363E-01
        2   -1    0    0  501    0  0.00000000000E+00  0.00000000000E+00  0.20419866021E+04  0.20419866021E+04  0.25500000920E-02 0.  1.
       -2   -1    0    0    0  501  0.00000000000E+00  0.00000000000E+00 -0.15910403383E+04  0.15910403383E+04  0.25500000920E-02 0. -1.
    10030    2    1    2    0    0  0.00000000000E+00  0.00000000000E+00  0.45094626380E+03  0.36330269404E+04  0.36049316522E+04 0.  0.
        4    1    3    3  502    0  0.37757506451E+03 -0.14946069263E+04  0.11668130986E+04  0.19333564631E+04  0.12699999809E+01 0.  1.
       -4    1    3    3    0  502 -0.37757506451E+03  0.14946069263E+04 -0.71586683483E+03  0.16996704773E+04  0.12699999809E+01 0. -1.
</event>
<event>
 5   0  0.1505671E-06  0.3376725E+04  0.7818609E-02  0.8143642E-01
       -2   -1    0    0    0  501  0.00000000000E+00  0.00000000000E+00  0.19266690928E+04  0.19266690928E+04  0.25500000920E-02 0. -1.
        2   -1    0    0  501    0  0.00000000000E+00  0.00000000000E+00 -0.14795318942E+04  0.14795318942E+04  0.25500000920E-02 0.  1.
    10030    2    1    2    0    0  0.00000000000E+00  0.00000000000E+00  0.44713719856E+03  0.34062009871E+04  0.33767252612E+04 0.  0.
        3    1    3    3  502    0 -0.89296999379E+03  0.73919318477E+03 -0.10146505196E+04  0.15405575813E+04  0.10100000352E+00 0.  1.
       -3    1    3    3    0  502  0.89296999379E+03 -0.73919318477E+03  0.14617877182E+04  0.18656434057E+04  0.10100000352E+00 0. -1.
</event>
<event>
 5   0  0.1444091E-06  0.3568384E+04  0.7818609E-02  0.8097772E-01
       -2   -1    0    0    0  501  0.00000000000E+00  0.00000000000E+00  0.20590675948E+04  0.20590675948E+04  0.25500000920E-02 0.  1.
        2   -1    0    0  501    0  0.00000000000E+00  0.00000000000E+00 -0.15460113814E+04  0.15460113814E+04  0.25500000920E-02 0. -1.
    10030    2    1    2    0    0  0.00000000000E+00  0.00000000000E+00  0.51305621344E+03  0.36050789762E+04  0.35683844729E+04 0.  0.
        1    1    3    3  502    0 -0.48410130951E+03  0.19251376200E+03 -0.14674562965E+04  0.15571909352E+04  0.50400001928E-02 0. -1.
       -1    1    3    3    0  502  0.48410130951E+03 -0.19251376200E+03  0.19805125100E+04  0.20478880410E+04  0.50400001928E-02 0.  1.
</event>
<event>
 5   0  0.1505671E-06  0.3646338E+04  0.7818609E-02  0.8079959E-01
        2   -1    0    0  501    0  0.00000000000E+00  0.00000000000E+00  0.25859570583E+04  0.25859570583E+04  0.25500000920E-02 0.  1.
       -2   -1    0    0    0  501  0.00000000000E+00  0.00000000000E+00 -0.12853832267E+04  0.12853832267E+04  0.25500000920E-02 0. -1.
    10030    2    1    2    0    0  0.00000000000E+00  0.00000000000E+00  0.13005738316E+04  0.38713402850E+04  0.36463383429E+04 0.  0.
        3    1    3    3  502    0  0.38049805229E+03 -0.17072613199E+04  0.10433257293E+03  0.17522571952E+04  0.10100000352E+00 0. -1.
       -3    1    3    3    0  502 -0.38049805229E+03  0.17072613199E+04  0.11962412587E+04  0.21190830898E+04  0.10100000352E+00 0.  1.
</event>
<event>
 5   0  0.1505671E-06  0.3514791E+04  0.7818609E-02  0.8110294E-01
       -2   -1    0    0    0  501  0.00000000000E+00  0.00000000000E+00  0.13099630326E+04  0.13099630326E+04  0.25500000920E-02 0.  1.
        2   -1    0    0  501    0  0.00000000000E+00  0.00000000000E+00 -0.23576532175E+04  0.23576532175E+04  0.25500000920E-02 0. -1.
    10030    2    1    2    0    0  0.00000000000E+00  0.00000000000E+00 -0.10476901849E+04  0.36676162501E+04  0.35147907810E+04 0.  0.
        3    1    3    3  502    0 -0.85047817127E+03  0.14527001621E+04 -0.10505575754E+04  0.19842686588E+04  0.10100000352E+00 0. -1.
       -3    1    3    3    0  502  0.85047817127E+03 -0.14527001621E+04  0.28673904308E+01  0.16833475913E+04  0.10100000352E+00 0.  1.
</event>
<event>
 5   0  0.1491854E-06  0.3014199E+04  0.7818609E-02  0.8239688E-01
        2   -1    0    0  501    0  0.00000000000E+00  0.00000000000E+00  0.15900938604E+04  0.15900938604E+04  0.25500000920E-02 0.  1.
       -2   -1    0    0    0  501  0.00000000000E+00  0.00000000000E+00 -0.14284367753E+04  0.14284367753E+04  0.25500000920E-02 0. -1.
    10030    2    1    2    0    0  0.00000000000E+00  0.00000000000E+00  0.16165708510E+03  0.30185306356E+04  0.30141987634E+04 0.  0.
        5    1    3    3  502    0  0.76967601356E+02  0.10498170634E+04  0.11609362354E+04  0.15671103697E+04  0.46999998093E+01 0.  1.
       -5    1    3    3    0  502 -0.76967601356E+02 -0.10498170634E+04 -0.99927915029E+03  0.14514202659E+04  0.46999998093E+01 0. -1.
</event>
<event>
 5   0  0.5071661E-07  0.3634734E+04  0.7818609E-02  0.8082581E-01
        1   -1    0    0  501    0  0.00000000000E+00  0.00000000000E+00  0.10497104521E+04  0.10497104522E+04  0.50400001928E-02 0. -1.
       -1   -1    0    0    0  501  0.00000000000E+00  0.00000000000E+00 -0.31464130760E+04  0.31464130760E+04  0.50400001928E-02 0.  1.
    10030    2    1    2    0    0  0.00000000000E+00  0.00000000000E+00 -0.20967026239E+04  0.41961235281E+04  0.36347339339E+04 0.  0.
        1    1    3    3  502    0  0.10428123863E+03 -0.96781639930E+03 -0.28200785757E+04  0.29833515268E+04  0.50400001928E-02 0.  1.
       -1    1    3    3    0  502 -0.10428123863E+03  0.96781639930E+03  0.72337595184E+03  0.12127720013E+04  0.50400001928E-02 0. -1.
</event>
<event>
 5   0  0.1379425E-06  0.3587120E+04  0.7818609E-02  0.8093448E-01
        2   -1    0    0  501    0  0.00000000000E+00  0.00000000000E+00  0.14695067854E+04  0.14695067854E+04  0.25500000920E-02 0.  1.
       -2   -1    0    0    0  501  0.00000000000E+00  0.00000000000E+00 -0.21890725155E+04  0.21890725155E+04  0.25500000920E-02 0. -1.
    10030    2    1    2    0    0  0.00000000000E+00  0.00000000000E+00 -0.71956573010E+03  0.36585793008E+04  0.35871196886E+04 0.  0.
        4    1    3    3  502    0  0.70502123009E+01  0.12643124564E+04 -0.16572571331E+04  0.20844755962E+04  0.12699999809E+01 0. -1.
       -4    1    3    3    0  502 -0.70502123009E+01 -0.12643124564E+04  0.93769140301E+03  0.15741037047E+04  0.12699999809E+01 0.  1.
</event>
<event>
 5   0  0.4811500E-07  0.3340358E+04  0.7818609E-02  0.8152702E-01
       -1   -1    0    0    0  501  0.00000000000E+00  0.00000000000E+00  0.33633119344E+04  0.33633119344E+04  0.50400001928E-02 0.  1.
        1   -1    0    0  501    0  0.00000000000E+00  0.00000000000E+00 -0.82939012040E+03  0.82939012041E+03  0.50400001928E-02 0. -1.
    10030    2    1    2    0    0  0.00000000000E+00  0.00000000000E+00  0.25339218140E+04  0.41927020548E+04  0.33403578792E+04 0.  0.
        3    1    3    3  502    0  0.75892049862E+02 -0.44135195437E+03 -0.75262598369E+03  0.87578366758E+03  0.10100000352E+00 0. -1.
       -3    1    3    3    0  502 -0.75892049862E+02  0.44135195437E+03  0.32865477977E+04  0.33169183872E+04  0.10100000352E+00 0.  1.
</event>
<event>
 5   0  0.4811500E-07  0.3587759E+04  0.7818609E-02  0.8093301E-01
        1   -1    0    0  501    0  0.00000000000E+00  0.00000000000E+00  0.17800484488E+04  0.17800484488E+04  0.50400001928E-02 0. -1.
       -1   -1    0    0    0  501  0.00000000000E+00  0.00000000000E+00 -0.18078182608E+04  0.18078182608E+04  0.50400001928E-02 0.  1.
    10030    2    1    2    0    0  0.00000000000E+00  0.00000000000E+00 -0.27769812044E+02  0.35878667096E+04  0.35877592399E+04 0.  0.
        2    1    3    3  502    0  0.64949928039E+03  0.89146926631E+03 -0.14286489248E+04  0.18048835194E+04  0.25500000920E-02 0.  1.
       -2    1    3    3    0  502 -0.64949928039E+03 -0.89146926631E+03  0.14008791128E+04  0.17829831902E+04  0.25500000920E-02 0. -1.
</event>
<event>
 5   0  0.4811500E-07  0.3154327E+04  0.7818609E-02  0.8200984E-01
       -1   -1    0    0    0  501  0.00000000000E+00  0.00000000000E+00  0.11945984578E+04  0.11945984578E+04  0.50400001928E-02 0.  1.
        1   -1    0    0  501    0  0.00000000000E+00  0.00000000000E+00 -0.20822434800E+04  0.20822434800E+04  0.50400001928E-02 0. -1.
    10030    2    1    2    0    0  0.00000000000E+00  0.00000000000E+00 -0.88764502222E+03  0.32768419378E+04  0.31543270914E+04 0.  0.
        4    1    3    3  502    0  0.13768351322E+04 -0.67279279068E+03 -0.83129476777E+03  0.17433811185E+04  0.12699999809E+01 0. -1.
       -4    1    3    3    0  502 -0.13768351322E+04  0.67279279068E+03 -0.56350254450E+02  0.15334608193E+04  0.12699999809E+01 0.  1.
</event>
<event>
 5   0  0.1379425E-06  0.3633652E+04  0.7818609E-02  0.8082826E-01
       -2   -1    0    0    0  501  0.00000000000E+00  0.00000000000E+00  0.15375457260E+04  0.15375457260E+04  0.25500000920E-02 0.  1.
        2   -1    0    0  501    0  0.00000000000E+00  0.00000000000E+00 -0.21468353154E+04  0.21468353154E+04  0.25500000920E-02 0. -1.
    10030    2    1    2    0    0  0.00000000000E+00  0.00000000000E+00 -0.60928958936E+03  0.36843810414E+04  0.36336524124E+04 0.  0.
        4    1    3    3  502    0 -0.59105611506E+02  0.10744722160E+04  0.11796468951E+04  0.15967317953E+04  0.12699999809E+01 0.  1.
       -4    1    3    3    0  502  0.59105611506E+02 -0.10744722160E+04 -0.17889364845E+04  0.20876492461E+04  0.12699999809E+01 0. -1.
</event>
<event>
 5   0  0.4811500E-07  0.3577268E+04  0.7818609E-02  0.8095719E-01
        1   -1    0    0  501    0  0.00000000000E+00  0.00000000000E+00  0.20903872491E+04  0.20903872491E+04  0.50400001928E-02 0.  1.
       -1   -1    0    0    0  501  0.00000000000E+00  0.00000000000E+00 -0.15304392755E+04  0.15304392755E+04  0.50400001928E-02 0. -1.
    10030    2    1    2    0    0  0.00000000000E+00  0.00000000000E+00  0.55994797354E+03  0.36208265246E+04  0.35772675310E+04 0.  0.
        5    1    3    3  502    0 -0.63518275261E+02  0.20242833381E+03 -0.15176519174E+04  0.15324167951E+04  0.46999998093E+01 0. -1.
       -5    1    3    3    0  502  0.63518275261E+02 -0.20242833381E+03  0.20775998909E+04  0.20884097295E+04  0.46999998093E+01 0.  1.
</event>
<event>
 5   0  0.4811500E-07  0.3484157E+04  0.7818609E-02  0.8117555E-01
       -1   -1    0    0    0  501  0.00000000000E+00  0.00000000000E+00  0.13595925809E+04  0.13595925809E+04  0.50400001928E-02 0.  1.
        1   -1    0    0  501    0  0.00000000000E+00  0.00000000000E+00 -0.22321667674E+04  0.22321667674E+04  0.50400001928E-02 0. -1.
    10030    2    1    2    0    0  0.00000000000E+00  0.00000000000E+00 -0.87257418657E+03  0.35917593483E+04  0.34841569289E+04 0.  0.
        3    1    3    3  502    0  0.11960513013E+03  0.71845248063E+03 -0.20676768458E+04  0.21922059444E+04  0.10100000352E+00 0. -1.
       -3    1    3    3    0  502 -0.11960513013E+03 -0.71845248063E+03  0.11951026592E+04  0.13995534039E+04  0.10100000352E+00 0.  1.
</event>
<event>
 5   0  0.4811500E-07  0.3669384E+04  0.7818609E-02  0.8074781E-01
       -1   -1    0    0    0  501  0.00000000000E+00  0.00000000000E+00  0.12662234798E+04  0.12662234798E+04  0.50400001928E-02 0.  1.
        1   -1    0    0  501    0  0.00000000000E+00  0.00000000000E+00 -0.26583729832E+04  0.26583729832E+04  0.50400001928E-02 0. -1.
    10030    2    1    2    0    0  0.00000000000E+00  0.00000000000E+00 -0.13921495034E+04  0.39245964630E+04  0.36693837572E+04 0.  0.
        5    1    3    3  502    0 -0.74353314805E+03  0.47238696462E+03 -0.24173826629E+04  0.25728878746E+04  0.46999998093E+01 0. -1.
       -5    1    3    3    0  502  0.74353314805E+03 -0.47238696462E+03  0.10252331595E+04  0.13517085884E+04  0.46999998093E+01 0.  1.
</event>
<event>
 5   0  0.1491854E-06  0.3564538E+04  0.7818609E-02  0.8098663E-01
       -2   -1    0    0    0  501  0.00000000000E+00  0.00000000000E+00  0.21956711802E+04  0.21956711802E+04  0.25500000920E-02 0. -1.
        2   -1    0    0  501    0  0.00000000000E+00  0.00000000000E+00 -0.14467027148E+04  0.14467027148E+04  0.25500000920E-02 0.  1.
    10030    2    1    2    0    0  0.00000000000E+00  0.00000000000E+00  0.74896846532E+03  0.36423738950E+04  0.35645383753E+04 0.  0.
        5    1    3    3  502    0 -0.36178570092E+03 -0.13839807330E+04  0.14607924881E+04  0.20445606731E+04  0.46999998093E+01 0. -1.
       -5    1    3    3    0  502  0.36178570092E+03  0.13839807330E+04 -0.71182402281E+03  0.15978132219E+04  0.46999998093E+01 0.  1.
</event>
<event>
 5   0  0.1444091E-06  0.3568575E+04  0.7818609E-02  0.8097728E-01
        2   -1    0    0  501    0  0.00000000000E+00  0.00000000000E+00  0.22756828015E+04  0.22756828015E+04  0.25500000920E-02 0.  1.
       -2   -1    0    0    0  501  0.00000000000E+00  0.00000000000E+00 -0.13990006466E+04  0.13990006466E+04  0.25500000920E-02 0. -1.
    10030    2    1    2    0    0  0.00000000000E+00  0.00000000000E+00  0.87668215488E+03  0.36746834480E+04  0.35685749036E+04 0.  0.
        1    1    3    3  502    0 -0.17252552398E+04  0.58043486820E+02  0.90321446768E+03  0.19482482038E+04  0.50400001928E-02 0.  1.
       -1    1    3    3    0  502  0.17252552398E+04 -0.58043486820E+02 -0.26532312794E+02  0.17264352442E+04  0.50400001928E-02 0. -1.
</event>
<event>
 5   0  0.4811500E-07  0.3417154E+04  0.7818609E-02  0.8133709E-01
       -1   -1    0    0    0  501  0.00000000000E+00  0.00000000000E+00  0.13528907786E+04  0.13528907786E+04  0.50400001928E-02 0. -1.
        1   -1    0    0  501    0  0.00000000000E+00  0.00000000000E+00 -0.21577758502E+04  0.21577758502E+04  0.50400001928E-02 0.  1.
    10030    2    1    2    0    0  0.00000000000E+00  0.00000000000E+00 -0.80488507153E+03  0.35106666288E+04  0.34171538157E+04 0.  0.
        2    1    3    3  502    0  0.33519135120E+02  0.13989261320E+04 -0.14096367829E+04  0.19862511711E+04  0.25500000920E-02 0.  1.
       -2    1    3    3    0  502 -0.33519135120E+02 -0.13989261320E+04  0.60475171138E+03  0.15244154577E+04  0.25500000920E-02 0. -1.
</event>
<event>
 5   0  0.1491854E-06  0.3554145E+04  0.7818609E-02  0.8101077E-01
       -2   -1    0    0    0  501  0.00000000000E+00  0.00000000000E+00  0.12195314341E+04  0.12195314341E+04  0.25500000920E-02 0.  1.
        2   -1    0    0  501    0  0.00000000000E+00  0.00000000000E+00 -0.25895086256E+04  0.25895086256E+04  0.25500000920E-02 0. -1.
    10030    2    1    2    0    0  0.00000000000E+00  0.00000000000E+00 -0.13699771915E+04  0.38090400596E+04  0.35541452799E+04 0.  0.
        5    1    3    3  502    0  0.15728447723E+04 -0.51041770839E+03 -0.13825097735E+04  0.21553937642E+04  0.46999998093E+01 0. -1.
       -5    1    3    3    0  502 -0.15728447723E+04  0.51041770839E+03  0.12532581980E+02  0.16536462955E+04  0.46999998093E+01 0.  1.
</event>
<event>
 5   0  0.1444091E-06  0.2661347E+04  0.7818609E-02  0.8347657E-01
       -2   -1    0    0    0  501  0.00000000000E+00  0.00000000000E+00  0.96948539285E+03  0.96948539285E+03  0.25500000920E-02 0. -1.
        2   -1    0    0  501    0  0.00000000000E+00  0.00000000000E+00 -0.18264241309E+04  0.18264241309E+04  0.25500000920E-02 0.  1.
    10030    2    1    2    0    0  0.00000000000E+00  0.00000000000E+00 -0.85693873802E+03  0.27959095237E+04  0.26613466637E+04 0.  0.
        1    1    3    3  502    0 -0.91699684240E+03 -0.47214656612E+03 -0.13117451702E+04  0.16686764158E+04  0.50400001928E-02 0.  1.
       -1    1    3    3    0  502  0.91699684240E+03  0.47214656612E+03  0.45480643222E+03  0.11272331080E+04  0.50400001928E-02 0. -1.
</event>
<event>
 5   0  0.4811500E-07  0.2591562E+04  0.7818609E-02  0.8371073E-01
        3   -1    0    0  501    0  0.00000000000E+00  0.00000000000E+00  0.24825827724E+04  0.24825827745E+04  0.10100000352E+00 0. -1.
       -3   -1    0    0    0  501  0.00000000000E+00  0.00000000000E+00 -0.67633132536E+03  0.67633133290E+03  0.10100000352E+00 0.  1.
    10030    2    1    2    0    0  0.00000000000E+00  0.00000000000E+00  0.18062514471E+04  0.31589141074E+04  0.25915620864E+04 0.  0.
        4    1    3    3  502    0  0.50953188567E+03 -0.25411138990E+03 -0.51567714270E+03  0.76819259915E+03  0.12699999809E+01 0.  1.
       -4    1    3    3    0  502 -0.50953188567E+03  0.25411138990E+03  0.23219285898E+04  0.23907215082E+04  0.12699999809E+01 0. -1.
</event>
<event>
 5   0  0.1444091E-06  0.3747783E+04  0.7818609E-02  0.8057454E-01
        2   -1    0    0  501    0  0.00000000000E+00  0.00000000000E+00  0.17341529069E+04  0.17341529069E+04  0.25500000920E-02 0.  1.
       -2   -1    0    0    0  501  0.00000000000E+00  0.00000000000E+00 -0.20248904430E+04  0.20248904430E+04  0.25500000920E-02 0. -1.
    10030    2    1    2    0    0  0.00000000000E+00  0.00000000000E+00 -0.29073753607E+03  0.37590433498E+04  0.37477831569E+04 0.  0.
        1    1    3    3  502    0  0.31113314295E+03  0.14850773822E+04 -0.12483139318E+04  0.19648273044E+04  0.50400001928E-02 0. -1.
       -1    1    3    3    0  502 -0.31113314295E+03 -0.14850773822E+04  0.95757639577E+03  0.17942160454E+04  0.50400001928E-02 0.  1.
</event>
<event>
 5   0  0.1505671E-06  0.3668616E+04  0.7818609E-02  0.8074953E-01
       -2   -1    0    0    0  501  0.00000000000E+00  0.00000000000E+00  0.17180122642E+04  0.17180122642E+04  0.25500000920E-02 0. -1.
        2   -1    0    0  501    0  0.00000000000E+00  0.00000000000E+00 -0.19584765124E+04  0.19584765124E+04  0.25500000920E-02 0.  1.
    10030    2    1    2    0    0  0.00000000000E+00  0.00000000000E+00 -0.24046424825E+03  0.36764887766E+04  0.36686164518E+04 0.  0.
        3    1    3    3  502    0 -0.30657421968E+03  0.17897646613E+04 -0.38048413992E+03  0.18552664192E+04  0.10100000352E+00 0.  1.
       -3    1    3    3    0  502  0.30657421968E+03 -0.17897646613E+04  0.14001989167E+03  0.18212223575E+04  0.10100000352E+00 0. -1.
</event>
<event>
 5   0  0.4811500E-07  0.3492087E+04  0.7818609E-02  0.8115668E-01
       -1   -1    0    0    0  501  0.00000000000E+00  0.00000000000E+00  0.17336272020E+04  0.17336272020E+04  0.50400001928E-02 0.  1.
        1   -1    0    0  501    0  0.00000000000E+00  0.00000000000E+00 -0.17585489917E+04  0.17585489917E+04  0.50400001928E-02 0. -1.
    10030    2    1    2    0    0  0.00000000000E+00  0.00000000000E+00 -0.24921789692E+02  0.34921761937E+04  0.34920872658E+04 0.  0.
        4    1    3    3  502    0  0.86065245740E+03 -0.15188244841E+04  0.20950869855E+02  0.17458496550E+04  0.12699999809E+01 0.  1.
       -4    1    3    3    0  502 -0.86065245740E+03  0.15188244841E+04 -0.45872659546E+02  0.17463265387E+04  0.12699999809E+01 0. -1.
</event>
<event>
 5   0  0.4811500E-07  0.3525868E+04  0.7818609E-02  0.8107687E-01
        1   -1    0    0  501    0  0.00000000000E+00  0.00000000000E+00  0.16276063367E+04  0.16276063367E+04  0.50400001928E-02 0. -1.
       -1   -1    0    0    0  501  0.00000000000E+00  0.00000000000E+00 -0.19095138841E+04  0.19095138841E+04  0.50400001928E-02 0.  1.
    10030    2    1    2    0    0  0.00000000000E+00  0.00000000000E+00 -0.28190754741E+03  0.35371202209E+04  0.35258683457E+04 0.  0.
        4    1    3    3  502    0 -0.15835484918E+04 -0.65913229039E+03 -0.54950527681E+03  0.18011215573E+04  0.12699999809E+01 0. -1.
       -4    1    3    3    0  502  0.15835484918E+04  0.65913229039E+03  0.26759772940E+03  0.17359986635E+04  0.12699999809E+01 0.  1.
</event>
<event>
 5   0  0.5071661E-07  0.3619617E+04  0.7818609E-02  0.8086013E-01
       -1   -1    0    0    0  501  0.00000000000E+00  0.00000000000E+00  0.12056212230E+04  0.12056212230E+04  0.50400001928E-02 0. -1.
        1   -1    0    0  501    0  0.00000000000E+00  0.00000000000E+00 -0.27167794331E+04  0.27167794331E+04  0.50400001928E-02 0.  1.
    10030    2    1    2    0    0  0.00000000000E+00  0.00000000000E+00 -0.15111582101E+04  0.39224006561E+04  0.36196170752E+04 0.  0.
        1    1    3    3  502    0 -0.77552943191E+02 -0.10170647800E+04  0.86445941276E+03  0.13370584513E+04  0.50400001928E-02 0. -1.
       -1    1    3    3    0  502  0.77552943191E+02  0.10170647800E+04 -0.23756176229E+04  0.25853422048E+04  0.50400001928E-02 0.  1.
</event>
<event>
 5   0  0.1491854E-06  0.3572192E+04  0.7818609E-02  0.8096891E-01
        2   -1    0    0  501    0  0.00000000000E+00  0.00000000000E+00  0.13699069785E+04  0.13699069785E+04  0.25500000920E-02 0.  1.
       -2   -1    0    0    0  501  0.00000000000E+00  0.00000000000E+00 -0.23287273121E+04  0.23287273121E+04  0.25500000920E-02 0. -1.
    10030    2    1    2    0    0  0.00000000000E+00  0.00000000000E+00 -0.95882033356E+03  0.36986342906E+04  0.35721924897E+04 0.  0.
        5    1    3    3  502    0  0.66702597121E+03 -0.40114468143E+03  0.11850602099E+04  0.14178259741E+04  0.46999998093E+01 0.  1.
       -5    1    3    3    0  502 -0.66702597121E+03  0.40114468143E+03 -0.21438805435E+04  0.22808083165E+04  0.46999998093E+01 0. -1.
</event>
<event>
 5   0  0.5071661E-07  0.3527252E+04  0.7818609E-02  0.8107362E-01
       -1   -1    0    0    0  501  0.00000000000E+00  0.00000000000E+00  0.10973710356E+04  0.10973710357E+04  0.50400001928E-02 0.  1.
        1   -1    0    0  501    0  0.00000000000E+00  0.00000000000E+00 -0.28343898878E+04  0.28343898878E+04  0.50400001928E-02 0. -1.
    10030    2    1    2    0    0  0.00000000000E+00  0.00000000000E+00 -0.17370188522E+04  0.39317609235E+04  0.35272523962E+04 0.  0.
        1    1    3    3  502    0  0.97510627023E+02  0.11993636030E+04 -0.23057114048E+04  0.26008241880E+04  0.50400001928E-02 0. -1.
       -1    1    3    3    0  502 -0.97510627023E+02 -0.11993636030E+04  0.56869255259E+03  0.13309367355E+04  0.50400001928E-02 0.  1.
</event>
<event>
 5   0  0.4811500E-07  0.3604399E+04  0.7818609E-02  0.8089485E-01
       -3   -1    0    0    0  501  0.00000000000E+00  0.00000000000E+00  0.12810839001E+04  0.12810839040E+04  0.10100000352E+00 0.  1.
        3   -1    0    0  501    0  0.00000000000E+00  0.00000000000E+00 -0.25352923107E+04  0.25352923128E+04  0.10100000352E+00 0. -1.
    10030    2    1    2    0    0  0.00000000000E+00  0.00000000000E+00 -0.12542084107E+04  0.38163762168E+04  0.36043985200E+04 0.  0.
        1    1    3    3  502    0 -0.66928866596E+02 -0.12289243002E+04 -0.20210349120E+04  0.23662874982E+04  0.50400001928E-02 0. -1.
       -1    1    3    3    0  502  0.66928866596E+02  0.12289243002E+04  0.76682650128E+03  0.14500887186E+04  0.50400001928E-02 0.  1.
</event>
<event>
 5   0  0.1491854E-06  0.3473325E+04  0.7818609E-02  0.8120141E-01
       -2   -1    0    0    0  501  0.00000000000E+00  0.00000000000E+00  0.20143339615E+04  0.20143339615E+04  0.25500000920E-02 0. -1.
        2   -1    0    0  501    0  0.00000000000E+00  0.00000000000E+00 -0.14972675915E+04  0.14972675915E+04  0.25500000920E-02 0.  1.
    10030    2    1    2    0    0  0.00000000000E+00  0.00000000000E+00  0.51706636997E+03  0.35116015530E+04  0.34733251843E+04 0.  0.
        5    1    3    3  502    0  0.26840437751E+03 -0.13334644645E+04  0.13501570454E+04  0.19165371181E+04  0.46999998093E+01 0. -1.
       -5    1    3    3    0  502 -0.26840437751E+03  0.13334644645E+04 -0.83309067547E+03  0.15950644349E+04  0.46999998093E+01 0.  1.
</event>
<event>
 5   0  0.1444091E-06  0.3558584E+04  0.7818609E-02  0.8100045E-01
        2   -1    0    0  501    0  0.00000000000E+00  0.00000000000E+00  0.21267861651E+04  0.21267861651E+04  0.25500000920E-02 0. -1.
       -2   -1    0    0    0  501  0.00000000000E+00  0.00000000000E+00 -0.14885744818E+04  0.14885744818E+04  0.25500000920E-02 0.  1.
    10030    2    1    2    0    0  0.00000000000E+00  0.00000000000E+00  0.63821168329E+03  0.36153606470E+04  0.35585837710E+04 0.  0.
        1    1    3    3  502    0  0.12734576854E+04  0.36121218104E+03 -0.88886022767E+03  0.15944407234E+04  0.50400001928E-02 0.  1.
       -1    1    3    3    0  502 -0.12734576854E+04 -0.36121218104E+03  0.15270719110E+04  0.20209199236E+04  0.50400001928E-02 0. -1.
</event>
<event>
 5   0  0.1379425E-06  0.3632478E+04  0.7818609E-02  0.8083093E-01
        2   -1    0    0  501    0  0.00000000000E+00  0.00000000000E+00  0.14514254658E+04  0.14514254658E+04  0.25500000920E-02 0.  1.
       -2   -1    0    0    0  501  0.00000000000E+00  0.00000000000E+00 -0.22727477003E+04  0.22727477003E+04  0.25500000920E-02 0. -1.
    10030    2    1    2    0    0  0.00000000000E+00  0.00000000000E+00 -0.82132223456E+03  0.37241731661E+04  0.36324778813E+04 0.  0.
        4    1    3    3  502    0  0.79467455575E+03  0.12534381085E+04 -0.14840410451E+04  0.20988077991E+04  0.12699999809E+01 0. -1.
       -4    1    3    3    0  502 -0.79467455575E+03 -0.12534381085E+04  0.66271881053E+03  0.16253653669E+04  0.12699999809E+01 0.  1.
</event>
<event>
 5   0  0.1491854E-06  0.2326969E+04  0.7818609E-02  0.8467363E-01
       -2   -1    0    0    0  501  0.00000000000E+00  0.00000000000E+00  0.18883463428E+04  0.18883463428E+04  0.25500000920E-02 0. -1.
        2   -1    0    0  501    0  0.00000000000E+00  0.00000000000E+00 -0.71686885750E+03  0.71686885750E+03  0.25500000920E-02 0.  1.
    10030    2    1    2    0    0  0.00000000000E+00  0.00000000000E+00  0.11714774853E+04  0.26052152003E+04  0.23269694329E+04 0.  0.
        5    1    3    3  502    0  0.11571748037E+03 -0.62188374561E+02 -0.70852822286E+03  0.72061935984E+03  0.46999998093E+01 0.  1.
       -5    1    3    3    0  502 -0.11571748037E+03  0.62188374561E+02  0.18800057082E+04  0.18845958405E+04  0.46999998093E+01 0. -1.
</event>
<event>
 5   0  0.4811500E-07  0.3574520E+04  0.7818609E-02  0.8096353E-01
       -1   -1    0    0    0  501  0.00000000000E+00  0.00000000000E+00  0.19374755063E+04  0.19374755063E+04  0.50400001928E-02 0.  1.
        1   -1    0    0  501    0  0.00000000000E+00  0.00000000000E+00 -0.16486905644E+04  0.16486905644E+04  0.50400001928E-02 0. -1.
    10030    2    1    2    0    0  0.00000000000E+00  0.00000000000E+00  0.28878494193E+03  0.35861660707E+04  0.35745195962E+04 0.  0.
        4    1    3    3  502    0 -0.10397814914E+04 -0.14376219562E+04 -0.71700899509E+02  0.17756815792E+04  0.12699999809E+01 0. -1.
       -4    1    3    3    0  502  0.10397814914E+04  0.14376219562E+04  0.36048584144E+03  0.18104844914E+04  0.12699999809E+01 0.  1.
</event>
<event>
 5   0  0.1444091E-06  0.3622611E+04  0.7818609E-02  0.8085332E-01
       -2   -1    0    0    0  501  0.00000000000E+00  0.00000000000E+00  0.13617888991E+04  0.13617888991E+04  0.25500000920E-02 0.  1.
        2   -1    0    0  501    0  0.00000000000E+00  0.00000000000E+00 -0.24092043862E+04  0.24092043862E+04  0.25500000920E-02 0. -1.
    10030    2    1    2    0    0  0.00000000000E+00  0.00000000000E+00 -0.10474154870E+04  0.37709932853E+04  0.36226110963E+04 0.  0.
        1    1    3    3  502    0  0.58114340649E+03  0.10867633554E+04 -0.19054995407E+04  0.22692974131E+04  0.50400001928E-02 0.  1.
       -1    1    3    3    0  502 -0.58114340649E+03 -0.10867633554E+04  0.85808405363E+03  0.15016958722E+04  0.50400001928E-02 0. -1.
</event>
<event>
 5   0  0.4811500E-07  0.3555276E+04  0.7818609E-02  0.8100814E-01
        1   -1    0    0  501    0  0.00000000000E+00  0.00000000000E+00  0.16523108950E+04  0.16523108950E+04  0.50400001928E-02 0.  1.
       -1   -1    0    0    0  501  0.00000000000E+00  0.00000000000E+00 -0.19124709647E+04  0.19124709647E+04  0.50400001928E-02 0. -1.
    10030    2    1    2    0    0  0.00000000000E+00  0.00000000000E+00 -0.26016006971E+03  0.35647818597E+04  0.35552758607E+04 0.  0.
        4    1    3    3  502    0  0.55445948375E+03 -0.77611531640E+02 -0.18217621899E+04  0.19058509801E+04  0.12699999809E+01 0. -1.
       -4    1    3    3    0  502 -0.55445948375E+03  0.77611531640E+02  0.15616021201E+04  0.16589308797E+04  0.12699999809E+01 0.  1.
</event>
<event>
 5   0  0.4811500E-07  0.3453422E+04  0.7818609E-02  0.8124918E-01
        1   -1    0    0  501    0  0.00000000000E+00  0.00000000000E+00  0.20670435128E+04  0.20670435128E+04  0.50400001928E-02 0. -1.
       -1   -1    0    0    0  501  0.00000000000E+00  0.00000000000E+00 -0.14424129048E+04  0.14424129048E+04  0.50400001928E-02 0.  1.
    10030    2    1    2    0    0  0.00000000000E+00  0.00000000000E+00  0.62463060802E+03  0.35094564175E+04  0.34534216294E+04 0.  0.
        2    1    3    3  502    0  0.12348042199E+03 -0.65716680750E+03 -0.13055005255E+04  0.14667812549E+04  0.25500000920E-02 0.  1.
       -2    1    3    3    0  502 -0.12348042199E+03  0.65716680750E+03  0.19301311335E+04  0.20426751627E+04  0.25500000920E-02 0. -1.
</event>
<event>
 5   0  0.1491854E-06  0.3925826E+04  0.7818609E-02  0.8019679E-01
       -2   -1    0    0    0  501  0.00000000000E+00  0.00000000000E+00  0.20587405517E+04  0.20587405517E+04  0.25500000920E-02 0.  1.
        2   -1    0    0  501    0  0.00000000000E+00  0.00000000000E+00 -0.18715459762E+04  0.18715459762E+04  0.25500000920E-02 0. -1.
    10030    2    1    2    0    0  0.00000000000E+00  0.00000000000E+00  0.18719457553E+03  0.39302865279E+04  0.39258260765E+04 0.  0.
        5    1    3    3  502    0  0.94345049874E+03  0.17184244957E+04 -0.61347441287E+01  0.19603931534E+04  0.46999998093E+01 0. -1.
       -5    1    3    3    0  502 -0.94345049874E+03 -0.17184244957E+04  0.19332931966E+03  0.19698933745E+04  0.46999998093E+01 0.  1.
</event>
<event>
 5   0  0.5071661E-07  0.3135143E+04  0.7818609E-02  0.8206159E-01
        1   -1    0    0  501    0  0.00000000000E+00  0.00000000000E+00  0.17713314597E+04  0.17713314597E+04  0.50400001928E-02 0. -1.
       -1   -1    0    0    0  501  0.00000000000E+00  0.00000000000E+00 -0.13872501524E+04  0.13872501524E+04  0.50400001928E-02 0.  1.
    10030    2    1    2    0    0  0.00000000000E+00  0.00000000000E+00  0.38408130731E+03  0.31585816122E+04  0.31351426363E+04 0.  0.
        1    1    3    3  502    0 -0.43053639015E+03 -0.28948811613E+03  0.16823274673E+04  0.17605086367E+04  0.50400001928E-02 0. -1.
       -1    1    3    3    0  502  0.43053639015E+03  0.28948811613E+03 -0.12982461600E+04  0.13980729755E+04  0.50400001928E-02 0.  1.
</event>
<event>
 5   0  0.4811500E-07  0.3600642E+04  0.7818609E-02  0.8090345E-01
        1   -1    0    0  501    0  0.00000000000E+00  0.00000000000E+00  0.18240998988E+04  0.18240998988E+04  0.50400001928E-02 0.  1.
       -1   -1    0    0    0  501  0.00000000000E+00  0.00000000000E+00 -0.17768518066E+04  0.17768518066E+04  0.50400001928E-02 0. -1.
    10030    2    1    2    0    0  0.00000000000E+00  0.00000000000E+00  0.47248092170E+02  0.36009517054E+04  0.36006417209E+04 0.  0.
        4    1    3    3  502    0  0.55834991655E+03 -0.61656125284E+03  0.16203989633E+04  0.18214271385E+04  0.12699999809E+01 0.  1.
       -4    1    3    3    0  502 -0.55834991655E+03  0.61656125284E+03 -0.15731508711E+04  0.17795245669E+04  0.12699999809E+01 0. -1.
</event>
<event>
 5   0  0.1379425E-06  0.3616753E+04  0.7818609E-02  0.8086665E-01
        2   -1    0    0  501    0  0.00000000000E+00  0.00000000000E+00  0.17774968777E+04  0.17774968777E+04  0.25500000920E-02 0. -1.
       -2   -1    0    0    0  501  0.00000000000E+00  0.00000000000E+00 -0.18397926454E+04  0.18397926454E+04  0.25500000920E-02 0.  1.
    10030    2    1    2    0    0  0.00000000000E+00  0.00000000000E+00 -0.62295767757E+02  0.36172895231E+04  0.36167530647E+04 0.  0.
        4    1    3    3  502    0 -0.27421704502E+03  0.15646407973E+04  0.83323041970E+03  0.17937587233E+04  0.12699999809E+01 0. -1.
       -4    1    3    3    0  502  0.27421704502E+03 -0.15646407973E+04 -0.89552618745E+03  0.18235307998E+04  0.12699999809E+01 0.  1.
</event>
<event>
 5   0  0.1468942E-06  0.3194405E+04  0.7818609E-02  0.8190296E-01
        2   -1    0    0  501    0  0.00000000000E+00  0.00000000000E+00  0.16955858314E+04  0.16955858314E+04  0.25500000920E-02 0.  1.
       -2   -1    0    0    0  501  0.00000000000E+00  0.00000000000E+00 -0.15045279675E+04  0.15045279675E+04  0.25500000920E-02 0. -1.
    10030    2    1    2    0    0  0.00000000000E+00  0.00000000000E+00  0.19105786399E+03  0.32001137989E+04  0.31944052997E+04 0.  0.
        2    1    3    3  502    0 -0.91450546676E+03  0.87289266231E+03 -0.88232731712E+03  0.15416754987E+04  0.25500000920E-02 0. -1.
       -2    1    3    3    0  502  0.91450546676E+03 -0.87289266231E+03  0.10733851811E+04  0.16584383002E+04  0.25500000920E-02 0.  1.
</event>
<event>
 5   0  0.4811500E-07  0.3584669E+04  0.7818609E-02  0.8094013E-01
        1   -1    0    0  501    0  0.00000000000E+00  0.00000000000E+00  0.21880140464E+04  0.21880140464E+04  0.50400001928E-02 0. -1.
       -1   -1    0    0    0  501  0.00000000000E+00  0.00000000000E+00 -0.14682091466E+04  0.14682091466E+04  0.50400001928E-02 0.  1.
    10030    2    1    2    0    0  0.00000000000E+00  0.00000000000E+00  0.71980489987E+03  0.36562231930E+04  0.35846685960E+04 0.  0.
        3    1    3    3  502    0  0.16755073779E+04  0.32766045059E+03 -0.19667864072E+03  0.17185368318E+04  0.10100000352E+00 0.  1.
       -3    1    3    3    0  502 -0.16755073779E+04 -0.32766045059E+03  0.91648354059E+03  0.19376863613E+04  0.10100000352E+00 0. -1.
</event>
<event>
 5   0  0.1468942E-06  0.3532936E+04  0.7818609E-02  0.8106029E-01
       -2   -1    0    0    0  501  0.00000000000E+00  0.00000000000E+00  0.27659281291E+04  0.27659281291E+04  0.25500000920E-02 0.  1.
        2   -1    0    0  501    0  0.00000000000E+00  0.00000000000E+00 -0.11281597468E+04  0.11281597468E+04  0.25500000920E-02 0. -1.
    10030    2    1    2    0    0  0.00000000000E+00  0.00000000000E+00  0.16377683823E+04  0.38940878758E+04  0.35329357637E+04 0.  0.
        2    1    3    3  502    0 -0.33678167440E+03 -0.59883681505E+03 -0.97485900666E+03  0.11926346927E+04  0.25500000920E-02 0. -1.
       -2    1    3    3    0  502  0.33678167440E+03  0.59883681505E+03  0.26126273890E+04  0.27014531832E+04  0.25500000920E-02 0.  1.
</event>
<event>
 5   0  0.4811500E-07  0.3527644E+04  0.7818609E-02  0.8107270E-01
       -1   -1    0    0    0  501  0.00000000000E+00  0.00000000000E+00  0.11016031253E+04  0.11016031253E+04  0.50400001928E-02 0. -1.
        1   -1    0    0  501    0  0.00000000000E+00  0.00000000000E+00 -0.28241271991E+04  0.28241271991E+04  0.50400001928E-02 0.  1.
    10030    2    1    2    0    0  0.00000000000E+00  0.00000000000E+00 -0.17225240738E+04  0.39257303245E+04  0.35276436038E+04 0.  0.
        5    1    3    3  502    0  0.16919157351E+04  0.43783631323E+03 -0.59611973904E+03  0.18465265568E+04  0.46999998093E+01 0. -1.
       -5    1    3    3    0  502 -0.16919157351E+04 -0.43783631323E+03 -0.11264043348E+04  0.20792037676E+04  0.46999998093E+01 0.  1.
</event>
<event>
 5   0  0.1444091E-06  0.2271386E+04  0.7818609E-02  0.8489290E-01
        2   -1    0    0  501    0  0.00000000000E+00  0.00000000000E+00  0.12002922357E+04  0.12002922357E+04  0.25500000920E-02 0. -1.
       -2   -1    0    0    0  501  0.00000000000E+00  0.00000000000E+00 -0.10745700968E+04  0.10745700969E+04  0.25500000920E-02 0.  1.
    10030    2    1    2    0    0  0.00000000000E+00  0.00000000000E+00  0.12572213880E+03  0.22748623325E+04  0.22713856070E+04 0.  0.
        1    1    3    3  502    0  0.91070175435E+03  0.56924136855E+01  0.74241866914E+03  0.11749874762E+04  0.50400001928E-02 0. -1.
       -1    1    3    3    0  502 -0.91070175435E+03 -0.56924136855E+01 -0.61669653034E+03  0.10998748563E+04  0.50400001928E-02 0.  1.
</event>
<event>
 5   0  0.1379425E-06  0.3650405E+04  0.7818609E-02  0.8079042E-01
       -2   -1    0    0    0  501  0.00000000000E+00  0.00000000000E+00  0.13186356512E+04  0.13186356512E+04  0.25500000920E-02 0. -1.
        2   -1    0    0  501    0  0.00000000000E+00  0.00000000000E+00 -0.25263717169E+04  0.25263717169E+04  0.25500000920E-02 0.  1.
    10030    2    1    2    0    0  0.00000000000E+00  0.00000000000E+00 -0.12077360657E+04  0.38450073681E+04  0.36504048072E+04 0.  0.
        4    1    3    3  502    0  0.12875465422E+04 -0.56143702865E+03  0.62375751904E+03  0.15369003517E+04  0.12699999809E+01 0. -1.
       -4    1    3    3    0  502 -0.12875465422E+04  0.56143702865E+03 -0.18314935847E+04  0.23081070164E+04  0.12699999809E+01 0.  1.
</event>
<event>
 5   0  0.4811500E-07  0.3625997E+04  0.7818609E-02  0.8084563E-01
        1   -1    0    0  501    0  0.00000000000E+00  0.00000000000E+00  0.21021725409E+04  0.21021725409E+04  0.50400001928E-02 0.  1.
       -1   -1    0    0    0  501  0.00000000000E+00  0.00000000000E+00 -0.15636029085E+04  0.15636029085E+04  0.50400001928E-02 0. -1.
    10030    2    1    2    0    0  0.00000000000E+00  0.00000000000E+00  0.53856963234E+03  0.36657754494E+04  0.36259967452E+04 0.  0.
        3    1    3    3  502    0  0.43868095038E+03 -0.13696796729E+04  0.13852513291E+04  0.19968436688E+04  0.10100000352E+00 0.  1.
       -3    1    3    3    0  502 -0.43868095038E+03  0.13696796729E+04 -0.84668169678E+03  0.16689317806E+04  0.10100000352E+00 0. -1.
</event>
<event>
 5   0  0.1379425E-06  0.3624526E+04  0.7818609E-02  0.8084897E-01
        2   -1    0    0  501    0  0.00000000000E+00  0.00000000000E+00  0.25861013358E+04  0.25861013358E+04  0.25500000920E-02 0. -1.
       -2   -1    0    0    0  501  0.00000000000E+00  0.00000000000E+00 -0.12699799962E+04  0.12699799962E+04  0.25500000920E-02 0.  1.
    10030    2    1    2    0    0  0.00000000000E+00  0.00000000000E+00  0.13161213396E+04  0.38560813320E+04  0.36245258806E+04 0.  0.
        4    1    3    3  502    0  0.17567489741E+04 -0.34014738070E+03  0.35261584930E+03  0.18237891185E+04  0.12699999809E+01 0.  1.
       -4    1    3    3    0  502 -0.17567489741E+04  0.34014738070E+03  0.96350549028E+03  0.20322922136E+04  0.12699999809E+01 0. -1.
</event>
<event>
 5   0  0.1491854E-06  0.3655533E+04  0.7818609E-02  0.8077888E-01
       -2   -1    0    0    0  501  0.00000000000E+00  0.00000000000E+00  0.14767481166E+04  0.14767481166E+04  0.25500000920E-02 0. -1.
        2   -1    0    0  501    0  0.00000000000E+00  0.00000000000E+00 -0.22622208545E+04  0.22622208545E+04  0.25500000920E-02 0.  1.
    10030    2    1    2    0    0  0.00000000000E+00  0.00000000000E+00 -0.78547273788E+03  0.37389689710E+04  0.36555330042E+04 0.  0.
        5    1    3    3  502    0  0.54769854505E+03 -0.74766648225E+03  0.12185709037E+04  0.15309853044E+04  0.46999998093E+01 0. -1.
       -5    1    3    3    0  502 -0.54769854505E+03  0.74766648225E+03 -0.20040436416E+04  0.22079836667E+04  0.46999998093E+01 0.  1.
</event>
<event>
 5   0  0.1444091E-06  0.3507892E+04  0.7818609E-02  0.8111922E-01
        2   -1    0    0  501    0  0.00000000000E+00  0.00000000000E+00  0.17264564434E+04  0.17264564434E+04  0.25500000920E-02 0.  1.
       -2   -1    0    0    0  501  0.00000000000E+00  0.00000000000E+00 -0.17818735772E+04  0.17818735772E+04  0.25500000920E-02 0. -1.
    10030    2    1    2    0    0  0.00000000000E+00  0.00000000000E+00 -0.55417133754E+02  0.35083300206E+04  0.35078923123E+04 0.  0.
        1    1    3    3  502    0  0.20200002659E+03  0.13688609364E+04 -0.11056848110E+04  0.17711925856E+04  0.50400001928E-02 0.  1.
       -1    1    3    3    0  502 -0.20200002659E+03 -0.13688609364E+04  0.10502676772E+04  0.17371374349E+04  0.50400001928E-02 0. -1.
</event>
<event>
 5   0  0.4811500E-07  0.3377494E+04  0.7818609E-02  0.8143452E-01
       -1   -1    0    0    0  501  0.00000000000E+00  0.00000000000E+00  0.24213700092E+04  0.24213700092E+04  0.50400001928E-02 0. -1.
        1   -1    0    0  501    0  0.00000000000E+00  0.00000000000E+00 -0.11777902013E+04  0.11777902013E+04  0.50400001928E-02 0.  1.
    10030    2    1    2    0    0  0.00000000000E+00  0.00000000000E+00  0.12435798080E+04  0.35991602105E+04  0.33774936687E+04 0.  0.
        4    1    3    3  502    0  0.59802272368E+03 -0.14456839358E+04 -0.55729072037E+02  0.15654841304E+04  0.12699999809E+01 0.  1.
       -4    1    3    3    0  502 -0.59802272368E+03  0.14456839358E+04  0.12993088800E+04  0.20336760801E+04  0.12699999809E+01 0. -1.
</event>
<event>
 5   0  0.1444091E-06  0.3607218E+04  0.7818609E-02  0.8088840E-01
       -2   -1    0    0    0  501  0.00000000000E+00  0.00000000000E+00  0.20717551358E+04  0.20717551358E+04  0.25500000920E-02 0. -1.
        2   -1    0    0  501    0  0.00000000000E+00  0.00000000000E+00 -0.15701690023E+04  0.15701690023E+04  0.25500000920E-02 0.  1.
    10030    2    1    2    0    0  0.00000000000E+00  0.00000000000E+00  0.50158613343E+03  0.36419241381E+04  0.36072181495E+04 0.  0.
        1    1    3    3  502    0  0.77922153814E+03 -0.76030733252E+03 -0.12010100976E+04  0.16210116286E+04  0.50400001928E-02 0.  1.
       -1    1    3    3    0  502 -0.77922153814E+03  0.76030733252E+03  0.17025962310E+04  0.20209125096E+04  0.50400001928E-02 0. -1.
</event>
<event>
 5   0  0.4811500E-07  0.3570103E+04  0.7818609E-02  0.8097375E-01
        1   -1    0    0  501    0  0.00000000000E+00  0.00000000000E+00  0.22616830278E+04  0.22616830278E+04  0.50400001928E-02 0.  1.
       -1   -1    0    0    0  501  0.00000000000E+00  0.00000000000E+00 -0.14088660440E+04  0.14088660440E+04  0.50400001928E-02 0. -1.
    10030    2    1    2    0    0  0.00000000000E+00  0.00000000000E+00  0.85281698374E+03  0.36705490718E+04  0.35701027550E+04 0.  0.
        2    1    3    3  502    0 -0.63556932678E+03  0.81305860480E+03  0.19238889590E+04  0.21831998055E+04  0.25500000920E-02 0.  1.
       -2    1    3    3    0  502  0.63556932678E+03 -0.81305860480E+03 -0.10710719753E+04  0.14873492664E+04  0.25500000920E-02 0. -1.
</event>
<event>
 5   0  0.1505671E-06  0.3654798E+04  0.7818609E-02  0.8078054E-01
       -2   -1    0    0    0  501  0.00000000000E+00  0.00000000000E+00  0.14126127195E+04  0.14126127195E+04  0.25500000920E-02 0. -1.
        2   -1    0    0  501    0  0.00000000000E+00  0.00000000000E+00 -0.23639792274E+04  0.23639792274E+04  0.25500000920E-02 0.  1.
    10030    2    1    2    0    0  0.00000000000E+00  0.00000000000E+00 -0.95136650789E+03  0.37765919468E+04  0.36547980109E+04 0.  0.
        3    1    3    3  502    0 -0.39007973535E+03 -0.15189259703E+04 -0.14450763733E+04  0.21324971367E+04  0.10100000352E+00 0.  1.
       -3    1    3    3    0  502  0.39007973535E+03  0.15189259703E+04  0.49370986540E+03  0.16440948101E+04  0.10100000352E+00 0. -1.
</event>
<event>
 5   0  0.4811500E-07  0.3457969E+04  0.7818609E-02  0.8123824E-01
       -1   -1    0    0    0  501  0.00000000000E+00  0.00000000000E+00  0.15085007206E+04  0.15085007206E+04  0.50400001928E-02 0.  1.
        1   -1    0    0  501    0  0.00000000000E+00  0.00000000000E+00 -0.19816946716E+04  0.19816946716E+04  0.50400001928E-02 0. -1.
    10030    2    1    2    0    0  0.00000000000E+00  0.00000000000E+00 -0.47319395096E+03  0.34901953922E+04  0.34579692539E+04 0.  0.
        4    1    3    3  502    0 -0.10027600356E+04 -0.12577892089E+04  0.40320710556E+03  0.16583542944E+04  0.12699999809E+01 0.  1.
       -4    1    3    3    0  502  0.10027600356E+04  0.12577892089E+04 -0.87640105652E+03  0.18318410978E+04  0.12699999809E+01 0. -1.
</event>
<event>
 5   0  0.4811500E-07  0.3520586E+04  0.7818609E-02  0.8108929E-01
        1   -1    0    0  501    0  0.00000000000E+00  0.00000000000E+00  0.90683381891E+03  0.90683381893E+03  0.50400001928E-02 0. -1.
       -1   -1    0    0    0  501  0.00000000000E+00  0.00000000000E+00 -0.34169787880E+04  0.34169787880E+04  0.50400001928E-02 0.  1.
    10030    2    1    2    0    0  0.00000000000E+00  0.00000000000E+00 -0.25101449691E+04  0.43238126069E+04  0.35205862714E+04 0.  0.
        4    1    3    3  502    0 -0.15530453364E+03  0.56119161073E+03 -0.32952734872E+04  0.33463240265E+04  0.12699999809E+01 0.  1.
       -4    1    3    3    0  502  0.15530453364E+03 -0.56119161073E+03  0.78512851807E+03  0.97748858045E+03  0.12699999809E+01 0. -1.
</event>
<event>
 5   0  0.1444091E-06  0.3607180E+04  0.7818609E-02  0.8088849E-01
       -2   -1    0    0    0  501  0.00000000000E+00  0.00000000000E+00  0.12070101852E+04  0.12070101852E+04  0.25500000920E-02 0. -1.
        2   -1    0    0  501    0  0.00000000000E+00  0.00000000000E+00 -0.26950362010E+04  0.26950362010E+04  0.25500000920E-02 0.  1.
    10030    2    1    2    0    0  0.00000000000E+00  0.00000000000E+00 -0.14880260158E+04  0.39020463862E+04  0.36071795875E+04 0.  0.
        1    1    3    3  502    0 -0.93104018271E+03 -0.14173139682E+04 -0.14084906970E+04  0.22044184607E+04  0.50400001928E-02 0. -1.
       -1    1    3    3    0  502  0.93104018271E+03  0.14173139682E+04 -0.79535318764E+02  0.16976279255E+04  0.50400001928E-02 0.  1.
</event>
<event>
 5   0  0.1379425E-06  0.3620219E+04  0.7818609E-02  0.8085876E-01
        2   -1    0    0  501    0  0.00000000000E+00  0.00000000000E+00  0.16430519932E+04  0.16430519932E+04  0.25500000920E-02 0.  1.
       -2   -1    0    0    0  501  0.00000000000E+00  0.00000000000E+00 -0.19941531352E+04  0.19941531352E+04  0.25500000920E-02 0. -1.
    10030    2    1    2    0    0  0.00000000000E+00  0.00000000000E+00 -0.35110114202E+03  0.36372051285E+04  0.36202194871E+04 0.  0.
        4    1    3    3  502    0 -0.10107024846E+04 -0.13358571143E+04  0.51356987459E+03  0.17520814397E+04  0.12699999809E+01 0.  1.
       -4    1    3    3    0  502  0.10107024846E+04  0.13358571143E+04 -0.86467101661E+03  0.18851236888E+04  0.12699999809E+01 0. -1.
</event>
<event>
 5   0  0.4811500E-07  0.3530918E+04  0.7818609E-02  0.8106502E-01
        1   -1    0    0  501    0  0.00000000000E+00  0.00000000000E+00  0.18806542138E+04  0.18806542139E+04  0.50400001928E-02 0. -1.
       -1   -1    0    0    0  501  0.00000000000E+00  0.00000000000E+00 -0.16573196131E+04  0.16573196131E+04  0.50400001928E-02 0.  1.
    10030    2    1    2    0    0  0.00000000000E+00  0.00000000000E+00  0.22333460072E+03  0.35379738270E+04  0.35309177924E+04 0.  0.
        5    1    3    3  502    0  0.36577565620E+03  0.13975158890E+04 -0.90524035740E+03  0.17047946168E+04  0.46999998093E+01 0.  1.
       -5    1    3    3    0  502 -0.36577565620E+03 -0.13975158890E+04  0.11285749581E+04  0.18331792102E+04  0.46999998093E+01 0. -1.
</event>
<event>
 5   0  0.1444091E-06  0.3511712E+04  0.7818609E-02  0.8111020E-01
       -2   -1    0    0    0  501  0.00000000000E+00  0.00000000000E+00  0.14500338902E+04  0.14500338902E+04  0.25500000920E-02 0. -1.
        2   -1    0    0  501    0  0.00000000000E+00  0.00000000000E+00 -0.21261775918E+04  0.21261775918E+04  0.25500000920E-02 0.  1.
    10030    2    1    2    0    0  0.00000000000E+00  0.00000000000E+00 -0.67614370162E+03  0.35762114820E+04  0.35117115854E+04 0.  0.
        1    1    3    3  502    0  0.32135620085E+02  0.13035151429E+04  0.85947117680E+03  0.15616898314E+04  0.50400001928E-02 0. -1.
       -1    1    3    3    0  502 -0.32135620085E+02 -0.13035151429E+04 -0.15356148784E+04  0.20145216506E+04  0.50400001928E-02 0.  1.
</event>
<event>
 5   0  0.1505671E-06  0.3510214E+04  0.7818609E-02  0.8111374E-01
        2   -1    0    0  501    0  0.00000000000E+00  0.00000000000E+00  0.31964808503E+04  0.31964808503E+04  0.25500000920E-02 0. -1.
       -2   -1    0    0    0  501  0.00000000000E+00  0.00000000000E+00 -0.96368498950E+03  0.96368498951E+03  0.25500000920E-02 0.  1.
    10030    2    1    2    0    0  0.00000000000E+00  0.00000000000E+00  0.22327958608E+04  0.41601658398E+04  0.35102140190E+04 0.  0.
        3    1    3    3  502    0  0.65356904253E+03  0.12354117728E+04  0.23745702749E+04  0.27553545584E+04  0.10100000352E+00 0. -1.
       -3    1    3    3    0  502 -0.65356904253E+03 -0.12354117728E+04 -0.14177441409E+03  0.14048112814E+04  0.10100000352E+00 0.  1.
</event>
<event>
 5   0  0.5071661E-07  0.3518680E+04  0.7818609E-02  0.8109377E-01
       -1   -1    0    0    0  501  0.00000000000E+00  0.00000000000E+00  0.13430762627E+04  0.13430762627E+04  0.50400001928E-02 0.  1.
        1   -1    0    0  501    0  0.00000000000E+00  0.00000000000E+00 -0.23046180103E+04  0.23046180103E+04  0.50400001928E-02 0. -1.
    10030    2    1    2    0    0  0.00000000000E+00  0.00000000000E+00 -0.96154174757E+03  0.36476942730E+04  0.35186802891E+04 0.  0.
        1    1    3    3  502    0 -0.12714895436E+04 -0.11236047193E+04 -0.96268598875E+03  0.19508812208E+04  0.50400001928E-02 0. -1.
       -1    1    3    3    0  502  0.12714895436E+04  0.11236047193E+04  0.11442411846E+01  0.16968130522E+04  0.50400001928E-02 0.  1.
</event>
<event>
 5   0  0.4811500E-07  0.2373586E+04  0.7818609E-02  0.8449459E-01
       -1   -1    0    0    0  501  0.00000000000E+00  0.00000000000E+00  0.80208174885E+03  0.80208174887E+03  0.50400001928E-02 0. -1.
        1   -1    0    0  501    0  0.00000000000E+00  0.00000000000E+00 -0.17560281050E+04  0.17560281051E+04  0.50400001928E-02 0.  1.
    10030    2    1    2    0    0  0.00000000000E+00  0.00000000000E+00 -0.95394635620E+03  0.25581098539E+04  0.23735863949E+04 0.  0.
        4    1    3    3  502    0  0.30077916952E+03  0.10761394270E+04 -0.45968240289E+02  0.11183286042E+04  0.12699999809E+01 0. -1.
       -4    1    3    3    0  502 -0.30077916952E+03 -0.10761394270E+04 -0.90797811591E+03  0.14397812497E+04  0.12699999809E+01 0.  1.
</event>
<event>
 5   0  0.4811500E-07  0.3708752E+04  0.7818609E-02  0.8066025E-01
        1   -1    0    0  501    0  0.00000000000E+00  0.00000000000E+00  0.23511094341E+04  0.23511094341E+04  0.50400001928E-02 0.  1.
       -1   -1    0    0    0  501  0.00000000000E+00  0.00000000000E+00 -0.14625908251E+04  0.14625908251E+04  0.50400001928E-02 0. -1.
    10030    2    1    2    0    0  0.00000000000E+00  0.00000000000E+00  0.88851860900E+03  0.38137002592E+04  0.37087523978E+04 0.  0.
        3    1    3    3  502    0  0.18281071697E+03  0.14087469428E+04  0.16699290847E+04  0.21924075500E+04  0.10100000352E+00 0.  1.
       -3    1    3    3    0  502 -0.18281071697E+03 -0.14087469428E+04 -0.78141047571E+03  0.16212927092E+04  0.10100000352E+00 0. -1.
</event>
<event>
 5   0  0.4811500E-07  0.2290444E+04  0.7818609E-02  0.8481698E-01
       -1   -1    0    0    0  501  0.00000000000E+00  0.00000000000E+00  0.12166094545E+04  0.12166094545E+04  0.50400001928E-02 0.  1.
        1   -1    0    0  501    0  0.00000000000E+00  0.00000000000E+00 -0.10780234026E+04  0.10780234026E+04  0.50400001928E-02 0. -1.
    10030    2    1    2    0    0  0.00000000000E+00  0.00000000000E+00  0.13858605184E+03  0.22946328571E+04  0.22904440301E+04 0.  0.
        5    1    3    3  502    0  0.50707973262E+03  0.98029687253E+03  0.37546535649E+03  0.11658079333E+04  0.46999998093E+01 0.  1.
       -5    1    3    3    0  502 -0.50707973262E+03 -0.98029687253E+03 -0.23687930465E+03  0.11288249238E+04  0.46999998093E+01 0. -1.
</event>
<event>
 5   0  0.4811500E-07  0.2435107E+04  0.7818609E-02  0.8426476E-01
        1   -1    0    0  501    0  0.00000000000E+00  0.00000000000E+00  0.27671321922E+04  0.27671321922E+04  0.50400001928E-02 0. -1.
       -1   -1    0    0    0  501  0.00000000000E+00  0.00000000000E+00 -0.53573038945E+03  0.53573038947E+03  0.50400001928E-02 0.  1.
    10030    2    1    2    0    0  0.00000000000E+00  0.00000000000E+00  0.22314018028E+04  0.33028625817E+04  0.24351072313E+04 0.  0.
        3    1    3    3  502    0  0.11258900517E+04  0.10939497800E+03  0.50482861613E+03  0.12387282235E+04  0.10100000352E+00 0.  1.
       -3    1    3    3    0  502 -0.11258900517E+04 -0.10939497800E+03  0.17265731866E+04  0.20641343582E+04  0.10100000352E+00 0. -1.
</event>
<event>
 5   0  0.1379425E-06  0.2443155E+04  0.7818609E-02  0.8423521E-01
        2   -1    0    0  501    0  0.00000000000E+00  0.00000000000E+00  0.10809444253E+04  0.10809444253E+04  0.25500000920E-02 0.  1.
       -2   -1    0    0    0  501  0.00000000000E+00  0.00000000000E+00 -0.13805072036E+04  0.13805072036E+04  0.25500000920E-02 0. -1.
    10030    2    1    2    0    0  0.00000000000E+00  0.00000000000E+00 -0.29956277831E+03  0.24614516289E+04  0.24431549815E+04 0.  0.
        4    1    3    3  502    0 -0.42466787548E+02 -0.12040628947E+04 -0.35298236960E+03  0.12554557135E+04  0.12699999809E+01 0.  1.
       -4    1    3    3    0  502  0.42466787548E+02  0.12040628947E+04  0.53419591287E+02  0.12059959154E+04  0.12699999809E+01 0. -1.
</event>
<event>
 5   0  0.1444091E-06  0.3575836E+04  0.7818609E-02  0.8096049E-01
       -2   -1    0    0    0  501  0.00000000000E+00  0.00000000000E+00  0.13576339160E+04  0.13576339160E+04  0.25500000920E-02 0.  1.
        2   -1    0    0  501    0  0.00000000000E+00  0.00000000000E+00 -0.23545745579E+04  0.23545745579E+04  0.25500000920E-02 0. -1.
    10030    2    1    2    0    0  0.00000000000E+00  0.00000000000E+00 -0.99694064189E+03  0.37122084738E+04  0.35758357219E+04 0.  0.
        1    1    3    3  502    0  0.10709827810E+04 -0.13597729892E+04 -0.33431643238E+02  0.17312147106E+04  0.50400001928E-02 0.  1.
       -1    1    3    3    0  502 -0.10709827810E+04  0.13597729892E+04 -0.96350899865E+03  0.19809937632E+04  0.50400001928E-02 0. -1.
</event>
<event>
 5   0  0.4811500E-07  0.3575769E+04  0.7818609E-02  0.8096065E-01
        1   -1    0    0  501    0  0.00000000000E+00  0.00000000000E+00  0.21319039798E+04  0.21319039798E+04  0.50400001928E-02 0. -1.
       -1   -1    0    0    0  501  0.00000000000E+00  0.00000000000E+00 -0.14993782838E+04  0.14993782838E+04  0.50400001928E-02 0.  1.
    10030    2    1    2    0    0  0.00000000000E+00  0.00000000000E+00  0.63252569604E+03  0.36312822636E+04  0.35757687456E+04 0.  0.
        2    1    3    3  502    0  0.71658127330E+03  0.16101093235E+04  0.62191691338E+03  0.18688823938E+04  0.25500000920E-02 0.  1.
       -2    1    3    3    0  502 -0.71658127330E+03 -0.16101093235E+04  0.10608782654E+02  0.17623998698E+04  0.25500000920E-02 0. -1.
</event>
<event>
 5   0  0.1491854E-06  0.2306469E+04  0.7818609E-02  0.8475375E-01
        2   -1    0    0  501    0  0.00000000000E+00  0.00000000000E+00  0.18839120553E+04  0.18839120553E+04  0.25500000920E-02 0.  1.
       -2   -1    0    0    0  501  0.00000000000E+00  0.00000000000E+00 -0.70595130382E+03  0.70595130382E+03  0.25500000920E-02 0. -1.
    10030    2    1    2    0    0  0.00000000000E+00  0.00000000000E+00  0.11779607515E+04  0.25898633591E+04  0.23064693119E+04 0.  0.
        5    1    3    3  502    0 -0.11301914994E+04 -0.17102686870E+02  0.84577826573E+03  0.14117323727E+04  0.46999998093E+01 0.  1.
       -5    1    3    3    0  502  0.11301914994E+04  0.17102686870E+02  0.33218248574E+03  0.11781309864E+04  0.46999998093E+01 0. -1.
</event>
<event>
 5   0  0.4811500E-07  0.3614707E+04  0.7818609E-02  0.8087131E-01
        1   -1    0    0  501    0  0.00000000000E+00  0.00000000000E+00  0.11978190810E+04  0.11978190810E+04  0.50400001928E-02 0. -1.
       -1   -1    0    0    0  501  0.00000000000E+00  0.00000000000E+00 -0.27270624386E+04  0.27270624386E+04  0.50400001928E-02 0.  1.
    10030    2    1    2    0    0  0.00000000000E+00  0.00000000000E+00 -0.15292433576E+04  0.39248815196E+04  0.36147074150E+04 0.  0.
        2    1    3    3  502    0  0.11841882970E+04  0.13596875806E+04 -0.62954781741E+03  0.19098122144E+04  0.25500000920E-02 0. -1.
       -2    1    3    3    0  502 -0.11841882970E+04 -0.13596875806E+04 -0.89969554015E+03  0.20150693052E+04  0.25500000920E-02 0.  1.
</event>
<event>
 5   0  0.1468942E-06  0.3546989E+04  0.7818609E-02  0.8102744E-01
        2   -1    0    0  501    0  0.00000000000E+00  0.00000000000E+00  0.18872223728E+04  0.18872223728E+04  0.25500000920E-02 0.  1.
       -2   -1    0    0    0  501  0.00000000000E+00  0.00000000000E+00 -0.16666201913E+04  0.16666201913E+04  0.25500000920E-02 0. -1.
    10030    2    1    2    0    0  0.00000000000E+00  0.00000000000E+00  0.22060218144E+03  0.35538425641E+04  0.35469890961E+04 0.  0.
        2    1    3    3  502    0  0.43771660833E+03  0.12503897960E+04 -0.10710498093E+04  0.17035897878E+04  0.25500000920E-02 0. -1.
       -2    1    3    3    0  502 -0.43771660833E+03 -0.12503897960E+04  0.12916519907E+04  0.18502527763E+04  0.25500000920E-02 0.  1.
</event>
<event>
 5   0  0.1505671E-06  0.3450139E+04  0.7818609E-02  0.8125709E-01
       -2   -1    0    0    0  501  0.00000000000E+00  0.00000000000E+00  0.19251750005E+04  0.19251750005E+04  0.25500000920E-02 0.  1.
        2   -1    0    0  501    0  0.00000000000E+00  0.00000000000E+00 -0.15457629055E+04  0.15457629055E+04  0.25500000920E-02 0. -1.
    10030    2    1    2    0    0  0.00000000000E+00  0.00000000000E+00  0.37941209493E+03  0.34709379060E+04  0.34501386073E+04 0.  0.
        3    1    3    3  502    0  0.14038756106E+04  0.76877528161E+03 -0.45758707569E+03  0.16647126196E+04  0.10100000352E+00 0. -1.
       -3    1    3    3    0  502 -0.14038756106E+04 -0.76877528161E+03  0.83699917062E+03  0.18062252865E+04  0.10100000352E+00 0.  1.
</event>
<event>
 5   0  0.4811500E-07  0.3540492E+04  0.7818609E-02  0.8104260E-01
       -3   -1    0    0    0  501  0.00000000000E+00  0.00000000000E+00  0.15748485399E+04  0.15748485432E+04  0.10100000352E+00 0. -1.
        3   -1    0    0  501    0  0.00000000000E+00  0.00000000000E+00 -0.19898869513E+04  0.19898869539E+04  0.10100000352E+00 0.  1.
    10030    2    1    2    0    0  0.00000000000E+00  0.00000000000E+00 -0.41503841140E+03  0.35647354970E+04  0.35404918134E+04 0.  0.
        4    1    3    3  502    0 -0.11548292525E+04  0.32385741612E+03 -0.15184543261E+04  0.19349985483E+04  0.12699999809E+01 0.  1.
       -4    1    3    3    0  502  0.11548292525E+04 -0.32385741612E+03  0.11034159147E+04  0.16297369488E+04  0.12699999809E+01 0. -1.
</event>
<event>
 5   0  0.1444091E-06  0.3547931E+04  0.7818609E-02  0.8102524E-01
       -2   -1    0    0    0  501  0.00000000000E+00  0.00000000000E+00  0.95794733255E+03  0.95794733255E+03  0.25500000920E-02 0. -1.
        2   -1    0    0  501    0  0.00000000000E+00  0.00000000000E+00 -0.32851004649E+04  0.32851004649E+04  0.25500000920E-02 0.  1.
    10030    2    1    2    0    0  0.00000000000E+00  0.00000000000E+00 -0.23271531323E+04  0.42430477974E+04  0.35479307927E+04 0.  0.
        1    1    3    3  502    0  0.11755963844E+04  0.85083309940E+03  0.56620878113E+02  0.14522912056E+04  0.50400001928E-02 0. -1.
       -1    1    3    3    0  502 -0.11755963844E+04 -0.85083309940E+03 -0.23837740104E+04  0.27907565918E+04  0.50400001928E-02 0.  1.
</event>
<event>
 5   0  0.1379425E-06  0.3536229E+04  0.7818609E-02  0.8105257E-01
        2   -1    0    0  501    0  0.00000000000E+00  0.00000000000E+00  0.12147436513E+04  0.12147436513E+04  0.25500000920E-02 0. -1.
       -2   -1    0    0    0  501  0.00000000000E+00  0.00000000000E+00 -0.25735709875E+04  0.25735709875E+04  0.25500000920E-02 0.  1.
    10030    2    1    2    0    0  0.00000000000E+00  0.00000000000E+00 -0.13588273362E+04  0.37883146388E+04  0.35362290753E+04 0.  0.
        4    1    3    3  502    0  0.17407936540E+04 -0.18769694409E+03 -0.41561880871E+03  0.17995369670E+04  0.12699999809E+01 0. -1.
       -4    1    3    3    0  502 -0.17407936540E+04  0.18769694409E+03 -0.94320852746E+03  0.19887776718E+04  0.12699999809E+01 0.  1.
</event>
<event>
 5   0  0.4811500E-07  0.3581689E+04  0.7818609E-02  0.8094699E-01
        1   -1    0    0  501    0  0.00000000000E+00  0.00000000000E+00  0.11907565255E+04  0.11907565255E+04  0.50400001928E-02 0. -1.
       -1   -1    0    0    0  501  0.00000000000E+00  0.00000000000E+00 -0.26933502674E+04  0.26933502674E+04  0.50400001928E-02 0.  1.
    10030    2    1    2    0    0  0.00000000000E+00  0.00000000000E+00 -0.15025937419E+04  0.38841067929E+04  0.35816892139E+04 0.  0.
        5    1    3    3  502    0 -0.14591672037E+04 -0.23075531519E+02 -0.18769172097E+04  0.23775074576E+04  0.46999998093E+01 0.  1.
       -5    1    3    3    0  502  0.14591672037E+04  0.23075531519E+02  0.37432346779E+03  0.15065993353E+04  0.46999998093E+01 0. -1.
</event>
<event>
 5   0  0.4811500E-07  0.3573630E+04  0.7818609E-02  0.8096559E-01
       -1   -1    0    0    0  501  0.00000000000E+00  0.00000000000E+00  0.10954260757E+04  0.10954260757E+04  0.50400001928E-02 0.  1.
        1   -1    0    0  501    0  0.00000000000E+00  0.00000000000E+00 -0.29145816162E+04  0.29145816162E+04  0.50400001928E-02 0. -1.
    10030    2    1    2    0    0  0.00000000000E+00  0.00000000000E+00 -0.18191555405E+04  0.40100076919E+04  0.35736304801E+04 0.  0.
        2    1    3    3  502    0 -0.64400525891E+01 -0.17484213463E+04 -0.13229197553E+04  0.21925180404E+04  0.25500000920E-02 0. -1.
       -2    1    3    3    0  502  0.64400525891E+01  0.17484213463E+04 -0.49623578526E+03  0.18174896515E+04  0.25500000920E-02 0.  1.
</event>
<event>
 5   0  0.4811500E-07  0.3637268E+04  0.7818609E-02  0.8082008E-01
       -1   -1    0    0    0  501  0.00000000000E+00  0.00000000000E+00  0.14570015860E+04  0.14570015860E+04  0.50400001928E-02 0. -1.
        1   -1    0    0  501    0  0.00000000000E+00  0.00000000000E+00 -0.22700244835E+04  0.22700244835E+04  0.50400001928E-02 0.  1.
    10030    2    1    2    0    0  0.00000000000E+00  0.00000000000E+00 -0.81302289750E+03  0.37270260694E+04  0.36372678057E+04 0.  0.
        5    1    3    3  502    0 -0.11265216763E+04 -0.73755787223E+03  0.84609724060E+03  0.15902658057E+04  0.46999998093E+01 0. -1.
       -5    1    3    3    0  502  0.11265216763E+04  0.73755787223E+03 -0.16591201381E+04  0.21367602638E+04  0.46999998093E+01 0.  1.
</event>
<event>
 5   0  0.1505671E-06  0.3631640E+04  0.7818609E-02  0.8083282E-01
       -2   -1    0    0    0  501  0.00000000000E+00  0.00000000000E+00  0.18718823282E+04  0.18718823282E+04  0.25500000920E-02 0. -1.
        2   -1    0    0  501    0  0.00000000000E+00  0.00000000000E+00 -0.17614364387E+04  0.17614364387E+04  0.25500000920E-02 0.  1.
    10030    2    1    2    0    0  0.00000000000E+00  0.00000000000E+00  0.11044588953E+03  0.36333187669E+04  0.36316397078E+04 0.  0.
        3    1    3    3  502    0 -0.14244409698E+04 -0.37300536119E+03  0.11182755770E+04  0.18489741351E+04  0.10100000352E+00 0. -1.
       -3    1    3    3    0  502  0.14244409698E+04  0.37300536119E+03 -0.10078296875E+04  0.17843446318E+04  0.10100000352E+00 0.  1.
</event>
<event>
 5   0  0.1468942E-06  0.3643673E+04  0.7818609E-02  0.8080561E-01
       -2   -1    0    0    0  501  0.00000000000E+00  0.00000000000E+00  0.27266152526E+04  0.27266152526E+04  0.25500000920E-02 0.  1.
        2   -1    0    0  501    0  0.00000000000E+00  0.00000000000E+00 -0.12172923354E+04  0.12172923354E+04  0.25500000920E-02 0. -1.
    10030    2    1    2    0    0  0.00000000000E+00  0.00000000000E+00  0.15093229173E+04  0.39439075880E+04  0.36436727891E+04 0.  0.
        2    1    3    3  502    0  0.67786157747E+02  0.13484519979E+04  0.20786305480E+04  0.24786332341E+04  0.25500000920E-02 0.  1.
       -2    1    3    3    0  502 -0.67786157747E+02 -0.13484519979E+04 -0.56930763074E+03  0.14652743539E+04  0.25500000920E-02 0. -1.
</event>
<event>
 5   0  0.1491854E-06  0.3518712E+04  0.7818609E-02  0.8109370E-01
       -2   -1    0    0    0  501  0.00000000000E+00  0.00000000000E+00  0.16044662737E+04  0.16044662737E+04  0.25500000920E-02 0. -1.
        2   -1    0    0  501    0  0.00000000000E+00  0.00000000000E+00 -0.19291985532E+04  0.19291985532E+04  0.25500000920E-02 0.  1.
    10030    2    1    2    0    0  0.00000000000E+00  0.00000000000E+00 -0.32473227947E+03  0.35336648269E+04  0.35187122724E+04 0.  0.
        5    1    3    3  502    0  0.17073489550E+04 -0.23832194459E+03 -0.51524819030E+03  0.17992611237E+04  0.46999998093E+01 0. -1.
       -5    1    3    3    0  502 -0.17073489550E+04  0.23832194459E+03  0.19051591083E+03  0.17344037032E+04  0.46999998093E+01 0.  1.
</event>
<event>
 5   0  0.4811500E-07  0.3613413E+04  0.7818609E-02  0.8087426E-01
       -1   -1    0    0    0  501  0.00000000000E+00  0.00000000000E+00  0.22383728771E+04  0.22383728771E+04  0.50400001928E-02 0. -1.
        1   -1    0    0  501    0  0.00000000000E+00  0.00000000000E+00 -0.14582860554E+04  0.14582860554E+04  0.50400001928E-02 0.  1.
    10030    2    1    2    0    0  0.00000000000E+00  0.00000000000E+00  0.78008682170E+03  0.36966589325E+04  0.36134127655E+04 0.  0.
        4    1    3    3  502    0 -0.14704303562E+04  0.36362083388E+03  0.13975156238E+04  0.20609311184E+04  0.12699999809E+01 0. -1.
       -4    1    3    3    0  502  0.14704303562E+04 -0.36362083388E+03 -0.61742880212E+03  0.16357278141E+04  0.12699999809E+01 0.  1.
</event>
<event>
 5   0  0.5071661E-07  0.3520740E+04  0.7818609E-02  0.8108892E-01
       -1   -1    0    0    0  501  0.00000000000E+00  0.00000000000E+00  0.97689217946E+03  0.97689217948E+03  0.50400001928E-02 0.  1.
        1   -1    0    0  501    0  0.00000000000E+00  0.00000000000E+00 -0.31722051765E+04  0.31722051765E+04  0.50400001928E-02 0. -1.
    10030    2    1    2    0    0  0.00000000000E+00  0.00000000000E+00 -0.21953129970E+04  0.41490973560E+04  0.35207399385E+04 0.  0.
        1    1    3    3  502    0 -0.12582799881E+04 -0.57868033960E+03 -0.23782197656E+04  0.27521025994E+04  0.50400001928E-02 0. -1.
       -1    1    3    3    0  502  0.12582799881E+04  0.57868033960E+03  0.18290676860E+03  0.13969947566E+04  0.50400001928E-02 0.  1.
</event>
<event>
 5   0  0.1468942E-06  0.3549203E+04  0.7818609E-02  0.8102228E-01
       -2   -1    0    0    0  501  0.00000000000E+00  0.00000000000E+00  0.13060728557E+04  0.13060728557E+04  0.25500000920E-02 0. -1.
        2   -1    0    0  501    0  0.00000000000E+00  0.00000000000E+00 -0.24112053240E+04  0.24112053240E+04  0.25500000920E-02 0.  1.
    10030    2    1    2    0    0  0.00000000000E+00  0.00000000000E+00 -0.11051324683E+04  0.37172781797E+04  0.35492026277E+04 0.  0.
        2    1    3    3  502    0 -0.15991565692E+04  0.74164669177E+03 -0.33825901499E+03  0.17949263800E+04  0.25500000920E-02 0.  1.
       -2    1    3    3    0  502  0.15991565692E+04 -0.74164669177E+03 -0.76687345327E+03  0.19223517997E+04  0.25500000920E-02 0. -1.
</event>
<event>
 5   0  0.4811500E-07  0.3598238E+04  0.7818609E-02  0.8090895E-01
        1   -1    0    0  501    0  0.00000000000E+00  0.00000000000E+00  0.21566692698E+04  0.21566692699E+04  0.50400001928E-02 0. -1.
       -1   -1    0    0    0  501  0.00000000000E+00  0.00000000000E+00 -0.15008464503E+04  0.15008464503E+04  0.50400001928E-02 0.  1.
    10030    2    1    2    0    0  0.00000000000E+00  0.00000000000E+00  0.65582281951E+03  0.36575157202E+04  0.35982381346E+04 0.  0.
        5    1    3    3  502    0 -0.97074168486E+03  0.69378135158E+03 -0.10407984998E+04  0.15833368529E+04  0.46999998093E+01 0.  1.
       -5    1    3    3    0  502  0.97074168486E+03 -0.69378135158E+03  0.16966213193E+04  0.20741788673E+04  0.46999998093E+01 0. -1.
</event>
<event>
 5   0  0.4811500E-07  0.2952527E+04  0.7818609E-02  0.8257418E-01
       -1   -1    0    0    0  501  0.00000000000E+00  0.00000000000E+00  0.20264500404E+04  0.20264500404E+04  0.50400001928E-02 0. -1.
        1   -1    0    0  501    0  0.00000000000E+00  0.00000000000E+00 -0.10754540599E+04  0.10754540599E+04  0.50400001928E-02 0.  1.
    10030    2    1    2    0    0  0.00000000000E+00  0.00000000000E+00  0.95099598049E+03  0.31019041002E+04  0.29525270011E+04 0.  0.
        4    1    3    3  502    0  0.19373762072E+03 -0.12616492987E+04  0.12546804410E+04  0.17898373782E+04  0.12699999809E+01 0. -1.
       -4    1    3    3    0  502 -0.19373762072E+03  0.12616492987E+04 -0.30368446049E+03  0.13120667220E+04  0.12699999809E+01 0.  1.
</event>
<event>
 5   0  0.1379425E-06  0.3474247E+04  0.7818609E-02  0.8119920E-01
        2   -1    0    0  501    0  0.00000000000E+00  0.00000000000E+00  0.27913734776E+04  0.27913734776E+04  0.25500000920E-02 0. -1.
       -2   -1    0    0    0  501  0.00000000000E+00  0.00000000000E+00 -0.10810443577E+04  0.10810443577E+04  0.25500000920E-02 0.  1.
    10030    2    1    2    0    0  0.00000000000E+00  0.00000000000E+00  0.17103291199E+04  0.38724178353E+04  0.34742472844E+04 0.  0.
        4    1    3    3  502    0  0.16953796128E+04  0.41683418429E+02  0.12745104858E+04  0.21214212524E+04  0.12699999809E+01 0. -1.
       -4    1    3    3    0  502 -0.16953796128E+04 -0.41683418429E+02  0.43581863408E+03  0.17509965829E+04  0.12699999809E+01 0.  1.
</event>
<event>
 5   0  0.4811500E-07  0.3712946E+04  0.7818609E-02  0.8065099E-01
       -1   -1    0    0    0  501  0.00000000000E+00  0.00000000000E+00  0.21034183518E+04  0.21034183518E+04  0.50400001928E-02 0. -1.
        1   -1    0    0  501    0  0.00000000000E+00  0.00000000000E+00 -0.16385197699E+04  0.16385197699E+04  0.50400001928E-02 0.  1.
    10030    2    1    2    0    0  0.00000000000E+00  0.00000000000E+00  0.46489858191E+03  0.37419381218E+04  0.37129462985E+04 0.  0.
        5    1    3    3  502    0 -0.84919566653E+02  0.34559956531E+03  0.20687136581E+04  0.20991066389E+04  0.46999998093E+01 0. -1.
       -5    1    3    3    0  502  0.84919566653E+02 -0.34559956531E+03 -0.16038150762E+04  0.16428314828E+04  0.46999998093E+01 0.  1.
</event>
<event>
 5   0  0.1505671E-06  0.3485732E+04  0.7818609E-02  0.8117179E-01
        2   -1    0    0  501    0  0.00000000000E+00  0.00000000000E+00  0.19373627576E+04  0.19373627576E+04  0.25500000920E-02 0.  1.
       -2   -1    0    0    0  501  0.00000000000E+00  0.00000000000E+00 -0.15678957098E+04  0.15678957098E+04  0.25500000920E-02 0. -1.
    10030    2    1    2    0    0  0.00000000000E+00  0.00000000000E+00  0.36946704779E+03  0.35052584674E+04  0.34857324946E+04 0.  0.
        3    1    3    3  502    0 -0.13051901575E+04  0.11520705794E+04  0.10184132755E+03  0.17438920934E+04  0.10100000352E+00 0. -1.
       -3    1    3    3    0  502  0.13051901575E+04 -0.11520705794E+04  0.26762572024E+03  0.17613663740E+04  0.10100000352E+00 0.  1.
</event>
<event>
 5   0  0.1444091E-06  0.3554650E+04  0.7818609E-02  0.8100959E-01
       -2   -1    0    0    0  501  0.00000000000E+00  0.00000000000E+00  0.13557909148E+04  0.13557909148E+04  0.25500000920E-02 0. -1.
        2   -1    0    0  501    0  0.00000000000E+00  0.00000000000E+00 -0.23299202576E+04  0.23299202576E+04  0.25500000920E-02 0.  1.
    10030    2    1    2    0    0  0.00000000000E+00  0.00000000000E+00 -0.97412934283E+03  0.36857111724E+04  0.35546503161E+04 0.  0.
        1    1    3    3  502    0  0.13142188277E+04 -0.57668778613E+02 -0.17262820541E+04  0.21703793552E+04  0.50400001928E-02 0.  1.
       -1    1    3    3    0  502 -0.13142188277E+04  0.57668778613E+02  0.75215271130E+03  0.15153318172E+04  0.50400001928E-02 0. -1.
</event>
<event>
 5   0  0.5071661E-07  0.3543571E+04  0.7818609E-02  0.8103541E-01
       -1   -1    0    0    0  501  0.00000000000E+00  0.00000000000E+00  0.22841391076E+04  0.22841391076E+04  0.50400001928E-02 0.  1.
        1   -1    0    0  501    0  0.00000000000E+00  0.00000000000E+00 -0.13743579114E+04  0.13743579114E+04  0.50400001928E-02 0. -1.
    10030    2    1    2    0    0  0.00000000000E+00  0.00000000000E+00  0.90978119621E+03  0.36584970191E+04  0.35435714489E+04 0.  0.
        1    1    3    3  502    0  0.89063235808E+03 -0.15133534450E+04  0.69868454598E+03  0.18898742661E+04  0.50400001928E-02 0. -1.
       -1    1    3    3    0  502 -0.89063235808E+03  0.15133534450E+04  0.21109665024E+03  0.17686227530E+04  0.50400001928E-02 0.  1.
</event>
<event>
 5   0  0.4811500E-07  0.3254295E+04  0.7818609E-02  0.8174623E-01
        1   -1    0    0  501    0  0.00000000000E+00  0.00000000000E+00  0.22285326565E+04  0.22285326565E+04  0.50400001928E-02 0. -1.
       -1   -1    0    0    0  501  0.00000000000E+00  0.00000000000E+00 -0.11880501875E+04  0.11880501875E+04  0.50400001928E-02 0.  1.
    10030    2    1    2    0    0  0.00000000000E+00  0.00000000000E+00  0.10404824690E+04  0.34165828441E+04  0.32542947872E+04 0.  0.
        2    1    3    3  502    0  0.14311578239E+04  0.32723044877E+03 -0.21640183917E+03  0.14839549317E+04  0.25500000920E-02 0.  1.
       -2    1    3    3    0  502 -0.14311578239E+04 -0.32723044877E+03  0.12568843082E+04  0.19326279123E+04  0.25500000920E-02 0. -1.
</event>
<event>
 5   0  0.4811500E-07  0.3692904E+04  0.7818609E-02  0.8069536E-01
        1   -1    0    0  501    0  0.00000000000E+00  0.00000000000E+00  0.21502760372E+04  0.21502760372E+04  0.50400001928E-02 0.  1.
       -1   -1    0    0    0  501  0.00000000000E+00  0.00000000000E+00 -0.15855571688E+04  0.15855571688E+04  0.50400001928E-02 0. -1.
    10030    2    1    2    0    0  0.00000000000E+00  0.00000000000E+00  0.56471886843E+03  0.37358332060E+04  0.36929043235E+04 0.  0.
        4    1    3    3  502    0  0.23351767836E+03 -0.74698540710E+03 -0.14094649205E+04  0.16121757595E+04  0.12699999809E+01 0. -1.
       -4    1    3    3    0  502 -0.23351767836E+03  0.74698540710E+03  0.19741837889E+04  0.21236574465E+04  0.12699999809E+01 0.  1.
</event>
<event>
 5   0  0.4811500E-07  0.3695712E+04  0.7818609E-02  0.8068913E-01
       -1   -1    0    0    0  501  0.00000000000E+00  0.00000000000E+00  0.12521277435E+04  0.12521277435E+04  0.50400001928E-02 0.  1.
        1   -1    0    0  501    0  0.00000000000E+00  0.00000000000E+00 -0.27270149503E+04  0.27270149503E+04  0.50400001928E-02 0. -1.
    10030    2    1    2    0    0  0.00000000000E+00  0.00000000000E+00 -0.14748872068E+04  0.39791426938E+04  0.36957116101E+04 0.  0.
        4    1    3    3  502    0 -0.90628696777E+03  0.24605838308E+03 -0.24509298699E+04  0.26246827686E+04  0.12699999809E+01 0. -1.
       -4    1    3    3    0  502  0.90628696777E+03 -0.24605838308E+03  0.97604266309E+03  0.13544599252E+04  0.12699999809E+01 0.  1.
</event>
<event>
 5   0  0.5071661E-07  0.3542519E+04  0.7818609E-02  0.8103787E-01
        1   -1    0    0  501    0  0.00000000000E+00  0.00000000000E+00  0.20116937575E+04  0.20116937575E+04  0.50400001928E-02 0.  1.
       -1   -1    0    0    0  501  0.00000000000E+00  0.00000000000E+00 -0.15595611312E+04  0.15595611312E+04  0.50400001928E-02 0. -1.
    10030    2    1    2    0    0  0.00000000000E+00  0.00000000000E+00  0.45213262635E+03  0.35712548887E+04  0.35425185346E+04 0.  0.
        1    1    3    3  502    0 -0.71840887888E+03  0.15743020917E+04  0.60704856972E+03  0.18338610523E+04  0.50400001928E-02 0.  1.
       -1    1    3    3    0  502  0.71840887888E+03 -0.15743020917E+04 -0.15491594337E+03  0.17373938364E+04  0.50400001928E-02 0. -1.
</event>
<event>
 5   0  0.1505671E-06  0.3652521E+04  0.7818609E-02  0.8078566E-01
       -2   -1    0    0    0  501  0.00000000000E+00  0.00000000000E+00  0.26883934523E+04  0.26883934523E+04  0.25500000920E-02 0. -1.
        2   -1    0    0  501    0  0.00000000000E+00  0.00000000000E+00 -0.12406023163E+04  0.12406023163E+04  0.25500000920E-02 0.  1.
    10030    2    1    2    0    0  0.00000000000E+00  0.00000000000E+00  0.14477911360E+04  0.39289957686E+04  0.36525208522E+04 0.  0.
        3    1    3    3  502    0 -0.24645284020E+03  0.16952803265E+04  0.14046602679E+04  0.22153520863E+04  0.10100000352E+00 0. -1.
       -3    1    3    3    0  502  0.24645284020E+03 -0.16952803265E+04  0.43130868151E+02  0.17136436823E+04  0.10100000352E+00 0.  1.
</event>
<event>
 5   0  0.1468942E-06  0.3644533E+04  0.7818609E-02  0.8080366E-01
        2   -1    0    0  501    0  0.00000000000E+00  0.00000000000E+00  0.18474474534E+04  0.18474474534E+04  0.25500000920E-02 0. -1.
       -2   -1    0    0    0  501  0.00000000000E+00  0.00000000000E+00 -0.17974284784E+04  0.17974284784E+04  0.25500000920E-02 0.  1.
    10030    2    1    2    0    0  0.00000000000E+00  0.00000000000E+00  0.50018975076E+02  0.36448759318E+04  0.36445327081E+04 0.  0.
        2    1    3    3  502    0  0.15886462881E+04 -0.75712940672E+03  0.49793106370E+03  0.18289279131E+04  0.25500000920E-02 0. -1.
       -2    1    3    3    0  502 -0.15886462881E+04  0.75712940672E+03 -0.44791208862E+03  0.18159480186E+04  0.25500000920E-02 0.  1.
</event>
<event>
 5   0  0.4811500E-07  0.3501940E+04  0.7818609E-02  0.8113330E-01
       -1   -1    0    0    0  501  0.00000000000E+00  0.00000000000E+00  0.11862060341E+04  0.11862060341E+04  0.50400001928E-02 0.  1.
        1   -1    0    0  501    0  0.00000000000E+00  0.00000000000E+00 -0.25846231875E+04  0.25846231875E+04  0.50400001928E-02 0. -1.
    10030    2    1    2    0    0  0.00000000000E+00  0.00000000000E+00 -0.13984171534E+04  0.37708292216E+04  0.35019398173E+04 0.  0.
        2    1    3    3  502    0 -0.11891219173E+04 -0.51712232544E+03  0.56777163808E+03  0.14155532723E+04  0.25500000920E-02 0.  1.
       -2    1    3    3    0  502  0.11891219173E+04  0.51712232544E+03 -0.19661887914E+04  0.23552759493E+04  0.25500000920E-02 0. -1.
</event>
<event>
 5   0  0.4811500E-07  0.3683616E+04  0.7818609E-02  0.8071602E-01
       -1   -1    0    0    0  501  0.00000000000E+00  0.00000000000E+00  0.32231173078E+04  0.32231173078E+04  0.50400001928E-02 0. -1.
        1   -1    0    0  501    0  0.00000000000E+00  0.00000000000E+00 -0.10524771583E+04  0.10524771584E+04  0.50400001928E-02 0.  1.
    10030    2    1    2    0    0  0.00000000000E+00  0.00000000000E+00  0.21706401495E+04  0.42755944662E+04  0.36836163455E+04 0.  0.
        4    1    3    3  502    0 -0.12797203624E+04  0.13069747976E+04  0.13353124908E+04  0.22647137542E+04  0.12699999809E+01 0.  1.
       -4    1    3    3    0  502  0.12797203624E+04 -0.13069747976E+04  0.83532765867E+03  0.20108807120E+04  0.12699999809E+01 0. -1.
</event>
<event>
 5   0  0.4811500E-07  0.3571896E+04  0.7818609E-02  0.8096960E-01
        1   -1    0    0  501    0  0.00000000000E+00  0.00000000000E+00  0.25399957660E+04  0.25399957660E+04  0.50400001928E-02 0. -1.
       -1   -1    0    0    0  501  0.00000000000E+00  0.00000000000E+00 -0.12557542094E+04  0.12557542094E+04  0.50400001928E-02 0.  1.
    10030    2    1    2    0    0  0.00000000000E+00  0.00000000000E+00  0.12842415566E+04  0.37957499754E+04  0.35718960651E+04 0.  0.
        3    1    3    3  502    0 -0.11682935060E+04  0.29792497478E+03  0.20422441644E+04  0.23715881270E+04  0.10100000352E+00 0. -1.
       -3    1    3    3    0  502  0.11682935060E+04 -0.29792497478E+03 -0.75800260784E+03  0.14241618484E+04  0.10100000352E+00 0.  1.
</event>
<event>
 5   0  0.5071661E-07  0.2274563E+04  0.7818609E-02  0.8488018E-01
       -1   -1    0    0    0  501  0.00000000000E+00  0.00000000000E+00  0.86965262435E+03  0.86965262437E+03  0.50400001928E-02 0. -1.
        1   -1    0    0  501    0  0.00000000000E+00  0.00000000000E+00 -0.14872715915E+04  0.14872715915E+04  0.50400001928E-02 0.  1.
    10030    2    1    2    0    0  0.00000000000E+00  0.00000000000E+00 -0.61761896711E+03  0.23569242158E+04  0.22745633802E+04 0.  0.
        1    1    3    3  502    0  0.78167084942E+03  0.66910152716E+03  0.19319469594E+03  0.10469146866E+04  0.50400001928E-02 0.  1.
       -1    1    3    3    0  502 -0.78167084942E+03 -0.66910152716E+03 -0.81081366305E+03  0.13100095292E+04  0.50400001928E-02 0. -1.
</event>
<event>
 5   0  0.4811500E-07  0.3554207E+04  0.7818609E-02  0.8101062E-01
       -1   -1    0    0    0  501  0.00000000000E+00  0.00000000000E+00  0.12530611201E+04  0.12530611201E+04  0.50400001928E-02 0. -1.
        1   -1    0    0  501    0  0.00000000000E+00  0.00000000000E+00 -0.25203050829E+04  0.25203050829E+04  0.50400001928E-02 0.  1.
    10030    2    1    2    0    0  0.00000000000E+00  0.00000000000E+00 -0.12672439628E+04  0.37733662030E+04  0.35542066964E+04 0.  0.
        4    1    3    3  502    0 -0.15538598951E+04 -0.55077084194E+03 -0.13380614046E+04  0.21232614133E+04  0.12699999809E+01 0. -1.
       -4    1    3    3    0  502  0.15538598951E+04  0.55077084194E+03  0.70817441826E+02  0.16501047896E+04  0.12699999809E+01 0.  1.
</event>
<event>
 5   0  0.4811500E-07  0.3563394E+04  0.7818609E-02  0.8098929E-01
       -1   -1    0    0    0  501  0.00000000000E+00  0.00000000000E+00  0.14097375278E+04  0.14097375278E+04  0.50400001928E-02 0. -1.
        1   -1    0    0  501    0  0.00000000000E+00  0.00000000000E+00 -0.22517983506E+04  0.22517983507E+04  0.50400001928E-02 0.  1.
    10030    2    1    2    0    0  0.00000000000E+00  0.00000000000E+00 -0.84206082289E+03  0.36615358784E+04  0.35633942470E+04 0.  0.
        4    1    3    3  502    0 -0.15936990089E+04  0.20107201089E+03 -0.12130620892E+04  0.20129152316E+04  0.12699999809E+01 0.  1.
       -4    1    3    3    0  502  0.15936990089E+04 -0.20107201089E+03  0.37100126632E+03  0.16486206468E+04  0.12699999809E+01 0. -1.
</event>
<event>
 5   0  0.4811500E-07  0.3562799E+04  0.7818609E-02  0.8099067E-01
       -1   -1    0    0    0  501  0.00000000000E+00  0.00000000000E+00  0.17138258230E+04  0.17138258230E+04  0.50400001928E-02 0.  1.
        1   -1    0    0  501    0  0.00000000000E+00  0.00000000000E+00 -0.18516377133E+04  0.18516377133E+04  0.50400001928E-02 0. -1.
    10030    2    1    2    0    0  0.00000000000E+00  0.00000000000E+00 -0.13781189025E+03  0.35654635363E+04  0.35627991961E+04 0.  0.
        3    1    3    3  502    0 -0.12060965288E+04  0.11833343367E+04 -0.63362886188E+03  0.18045593740E+04  0.10100000352E+00 0. -1.
       -3    1    3    3    0  502  0.12060965288E+04 -0.11833343367E+04  0.49581697163E+03  0.17609041623E+04  0.10100000352E+00 0.  1.
</event>
<event>
 5   0  0.1468942E-06  0.3557476E+04  0.7818609E-02  0.8100302E-01
        2   -1    0    0  501    0  0.00000000000E+00  0.00000000000E+00  0.17816147087E+04  0.17816147087E+04  0.25500000920E-02 0. -1.
       -2   -1    0    0    0  501  0.00000000000E+00  0.00000000000E+00 -0.17758659657E+04  0.17758659657E+04  0.25500000920E-02 0.  1.
    10030    2    1    2    0    0  0.00000000000E+00  0.00000000000E+00  0.57487430452E+01  0.35574806744E+04  0.35574760295E+04 0.  0.
        2    1    3    3  502    0  0.86692505071E+03 -0.11730960423E+04  0.10208126128E+04  0.17803852837E+04  0.25500000920E-02 0. -1.
       -2    1    3    3    0  502 -0.86692505071E+03  0.11730960423E+04 -0.10150638698E+04  0.17770953907E+04  0.25500000920E-02 0.  1.
</event>
<event>
 5   0  0.4811500E-07  0.3603329E+04  0.7818609E-02  0.8089730E-01
       -1   -1    0    0    0  501  0.00000000000E+00  0.00000000000E+00  0.26028424093E+04  0.26028424093E+04  0.50400001928E-02 0.  1.
        1   -1    0    0  501    0  0.00000000000E+00  0.00000000000E+00 -0.12470958970E+04  0.12470958970E+04  0.50400001928E-02 0. -1.
    10030    2    1    2    0    0  0.00000000000E+00  0.00000000000E+00  0.13557465123E+04  0.38499383063E+04  0.36033285108E+04 0.  0.
        5    1    3    3  502    0  0.57760211634E+03  0.11218198911E+04  0.20519162583E+04  0.24088350907E+04  0.46999998093E+01 0.  1.
       -5    1    3    3    0  502 -0.57760211634E+03 -0.11218198911E+04 -0.69616974607E+03  0.14411032156E+04  0.46999998093E+01 0. -1.
</event>
<event>
 5   0  0.1444091E-06  0.3313445E+04  0.7818609E-02  0.8159483E-01
       -2   -1    0    0    0  501  0.00000000000E+00  0.00000000000E+00  0.14541692266E+04  0.14541692266E+04  0.25500000920E-02 0.  1.
        2   -1    0    0  501    0  0.00000000000E+00  0.00000000000E+00 -0.18874891852E+04  0.18874891852E+04  0.25500000920E-02 0. -1.
    10030    2    1    2    0    0  0.00000000000E+00  0.00000000000E+00 -0.43331995863E+03  0.33416584118E+04  0.33134445452E+04 0.  0.
        1    1    3    3  502    0  0.40556495008E+03  0.88367279387E+03  0.11361673311E+04  0.14954052092E+04  0.50400001928E-02 0.  1.
       -1    1    3    3    0  502 -0.40556495008E+03 -0.88367279387E+03 -0.15694872897E+04  0.18462532026E+04  0.50400001928E-02 0. -1.
</event>
<event>
 5   0  0.4811500E-07  0.3668767E+04  0.7818609E-02  0.8074919E-01
       -1   -1    0    0    0  501  0.00000000000E+00  0.00000000000E+00  0.15091697815E+04  0.15091697815E+04  0.50400001928E-02 0. -1.
        1   -1    0    0  501    0  0.00000000000E+00  0.00000000000E+00 -0.22296779625E+04  0.22296779625E+04  0.50400001928E-02 0.  1.
    10030    2    1    2    0    0  0.00000000000E+00  0.00000000000E+00 -0.72050818097E+03  0.37388477440E+04  0.36687668792E+04 0.  0.
        3    1    3    3  502    0  0.74439756286E+03 -0.15774732699E+04 -0.93891467065E+03  0.19809367526E+04  0.10100000352E+00 0.  1.
       -3    1    3    3    0  502 -0.74439756286E+03  0.15774732699E+04  0.21840648968E+03  0.17579109914E+04  0.10100000352E+00 0. -1.
</event>
<event>
 5   0  0.1444091E-06  0.2255363E+04  0.7818609E-02  0.8495732E-01
       -2   -1    0    0    0  501  0.00000000000E+00  0.00000000000E+00  0.78311713134E+03  0.78311713135E+03  0.25500000920E-02 0.  1.
        2   -1    0    0  501    0  0.00000000000E+00  0.00000000000E+00 -0.16238505388E+04  0.16238505388E+04  0.25500000920E-02 0. -1.
    10030    2    1    2    0    0  0.00000000000E+00  0.00000000000E+00 -0.84073340746E+03  0.24069676702E+04  0.22553626544E+04 0.  0.
        1    1    3    3  502    0  0.54952870726E+02 -0.66574898786E+01  0.78166632993E+03  0.78362388398E+03  0.50400001928E-02 0.  1.
       -1    1    3    3    0  502 -0.54952870726E+02  0.66574898786E+01 -0.16223997374E+04  0.16233437862E+04  0.50400001928E-02 0. -1.
</event>
<event>
 5   0  0.5071661E-07  0.3503585E+04  0.7818609E-02  0.8112941E-01
        1   -1    0    0  501    0  0.00000000000E+00  0.00000000000E+00  0.16964372454E+04  0.16964372454E+04  0.50400001928E-02 0. -1.
       -1   -1    0    0    0  501  0.00000000000E+00  0.00000000000E+00 -0.18089535667E+04  0.18089535667E+04  0.50400001928E-02 0.  1.
    10030    2    1    2    0    0  0.00000000000E+00  0.00000000000E+00 -0.11251632125E+03  0.35053908121E+04  0.35035845677E+04 0.  0.
        1    1    3    3  502    0  0.98637383483E+03  0.68440785587E+03 -0.13326229981E+04  0.17936642691E+04  0.50400001928E-02 0.  1.
       -1    1    3    3    0  502 -0.98637383483E+03 -0.68440785587E+03  0.12201066768E+04  0.17117265430E+04  0.50400001928E-02 0. -1.
</event>
<event>
 5   0  0.1491854E-06  0.3636028E+04  0.7818609E-02  0.8082289E-01
        2   -1    0    0  501    0  0.00000000000E+00  0.00000000000E+00  0.20213785031E+04  0.20213785031E+04  0.25500000920E-02 0. -1.
       -2   -1    0    0    0  501  0.00000000000E+00  0.00000000000E+00 -0.16351094208E+04  0.16351094208E+04  0.25500000920E-02 0.  1.
    10030    2    1    2    0    0  0.00000000000E+00  0.00000000000E+00  0.38626908234E+03  0.36564879239E+04  0.36360280711E+04 0.  0.
        5    1    3    3  502    0  0.46468449436E+03  0.47974800956E+03 -0.15072564176E+04  0.16486157316E+04  0.46999998093E+01 0.  1.
       -5    1    3    3    0  502 -0.46468449436E+03 -0.47974800956E+03  0.18935254999E+04  0.20078721924E+04  0.46999998093E+01 0. -1.
</event>
<event>
 5   0  0.4811500E-07  0.2623982E+04  0.7818609E-02  0.8360100E-01
       -1   -1    0    0    0  501  0.00000000000E+00  0.00000000000E+00  0.11357578684E+04  0.11357578684E+04  0.50400001928E-02 0.  1.
        1   -1    0    0  501    0  0.00000000000E+00  0.00000000000E+00 -0.15155698909E+04  0.15155698909E+04  0.50400001928E-02 0. -1.
    10030    2    1    2    0    0  0.00000000000E+00  0.00000000000E+00 -0.37981202251E+03  0.26513277593E+04  0.26239820340E+04 0.  0.
        2    1    3    3  502    0  0.84046291309E+03  0.98613897778E+03  0.18330151164E+02  0.12958333173E+04  0.25500000920E-02 0.  1.
       -2    1    3    3    0  502 -0.84046291309E+03 -0.98613897778E+03 -0.39814217367E+03  0.13554944420E+04  0.25500000920E-02 0. -1.
</event>
<event>
 5   0  0.1505671E-06  0.3576097E+04  0.7818609E-02  0.8095989E-01
        2   -1    0    0  501    0  0.00000000000E+00  0.00000000000E+00  0.16644321998E+04  0.16644321998E+04  0.25500000920E-02 0. -1.
       -2   -1    0    0    0  501  0.00000000000E+00  0.00000000000E+00 -0.19208455785E+04  0.19208455785E+04  0.25500000920E-02 0.  1.
    10030    2    1    2    0    0  0.00000000000E+00  0.00000000000E+00 -0.25641337879E+03  0.35852777783E+04  0.35760968844E+04 0.  0.
        3    1    3    3  502    0 -0.15027435164E+04 -0.52718279862E+03  0.68687339459E+03  0.17343456546E+04  0.10100000352E+00 0. -1.
       -3    1    3    3    0  502  0.15027435164E+04  0.52718279862E+03 -0.94328677338E+03  0.18509321237E+04  0.10100000352E+00 0.  1.
</event>
<event>
 5   0  0.1468942E-06  0.3655327E+04  0.7818609E-02  0.8077935E-01
        2   -1    0    0  501    0  0.00000000000E+00  0.00000000000E+00  0.22490989987E+04  0.22490989987E+04  0.25500000920E-02 0.  1.
       -2   -1    0    0    0  501  0.00000000000E+00  0.00000000000E+00 -0.14851962739E+04  0.14851962739E+04  0.25500000920E-02 0. -1.
    10030    2    1    2    0    0  0.00000000000E+00  0.00000000000E+00  0.76390272481E+03  0.37342952726E+04  0.36553267720E+04 0.  0.
        2    1    3    3  502    0  0.19788681260E+03 -0.92330993070E+03 -0.12166847544E+04  0.15401240893E+04  0.25500000920E-02 0. -1.
       -2    1    3    3    0  502 -0.19788681260E+03  0.92330993070E+03  0.19805874792E+04  0.21941711833E+04  0.25500000920E-02 0.  1.
</event>
<event>
 5   0  0.4811500E-07  0.3355335E+04  0.7818609E-02  0.8148956E-01
        4   -1    0    0  501    0  0.00000000000E+00  0.00000000000E+00  0.12887561227E+04  0.12887567484E+04  0.12699999809E+01 0. -1.
       -4   -1    0    0    0  501  0.00000000000E+00  0.00000000000E+00 -0.21839405470E+04  0.21839409162E+04  0.12699999809E+01 0.  1.
    10030    2    1    2    0    0  0.00000000000E+00  0.00000000000E+00 -0.89518442426E+03  0.34726976647E+04  0.33553351422E+04 0.  0.
        4    1    3    3  502    0  0.30354397491E+03 -0.88587677538E+03 -0.18882763184E+04  0.21077252367E+04  0.12699999809E+01 0.  1.
       -4    1    3    3    0  502 -0.30354397491E+03  0.88587677538E+03  0.99309189417E+03  0.13649724279E+04  0.12699999809E+01 0. -1.
</event>
<event>
 5   0  0.1491854E-06  0.3667385E+04  0.7818609E-02  0.8075228E-01
       -2   -1    0    0    0  501  0.00000000000E+00  0.00000000000E+00  0.16522534853E+04  0.16522534853E+04  0.25500000920E-02 0.  1.
        2   -1    0    0  501    0  0.00000000000E+00  0.00000000000E+00 -0.20350558963E+04  0.20350558963E+04  0.25500000920E-02 0. -1.
    10030    2    1    2    0    0  0.00000000000E+00  0.00000000000E+00 -0.38280241102E+03  0.36873093817E+04  0.36673850071E+04 0.  0.
        5    1    3    3  502    0  0.68989524192E+03  0.47665447217E+03 -0.18309817386E+04  0.20138696948E+04  0.46999998093E+01 0. -1.
       -5    1    3    3    0  502 -0.68989524192E+03 -0.47665447217E+03  0.14481793276E+04  0.16734396868E+04  0.46999998093E+01 0.  1.
</event>
<event>
 5   0  0.1491854E-06  0.3472519E+04  0.7818609E-02  0.8120334E-01
        2   -1    0    0  501    0  0.00000000000E+00  0.00000000000E+00  0.22524468584E+04  0.22524468584E+04  0.25500000920E-02 0. -1.
       -2   -1    0    0    0  501  0.00000000000E+00  0.00000000000E+00 -0.13383657555E+04  0.13383657555E+04  0.25500000920E-02 0.  1.
    10030    2    1    2    0    0  0.00000000000E+00  0.00000000000E+00  0.91408110285E+03  0.35908126139E+04  0.34725193975E+04 0.  0.
        5    1    3    3  502    0  0.61762125310E+03  0.73226971260E+03 -0.10403565731E+04  0.14142272920E+04  0.46999998093E+01 0.  1.
       -5    1    3    3    0  502 -0.61762125310E+03 -0.73226971260E+03  0.19544376760E+04  0.21765853219E+04  0.46999998093E+01 0. -1.
</event>
<event>
 5   0  0.1505671E-06  0.3648732E+04  0.7818609E-02  0.8079419E-01
       -2   -1    0    0    0  501  0.00000000000E+00  0.00000000000E+00  0.13197421028E+04  0.13197421028E+04  0.25500000920E-02 0.  1.
        2   -1    0    0  501    0  0.00000000000E+00  0.00000000000E+00 -0.25219405766E+04  0.25219405766E+04  0.25500000920E-02 0. -1.
    10030    2    1    2    0    0  0.00000000000E+00  0.00000000000E+00 -0.12021984738E+04  0.38416826795E+04  0.36487319221E+04 0.  0.
        3    1    3    3  502    0 -0.95573048951E+03 -0.12962842183E+03 -0.22315661398E+04  0.24310721385E+04  0.10100000352E+00 0. -1.
       -3    1    3    3    0  502  0.95573048951E+03  0.12962842183E+03  0.10293676660E+04  0.14106105409E+04  0.10100000352E+00 0.  1.
</event>
<event>
 5   0  0.1444091E-06  0.3529937E+04  0.7818609E-02  0.8106732E-01
       -2   -1    0    0    0  501  0.00000000000E+00  0.00000000000E+00  0.13991366443E+04  0.13991366443E+04  0.25500000920E-02 0. -1.
        2   -1    0    0  501    0  0.00000000000E+00  0.00000000000E+00 -0.22264546643E+04  0.22264546643E+04  0.25500000920E-02 0.  1.
    10030    2    1    2    0    0  0.00000000000E+00  0.00000000000E+00 -0.82731802001E+03  0.36255913086E+04  0.35299372842E+04 0.  0.
        1    1    3    3  502    0 -0.92540502205E+03  0.25384338547E+03 -0.19351178032E+04  0.21599749608E+04  0.50400001928E-02 0.  1.
       -1    1    3    3    0  502  0.92540502205E+03 -0.25384338547E+03  0.11077997832E+04  0.14656163477E+04  0.50400001928E-02 0. -1.
</event>
<event>
 5   0  0.4811500E-07  0.3318836E+04  0.7818609E-02  0.8158119E-01
       -1   -1    0    0    0  501  0.00000000000E+00  0.00000000000E+00  0.14535273885E+04  0.14535273885E+04  0.50400001928E-02 0.  1.
        1   -1    0    0  501    0  0.00000000000E+00  0.00000000000E+00 -0.18944727701E+04  0.18944727701E+04  0.50400001928E-02 0. -1.
    10030    2    1    2    0    0  0.00000000000E+00  0.00000000000E+00 -0.44094538161E+03  0.33480001586E+04  0.33188359755E+04 0.  0.
        5    1    3    3  502    0  0.66731978792E+03 -0.13453438867E+04 -0.93263670544E+03  0.17677950071E+04  0.46999998093E+01 0. -1.
       -5    1    3    3    0  502 -0.66731978792E+03  0.13453438867E+04  0.49169132383E+03  0.15802051515E+04  0.46999998093E+01 0.  1.
</event>
<event>
 5   0  0.5071661E-07  0.3571745E+04  0.7818609E-02  0.8096995E-01
       -1   -1    0    0    0  501  0.00000000000E+00  0.00000000000E+00  0.10132224285E+04  0.10132224286E+04  0.50400001928E-02 0.  1.
        1   -1    0    0  501    0  0.00000000000E+00  0.00000000000E+00 -0.31477197293E+04  0.31477197293E+04  0.50400001928E-02 0. -1.
    10030    2    1    2    0    0  0.00000000000E+00  0.00000000000E+00 -0.21344973008E+04  0.41609421579E+04  0.35717447997E+04 0.  0.
        1    1    3    3  502    0  0.55895230675E+03 -0.10702165429E+04  0.46570372535E+03  0.12940908352E+04  0.50400001928E-02 0.  1.
       -1    1    3    3    0  502 -0.55895230675E+03  0.10702165429E+04 -0.26002010261E+04  0.28668513227E+04  0.50400001928E-02 0. -1.
</event>
<event>
 5   0  0.4811500E-07  0.3526191E+04  0.7818609E-02  0.8107611E-01
        3   -1    0    0  501    0  0.00000000000E+00  0.00000000000E+00  0.14362290349E+04  0.14362290385E+04  0.10100000352E+00 0. -1.
       -3   -1    0    0    0  501  0.00000000000E+00  0.00000000000E+00 -0.21643525543E+04  0.21643525567E+04  0.10100000352E+00 0.  1.
    10030    2    1    2    0    0  0.00000000000E+00  0.00000000000E+00 -0.72812351940E+03  0.36005815951E+04  0.35261911411E+04 0.  0.
        3    1    3    3  502    0 -0.98133670380E+02 -0.16877883021E+04 -0.87486157993E+03  0.19035867105E+04  0.10100000352E+00 0.  1.
       -3    1    3    3    0  502  0.98133670380E+02  0.16877883021E+04  0.14673806053E+03  0.16969948847E+04  0.10100000352E+00 0. -1.
</event>
<event>
 5   0  0.1468942E-06  0.3599202E+04  0.7818609E-02  0.8090674E-01
       -2   -1    0    0    0  501  0.00000000000E+00  0.00000000000E+00  0.17031739859E+04  0.17031739859E+04  0.25500000920E-02 0.  1.
        2   -1    0    0  501    0  0.00000000000E+00  0.00000000000E+00 -0.19014875374E+04  0.19014875374E+04  0.25500000920E-02 0. -1.
    10030    2    1    2    0    0  0.00000000000E+00  0.00000000000E+00 -0.19831355146E+03  0.36046615233E+04  0.35992021939E+04 0.  0.
        2    1    3    3  502    0 -0.51816595430E+03 -0.16925100860E+04  0.22610924502E+03  0.17844359720E+04  0.25500000920E-02 0. -1.
       -2    1    3    3    0  502  0.51816595430E+03  0.16925100860E+04 -0.42442279648E+03  0.18202255513E+04  0.25500000920E-02 0.  1.
</event>
<event>
 5   0  0.4811500E-07  0.3626976E+04  0.7818609E-02  0.8084340E-01
        1   -1    0    0  501    0  0.00000000000E+00  0.00000000000E+00  0.24381224297E+04  0.24381224297E+04  0.50400001928E-02 0.  1.
       -1   -1    0    0    0  501  0.00000000000E+00  0.00000000000E+00 -0.13488813607E+04  0.13488813607E+04  0.50400001928E-02 0. -1.
    10030    2    1    2    0    0  0.00000000000E+00  0.00000000000E+00  0.10892410689E+04  0.37870037904E+04  0.36269755448E+04 0.  0.
        2    1    3    3  502    0  0.37926090879E+03  0.60272501353E+03  0.22860269465E+04  0.23943758015E+04  0.25500000920E-02 0.  1.
       -2    1    3    3    0  502 -0.37926090879E+03 -0.60272501353E+03 -0.11967858775E+04  0.13926279889E+04  0.25500000920E-02 0. -1.
</event>
<event>
 5   0  0.1444091E-06  0.3628254E+04  0.7818609E-02  0.8084050E-01
       -2   -1    0    0    0  501  0.00000000000E+00  0.00000000000E+00  0.15872903413E+04  0.15872903413E+04  0.25500000920E-02 0.  1.
        2   -1    0    0  501    0  0.00000000000E+00  0.00000000000E+00 -0.20733810243E+04  0.20733810243E+04  0.25500000920E-02 0. -1.
    10030    2    1    2    0    0  0.00000000000E+00  0.00000000000E+00 -0.48609068298E+03  0.36606713657E+04  0.36282544970E+04 0.  0.
        1    1    3    3  502    0 -0.15431984447E+04 -0.48653685278E+03  0.58457509241E+03  0.17204381963E+04  0.50400001928E-02 0.  1.
       -1    1    3    3    0  502  0.15431984447E+04  0.48653685278E+03 -0.10706657754E+04  0.19402331693E+04  0.50400001928E-02 0. -1.
</event>
<event>
 5   0  0.1491854E-06  0.3629124E+04  0.7818609E-02  0.8083853E-01
        2   -1    0    0  501    0  0.00000000000E+00  0.00000000000E+00  0.19481369110E+04  0.19481369110E+04  0.25500000920E-02 0.  1.
       -2   -1    0    0    0  501  0.00000000000E+00  0.00000000000E+00 -0.16901454920E+04  0.16901454920E+04  0.25500000920E-02 0. -1.
    10030    2    1    2    0    0  0.00000000000E+00  0.00000000000E+00  0.25799141902E+03  0.36382824030E+04  0.36291237609E+04 0.  0.
        5    1    3    3  502    0 -0.82385983103E+02  0.13426337315E+04 -0.10919282616E+04  0.17325652096E+04  0.46999998093E+01 0. -1.
       -5    1    3    3    0  502  0.82385983103E+02 -0.13426337315E+04  0.13499196806E+04  0.19057171934E+04  0.46999998093E+01 0.  1.
</event>
<event>
 5   0  0.4811500E-07  0.3480470E+04  0.7818609E-02  0.8118434E-01
       -3   -1    0    0    0  501  0.00000000000E+00  0.00000000000E+00  0.18163592452E+04  0.18163592480E+04  0.10100000352E+00 0. -1.
        3   -1    0    0  501    0  0.00000000000E+00  0.00000000000E+00 -0.16673012171E+04  0.16673012202E+04  0.10100000352E+00 0.  1.
    10030    2    1    2    0    0  0.00000000000E+00  0.00000000000E+00  0.14905802813E+03  0.34836604682E+04  0.34804700777E+04 0.  0.
        5    1    3    3  502    0 -0.12711864466E+04  0.17980000643E+03  0.12504049786E+04  0.17921433327E+04  0.46999998093E+01 0. -1.
       -5    1    3    3    0  502  0.12711864466E+04 -0.17980000643E+03 -0.11013469505E+04  0.16915171355E+04  0.46999998093E+01 0.  1.
</event>
<event>
 5   0  0.4811500E-07  0.3522237E+04  0.7818609E-02  0.8108540E-01
       -1   -1    0    0    0  501  0.00000000000E+00  0.00000000000E+00  0.31094417014E+04  0.31094417014E+04  0.50400001928E-02 0.  1.
        1   -1    0    0  501    0  0.00000000000E+00  0.00000000000E+00 -0.99745839095E+03  0.99745839096E+03  0.50400001928E-02 0. -1.
    10030    2    1    2    0    0  0.00000000000E+00  0.00000000000E+00  0.21119833104E+04  0.41069000923E+04  0.35222371960E+04 0.  0.
        3    1    3    3  502    0  0.10490006552E+04  0.91182768400E+02  0.27019915274E+04  0.28999094635E+04  0.10100000352E+00 0.  1.
       -3    1    3    3    0  502 -0.10490006552E+04 -0.91182768400E+02 -0.59000821701E+03  0.12069906289E+04  0.10100000352E+00 0. -1.
</event>
<event>
 5   0  0.4811500E-07  0.3034611E+04  0.7818609E-02  0.8233916E-01
       -1   -1    0    0    0  501  0.00000000000E+00  0.00000000000E+00  0.21059332155E+04  0.21059332155E+04  0.50400001928E-02 0.  1.
        1   -1    0    0  501    0  0.00000000000E+00  0.00000000000E+00 -0.10932047869E+04  0.10932047869E+04  0.50400001928E-02 0. -1.
    10030    2    1    2    0    0  0.00000000000E+00  0.00000000000E+00  0.10127284286E+04  0.31991380025E+04  0.30346111923E+04 0.  0.
        5    1    3    3  502    0  0.58459427496E+03  0.13975317217E+04  0.59673711384E+03  0.16281777091E+04  0.46999998093E+01 0. -1.
       -5    1    3    3    0  502 -0.58459427496E+03 -0.13975317217E+04  0.41599131474E+03  0.15709602934E+04  0.46999998093E+01 0.  1.
</event>
<event>
 5   0  0.1444091E-06  0.3612501E+04  0.7818609E-02  0.8087634E-01
       -2   -1    0    0    0  501  0.00000000000E+00  0.00000000000E+00  0.25431270922E+04  0.25431270922E+04  0.25500000920E-02 0. -1.
        2   -1    0    0  501    0  0.00000000000E+00  0.00000000000E+00 -0.12828854838E+04  0.12828854839E+04  0.25500000920E-02 0.  1.
    10030    2    1    2    0    0  0.00000000000E+00  0.00000000000E+00  0.12602416084E+04  0.38260125761E+04  0.36125009787E+04 0.  0.
        1    1    3    3  502    0  0.13887414193E+04  0.11541345176E+04  0.58381465106E+03  0.18977536092E+04  0.50400001928E-02 0.  1.
       -1    1    3    3    0  502 -0.13887414193E+04 -0.11541345176E+04  0.67642695731E+03  0.19282589668E+04  0.50400001928E-02 0. -1.
</event>
<event>
 5   0  0.1379425E-06  0.3599973E+04  0.7818609E-02  0.8090498E-01
        2   -1    0    0  501    0  0.00000000000E+00  0.00000000000E+00  0.18051104169E+04  0.18051104169E+04  0.25500000920E-02 0. -1.
       -2   -1    0    0    0  501  0.00000000000E+00  0.00000000000E+00 -0.17948771175E+04  0.17948771175E+04  0.25500000920E-02 0.  1.
    10030    2    1    2    0    0  0.00000000000E+00  0.00000000000E+00  0.10233299442E+02  0.35999875344E+04  0.35999729898E+04 0.  0.
        4    1    3    3  502    0  0.78881600405E+03  0.13879156834E+04 -0.82639686388E+03  0.17976301127E+04  0.12699999809E+01 0. -1.
       -4    1    3    3    0  502 -0.78881600405E+03 -0.13879156834E+04  0.83663016333E+03  0.18023574217E+04  0.12699999809E+01 0.  1.
</event>
<event>
 5   0  0.1491854E-06  0.2932337E+04  0.7818609E-02  0.8263321E-01
        2   -1    0    0  501    0  0.00000000000E+00  0.00000000000E+00  0.17265138799E+04  0.17265138799E+04  0.25500000920E-02 0. -1.
       -2   -1    0    0    0  501  0.00000000000E+00  0.00000000000E+00 -0.12450814465E+04  0.12450814465E+04  0.25500000920E-02 0.  1.
    10030    2    1    2    0    0  0.00000000000E+00  0.00000000000E+00  0.48143243342E+03  0.29715953263E+04  0.29323372241E+04 0.  0.
        5    1    3    3  502    0 -0.32045113908E+03 -0.14279711049E+04  0.33043339515E+03  0.15003328723E+04  0.46999998093E+01 0.  1.
       -5    1    3    3    0  502  0.32045113908E+03  0.14279711049E+04  0.15099903827E+03  0.14712624540E+04  0.46999998093E+01 0. -1.
</event>
<event>
 5   0  0.4811500E-07  0.3591532E+04  0.7818609E-02  0.8092434E-01
       -1   -1    0    0    0  501  0.00000000000E+00  0.00000000000E+00  0.10626880145E+04  0.10626880145E+04  0.50400001928E-02 0. -1.
        1   -1    0    0  501    0  0.00000000000E+00  0.00000000000E+00 -0.30345459940E+04  0.30345459940E+04  0.50400001928E-02 0.  1.
    10030    2    1    2    0    0  0.00000000000E+00  0.00000000000E+00 -0.19718579796E+04  0.40972340085E+04  0.35915320727E+04 0.  0.
        4    1    3    3  502    0 -0.15521660190E+04  0.81190153691E+03 -0.14370453261E+04  0.22657238001E+04  0.12699999809E+01 0.  1.
       -4    1    3    3    0  502  0.15521660190E+04 -0.81190153691E+03 -0.53481265352E+03  0.18315102084E+04  0.12699999809E+01 0. -1.
</event>
<event>
 5   0  0.1505671E-06  0.3539076E+04  0.7818609E-02  0.8104591E-01
        2   -1    0    0  501    0  0.00000000000E+00  0.00000000000E+00  0.13662287715E+04  0.13662287715E+04  0.25500000920E-02 0. -1.
       -2   -1    0    0    0  501  0.00000000000E+00  0.00000000000E+00 -0.22919032494E+04  0.22919032494E+04  0.25500000920E-02 0.  1.
    10030    2    1    2    0    0  0.00000000000E+00  0.00000000000E+00 -0.92567447787E+03  0.36581320209E+04  0.35390756764E+04 0.  0.
        3    1    3    3  502    0 -0.49990911387E+03 -0.83237755823E+03  0.10662880191E+04  0.14421274810E+04  0.10100000352E+00 0. -1.
       -3    1    3    3    0  502  0.49990911387E+03  0.83237755823E+03 -0.19919624969E+04  0.22160045399E+04  0.10100000352E+00 0.  1.
</event>
<event>
 5   0  0.5071661E-07  0.3607379E+04  0.7818609E-02  0.8088804E-01
        1   -1    0    0  501    0  0.00000000000E+00  0.00000000000E+00  0.17157751234E+04  0.17157751234E+04  0.50400001928E-02 0. -1.
       -1   -1    0    0    0  501  0.00000000000E+00  0.00000000000E+00 -0.18961084036E+04  0.18961084036E+04  0.50400001928E-02 0.  1.
    10030    2    1    2    0    0  0.00000000000E+00  0.00000000000E+00 -0.18033328019E+03  0.36118835269E+04  0.36073788989E+04 0.  0.
        1    1    3    3  502    0  0.46218903355E+03  0.76520825186E+02  0.16537952417E+04  0.17188696405E+04  0.50400001928E-02 0. -1.
       -1    1    3    3    0  502 -0.46218903355E+03 -0.76520825186E+02 -0.18341285219E+04  0.18930138865E+04  0.50400001928E-02 0.  1.
</event>
<event>
 5   0  0.1505671E-06  0.3388714E+04  0.7818609E-02  0.8140682E-01
       -2   -1    0    0    0  501  0.00000000000E+00  0.00000000000E+00  0.14854075547E+04  0.14854075547E+04  0.25500000920E-02 0.  1.
        2   -1    0    0  501    0  0.00000000000E+00  0.00000000000E+00 -0.19326986681E+04  0.19326986681E+04  0.25500000920E-02 0. -1.
    10030    2    1    2    0    0  0.00000000000E+00  0.00000000000E+00 -0.44729111347E+03  0.34181062228E+04  0.33887137398E+04 0.  0.
        3    1    3    3  502    0 -0.14477186247E+03 -0.15683803383E+03 -0.19190840687E+04  0.19309170707E+04  0.10100000352E+00 0. -1.
       -3    1    3    3    0  502  0.14477186247E+03  0.15683803383E+03  0.14717929552E+04  0.14871891521E+04  0.10100000352E+00 0.  1.
</event>
<event>
 5   0  0.4811500E-07  0.3556373E+04  0.7818609E-02  0.8100559E-01
       -1   -1    0    0    0  501  0.00000000000E+00  0.00000000000E+00  0.16162199244E+04  0.16162199244E+04  0.50400001928E-02 0.  1.
        1   -1    0    0  501    0  0.00000000000E+00  0.00000000000E+00 -0.19563845594E+04  0.19563845594E+04  0.50400001928E-02 0. -1.
    10030    2    1    2    0    0  0.00000000000E+00  0.00000000000E+00 -0.34016463498E+03  0.35726044838E+04  0.35563732677E+04 0.  0.
        2    1    3    3  502    0  0.11447332098E+04 -0.13432919869E+04  0.47934037754E+02  0.17655438696E+04  0.25500000920E-02 0.  1.
       -2    1    3    3    0  502 -0.11447332098E+04  0.13432919869E+04 -0.38809867274E+03  0.18070606142E+04  0.25500000920E-02 0. -1.
</event>
<event>
 5   0  0.1444091E-06  0.3593310E+04  0.7818609E-02  0.8092026E-01
       -2   -1    0    0    0  501  0.00000000000E+00  0.00000000000E+00  0.16635495462E+04  0.16635495462E+04  0.25500000920E-02 0.  1.
        2   -1    0    0  501    0  0.00000000000E+00  0.00000000000E+00 -0.19404104571E+04  0.19404104571E+04  0.25500000920E-02 0. -1.
    10030    2    1    2    0    0  0.00000000000E+00  0.00000000000E+00 -0.27686091091E+03  0.36039600033E+04  0.35933098588E+04 0.  0.
        1    1    3    3  502    0 -0.96591185959E+03  0.10750042632E+04 -0.12089970572E+04  0.18842223252E+04  0.50400001928E-02 0. -1.
       -1    1    3    3    0  502  0.96591185959E+03 -0.10750042632E+04  0.93213614628E+03  0.17197376781E+04  0.50400001928E-02 0.  1.
</event>
<event>
 5   0  0.1468942E-06  0.3552375E+04  0.7818609E-02  0.8101489E-01
        2   -1    0    0  501    0  0.00000000000E+00  0.00000000000E+00  0.21087149290E+04  0.21087149290E+04  0.25500000920E-02 0.  1.
       -2   -1    0    0    0  501  0.00000000000E+00  0.00000000000E+00 -0.14960973666E+04  0.14960973666E+04  0.25500000920E-02 0. -1.
    10030    2    1    2    0    0  0.00000000000E+00  0.00000000000E+00  0.61261756238E+03  0.36048122956E+04  0.35523754599E+04 0.  0.
        2    1    3    3  502    0 -0.92139040448E+03 -0.49988220159E+03 -0.11487327433E+04  0.15551300294E+04  0.25500000920E-02 0. -1.
       -2    1    3    3    0  502  0.92139040448E+03  0.49988220159E+03  0.17613503056E+04  0.20496822661E+04  0.25500000920E-02 0.  1.
</event>
<event>
 5   0  0.4811500E-07  0.3481087E+04  0.7818609E-02  0.8118287E-01
        1   -1    0    0  501    0  0.00000000000E+00  0.00000000000E+00  0.27566441430E+04  0.27566441430E+04  0.50400001928E-02 0. -1.
       -1   -1    0    0    0  501  0.00000000000E+00  0.00000000000E+00 -0.10989781778E+04  0.10989781778E+04  0.50400001928E-02 0.  1.
    10030    2    1    2    0    0  0.00000000000E+00  0.00000000000E+00  0.16576659652E+04  0.38556223207E+04  0.34810870469E+04 0.  0.
        5    1    3    3  502    0 -0.95977992131E+03 -0.11289576431E+04 -0.18250587759E+03  0.14930014543E+04  0.46999998093E+01 0.  1.
       -5    1    3    3    0  502  0.95977992131E+03  0.11289576431E+04  0.18401718428E+04  0.23626208664E+04  0.46999998093E+01 0. -1.
</event>
<event>
 5   0  0.4811500E-07  0.3648166E+04  0.7818609E-02  0.8079547E-01
        1   -1    0    0  501    0  0.00000000000E+00  0.00000000000E+00  0.26812181220E+04  0.26812181220E+04  0.50400001928E-02 0. -1.
       -1   -1    0    0    0  501  0.00000000000E+00  0.00000000000E+00 -0.12409579196E+04  0.12409579197E+04  0.50400001928E-02 0.  1.
    10030    2    1    2    0    0  0.00000000000E+00  0.00000000000E+00  0.14402602024E+04  0.39221760417E+04  0.36481660394E+04 0.  0.
        4    1    3    3  502    0 -0.15169277696E+04 -0.42572200315E+03  0.17083933845E+04  0.23239876616E+04  0.12699999809E+01 0. -1.
       -4    1    3    3    0  502  0.15169277696E+04  0.42572200315E+03 -0.26813318214E+03  0.15981883801E+04  0.12699999809E+01 0.  1.
</event>
<event>
 5   0  0.4811500E-07  0.3727758E+04  0.7818609E-02  0.8061838E-01
       -3   -1    0    0    0  501  0.00000000000E+00  0.00000000000E+00  0.22469796867E+04  0.22469796889E+04  0.10100000352E+00 0.  1.
        3   -1    0    0  501    0  0.00000000000E+00  0.00000000000E+00 -0.15460953176E+04  0.15460953209E+04  0.10100000352E+00 0. -1.
    10030    2    1    2    0    0  0.00000000000E+00  0.00000000000E+00  0.70088436906E+03  0.37930750098E+04  0.37277579229E+04 0.  0.
        4    1    3    3  502    0 -0.14448269173E+04 -0.51317531828E+03 -0.72792426817E+03  0.16972769607E+04  0.12699999809E+01 0.  1.
       -4    1    3    3    0  502  0.14448269173E+04  0.51317531828E+03  0.14288086372E+04  0.20957980492E+04  0.12699999809E+01 0. -1.
</event>
<event>
 5   0  0.1379425E-06  0.3279601E+04  0.7818609E-02  0.8168105E-01
       -2   -1    0    0    0  501  0.00000000000E+00  0.00000000000E+00  0.12802499776E+04  0.12802499776E+04  0.25500000920E-02 0.  1.
        2   -1    0    0  501    0  0.00000000000E+00  0.00000000000E+00 -0.21003283618E+04  0.21003283618E+04  0.25500000920E-02 0. -1.
    10030    2    1    2    0    0  0.00000000000E+00  0.00000000000E+00 -0.82007838422E+03  0.33805783394E+04  0.32796007916E+04 0.  0.
        4    1    3    3  502    0  0.11243734350E+04  0.11609431998E+04 -0.69595835557E+03  0.17596489366E+04  0.12699999809E+01 0.  1.
       -4    1    3    3    0  502 -0.11243734350E+04 -0.11609431998E+04 -0.12412002865E+03  0.16209294028E+04  0.12699999809E+01 0. -1.
</event>
<event>
 5   0  0.1491854E-06  0.3573174E+04  0.7818609E-02  0.8096664E-01
        2   -1    0    0  501    0  0.00000000000E+00  0.00000000000E+00  0.23074189283E+04  0.23074189283E+04  0.25500000920E-02 0.  1.
       -2   -1    0    0    0  501  0.00000000000E+00  0.00000000000E+00 -0.13833175824E+04  0.13833175824E+04  0.25500000920E-02 0. -1.
    10030    2    1    2    0    0  0.00000000000E+00  0.00000000000E+00  0.92410134585E+03  0.36907365107E+04  0.35731740364E+04 0.  0.
        5    1    3    3  502    0  0.16314761412E+04  0.70390728244E+03  0.26972226066E+03  0.17972122995E+04  0.46999998093E+01 0.  1.
       -5    1    3    3    0  502 -0.16314761412E+04 -0.70390728244E+03  0.65437908519E+03  0.18935242113E+04  0.46999998093E+01 0. -1.
</event>
<event>
 5   0  0.4811500E-07  0.2843975E+04  0.7818609E-02  0.8289744E-01
       -1   -1    0    0    0  501  0.00000000000E+00  0.00000000000E+00  0.11215713971E+04  0.11215713971E+04  0.50400001928E-02 0.  1.
        1   -1    0    0  501    0  0.00000000000E+00  0.00000000000E+00 -0.18028714953E+04  0.18028714953E+04  0.50400001928E-02 0. -1.
    10030    2    1    2    0    0  0.00000000000E+00  0.00000000000E+00 -0.68130009815E+03  0.29244428924E+04  0.28439754583E+04 0.  0.
        4    1    3    3  502    0  0.80298064828E+03  0.93281484581E+03  0.39162671273E+03  0.12916247726E+04  0.12699999809E+01 0.  1.
       -4    1    3    3    0  502 -0.80298064828E+03 -0.93281484581E+03 -0.10729268109E+04  0.16328181198E+04  0.12699999809E+01 0. -1.
</event>
<event>
 5   0  0.1379425E-06  0.3401780E+04  0.7818609E-02  0.8137469E-01
        2   -1    0    0  501    0  0.00000000000E+00  0.00000000000E+00  0.21245429915E+04  0.21245429915E+04  0.25500000920E-02 0.  1.
       -2   -1    0    0    0  501  0.00000000000E+00  0.00000000000E+00 -0.13617176250E+04  0.13617176250E+04  0.25500000920E-02 0. -1.
    10030    2    1    2    0    0  0.00000000000E+00  0.00000000000E+00  0.76282536652E+03  0.34862606166E+04  0.34017804966E+04 0.  0.
        4    1    3    3  502    0 -0.12683664059E+04  0.33790904976E+03 -0.72715758368E+03  0.15005651036E+04  0.12699999809E+01 0. -1.
       -4    1    3    3    0  502  0.12683664059E+04 -0.33790904976E+03  0.14899829502E+04  0.19856955130E+04  0.12699999809E+01 0.  1.
</event>
<event>
 5   0  0.4811500E-07  0.3625375E+04  0.7818609E-02  0.8084704E-01
       -3   -1    0    0    0  501  0.00000000000E+00  0.00000000000E+00  0.12186214662E+04  0.12186214704E+04  0.10100000352E+00 0. -1.
        3   -1    0    0  501    0  0.00000000000E+00  0.00000000000E+00 -0.26963552998E+04  0.26963553017E+04  0.10100000352E+00 0.  1.
    10030    2    1    2    0    0  0.00000000000E+00  0.00000000000E+00 -0.14777338336E+04  0.39149767721E+04  0.36253752693E+04 0.  0.
        4    1    3    3  502    0 -0.37943740720E+02 -0.22681282298E+03 -0.26805385564E+04  0.26903851674E+04  0.12699999809E+01 0.  1.
       -4    1    3    3    0  502  0.37943740720E+02  0.22681282298E+03  0.12028047228E+04  0.12245916047E+04  0.12699999809E+01 0. -1.
</event>
<event>
 5   0  0.4811500E-07  0.3644755E+04  0.7818609E-02  0.8080316E-01
        1   -1    0    0  501    0  0.00000000000E+00  0.00000000000E+00  0.20449916053E+04  0.20449916053E+04  0.50400001928E-02 0.  1.
       -1   -1    0    0    0  501  0.00000000000E+00  0.00000000000E+00 -0.16239970143E+04  0.16239970143E+04  0.50400001928E-02 0. -1.
    10030    2    1    2    0    0  0.00000000000E+00  0.00000000000E+00  0.42099459105E+03  0.36689886196E+04  0.36447552792E+04 0.  0.
        3    1    3    3  502    0 -0.97878070805E+03 -0.40503670766E+03  0.17032573244E+04  0.20057796320E+04  0.10100000352E+00 0.  1.
       -3    1    3    3    0  502  0.97878070805E+03  0.40503670766E+03 -0.12822627333E+04  0.16632089876E+04  0.10100000352E+00 0. -1.
</event>
<event>
 5   0  0.4811500E-07  0.3587775E+04  0.7818609E-02  0.8093298E-01
       -1   -1    0    0    0  501  0.00000000000E+00  0.00000000000E+00  0.14229336804E+04  0.14229336805E+04  0.50400001928E-02 0.  1.
        1   -1    0    0  501    0  0.00000000000E+00  0.00000000000E+00 -0.22615482728E+04  0.22615482728E+04  0.50400001928E-02 0. -1.
    10030    2    1    2    0    0  0.00000000000E+00  0.00000000000E+00 -0.83861459239E+03  0.36844819533E+04  0.35877754709E+04 0.  0.
        2    1    3    3  502    0 -0.13709397939E+04 -0.11407061453E+04 -0.22084511877E+03  0.17970695577E+04  0.25500000920E-02 0.  1.
       -2    1    3    3    0  502  0.13709397939E+04  0.11407061453E+04 -0.61776947363E+03  0.18874123956E+04  0.25500000920E-02 0. -1.
</event>
<event>
 5   0  0.4811500E-07  0.2300692E+04  0.7818609E-02  0.8477648E-01
        1   -1    0    0  501    0  0.00000000000E+00  0.00000000000E+00  0.19392037228E+04  0.19392037228E+04  0.50400001928E-02 0.  1.
       -1   -1    0    0    0  501  0.00000000000E+00  0.00000000000E+00 -0.68239118636E+03  0.68239118638E+03  0.50400001928E-02 0. -1.
    10030    2    1    2    0    0  0.00000000000E+00  0.00000000000E+00  0.12568125364E+04  0.26215949091E+04  0.23006916603E+04 0.  0.
        2    1    3    3  502    0 -0.44868649412E+03 -0.42898198765E+03 -0.47515666877E+03  0.78174099011E+03  0.25500000920E-02 0. -1.
       -2    1    3    3    0  502  0.44868649412E+03  0.42898198765E+03  0.17319692052E+04  0.18398539190E+04  0.25500000920E-02 0.  1.
</event>
<event>
 5   0  0.5071661E-07  0.3599910E+04  0.7818609E-02  0.8090512E-01
        1   -1    0    0  501    0  0.00000000000E+00  0.00000000000E+00  0.18530810571E+04  0.18530810571E+04  0.50400001928E-02 0. -1.
       -1   -1    0    0    0  501  0.00000000000E+00  0.00000000000E+00 -0.17483516248E+04  0.17483516248E+04  0.50400001928E-02 0.  1.
    10030    2    1    2    0    0  0.00000000000E+00  0.00000000000E+00  0.10472943230E+03  0.36014326819E+04  0.35999095973E+04 0.  0.
        1    1    3    3  502    0 -0.25490922894E+03  0.62502895421E+03  0.17216621125E+04  0.18492594026E+04  0.50400001928E-02 0. -1.
       -1    1    3    3    0  502  0.25490922894E+03 -0.62502895421E+03 -0.16169326802E+04  0.17521732793E+04  0.50400001928E-02 0.  1.
</event>
<event>
 5   0  0.4811500E-07  0.3410608E+04  0.7818609E-02  0.8135308E-01
        1   -1    0    0  501    0  0.00000000000E+00  0.00000000000E+00  0.16727661764E+04  0.16727661764E+04  0.50400001928E-02 0. -1.
       -1   -1    0    0    0  501  0.00000000000E+00  0.00000000000E+00 -0.17384744938E+04  0.17384744938E+04  0.50400001928E-02 0.  1.
    10030    2    1    2    0    0  0.00000000000E+00  0.00000000000E+00 -0.65708317472E+02  0.34112406702E+04  0.34106077651E+04 0.  0.
        5    1    3    3  502    0 -0.14798708384E+04 -0.63466610636E+03  0.52869501858E+03  0.16948036103E+04  0.46999998093E+01 0.  1.
       -5    1    3    3    0  502  0.14798708384E+04  0.63466610636E+03 -0.59440333605E+03  0.17164370599E+04  0.46999998093E+01 0. -1.
</event>
<event>
 5   0  0.4811500E-07  0.3509449E+04  0.7818609E-02  0.8111554E-01
        1   -1    0    0  501    0  0.00000000000E+00  0.00000000000E+00  0.11309037105E+04  0.11309037105E+04  0.50400001928E-02 0. -1.
       -1   -1    0    0    0  501  0.00000000000E+00  0.00000000000E+00 -0.27226523654E+04  0.27226523654E+04  0.50400001928E-02 0.  1.
    10030    2    1    2    0    0  0.00000000000E+00  0.00000000000E+00 -0.15917486549E+04  0.38535560759E+04  0.35094487672E+04 0.  0.
        2    1    3    3  502    0  0.14928044326E+04  0.10308222125E+03 -0.18022353238E+04  0.23424651931E+04  0.25500000920E-02 0.  1.
       -2    1    3    3    0  502 -0.14928044326E+04 -0.10308222125E+03  0.21048666882E+03  0.15110908828E+04  0.25500000920E-02 0. -1.
</event>
<event>
 5   0  0.1379425E-06  0.3606523E+04  0.7818609E-02  0.8088999E-01
        2   -1    0    0  501    0  0.00000000000E+00  0.00000000000E+00  0.22117181502E+04  0.22117181502E+04  0.25500000920E-02 0.  1.
       -2   -1    0    0    0  501  0.00000000000E+00  0.00000000000E+00 -0.14702376834E+04  0.14702376834E+04  0.25500000920E-02 0. -1.
    10030    2    1    2    0    0  0.00000000000E+00  0.00000000000E+00  0.74148046681E+03  0.36819558336E+04  0.36065226296E+04 0.  0.
        4    1    3    3  502    0  0.76897323978E+03 -0.10049995434E+04  0.16822915501E+04  0.21051010422E+04  0.12699999809E+01 0.  1.
       -4    1    3    3    0  502 -0.76897323978E+03  0.10049995434E+04 -0.94081108326E+03  0.15768547913E+04  0.12699999809E+01 0. -1.
</event>
<event>
 5   0  0.1379425E-06  0.3170122E+04  0.7818609E-02  0.8196753E-01
       -2   -1    0    0    0  501  0.00000000000E+00  0.00000000000E+00  0.14215273056E+04  0.14215273056E+04  0.25500000920E-02 0. -1.
        2   -1    0    0  501    0  0.00000000000E+00  0.00000000000E+00 -0.17674080547E+04  0.17674080547E+04  0.25500000920E-02 0.  1.
    10030    2    1    2    0    0  0.00000000000E+00  0.00000000000E+00 -0.34588074914E+03  0.31889353603E+04  0.31701222752E+04 0.  0.
        4    1    3    3  502    0  0.28158919943E+03 -0.12230414591E+04  0.80094466067E+03  0.14888374157E+04  0.12699999809E+01 0. -1.
       -4    1    3    3    0  502 -0.28158919943E+03  0.12230414591E+04 -0.11468254098E+04  0.17000979447E+04  0.12699999809E+01 0.  1.
</event>
<event>
 5   0  0.1379425E-06  0.2509443E+04  0.7818609E-02  0.8399629E-01
        2   -1    0    0  501    0  0.00000000000E+00  0.00000000000E+00  0.13983156508E+04  0.13983156508E+04  0.25500000920E-02 0.  1.
       -2   -1    0    0    0  501  0.00000000000E+00  0.00000000000E+00 -0.11258732668E+04  0.11258732668E+04  0.25500000920E-02 0. -1.
    10030    2    1    2    0    0  0.00000000000E+00  0.00000000000E+00  0.27244238399E+03  0.25241889176E+04  0.25094431333E+04 0.  0.
        4    1    3    3  502    0 -0.95519217991E+03  0.73209638783E+03  0.49322556604E+03  0.13006268848E+04  0.12699999809E+01 0.  1.
       -4    1    3    3    0  502  0.95519217991E+03 -0.73209638783E+03 -0.22078318205E+03  0.12235620328E+04  0.12699999809E+01 0. -1.
</event>
<event>
 5   0  0.4811500E-07  0.3493734E+04  0.7818609E-02  0.8115276E-01
       -1   -1    0    0    0  501  0.00000000000E+00  0.00000000000E+00  0.20801643022E+04  0.20801643022E+04  0.50400001928E-02 0. -1.
        1   -1    0    0  501    0  0.00000000000E+00  0.00000000000E+00 -0.14669728283E+04  0.14669728283E+04  0.50400001928E-02 0.  1.
    10030    2    1    2    0    0  0.00000000000E+00  0.00000000000E+00  0.61319147387E+03  0.35471371306E+04  0.34937341111E+04 0.  0.
        4    1    3    3  502    0  0.48763451998E+03 -0.35928879373E+03 -0.13569446281E+04  0.14859933375E+04  0.12699999809E+01 0.  1.
       -4    1    3    3    0  502 -0.48763451998E+03  0.35928879373E+03  0.19701361020E+04  0.20611437931E+04  0.12699999809E+01 0. -1.
</event>
<event>
 5   0  0.4811500E-07  0.3649368E+04  0.7818609E-02  0.8079276E-01
       -1   -1    0    0    0  501  0.00000000000E+00  0.00000000000E+00  0.13643701583E+04  0.13643701583E+04  0.50400001928E-02 0.  1.
        1   -1    0    0  501    0  0.00000000000E+00  0.00000000000E+00 -0.24402998761E+04  0.24402998761E+04  0.50400001928E-02 0. -1.
    10030    2    1    2    0    0  0.00000000000E+00  0.00000000000E+00 -0.10759297178E+04  0.38046700344E+04  0.36493683444E+04 0.  0.
        4    1    3    3  502    0  0.16252691675E+04 -0.82358388770E+03 -0.43538866403E+03  0.18733273042E+04  0.12699999809E+01 0.  1.
       -4    1    3    3    0  502 -0.16252691675E+04  0.82358388770E+03 -0.64054105373E+03  0.19313427302E+04  0.12699999809E+01 0. -1.
</event>
<event>
 5   0  0.1491854E-06  0.3539599E+04  0.7818609E-02  0.8104469E-01
        2   -1    0    0  501    0  0.00000000000E+00  0.00000000000E+00  0.17831028205E+04  0.17831028205E+04  0.25500000920E-02 0. -1.
       -2   -1    0    0    0  501  0.00000000000E+00  0.00000000000E+00 -0.17565953849E+04  0.17565953849E+04  0.25500000920E-02 0.  1.
    10030    2    1    2    0    0  0.00000000000E+00  0.00000000000E+00  0.26507435618E+02  0.35396982055E+04  0.35395989521E+04 0.  0.
        5    1    3    3  502    0 -0.14074858171E+04 -0.90107999240E+02 -0.10559031569E+04  0.17618425990E+04  0.46999998093E+01 0.  1.
       -5    1    3    3    0  502  0.14074858171E+04  0.90107999240E+02  0.10824105925E+04  0.17778556065E+04  0.46999998093E+01 0. -1.
</event>
<event>
 5   0  0.4811500E-07  0.3701535E+04  0.7818609E-02  0.8067622E-01
        1   -1    0    0  501    0  0.00000000000E+00  0.00000000000E+00  0.26724063379E+04  0.26724063379E+04  0.50400001928E-02 0.  1.
       -1   -1    0    0    0  501  0.00000000000E+00  0.00000000000E+00 -0.12817437337E+04  0.12817437337E+04  0.50400001928E-02 0. -1.
    10030    2    1    2    0    0  0.00000000000E+00  0.00000000000E+00  0.13906626042E+04  0.39541500716E+04  0.37015348586E+04 0.  0.
        5    1    3    3  502    0 -0.10906274127E+03  0.15504103148E+04 -0.37805729920E+03  0.15995675157E+04  0.46999998093E+01 0. -1.
       -5    1    3    3    0  502  0.10906274127E+03 -0.15504103148E+04  0.17687199034E+04  0.23545825559E+04  0.46999998093E+01 0.  1.
</event>
<event>
 5   0  0.4811500E-07  0.2505857E+04  0.7818609E-02  0.8400902E-01
       -1   -1    0    0    0  501  0.00000000000E+00  0.00000000000E+00  0.84359104599E+03  0.84359104600E+03  0.50400001928E-02 0.  1.
        1   -1    0    0  501    0  0.00000000000E+00  0.00000000000E+00 -0.18608902387E+04  0.18608902387E+04  0.50400001928E-02 0. -1.
    10030    2    1    2    0    0  0.00000000000E+00  0.00000000000E+00 -0.10172991927E+04  0.27044812847E+04  0.25058574125E+04 0.  0.
        5    1    3    3  502    0 -0.47375384442E+03  0.69404104756E+03  0.49435330447E+03  0.97495792752E+03  0.46999998093E+01 0.  1.
       -5    1    3    3    0  502  0.47375384442E+03 -0.69404104756E+03 -0.15116524971E+04  0.17295233571E+04  0.46999998093E+01 0. -1.
</event>
<event>
 5   0  0.1468942E-06  0.3654771E+04  0.7818609E-02  0.8078060E-01
       -2   -1    0    0    0  501  0.00000000000E+00  0.00000000000E+00  0.15416746133E+04  0.15416746133E+04  0.25500000920E-02 0. -1.
        2   -1    0    0  501    0  0.00000000000E+00  0.00000000000E+00 -0.21660461410E+04  0.21660461410E+04  0.25500000920E-02 0.  1.
    10030    2    1    2    0    0  0.00000000000E+00  0.00000000000E+00 -0.62437152766E+03  0.37077207543E+04  0.36547713181E+04 0.  0.
        2    1    3    3  502    0  0.81936834267E+03 -0.10476636058E+04 -0.15834870125E+04  0.20679445424E+04  0.25500000920E-02 0.  1.
       -2    1    3    3    0  502 -0.81936834267E+03  0.10476636058E+04  0.95911548479E+03  0.16397762119E+04  0.25500000920E-02 0. -1.
</event>
<event>
 5   0  0.4811500E-07  0.3737154E+04  0.7818609E-02  0.8059778E-01
       -1   -1    0    0    0  501  0.00000000000E+00  0.00000000000E+00  0.20379040379E+04  0.20379040379E+04  0.50400001928E-02 0.  1.
        1   -1    0    0  501    0  0.00000000000E+00  0.00000000000E+00 -0.17133187163E+04  0.17133187163E+04  0.50400001928E-02 0. -1.
    10030    2    1    2    0    0  0.00000000000E+00  0.00000000000E+00  0.32458532166E+03  0.37512227542E+04  0.37371535319E+04 0.  0.
        3    1    3    3  502    0 -0.65005712286E+03  0.17515569873E+04  0.12972088588E+03  0.18727930107E+04  0.10100000352E+00 0. -1.
       -3    1    3    3    0  502  0.65005712286E+03 -0.17515569873E+04  0.19486443577E+03  0.18784297435E+04  0.10100000352E+00 0.  1.
</event>
<event>
 5   0  0.1505671E-06  0.3644215E+04  0.7818609E-02  0.8080438E-01
        2   -1    0    0  501    0  0.00000000000E+00  0.00000000000E+00  0.26799062289E+04  0.26799062289E+04  0.25500000920E-02 0. -1.
       -2   -1    0    0    0  501  0.00000000000E+00  0.00000000000E+00 -0.12388773041E+04  0.12388773041E+04  0.25500000920E-02 0.  1.
    10030    2    1    2    0    0  0.00000000000E+00  0.00000000000E+00  0.14410289248E+04  0.39187835331E+04  0.36442145954E+04 0.  0.
        3    1    3    3  502    0 -0.57537081081E+03 -0.16371436117E+04  0.12296359729E+03  0.17396582514E+04  0.10100000352E+00 0.  1.
       -3    1    3    3    0  502  0.57537081081E+03  0.16371436117E+04  0.13180653275E+04  0.21791252816E+04  0.10100000352E+00 0. -1.
</event>
<event>
 5   0  0.4811500E-07  0.3529256E+04  0.7818609E-02  0.8106891E-01
        3   -1    0    0  501    0  0.00000000000E+00  0.00000000000E+00  0.21692675779E+04  0.21692675803E+04  0.10100000352E+00 0. -1.
       -3   -1    0    0    0  501  0.00000000000E+00  0.00000000000E+00 -0.14354671626E+04  0.14354671662E+04  0.10100000352E+00 0.  1.
    10030    2    1    2    0    0  0.00000000000E+00  0.00000000000E+00  0.73380041530E+03  0.36047347464E+04  0.35292562308E+04 0.  0.
        1    1    3    3  502    0 -0.72680391868E+02  0.29801302889E+01 -0.14339351767E+04  0.14357790260E+04  0.50400001928E-02 0.  1.
       -1    1    3    3    0  502  0.72680391868E+02 -0.29801302889E+01  0.21677355920E+04  0.21689557204E+04  0.50400001928E-02 0. -1.
</event>
<event>
 5   0  0.1379425E-06  0.3793436E+04  0.7818609E-02  0.8047565E-01
        2   -1    0    0  501    0  0.00000000000E+00  0.00000000000E+00  0.16744191077E+04  0.16744191077E+04  0.25500000920E-02 0.  1.
       -2   -1    0    0    0  501  0.00000000000E+00  0.00000000000E+00 -0.21485300106E+04  0.21485300106E+04  0.25500000920E-02 0. -1.
    10030    2    1    2    0    0  0.00000000000E+00  0.00000000000E+00 -0.47411090289E+03  0.38229491183E+04  0.37934362803E+04 0.  0.
        4    1    3    3  502    0 -0.66780249938E+03 -0.15252579674E+04 -0.11525091818E+04  0.20250064376E+04  0.12699999809E+01 0. -1.
       -4    1    3    3    0  502  0.66780249938E+03  0.15252579674E+04  0.67839827891E+03  0.17979426807E+04  0.12699999809E+01 0.  1.
</event>
<event>
 5   0  0.1379425E-06  0.3615183E+04  0.7818609E-02  0.8087023E-01
       -2   -1    0    0    0  501  0.00000000000E+00  0.00000000000E+00  0.26022298951E+04  0.26022298951E+04  0.25500000920E-02 0. -1.
        2   -1    0    0  501    0  0.00000000000E+00  0.00000000000E+00 -0.12556103236E+04  0.12556103236E+04  0.25500000920E-02 0.  1.
    10030    2    1    2    0    0  0.00000000000E+00  0.00000000000E+00  0.13466195715E+04  0.38578402186E+04  0.36151828283E+04 0.  0.
        4    1    3    3  502    0 -0.17007136669E+04  0.29902550660E+03  0.10308134290E+03  0.17298758934E+04  0.12699999809E+01 0.  1.
       -4    1    3    3    0  502  0.17007136669E+04 -0.29902550660E+03  0.12435382286E+04  0.21279643252E+04  0.12699999809E+01 0. -1.
</event>
<event>
 5   0  0.4811500E-07  0.3684456E+04  0.7818609E-02  0.8071415E-01
       -1   -1    0    0    0  501  0.00000000000E+00  0.00000000000E+00  0.19483341638E+04  0.19483341638E+04  0.50400001928E-02 0. -1.
        1   -1    0    0  501    0  0.00000000000E+00  0.00000000000E+00 -0.17419000026E+04  0.17419000026E+04  0.50400001928E-02 0.  1.
    10030    2    1    2    0    0  0.00000000000E+00  0.00000000000E+00  0.20643416121E+03  0.36902341664E+04  0.36844556097E+04 0.  0.
        2    1    3    3  502    0 -0.33133096043E+03 -0.18121851171E+04  0.10035233591E+03  0.18449568275E+04  0.25500000920E-02 0.  1.
       -2    1    3    3    0  502  0.33133096043E+03  0.18121851171E+04  0.10608182530E+03  0.18452773389E+04  0.25500000920E-02 0. -1.
</event>
<event>
 5   0  0.1444091E-06  0.3471186E+04  0.7818609E-02  0.8120653E-01
       -2   -1    0    0    0  501  0.00000000000E+00  0.00000000000E+00  0.19246915679E+04  0.19246915679E+04  0.25500000920E-02 0.  1.
        2   -1    0    0  501    0  0.00000000000E+00  0.00000000000E+00 -0.15650728421E+04  0.15650728421E+04  0.25500000920E-02 0. -1.
    10030    2    1    2    0    0  0.00000000000E+00  0.00000000000E+00  0.35961872576E+03  0.34897644100E+04  0.34711856777E+04 0.  0.
        1    1    3    3  502    0 -0.20647342388E+03 -0.17219181605E+04  0.11126028873E+03  0.17378182523E+04  0.50400001928E-02 0. -1.
       -1    1    3    3    0  502  0.20647342388E+03  0.17219181605E+04  0.24835843703E+03  0.17519461577E+04  0.50400001928E-02 0.  1.
</event>
<event>
 5   0  0.5071661E-07  0.3575487E+04  0.7818609E-02  0.8096130E-01
        1   -1    0    0  501    0  0.00000000000E+00  0.00000000000E+00  0.23083716091E+04  0.23083716092E+04  0.50400001928E-02 0. -1.
       -1   -1    0    0    0  501  0.00000000000E+00  0.00000000000E+00 -0.13845372661E+04  0.13845372661E+04  0.50400001928E-02 0.  1.
    10030    2    1    2    0    0  0.00000000000E+00  0.00000000000E+00  0.92383434306E+03  0.36929088753E+04  0.35754868294E+04 0.  0.
        1    1    3    3  502    0  0.85488908000E+03 -0.14524747643E+04  0.10777434859E+04  0.20005122597E+04  0.50400001928E-02 0. -1.
       -1    1    3    3    0  502 -0.85488908000E+03  0.14524747643E+04 -0.15390914285E+03  0.16923966155E+04  0.50400001928E-02 0.  1.
</event>
<event>
 5   0  0.4811500E-07  0.3387380E+04  0.7818609E-02  0.8141011E-01
       -1   -1    0    0    0  501  0.00000000000E+00  0.00000000000E+00  0.27734172869E+04  0.27734172869E+04  0.50400001928E-02 0.  1.
        1   -1    0    0  501    0  0.00000000000E+00  0.00000000000E+00 -0.10343143620E+04  0.10343143620E+04  0.50400001928E-02 0. -1.
    10030    2    1    2    0    0  0.00000000000E+00  0.00000000000E+00  0.17391029249E+04  0.38077316490E+04  0.33873797140E+04 0.  0.
        5    1    3    3  502    0  0.13077842069E+04 -0.10648535591E+04  0.10449626753E+04  0.19839812794E+04  0.46999998093E+01 0. -1.
       -5    1    3    3    0  502 -0.13077842069E+04  0.10648535591E+04  0.69414024968E+03  0.18237503696E+04  0.46999998093E+01 0.  1.
</event>
<event>
 5   0  0.1379425E-06  0.3194580E+04  0.7818609E-02  0.8190250E-01
        2   -1    0    0  501    0  0.00000000000E+00  0.00000000000E+00  0.89376348458E+03  0.89376348458E+03  0.25500000920E-02 0. -1.
       -2   -1    0    0    0  501  0.00000000000E+00  0.00000000000E+00 -0.28545972565E+04  0.28545972565E+04  0.25500000920E-02 0.  1.
    10030    2    1    2    0    0  0.00000000000E+00  0.00000000000E+00 -0.19608337719E+04  0.37483607411E+04  0.31945796537E+04 0.  0.
        4    1    3    3  502    0 -0.69083378099E+03 -0.14179268839E+04 -0.12762436250E+04  0.20289325677E+04  0.12699999809E+01 0.  1.
       -4    1    3    3    0  502  0.69083378099E+03  0.14179268839E+04 -0.68459014689E+03  0.17194281733E+04  0.12699999809E+01 0. -1.
</event>
<event>
 5   0  0.4811500E-07  0.3542159E+04  0.7818609E-02  0.8103871E-01
        1   -1    0    0  501    0  0.00000000000E+00  0.00000000000E+00  0.12074660594E+04  0.12074660594E+04  0.50400001928E-02 0. -1.
       -1   -1    0    0    0  501  0.00000000000E+00  0.00000000000E+00 -0.25977736224E+04  0.25977736224E+04  0.50400001928E-02 0.  1.
    10030    2    1    2    0    0  0.00000000000E+00  0.00000000000E+00 -0.13903075630E+04  0.38052396818E+04  0.35421594990E+04 0.  0.
        5    1    3    3  502    0 -0.21293265702E+03  0.16420238151E+04 -0.19883268564E+02  0.16558985356E+04  0.46999998093E+01 0. -1.
       -5    1    3    3    0  502  0.21293265702E+03 -0.16420238151E+04 -0.13704242945E+04  0.21493411462E+04  0.46999998093E+01 0.  1.
</event>
<event>
 5   0  0.4811500E-07  0.3582144E+04  0.7818609E-02  0.8094594E-01
       -1   -1    0    0    0  501  0.00000000000E+00  0.00000000000E+00  0.12696606670E+04  0.12696606670E+04  0.50400001928E-02 0. -1.
        1   -1    0    0  501    0  0.00000000000E+00  0.00000000000E+00 -0.25266110763E+04  0.25266110763E+04  0.50400001928E-02 0.  1.
    10030    2    1    2    0    0  0.00000000000E+00  0.00000000000E+00 -0.12569504093E+04  0.37962717433E+04  0.35821438856E+04 0.  0.
        3    1    3    3  502    0 -0.86595243637E+03 -0.15614493633E+04 -0.77812884170E+03  0.19476863815E+04  0.10100000352E+00 0.  1.
       -3    1    3    3    0  502  0.86595243637E+03  0.15614493633E+04 -0.47882156762E+03  0.18485853618E+04  0.10100000352E+00 0. -1.
</event>
<event>
 5   0  0.4811500E-07  0.3388746E+04  0.7818609E-02  0.8140674E-01
        1   -1    0    0  501    0  0.00000000000E+00  0.00000000000E+00  0.10783460368E+04  0.10783460368E+04  0.50400001928E-02 0.  1.
       -1   -1    0    0    0  501  0.00000000000E+00  0.00000000000E+00 -0.26623172219E+04  0.26623172219E+04  0.50400001928E-02 0. -1.
    10030    2    1    2    0    0  0.00000000000E+00  0.00000000000E+00 -0.15839711851E+04  0.37406632587E+04  0.33887456233E+04 0.  0.
        4    1    3    3  502    0  0.62021452425E+03  0.15767571100E+04 -0.80112636477E+03  0.18742022584E+04  0.12699999809E+01 0.  1.
       -4    1    3    3    0  502 -0.62021452425E+03 -0.15767571100E+04 -0.78284482037E+03  0.18664610003E+04  0.12699999809E+01 0. -1.
</event>
<event>
 5   0  0.1491854E-06  0.3714442E+04  0.7818609E-02  0.8064769E-01
        2   -1    0    0  501    0  0.00000000000E+00  0.00000000000E+00  0.29208590886E+04  0.29208590886E+04  0.25500000920E-02 0.  1.
       -2   -1    0    0    0  501  0.00000000000E+00  0.00000000000E+00 -0.11809090509E+04  0.11809090509E+04  0.25500000920E-02 0. -1.
    10030    2    1    2    0    0  0.00000000000E+00  0.00000000000E+00  0.17399500377E+04  0.41017681395E+04  0.37144415107E+04 0.  0.
        5    1    3    3  502    0  0.11278518804E+04  0.46550068980E+03 -0.67621078263E+03  0.13949995946E+04  0.46999998093E+01 0. -1.
       -5    1    3    3    0  502 -0.11278518804E+04 -0.46550068980E+03  0.24161608203E+04  0.27067685449E+04  0.46999998093E+01 0.  1.
</event>
<event>
 5   0  0.1444091E-06  0.3638787E+04  0.7818609E-02  0.8081664E-01
       -2   -1    0    0    0  501  0.00000000000E+00  0.00000000000E+00  0.17124338543E+04  0.17124338543E+04  0.25500000920E-02 0.  1.
        2   -1    0    0  501    0  0.00000000000E+00  0.00000000000E+00 -0.19330340139E+04  0.19330340139E+04  0.25500000920E-02 0. -1.
    10030    2    1    2    0    0  0.00000000000E+00  0.00000000000E+00 -0.22060015957E+03  0.36454678682E+04  0.36387870984E+04 0.  0.
        1    1    3    3  502    0  0.11431126426E+04  0.31623011425E+03  0.12719013728E+04  0.17390920335E+04  0.50400001928E-02 0.  1.
       -1    1    3    3    0  502 -0.11431126426E+04 -0.31623011425E+03 -0.14925015324E+04  0.19063758347E+04  0.50400001928E-02 0. -1.
</event>
<event>
 5   0  0.4811500E-07  0.3537752E+04  0.7818609E-02  0.8104901E-01
        1   -1    0    0  501    0  0.00000000000E+00  0.00000000000E+00  0.17822172137E+04  0.17822172138E+04  0.50400001928E-02 0. -1.
       -1   -1    0    0    0  501  0.00000000000E+00  0.00000000000E+00 -0.17556349699E+04  0.17556349699E+04  0.50400001928E-02 0.  1.
    10030    2    1    2    0    0  0.00000000000E+00  0.00000000000E+00  0.26582243833E+02  0.35378521837E+04  0.35377523172E+04 0.  0.
        2    1    3    3  502    0  0.40687909935E+03 -0.56650276178E+03 -0.16123152487E+04  0.17567118266E+04  0.25500000920E-02 0.  1.
       -2    1    3    3    0  502 -0.40687909935E+03  0.56650276178E+03  0.16388974925E+04  0.17811403571E+04  0.25500000920E-02 0. -1.
</event>
<event>
 5   0  0.4811500E-07  0.3561972E+04  0.7818609E-02  0.8099258E-01
        1   -1    0    0  501    0  0.00000000000E+00  0.00000000000E+00  0.15024672279E+04  0.15024672279E+04  0.50400001928E-02 0. -1.
       -1   -1    0    0    0  501  0.00000000000E+00  0.00000000000E+00 -0.21111348245E+04  0.21111348245E+04  0.50400001928E-02 0.  1.
    10030    2    1    2    0    0  0.00000000000E+00  0.00000000000E+00 -0.60866759664E+03  0.36136020524E+04  0.35619718626E+04 0.  0.
        5    1    3    3  502    0  0.13847401548E+04 -0.32789553562E+03 -0.13907758347E+04  0.19897990579E+04  0.46999998093E+01 0.  1.
       -5    1    3    3    0  502 -0.13847401548E+04  0.32789553562E+03  0.78210823803E+03  0.16238029944E+04  0.46999998093E+01 0. -1.
</event>
<event>
 5   0  0.1505671E-06  0.3660644E+04  0.7818609E-02  0.8076740E-01
       -2   -1    0    0    0  501  0.00000000000E+00  0.00000000000E+00  0.16684390357E+04  0.16684390357E+04  0.25500000920E-02 0.  1.
        2   -1    0    0  501    0  0.00000000000E+00  0.00000000000E+00 -0.20079114213E+04  0.20079114213E+04  0.25500000920E-02 0. -1.
    10030    2    1    2    0    0  0.00000000000E+00  0.00000000000E+00 -0.33947238560E+03  0.36763504570E+04  0.36606435476E+04 0.  0.
        3    1    3    3  502    0 -0.12255406754E+04  0.13500432243E+04 -0.33014356333E+03  0.18529871659E+04  0.10100000352E+00 0. -1.
       -3    1    3    3    0  502  0.12255406754E+04 -0.13500432243E+04 -0.93288222716E+01  0.18233632911E+04  0.10100000352E+00 0.  1.
</event>
<event>
 5   0  0.1444091E-06  0.3688271E+04  0.7818609E-02  0.8070566E-01
       -2   -1    0    0    0  501  0.00000000000E+00  0.00000000000E+00  0.15885283306E+04  0.15885283306E+04  0.25500000920E-02 0. -1.
        2   -1    0    0  501    0  0.00000000000E+00  0.00000000000E+00 -0.21408716123E+04  0.21408716123E+04  0.25500000920E-02 0.  1.
    10030    2    1    2    0    0  0.00000000000E+00  0.00000000000E+00 -0.55234328167E+03  0.37293999429E+04  0.36882707104E+04 0.  0.
        1    1    3    3  502    0  0.74464138563E+03  0.98430405868E+03  0.11093234103E+04  0.16595010400E+04  0.50400001928E-02 0. -1.
       -1    1    3    3    0  502 -0.74464138563E+03 -0.98430405868E+03 -0.16616666919E+04  0.20698989029E+04  0.50400001928E-02 0.  1.
</event>
<event>
 5   0  0.4811500E-07  0.2880944E+04  0.7818609E-02  0.8278570E-01
        1   -1    0    0  501    0  0.00000000000E+00  0.00000000000E+00  0.25707737996E+04  0.25707737996E+04  0.50400001928E-02 0.  1.
       -1   -1    0    0    0  501  0.00000000000E+00  0.00000000000E+00 -0.80713422625E+03  0.80713422627E+03  0.50400001928E-02 0. -1.
    10030    2    1    2    0    0  0.00000000000E+00  0.00000000000E+00  0.17636395734E+04  0.33779080259E+04  0.28809439576E+04 0.  0.
        5    1    3    3  502    0 -0.10644957058E+04 -0.71315628886E+03  0.16535303464E+04  0.20918718165E+04  0.46999998093E+01 0.  1.
       -5    1    3    3    0  502  0.10644957058E+04  0.71315628886E+03  0.11010922697E+03  0.12860362094E+04  0.46999998093E+01 0. -1.
</event>
<event>
 5   0  0.4811500E-07  0.3620258E+04  0.7818609E-02  0.8085867E-01
        1   -1    0    0  501    0  0.00000000000E+00  0.00000000000E+00  0.16509710291E+04  0.16509710291E+04  0.50400001928E-02 0.  1.
       -1   -1    0    0    0  501  0.00000000000E+00  0.00000000000E+00 -0.19846303822E+04  0.19846303822E+04  0.50400001928E-02 0. -1.
    10030    2    1    2    0    0  0.00000000000E+00  0.00000000000E+00 -0.33365935309E+03  0.36356014114E+04  0.36202581480E+04 0.  0.
        2    1    3    3  502    0 -0.13583708532E+04  0.11123782433E+04  0.27550336213E+03  0.17772053436E+04  0.25500000920E-02 0.  1.
       -2    1    3    3    0  502  0.13583708532E+04 -0.11123782433E+04 -0.60916271521E+03  0.18583960677E+04  0.25500000920E-02 0. -1.
</event>
<event>
 5   0  0.4811500E-07  0.3588169E+04  0.7818609E-02  0.8093207E-01
       -1   -1    0    0    0  501  0.00000000000E+00  0.00000000000E+00  0.16302874346E+04  0.16302874346E+04  0.50400001928E-02 0. -1.
        1   -1    0    0  501    0  0.00000000000E+00  0.00000000000E+00 -0.19743381210E+04  0.19743381210E+04  0.50400001928E-02 0.  1.
    10030    2    1    2    0    0  0.00000000000E+00  0.00000000000E+00 -0.34405068638E+03  0.36046255556E+04  0.35881686863E+04 0.  0.
        5    1    3    3  502    0  0.99480430310E+03 -0.10682122635E+04  0.87583270071E+03  0.17022978737E+04  0.46999998093E+01 0. -1.
       -5    1    3    3    0  502 -0.99480430310E+03  0.10682122635E+04 -0.12198833871E+04  0.19023276819E+04  0.46999998093E+01 0.  1.
</event>
<event>
 5   0  0.5307873E-07  0.2199699E+04  0.7818609E-02  0.8518554E-01
       -1   -1    0    0    0  501  0.00000000000E+00  0.00000000000E+00  0.86942827816E+03  0.86942827818E+03  0.50400001928E-02 0.  1.
        1   -1    0    0  501    0  0.00000000000E+00  0.00000000000E+00 -0.13913378226E+04  0.13913378226E+04  0.50400001928E-02 0. -1.
    10030    2    1    2    0    0  0.00000000000E+00  0.00000000000E+00 -0.52190954445E+03  0.22607661008E+04  0.21996985680E+04 0.  0.
        2    1    3    3  502    0 -0.96121390951E+03  0.42428191053E+03  0.73219764458E+02  0.10532371306E+04  0.25500000920E-02 0.  1.
       -2    1    3    3    0  502  0.96121390951E+03 -0.42428191053E+03 -0.59512930891E+03  0.12075289702E+04  0.25500000920E-02 0. -1.
</event>
<event>
 5   0  0.4811500E-07  0.3631838E+04  0.7818609E-02  0.8083237E-01
       -1   -1    0    0    0  501  0.00000000000E+00  0.00000000000E+00  0.22291021765E+04  0.22291021766E+04  0.50400001928E-02 0. -1.
        1   -1    0    0  501    0  0.00000000000E+00  0.00000000000E+00 -0.14793229660E+04  0.14793229660E+04  0.50400001928E-02 0.  1.
    10030    2    1    2    0    0  0.00000000000E+00  0.00000000000E+00  0.74977921059E+03  0.37084251425E+04  0.36318381259E+04 0.  0.
        5    1    3    3  502    0 -0.96856091963E+03 -0.12247516713E+04  0.13214841634E+04  0.20455975644E+04  0.46999998093E+01 0. -1.
       -5    1    3    3    0  502  0.96856091963E+03  0.12247516713E+04 -0.57170495281E+03  0.16628275781E+04  0.46999998093E+01 0.  1.
</event>
<event>
 5   0  0.4811500E-07  0.2725620E+04  0.7818609E-02  0.8326740E-01
       -4   -1    0    0    0  501  0.00000000000E+00  0.00000000000E+00  0.12412519757E+04  0.12412526254E+04  0.12699999809E+01 0.  1.
        4   -1    0    0  501    0  0.00000000000E+00  0.00000000000E+00 -0.14962713841E+04  0.14962719230E+04  0.12699999809E+01 0. -1.
    10030    2    1    2    0    0  0.00000000000E+00  0.00000000000E+00 -0.25501940834E+03  0.27375245485E+04  0.27256202514E+04 0.  0.
        3    1    3    3  502    0  0.58518783239E+03  0.11100183859E+04  0.40647561538E+03  0.13190178362E+04  0.10100000352E+00 0. -1.
       -3    1    3    3    0  502 -0.58518783239E+03 -0.11100183859E+04 -0.66149502372E+03  0.14185067123E+04  0.10100000352E+00 0.  1.
</event>
<event>
 5   0  0.1505671E-06  0.3632384E+04  0.7818609E-02  0.8083114E-01
       -2   -1    0    0    0  501  0.00000000000E+00  0.00000000000E+00  0.17397650827E+04  0.17397650827E+04  0.25500000920E-02 0.  1.
        2   -1    0    0  501    0  0.00000000000E+00  0.00000000000E+00 -0.18959763025E+04  0.18959763025E+04  0.25500000920E-02 0. -1.
    10030    2    1    2    0    0  0.00000000000E+00  0.00000000000E+00 -0.15621121979E+03  0.36357413851E+04  0.36323839932E+04 0.  0.
        3    1    3    3  502    0  0.16897336868E+04  0.44948360424E+03 -0.56980086026E+03  0.18389965942E+04  0.10100000352E+00 0. -1.
       -3    1    3    3    0  502 -0.16897336868E+04 -0.44948360424E+03  0.41358964047E+03  0.17967447909E+04  0.10100000352E+00 0.  1.
</event>
<event>
 5   0  0.1468942E-06  0.3631673E+04  0.7818609E-02  0.8083275E-01
        2   -1    0    0  501    0  0.00000000000E+00  0.00000000000E+00  0.19178194831E+04  0.19178194831E+04  0.25500000920E-02 0.  1.
       -2   -1    0    0    0  501  0.00000000000E+00  0.00000000000E+00 -0.17192765879E+04  0.17192765879E+04  0.25500000920E-02 0. -1.
    10030    2    1    2    0    0  0.00000000000E+00  0.00000000000E+00  0.19854289521E+03  0.36370960711E+04  0.36316729683E+04 0.  0.
        2    1    3    3  502    0 -0.89407070931E+03  0.79523012609E+03  0.14671473054E+04  0.18932180546E+04  0.25500000920E-02 0.  1.
       -2    1    3    3    0  502  0.89407070931E+03 -0.79523012609E+03 -0.12686044102E+04  0.17438780164E+04  0.25500000920E-02 0. -1.
</event>
<event>
 5   0  0.1379425E-06  0.2953947E+04  0.7818609E-02  0.8257005E-01
       -2   -1    0    0    0  501  0.00000000000E+00  0.00000000000E+00  0.87497800133E+03  0.87497800133E+03  0.25500000920E-02 0. -1.
        2   -1    0    0  501    0  0.00000000000E+00  0.00000000000E+00 -0.24931500138E+04  0.24931500138E+04  0.25500000920E-02 0.  1.
    10030    2    1    2    0    0  0.00000000000E+00  0.00000000000E+00 -0.16181720125E+04  0.33681280152E+04  0.29539474715E+04 0.  0.
        4    1    3    3  502    0 -0.13930784775E+04  0.21975987392E+03 -0.30883568420E+03  0.14437254377E+04  0.12699999809E+01 0. -1.
       -4    1    3    3    0  502  0.13930784775E+04 -0.21975987392E+03 -0.13093363283E+04  0.19244025775E+04  0.12699999809E+01 0.  1.
</event>
<event>
 5   0  0.4811500E-07  0.3677240E+04  0.7818609E-02  0.8073025E-01
        1   -1    0    0  501    0  0.00000000000E+00  0.00000000000E+00  0.24640841241E+04  0.24640841241E+04  0.50400001928E-02 0. -1.
       -1   -1    0    0    0  501  0.00000000000E+00  0.00000000000E+00 -0.13719186396E+04  0.13719186396E+04  0.50400001928E-02 0.  1.
    10030    2    1    2    0    0  0.00000000000E+00  0.00000000000E+00  0.10921654845E+04  0.38360027637E+04  0.36772396927E+04 0.  0.
        2    1    3    3  502    0  0.40581312453E+03  0.13619524175E+04 -0.67087066223E+03  0.15715171412E+04  0.25500000920E-02 0.  1.
       -2    1    3    3    0  502 -0.40581312453E+03 -0.13619524175E+04  0.17630361467E+04  0.22644856225E+04  0.25500000920E-02 0. -1.
</event>
<event>
 5   0  0.1379425E-06  0.3530534E+04  0.7818609E-02  0.8106592E-01
       -2   -1    0    0    0  501  0.00000000000E+00  0.00000000000E+00  0.17758048214E+04  0.17758048214E+04  0.25500000920E-02 0. -1.
        2   -1    0    0  501    0  0.00000000000E+00  0.00000000000E+00 -0.17547920719E+04  0.17547920719E+04  0.25500000920E-02 0.  1.
    10030    2    1    2    0    0  0.00000000000E+00  0.00000000000E+00  0.21012749588E+02  0.35305968933E+04  0.35305343629E+04 0.  0.
        4    1    3    3  502    0 -0.86200254370E+03 -0.16015773358E+03  0.15426783228E+04  0.17744173425E+04  0.12699999809E+01 0. -1.
       -4    1    3    3    0  502  0.86200254370E+03  0.16015773358E+03 -0.15216655732E+04  0.17561795508E+04  0.12699999809E+01 0.  1.
</event>
<event>
 5   0  0.4811500E-07  0.3657753E+04  0.7818609E-02  0.8077389E-01
       -1   -1    0    0    0  501  0.00000000000E+00  0.00000000000E+00  0.13192799825E+04  0.13192799825E+04  0.50400001928E-02 0. -1.
        1   -1    0    0  501    0  0.00000000000E+00  0.00000000000E+00 -0.25353135133E+04  0.25353135133E+04  0.50400001928E-02 0.  1.
    10030    2    1    2    0    0  0.00000000000E+00  0.00000000000E+00 -0.12160335308E+04  0.38545934958E+04  0.36577525162E+04 0.  0.
        4    1    3    3  502    0 -0.11316026950E+04  0.13066047409E+04 -0.12377062506E+04  0.21259489609E+04  0.12699999809E+01 0.  1.
       -4    1    3    3    0  502  0.11316026950E+04 -0.13066047409E+04  0.21672719865E+02  0.17286445349E+04  0.12699999809E+01 0. -1.
</event>
<event>
 5   0  0.4811500E-07  0.3475662E+04  0.7818609E-02  0.8119582E-01
        1   -1    0    0  501    0  0.00000000000E+00  0.00000000000E+00  0.25060006425E+04  0.25060006425E+04  0.50400001928E-02 0. -1.
       -1   -1    0    0    0  501  0.00000000000E+00  0.00000000000E+00 -0.12051303114E+04  0.12051303114E+04  0.50400001928E-02 0.  1.
    10030    2    1    2    0    0  0.00000000000E+00  0.00000000000E+00  0.13008703311E+04  0.37111309539E+04  0.34756624316E+04 0.  0.
        2    1    3    3  502    0 -0.49211277589E+03  0.90002171718E+03  0.21482700517E+04  0.23806046061E+04  0.25500000920E-02 0. -1.
       -2    1    3    3    0  502  0.49211277589E+03 -0.90002171718E+03 -0.84739972058E+03  0.13305263477E+04  0.25500000920E-02 0.  1.
</event>
<event>
 5   0  0.1505671E-06  0.3661123E+04  0.7818609E-02  0.8076632E-01
       -2   -1    0    0    0  501  0.00000000000E+00  0.00000000000E+00  0.16325045322E+04  0.16325045322E+04  0.25500000920E-02 0. -1.
        2   -1    0    0  501    0  0.00000000000E+00  0.00000000000E+00 -0.20526469564E+04  0.20526469564E+04  0.25500000920E-02 0.  1.
    10030    2    1    2    0    0  0.00000000000E+00  0.00000000000E+00 -0.42014242419E+03  0.36851514886E+04  0.36611230296E+04 0.  0.
        3    1    3    3  502    0  0.13498500637E+04 -0.99154635968E+03  0.53348950181E+03  0.17578027297E+04  0.10100000352E+00 0. -1.
       -3    1    3    3    0  502 -0.13498500637E+04  0.99154635968E+03 -0.95363192600E+03  0.19273487589E+04  0.10100000352E+00 0.  1.
</event>
<event>
 5   0  0.4811500E-07  0.3255983E+04  0.7818609E-02  0.8174187E-01
        1   -1    0    0  501    0  0.00000000000E+00  0.00000000000E+00  0.26840237962E+04  0.26840237962E+04  0.50400001928E-02 0. -1.
       -1   -1    0    0    0  501  0.00000000000E+00  0.00000000000E+00 -0.98745653210E+03  0.98745653211E+03  0.50400001928E-02 0.  1.
    10030    2    1    2    0    0  0.00000000000E+00  0.00000000000E+00  0.16965672641E+04  0.36714803283E+04  0.32559833107E+04 0.  0.
        5    1    3    3  502    0 -0.10732610591E+04  0.37086541444E+02  0.22279691104E+04  0.24732838817E+04  0.46999998093E+01 0. -1.
       -5    1    3    3    0  502  0.10732610591E+04 -0.37086541444E+02 -0.53140184629E+03  0.11981964466E+04  0.46999998093E+01 0.  1.
</event>
<event>
 5   0  0.1505671E-06  0.3557922E+04  0.7818609E-02  0.8100199E-01
       -2   -1    0    0    0  501  0.00000000000E+00  0.00000000000E+00  0.16337825192E+04  0.16337825192E+04  0.25500000920E-02 0. -1.
        2   -1    0    0  501    0  0.00000000000E+00  0.00000000000E+00 -0.19370397171E+04  0.19370397171E+04  0.25500000920E-02 0.  1.
    10030    2    1    2    0    0  0.00000000000E+00  0.00000000000E+00 -0.30325719790E+03  0.35708222363E+04  0.35579216567E+04 0.  0.
        3    1    3    3  502    0  0.85389930243E+03 -0.15329600183E+04  0.14199189314E+03  0.17604749769E+04  0.10100000352E+00 0. -1.
       -3    1    3    3    0  502 -0.85389930243E+03  0.15329600183E+04 -0.44524909104E+03  0.18103472594E+04  0.10100000352E+00 0.  1.
</event>
<event>
 5   0  0.4811500E-07  0.3054463E+04  0.7818609E-02  0.8228347E-01
        1   -1    0    0  501    0  0.00000000000E+00  0.00000000000E+00  0.16784019435E+04  0.16784019435E+04  0.50400001928E-02 0. -1.
       -1   -1    0    0    0  501  0.00000000000E+00  0.00000000000E+00 -0.13896767654E+04  0.13896767654E+04  0.50400001928E-02 0.  1.
    10030    2    1    2    0    0  0.00000000000E+00  0.00000000000E+00  0.28872517818E+03  0.30680787089E+04  0.30544630847E+04 0.  0.
        4    1    3    3  502    0  0.80792760163E+03  0.53110869617E+03 -0.10431132689E+04  0.14222905334E+04  0.12699999809E+01 0.  1.
       -4    1    3    3    0  502 -0.80792760163E+03 -0.53110869617E+03  0.13318384471E+04  0.16457881755E+04  0.12699999809E+01 0. -1.
</event>
<event>
 5   0  0.4811500E-07  0.2804905E+04  0.7818609E-02  0.8301747E-01
        1   -1    0    0  501    0  0.00000000000E+00  0.00000000000E+00  0.14703068918E+04  0.14703068918E+04  0.50400001928E-02 0. -1.
       -1   -1    0    0    0  501  0.00000000000E+00  0.00000000000E+00 -0.13377296565E+04  0.13377296565E+04  0.50400001928E-02 0.  1.
    10030    2    1    2    0    0  0.00000000000E+00  0.00000000000E+00  0.13257723529E+03  0.28080365482E+04  0.28049050845E+04 0.  0.
        5    1    3    3  502    0  0.69579526469E+03 -0.82075570617E+02 -0.11499683785E+04  0.13465945237E+04  0.46999998093E+01 0.  1.
       -5    1    3    3    0  502 -0.69579526469E+03  0.82075570617E+02  0.12825456138E+04  0.14614420246E+04  0.46999998093E+01 0. -1.
</event>
<event>
 5   0  0.1505671E-06  0.3548914E+04  0.7818609E-02  0.8102295E-01
       -2   -1    0    0    0  501  0.00000000000E+00  0.00000000000E+00  0.15423800698E+04  0.15423800698E+04  0.25500000920E-02 0. -1.
        2   -1    0    0  501    0  0.00000000000E+00  0.00000000000E+00 -0.20414541132E+04  0.20414541132E+04  0.25500000920E-02 0.  1.
    10030    2    1    2    0    0  0.00000000000E+00  0.00000000000E+00 -0.49907404345E+03  0.35838341830E+04  0.35489142777E+04 0.  0.
        3    1    3    3  502    0 -0.64363600318E+03 -0.13204133133E+04 -0.12547913909E+04  0.19319058123E+04  0.10100000352E+00 0.  1.
       -3    1    3    3    0  502  0.64363600318E+03  0.13204133133E+04  0.75571734749E+03  0.16519283707E+04  0.10100000352E+00 0. -1.
</event>
<event>
 5   0  0.5071661E-07  0.3708442E+04  0.7818609E-02  0.8066094E-01
        1   -1    0    0  501    0  0.00000000000E+00  0.00000000000E+00  0.24360807431E+04  0.24360807431E+04  0.50400001928E-02 0.  1.
       -1   -1    0    0    0  501  0.00000000000E+00  0.00000000000E+00 -0.14113389726E+04  0.14113389726E+04  0.50400001928E-02 0. -1.
    10030    2    1    2    0    0  0.00000000000E+00  0.00000000000E+00  0.10247417705E+04  0.38474197157E+04  0.37084420950E+04 0.  0.
        1    1    3    3  502    0 -0.21652352571E+03  0.44234458411E+03  0.23669835393E+04  0.24176770346E+04  0.50400001928E-02 0.  1.
       -1    1    3    3    0  502  0.21652352571E+03 -0.44234458411E+03 -0.13422417688E+04  0.14297426811E+04  0.50400001928E-02 0. -1.
</event>
<event>
 5   0  0.1491854E-06  0.3623419E+04  0.7818609E-02  0.8085148E-01
        2   -1    0    0  501    0  0.00000000000E+00  0.00000000000E+00  0.27923623241E+04  0.27923623241E+04  0.25500000920E-02 0. -1.
       -2   -1    0    0    0  501  0.00000000000E+00  0.00000000000E+00 -0.11754529313E+04  0.11754529313E+04  0.25500000920E-02 0.  1.
    10030    2    1    2    0    0  0.00000000000E+00  0.00000000000E+00  0.16169093928E+04  0.39678152554E+04  0.36234185401E+04 0.  0.
        5    1    3    3  502    0  0.35389659562E+03 -0.10356938394E+04 -0.77250102982E+03  0.13396583372E+04  0.46999998093E+01 0.  1.
       -5    1    3    3    0  502 -0.35389659562E+03  0.10356938394E+04  0.23894104226E+04  0.26281569182E+04  0.46999998093E+01 0. -1.
</event>
<event>
 5   0  0.4811500E-07  0.2376437E+04  0.7818609E-02  0.8448378E-01
        1   -1    0    0  501    0  0.00000000000E+00  0.00000000000E+00  0.97718674215E+03  0.97718674216E+03  0.50400001928E-02 0. -1.
       -1   -1    0    0    0  501  0.00000000000E+00  0.00000000000E+00 -0.14448248808E+04  0.14448248808E+04  0.50400001928E-02 0.  1.
    10030    2    1    2    0    0  0.00000000000E+00  0.00000000000E+00 -0.46763813867E+03  0.24220116230E+04  0.23764374330E+04 0.  0.
        2    1    3    3  502    0 -0.70140190937E+03  0.93808473385E+03 -0.30248437225E+02  0.11717007187E+04  0.25500000920E-02 0. -1.
       -2    1    3    3    0  502  0.70140190937E+03 -0.93808473385E+03 -0.43738970144E+03  0.12503109042E+04  0.25500000920E-02 0.  1.
</event>
<event>
 5   0  0.4811500E-07  0.3498429E+04  0.7818609E-02  0.8114162E-01
       -1   -1    0    0    0  501  0.00000000000E+00  0.00000000000E+00  0.20542678746E+04  0.20542678746E+04  0.50400001928E-02 0. -1.
        1   -1    0    0  501    0  0.00000000000E+00  0.00000000000E+00 -0.14894607401E+04  0.14894607401E+04  0.50400001928E-02 0.  1.
    10030    2    1    2    0    0  0.00000000000E+00  0.00000000000E+00  0.56480713450E+03  0.35437286148E+04  0.34984289897E+04 0.  0.
        3    1    3    3  502    0  0.22999091818E+03 -0.80972413540E+03  0.18356214962E+04  0.20194195417E+04  0.10100000352E+00 0. -1.
       -3    1    3    3    0  502 -0.22999091818E+03  0.80972413540E+03 -0.12708143617E+04  0.15243090730E+04  0.10100000352E+00 0.  1.
</event>
<event>
 5   0  0.4811500E-07  0.3500121E+04  0.7818609E-02  0.8113761E-01
        1   -1    0    0  501    0  0.00000000000E+00  0.00000000000E+00  0.17574040302E+04  0.17574040302E+04  0.50400001928E-02 0.  1.
       -1   -1    0    0    0  501  0.00000000000E+00  0.00000000000E+00 -0.17427476423E+04  0.17427476423E+04  0.50400001928E-02 0. -1.
    10030    2    1    2    0    0  0.00000000000E+00  0.00000000000E+00  0.14656387903E+02  0.35001516725E+04  0.35001209866E+04 0.  0.
        5    1    3    3  502    0  0.11122040364E+03 -0.16941242499E+04 -0.41724906482E+03  0.17482979793E+04  0.46999998093E+01 0.  1.
       -5    1    3    3    0  502 -0.11122040364E+03  0.16941242499E+04  0.43190545272E+03  0.17518536932E+04  0.46999998093E+01 0. -1.
</event>
<event>
 5   0  0.1468942E-06  0.3607850E+04  0.7818609E-02  0.8088696E-01
       -2   -1    0    0    0  501  0.00000000000E+00  0.00000000000E+00  0.14706999567E+04  0.14706999567E+04  0.25500000920E-02 0.  1.
        2   -1    0    0  501    0  0.00000000000E+00  0.00000000000E+00 -0.22126512005E+04  0.22126512005E+04  0.25500000920E-02 0. -1.
    10030    2    1    2    0    0  0.00000000000E+00  0.00000000000E+00 -0.74195124380E+03  0.36833511571E+04  0.36078503431E+04 0.  0.
        2    1    3    3  502    0  0.57791700704E+03 -0.16979132110E+04 -0.56801366521E+03  0.18813656909E+04  0.25500000920E-02 0. -1.
       -2    1    3    3    0  502 -0.57791700704E+03  0.16979132110E+04 -0.17393757859E+03  0.18019854662E+04  0.25500000920E-02 0.  1.
</event>
<event>
 5   0  0.1444091E-06  0.3044334E+04  0.7818609E-02  0.8231183E-01
        2   -1    0    0  501    0  0.00000000000E+00  0.00000000000E+00  0.15926510519E+04  0.15926510519E+04  0.25500000920E-02 0.  1.
       -2   -1    0    0    0  501  0.00000000000E+00  0.00000000000E+00 -0.14548019816E+04  0.14548019816E+04  0.25500000920E-02 0. -1.
    10030    2    1    2    0    0  0.00000000000E+00  0.00000000000E+00  0.13784907025E+03  0.30474530335E+04  0.30443336916E+04 0.  0.
        1    1    3    3  502    0 -0.62373234506E+03  0.58649207837E+03 -0.11909264803E+04  0.14667381763E+04  0.50400001928E-02 0. -1.
       -1    1    3    3    0  502  0.62373234506E+03 -0.58649207837E+03  0.13287755505E+04  0.15807148573E+04  0.50400001928E-02 0.  1.
</event>
<event>
 5   0  0.4811500E-07  0.3535225E+04  0.7818609E-02  0.8105493E-01
        1   -1    0    0  501    0  0.00000000000E+00  0.00000000000E+00  0.12489806954E+04  0.12489806955E+04  0.50400001928E-02 0.  1.
       -1   -1    0    0    0  501  0.00000000000E+00  0.00000000000E+00 -0.25016024433E+04  0.25016024433E+04  0.50400001928E-02 0. -1.
    10030    2    1    2    0    0  0.00000000000E+00  0.00000000000E+00 -0.12526217479E+04  0.37505831388E+04  0.35352245526E+04 0.  0.
        4    1    3    3  502    0 -0.17126657287E+04  0.39838721694E+03 -0.43500623653E+03  0.18113995450E+04  0.12699999809E+01 0.  1.
       -4    1    3    3    0  502  0.17126657287E+04 -0.39838721694E+03 -0.81761551133E+03  0.19391835937E+04  0.12699999809E+01 0. -1.
</event>
<event>
 5   0  0.4811500E-07  0.3675928E+04  0.7818609E-02  0.8073318E-01
       -1   -1    0    0    0  501  0.00000000000E+00  0.00000000000E+00  0.14411998249E+04  0.14411998249E+04  0.50400001928E-02 0. -1.
        1   -1    0    0  501    0  0.00000000000E+00  0.00000000000E+00 -0.23439572587E+04  0.23439572587E+04  0.50400001928E-02 0.  1.
    10030    2    1    2    0    0  0.00000000000E+00  0.00000000000E+00 -0.90275743381E+03  0.37851570837E+04  0.36759275243E+04 0.  0.
        3    1    3    3  502    0  0.16639999154E+03 -0.14998367201E+04 -0.15318001683E+04  0.21502583356E+04  0.10100000352E+00 0.  1.
       -3    1    3    3    0  502 -0.16639999154E+03  0.14998367201E+04  0.62904273447E+03  0.16348987480E+04  0.10100000352E+00 0. -1.
</event>
<event>
 5   0  0.4811500E-07  0.3634541E+04  0.7818609E-02  0.8082625E-01
        1   -1    0    0  501    0  0.00000000000E+00  0.00000000000E+00  0.19893827203E+04  0.19893827203E+04  0.50400001928E-02 0. -1.
       -1   -1    0    0    0  501  0.00000000000E+00  0.00000000000E+00 -0.16600482418E+04  0.16600482418E+04  0.50400001928E-02 0.  1.
    10030    2    1    2    0    0  0.00000000000E+00  0.00000000000E+00  0.32933447852E+03  0.36494309621E+04  0.36345405691E+04 0.  0.
        3    1    3    3  502    0  0.94294462184E+02 -0.16985394934E+04 -0.47712541473E+03  0.17667983835E+04  0.10100000352E+00 0. -1.
       -3    1    3    3    0  502 -0.94294462184E+02  0.16985394934E+04  0.80645989325E+03  0.18826325786E+04  0.10100000352E+00 0.  1.
</event>
<event>
 5   0  0.4811500E-07  0.3603275E+04  0.7818609E-02  0.8089742E-01
        1   -1    0    0  501    0  0.00000000000E+00  0.00000000000E+00  0.10853860332E+04  0.10853860333E+04  0.50400001928E-02 0. -1.
       -1   -1    0    0    0  501  0.00000000000E+00  0.00000000000E+00 -0.29905466055E+04  0.29905466056E+04  0.50400001928E-02 0.  1.
    10030    2    1    2    0    0  0.00000000000E+00  0.00000000000E+00 -0.19051605723E+04  0.40759326388E+04  0.36032749090E+04 0.  0.
        2    1    3    3  502    0  0.79934883750E+02 -0.43217531332E+02 -0.29879527316E+04  0.29893341845E+04  0.25500000920E-02 0.  1.
       -2    1    3    3    0  502 -0.79934883750E+02  0.43217531332E+02  0.10827921593E+04  0.10865984543E+04  0.25500000920E-02 0. -1.
</event>
<event>
 5   0  0.1444091E-06  0.3717500E+04  0.7818609E-02  0.8064095E-01
       -2   -1    0    0    0  501  0.00000000000E+00  0.00000000000E+00  0.13039318660E+04  0.13039318660E+04  0.25500000920E-02 0.  1.
        2   -1    0    0  501    0  0.00000000000E+00  0.00000000000E+00 -0.26496416206E+04  0.26496416206E+04  0.25500000920E-02 0. -1.
    10030    2    1    2    0    0  0.00000000000E+00  0.00000000000E+00 -0.13457097546E+04  0.39535734866E+04  0.37175003121E+04 0.  0.
        1    1    3    3  502    0 -0.35305783289E+02  0.18532030493E+04 -0.52493957964E+03  0.19264396182E+04  0.50400001928E-02 0.  1.
       -1    1    3    3    0  502  0.35305783289E+02 -0.18532030493E+04 -0.82077017493E+03  0.20271338684E+04  0.50400001928E-02 0. -1.
</event>
<event>
 5   0  0.1505671E-06  0.3194419E+04  0.7818609E-02  0.8190293E-01
       -2   -1    0    0    0  501  0.00000000000E+00  0.00000000000E+00  0.16804435604E+04  0.16804435604E+04  0.25500000920E-02 0.  1.
        2   -1    0    0  501    0  0.00000000000E+00  0.00000000000E+00 -0.15180982331E+04  0.15180982331E+04  0.25500000920E-02 0. -1.
    10030    2    1    2    0    0  0.00000000000E+00  0.00000000000E+00  0.16234532729E+03  0.31985417935E+04  0.31944191334E+04 0.  0.
        3    1    3    3  502    0  0.43028355899E+03 -0.11480774285E+04 -0.94379518553E+03  0.15472475837E+04  0.10100000352E+00 0. -1.
       -3    1    3    3    0  502 -0.43028355899E+03  0.11480774285E+04  0.11061405128E+04  0.16512942098E+04  0.10100000352E+00 0.  1.
</event>
<event>
 5   0  0.4811500E-07  0.3560957E+04  0.7818609E-02  0.8099494E-01
        1   -1    0    0  501    0  0.00000000000E+00  0.00000000000E+00  0.16620354391E+04  0.16620354391E+04  0.50400001928E-02 0. -1.
       -1   -1    0    0    0  501  0.00000000000E+00  0.00000000000E+00 -0.19073618021E+04  0.19073618021E+04  0.50400001928E-02 0.  1.
    10030    2    1    2    0    0  0.00000000000E+00  0.00000000000E+00 -0.24532636300E+03  0.35693972412E+04  0.35609565627E+04 0.  0.
        3    1    3    3  502    0 -0.94790478852E+02 -0.16105420496E+04  0.63229669425E+03  0.17328098708E+04  0.10100000352E+00 0. -1.
       -3    1    3    3    0  502  0.94790478852E+02  0.16105420496E+04 -0.87762305724E+03  0.18365873705E+04  0.10100000352E+00 0.  1.
</event>
<event>
 5   0  0.1379425E-06  0.3609691E+04  0.7818609E-02  0.8088275E-01
       -2   -1    0    0    0  501  0.00000000000E+00  0.00000000000E+00  0.13981811439E+04  0.13981811439E+04  0.25500000920E-02 0.  1.
        2   -1    0    0  501    0  0.00000000000E+00  0.00000000000E+00 -0.23297896856E+04  0.23297896856E+04  0.25500000920E-02 0. -1.
    10030    2    1    2    0    0  0.00000000000E+00  0.00000000000E+00 -0.93160854170E+03  0.37279708296E+04  0.36096914039E+04 0.  0.
        4    1    3    3  502    0  0.15073262070E+04  0.56081672819E+03 -0.13117400188E+04  0.20753821785E+04  0.12699999809E+01 0. -1.
       -4    1    3    3    0  502 -0.15073262070E+04 -0.56081672819E+03  0.38013147706E+03  0.16525886511E+04  0.12699999809E+01 0.  1.
</event>
<event>
 5   0  0.4811500E-07  0.3657809E+04  0.7818609E-02  0.8077377E-01
       -1   -1    0    0    0  501  0.00000000000E+00  0.00000000000E+00  0.18968863012E+04  0.18968863012E+04  0.50400001928E-02 0. -1.
        1   -1    0    0  501    0  0.00000000000E+00  0.00000000000E+00 -0.17633589528E+04  0.17633589528E+04  0.50400001928E-02 0.  1.
    10030    2    1    2    0    0  0.00000000000E+00  0.00000000000E+00  0.13352734836E+03  0.36602452540E+04  0.36578088751E+04 0.  0.
        3    1    3    3  502    0  0.34709497801E+02  0.86246943255E+03 -0.15467101207E+04  0.17712623970E+04  0.10100000352E+00 0.  1.
       -3    1    3    3    0  502 -0.34709497801E+02 -0.86246943255E+03  0.16802374691E+04  0.18889828570E+04  0.10100000352E+00 0. -1.
</event>
<event>
 5   0  0.4811500E-07  0.3598127E+04  0.7818609E-02  0.8090921E-01
        1   -1    0    0  501    0  0.00000000000E+00  0.00000000000E+00  0.18148844758E+04  0.18148844759E+04  0.50400001928E-02 0.  1.
       -1   -1    0    0    0  501  0.00000000000E+00  0.00000000000E+00 -0.17833807908E+04  0.17833807908E+04  0.50400001928E-02 0. -1.
    10030    2    1    2    0    0  0.00000000000E+00  0.00000000000E+00  0.31503685040E+02  0.35982652667E+04  0.35981273528E+04 0.  0.
        3    1    3    3  502    0  0.10481620166E+03 -0.16721136509E+04 -0.63977278963E+03  0.17933933562E+04  0.10100000352E+00 0. -1.
       -3    1    3    3    0  502 -0.10481620166E+03  0.16721136509E+04  0.67127647467E+03  0.18048719105E+04  0.10100000352E+00 0.  1.
</event>
<event>
 5   0  0.1505671E-06  0.3582501E+04  0.7818609E-02  0.8094512E-01
       -2   -1    0    0    0  501  0.00000000000E+00  0.00000000000E+00  0.20302694720E+04  0.20302694720E+04  0.25500000920E-02 0. -1.
        2   -1    0    0  501    0  0.00000000000E+00  0.00000000000E+00 -0.15803708805E+04  0.15803708805E+04  0.25500000920E-02 0.  1.
    10030    2    1    2    0    0  0.00000000000E+00  0.00000000000E+00  0.44989859148E+03  0.36106403525E+04  0.35825012230E+04 0.  0.
        3    1    3    3  502    0  0.14871666899E+04  0.29931577947E+03 -0.73506808085E+03  0.16856986068E+04  0.10100000352E+00 0.  1.
       -3    1    3    3    0  502 -0.14871666899E+04 -0.29931577947E+03  0.11849666723E+04  0.19249417457E+04  0.10100000352E+00 0. -1.
</event>
<event>
 5   0  0.4811500E-07  0.3549202E+04  0.7818609E-02  0.8102228E-01
       -1   -1    0    0    0  501  0.00000000000E+00  0.00000000000E+00  0.19079982695E+04  0.19079982695E+04  0.50400001928E-02 0. -1.
        1   -1    0    0  501    0  0.00000000000E+00  0.00000000000E+00 -0.16505303707E+04  0.16505303707E+04  0.50400001928E-02 0.  1.
    10030    2    1    2    0    0  0.00000000000E+00  0.00000000000E+00  0.25746789878E+03  0.35585286402E+04  0.35492022152E+04 0.  0.
        4    1    3    3  502    0 -0.13344533354E+04  0.66785269739E+03  0.10916818566E+04  0.18489358612E+04  0.12699999809E+01 0. -1.
       -4    1    3    3    0  502  0.13344533354E+04 -0.66785269739E+03 -0.83421395779E+03  0.17095927790E+04  0.12699999809E+01 0.  1.
</event>
<event>
 5   0  0.5490731E-07  0.2355233E+04  0.7818609E-02  0.8456456E-01
        1   -1    0    0  501    0  0.00000000000E+00  0.00000000000E+00  0.13565193192E+04  0.13565193192E+04  0.50400001928E-02 0. -1.
       -1   -1    0    0    0  501  0.00000000000E+00  0.00000000000E+00 -0.10223078396E+04  0.10223078396E+04  0.50400001928E-02 0.  1.
    10030    2    1    2    0    0  0.00000000000E+00  0.00000000000E+00  0.33421147958E+03  0.23788271588E+04  0.23552327567E+04 0.  0.
        3    1    3    3  502    0  0.18536017039E+03  0.59103756830E+03  0.11786861679E+04  0.13315347883E+04  0.10100000352E+00 0. -1.
       -3    1    3    3    0  502 -0.18536017039E+03 -0.59103756830E+03 -0.84447468827E+03  0.10472923705E+04  0.10100000352E+00 0.  1.
</event>
<event>
 5   0  0.1468942E-06  0.2201728E+04  0.7818609E-02  0.8517709E-01
       -2   -1    0    0    0  501  0.00000000000E+00  0.00000000000E+00  0.12012445738E+04  0.12012445738E+04  0.25500000920E-02 0. -1.
        2   -1    0    0  501    0  0.00000000000E+00  0.00000000000E+00 -0.10088715010E+04  0.10088715010E+04  0.25500000920E-02 0.  1.
    10030    2    1    2    0    0  0.00000000000E+00  0.00000000000E+00  0.19237307283E+03  0.22101160748E+04  0.22017278817E+04 0.  0.
        2    1    3    3  502    0  0.25352473864E+03  0.10684370074E+04  0.17438702180E+03  0.11118647694E+04  0.25500000920E-02 0. -1.
       -2    1    3    3    0  502 -0.25352473864E+03 -0.10684370074E+04  0.17986051028E+02  0.10982513055E+04  0.25500000920E-02 0.  1.
</event>
<event>
 5   0  0.4811500E-07  0.2495023E+04  0.7818609E-02  0.8404761E-01
        1   -1    0    0  501    0  0.00000000000E+00  0.00000000000E+00  0.23780879573E+04  0.23780879573E+04  0.50400001928E-02 0.  1.
       -1   -1    0    0    0  501  0.00000000000E+00  0.00000000000E+00 -0.65442711731E+03  0.65442711733E+03  0.50400001928E-02 0. -1.
    10030    2    1    2    0    0  0.00000000000E+00  0.00000000000E+00  0.17236608400E+04  0.30325150746E+04  0.24950232437E+04 0.  0.
        4    1    3    3  502    0 -0.11398492356E+03  0.11659410263E+04  0.13830093793E+04  0.18124920953E+04  0.12699999809E+01 0.  1.
       -4    1    3    3    0  502  0.11398492356E+03 -0.11659410263E+04  0.34065146072E+03  0.12200229793E+04  0.12699999809E+01 0. -1.
</event>
<event>
 5   0  0.1444091E-06  0.3582902E+04  0.7818609E-02  0.8094419E-01
        2   -1    0    0  501    0  0.00000000000E+00  0.00000000000E+00  0.20862686377E+04  0.20862686377E+04  0.25500000920E-02 0.  1.
       -2   -1    0    0    0  501  0.00000000000E+00  0.00000000000E+00 -0.15382953476E+04  0.15382953477E+04  0.25500000920E-02 0. -1.
    10030    2    1    2    0    0  0.00000000000E+00  0.00000000000E+00  0.54797329006E+03  0.36245639854E+04  0.35829023650E+04 0.  0.
        1    1    3    3  502    0 -0.49532342487E+03  0.13721613925E+04  0.13258486883E+04  0.19713058937E+04  0.50400001928E-02 0.  1.
       -1    1    3    3    0  502  0.49532342487E+03 -0.13721613925E+04 -0.77787539821E+03  0.16532580916E+04  0.50400001928E-02 0. -1.
</event>
<event>
 5   0  0.4811500E-07  0.3581992E+04  0.7818609E-02  0.8094629E-01
       -1   -1    0    0    0  501  0.00000000000E+00  0.00000000000E+00  0.19084463445E+04  0.19084463445E+04  0.50400001928E-02 0.  1.
        1   -1    0    0  501    0  0.00000000000E+00  0.00000000000E+00 -0.16807741070E+04  0.16807741070E+04  0.50400001928E-02 0. -1.
    10030    2    1    2    0    0  0.00000000000E+00  0.00000000000E+00  0.22767223753E+03  0.35892204515E+04  0.35819922951E+04 0.  0.
        2    1    3    3  502    0 -0.10653249414E+04  0.11699578099E+04  0.95454568621E+03  0.18479383038E+04  0.25500000920E-02 0.  1.
       -2    1    3    3    0  502  0.10653249414E+04 -0.11699578099E+04 -0.72687344868E+03  0.17412821477E+04  0.25500000920E-02 0. -1.
</event>
<event>
 5   0  0.4811500E-07  0.3588780E+04  0.7818609E-02  0.8093067E-01
       -1   -1    0    0    0  501  0.00000000000E+00  0.00000000000E+00  0.14837241763E+04  0.14837241763E+04  0.50400001928E-02 0. -1.
        1   -1    0    0  501    0  0.00000000000E+00  0.00000000000E+00 -0.21701039208E+04  0.21701039208E+04  0.50400001928E-02 0.  1.
    10030    2    1    2    0    0  0.00000000000E+00  0.00000000000E+00 -0.68637974453E+03  0.36538280971E+04  0.35887801004E+04 0.  0.
        4    1    3    3  502    0  0.13686440821E+04 -0.88872289555E+03 -0.11029181613E+04  0.19696306994E+04  0.12699999809E+01 0.  1.
       -4    1    3    3    0  502 -0.13686440821E+04  0.88872289555E+03  0.41653841680E+03  0.16841973976E+04  0.12699999809E+01 0. -1.
</event>
<event>
 5   0  0.1505671E-06  0.3584498E+04  0.7818609E-02  0.8094052E-01
        2   -1    0    0  501    0  0.00000000000E+00  0.00000000000E+00  0.12479436102E+04  0.12479436102E+04  0.25500000920E-02 0.  1.
       -2   -1    0    0    0  501  0.00000000000E+00  0.00000000000E+00 -0.25739595461E+04  0.25739595461E+04  0.25500000920E-02 0. -1.
    10030    2    1    2    0    0  0.00000000000E+00  0.00000000000E+00 -0.13260159359E+04  0.38219031563E+04  0.35844979389E+04 0.  0.
        3    1    3    3  502    0  0.11144756527E+04 -0.10143289612E+04 -0.16974374032E+04  0.22698486668E+04  0.10100000352E+00 0. -1.
       -3    1    3    3    0  502 -0.11144756527E+04  0.10143289612E+04  0.37142146732E+03  0.15520544896E+04  0.10100000352E+00 0.  1.
</event>
<event>
 5   0  0.4811500E-07  0.3641718E+04  0.7818609E-02  0.8081002E-01
        1   -1    0    0  501    0  0.00000000000E+00  0.00000000000E+00  0.13273988768E+04  0.13273988768E+04  0.50400001928E-02 0. -1.
       -1   -1    0    0    0  501  0.00000000000E+00  0.00000000000E+00 -0.24977632261E+04  0.24977632262E+04  0.50400001928E-02 0.  1.
    10030    2    1    2    0    0  0.00000000000E+00  0.00000000000E+00 -0.11703643494E+04  0.38251621029E+04  0.36417183311E+04 0.  0.
        3    1    3    3  502    0  0.13891103621E+04 -0.23390371998E+02  0.65111756273E+03  0.15343170462E+04  0.10100000352E+00 0. -1.
       -3    1    3    3    0  502 -0.13891103621E+04  0.23390371998E+02 -0.18214819121E+04  0.22908450567E+04  0.10100000352E+00 0.  1.
</event>
<event>
 5   0  0.1468942E-06  0.3625124E+04  0.7818609E-02  0.8084761E-01
       -2   -1    0    0    0  501  0.00000000000E+00  0.00000000000E+00  0.13535202172E+04  0.13535202172E+04  0.25500000920E-02 0.  1.
        2   -1    0    0  501    0  0.00000000000E+00  0.00000000000E+00 -0.24272859281E+04  0.24272859281E+04  0.25500000920E-02 0. -1.
    10030    2    1    2    0    0  0.00000000000E+00  0.00000000000E+00 -0.10737657109E+04  0.37808061453E+04  0.36251237642E+04 0.  0.
        2    1    3    3  502    0 -0.85915438051E+03 -0.15921267741E+04 -0.65286411553E+03  0.19233422648E+04  0.25500000920E-02 0. -1.
       -2    1    3    3    0  502  0.85915438051E+03  0.15921267741E+04 -0.42090159537E+03  0.18574638805E+04  0.25500000920E-02 0.  1.
</event>
<event>
 5   0  0.1505671E-06  0.3646335E+04  0.7818609E-02  0.8079960E-01
       -2   -1    0    0    0  501  0.00000000000E+00  0.00000000000E+00  0.17980745875E+04  0.17980745875E+04  0.25500000920E-02 0.  1.
        2   -1    0    0  501    0  0.00000000000E+00  0.00000000000E+00 -0.18486109490E+04  0.18486109490E+04  0.25500000920E-02 0. -1.
    10030    2    1    2    0    0  0.00000000000E+00  0.00000000000E+00 -0.50536361539E+02  0.36466855365E+04  0.36463353491E+04 0.  0.
        3    1    3    3  502    0 -0.38873397860E+03 -0.17112362710E+04  0.46924536019E+03  0.18164897191E+04  0.10100000352E+00 0. -1.
       -3    1    3    3    0  502  0.38873397860E+03  0.17112362710E+04 -0.51978172173E+03  0.18301958173E+04  0.10100000352E+00 0.  1.
</event>
<event>
 5   0  0.1468942E-06  0.3488533E+04  0.7818609E-02  0.8116513E-01
       -2   -1    0    0    0  501  0.00000000000E+00  0.00000000000E+00  0.17352307189E+04  0.17352307189E+04  0.25500000920E-02 0. -1.
        2   -1    0    0  501    0  0.00000000000E+00  0.00000000000E+00 -0.17533491196E+04  0.17533491197E+04  0.25500000920E-02 0.  1.
    10030    2    1    2    0    0  0.00000000000E+00  0.00000000000E+00 -0.18118400761E+02  0.34885798385E+04  0.34885327881E+04 0.  0.
        2    1    3    3  502    0 -0.29964961377E+03  0.84624179084E+03 -0.15045893818E+04  0.17520571531E+04  0.25500000920E-02 0.  1.
       -2    1    3    3    0  502  0.29964961377E+03 -0.84624179084E+03  0.14864709811E+04  0.17365226855E+04  0.25500000920E-02 0. -1.
</event>
<event>
 5   0  0.1468942E-06  0.3691313E+04  0.7818609E-02  0.8069890E-01
        2   -1    0    0  501    0  0.00000000000E+00  0.00000000000E+00  0.17267326267E+04  0.17267326267E+04  0.25500000920E-02 0. -1.
       -2   -1    0    0    0  501  0.00000000000E+00  0.00000000000E+00 -0.19727713177E+04  0.19727713177E+04  0.25500000920E-02 0.  1.
    10030    2    1    2    0    0  0.00000000000E+00  0.00000000000E+00 -0.24603869107E+03  0.36995039444E+04  0.36913133702E+04 0.  0.
        2    1    3    3  502    0 -0.77668685054E+03 -0.14203754873E+04 -0.10114057479E+04  0.19088348738E+04  0.25500000920E-02 0.  1.
       -2    1    3    3    0  502  0.77668685054E+03  0.14203754873E+04  0.76536705684E+03  0.17906690706E+04  0.25500000920E-02 0. -1.
</event>
<event>
 5   0  0.4811500E-07  0.3629283E+04  0.7818609E-02  0.8083817E-01
       -1   -1    0    0    0  501  0.00000000000E+00  0.00000000000E+00  0.17876128410E+04  0.17876128410E+04  0.50400001928E-02 0. -1.
        1   -1    0    0  501    0  0.00000000000E+00  0.00000000000E+00 -0.18420793097E+04  0.18420793097E+04  0.50400001928E-02 0.  1.
    10030    2    1    2    0    0  0.00000000000E+00  0.00000000000E+00 -0.54466468717E+02  0.36296921507E+04  0.36292834710E+04 0.  0.
        5    1    3    3  502    0 -0.59397455700E+03  0.84566388839E+03  0.14645611436E+04  0.17924604932E+04  0.46999998093E+01 0. -1.
       -5    1    3    3    0  502  0.59397455700E+03 -0.84566388839E+03 -0.15190276123E+04  0.18372316575E+04  0.46999998093E+01 0.  1.
</event>
<event>
 5   0  0.4811500E-07  0.3548434E+04  0.7818609E-02  0.8102407E-01
       -1   -1    0    0    0  501  0.00000000000E+00  0.00000000000E+00  0.13991616433E+04  0.13991616434E+04  0.50400001928E-02 0.  1.
        1   -1    0    0  501    0  0.00000000000E+00  0.00000000000E+00 -0.22498086726E+04  0.22498086726E+04  0.50400001928E-02 0. -1.
    10030    2    1    2    0    0  0.00000000000E+00  0.00000000000E+00 -0.85064702925E+03  0.36489703160E+04  0.35484340206E+04 0.  0.
        4    1    3    3  502    0 -0.21398307957E+03 -0.35862530231E+03 -0.21985468703E+04  0.22378585343E+04  0.12699999809E+01 0. -1.
       -4    1    3    3    0  502  0.21398307957E+03  0.35862530231E+03  0.13478998411E+04  0.14111117816E+04  0.12699999809E+01 0.  1.
</event>
<event>
 5   0  0.1468942E-06  0.3549122E+04  0.7818609E-02  0.8102246E-01
        2   -1    0    0  501    0  0.00000000000E+00  0.00000000000E+00  0.26797492090E+04  0.26797492090E+04  0.25500000920E-02 0. -1.
       -2   -1    0    0    0  501  0.00000000000E+00  0.00000000000E+00 -0.11751347967E+04  0.11751347967E+04  0.25500000920E-02 0.  1.
    10030    2    1    2    0    0  0.00000000000E+00  0.00000000000E+00  0.15046144123E+04  0.38548840057E+04  0.35491218868E+04 0.  0.
        2    1    3    3  502    0 -0.23297081484E+03 -0.33310807426E+03  0.26284999379E+04  0.26597459114E+04  0.25500000920E-02 0. -1.
       -2    1    3    3    0  502  0.23297081484E+03  0.33310807426E+03 -0.11238855256E+04  0.11951380943E+04  0.25500000920E-02 0.  1.
</event>
<event>
 5   0  0.1468942E-06  0.3551679E+04  0.7818609E-02  0.8101651E-01
       -2   -1    0    0    0  501  0.00000000000E+00  0.00000000000E+00  0.15663593084E+04  0.15663593084E+04  0.25500000920E-02 0.  1.
        2   -1    0    0  501    0  0.00000000000E+00  0.00000000000E+00 -0.20133345363E+04  0.20133345363E+04  0.25500000920E-02 0. -1.
    10030    2    1    2    0    0  0.00000000000E+00  0.00000000000E+00 -0.44697522789E+03  0.35796938447E+04  0.35516786408E+04 0.  0.
        2    1    3    3  502    0 -0.10969087430E+04 -0.97663712019E+03  0.78267349991E+03  0.16642135267E+04  0.25500000920E-02 0.  1.
       -2    1    3    3    0  502  0.10969087430E+04  0.97663712019E+03 -0.12296487278E+04  0.19154803180E+04  0.25500000920E-02 0. -1.
</event>
<event>
 5   0  0.4811500E-07  0.4036699E+04  0.7818609E-02  0.7997184E-01
       -3   -1    0    0    0  501  0.00000000000E+00  0.00000000000E+00  0.18590371399E+04  0.18590371426E+04  0.10100000352E+00 0.  1.
        3   -1    0    0  501    0  0.00000000000E+00  0.00000000000E+00 -0.21913141613E+04  0.21913141637E+04  0.10100000352E+00 0. -1.
    10030    2    1    2    0    0  0.00000000000E+00  0.00000000000E+00 -0.33227702145E+03  0.40503513063E+04  0.40366988599E+04 0.  0.
        2    1    3    3  502    0 -0.15522453500E+04  0.37597875731E+03 -0.14043741075E+04  0.21267562828E+04  0.25500000920E-02 0. -1.
       -2    1    3    3    0  502  0.15522453500E+04 -0.37597875731E+03  0.10720970861E+04  0.19235950235E+04  0.25500000920E-02 0.  1.
</event>
<event>
 5   0  0.1444091E-06  0.3837464E+04  0.7818609E-02  0.8038163E-01
       -2   -1    0    0    0  501  0.00000000000E+00  0.00000000000E+00  0.15392703460E+04  0.15392703460E+04  0.25500000920E-02 0. -1.
        2   -1    0    0  501    0  0.00000000000E+00  0.00000000000E+00 -0.23917388805E+04  0.23917388805E+04  0.25500000920E-02 0.  1.
    10030    2    1    2    0    0  0.00000000000E+00  0.00000000000E+00 -0.85246853451E+03  0.39310092265E+04  0.38374641284E+04 0.  0.
        1    1    3    3  502    0  0.74259266488E+03  0.45936311038E+02  0.13854880308E+04  0.15726191828E+04  0.50400001928E-02 0. -1.
       -1    1    3    3    0  502 -0.74259266488E+03 -0.45936311038E+02 -0.22379565653E+04  0.23583900438E+04  0.50400001928E-02 0.  1.
</event>
<event>
 5   0  0.1491854E-06  0.3570709E+04  0.7818609E-02  0.8097234E-01
        2   -1    0    0  501    0  0.00000000000E+00  0.00000000000E+00  0.28184880698E+04  0.28184880698E+04  0.25500000920E-02 0. -1.
       -2   -1    0    0    0  501  0.00000000000E+00  0.00000000000E+00 -0.11309223160E+04  0.11309223160E+04  0.25500000920E-02 0.  1.
    10030    2    1    2    0    0  0.00000000000E+00  0.00000000000E+00  0.16875657538E+04  0.39494103857E+04  0.35707092043E+04 0.  0.
        5    1    3    3  502    0 -0.14261206385E+04  0.62645273636E+03 -0.12122051980E+03  0.15623634695E+04  0.46999998093E+01 0.  1.
       -5    1    3    3    0  502  0.14261206385E+04 -0.62645273636E+03  0.18087862736E+04  0.23870469162E+04  0.46999998093E+01 0. -1.
</event>
<event>
 5   0  0.5071661E-07  0.3631097E+04  0.7818609E-02  0.8083405E-01
        1   -1    0    0  501    0  0.00000000000E+00  0.00000000000E+00  0.13417585682E+04  0.13417585682E+04  0.50400001928E-02 0.  1.
       -1   -1    0    0    0  501  0.00000000000E+00  0.00000000000E+00 -0.24566389242E+04  0.24566389242E+04  0.50400001928E-02 0. -1.
    10030    2    1    2    0    0  0.00000000000E+00  0.00000000000E+00 -0.11148803560E+04  0.37983974924E+04  0.36310969833E+04 0.  0.
        1    1    3    3  502    0 -0.62341314632E+03 -0.17012015148E+04 -0.43596134593E+03  0.18635430878E+04  0.50400001928E-02 0.  1.
       -1    1    3    3    0  502  0.62341314632E+03  0.17012015148E+04 -0.67891901009E+03  0.19348544046E+04  0.50400001928E-02 0. -1.
</event>
<event>
 5   0  0.1468942E-06  0.3541155E+04  0.7818609E-02  0.8104105E-01
       -2   -1    0    0    0  501  0.00000000000E+00  0.00000000000E+00  0.21244129145E+04  0.21244129145E+04  0.25500000920E-02 0.  1.
        2   -1    0    0  501    0  0.00000000000E+00  0.00000000000E+00 -0.14756760448E+04  0.14756760448E+04  0.25500000920E-02 0. -1.
    10030    2    1    2    0    0  0.00000000000E+00  0.00000000000E+00  0.64873686961E+03  0.36000889593E+04  0.35411553184E+04 0.  0.
        2    1    3    3  502    0  0.27287288089E+03 -0.10844294081E+04  0.17199851246E+04  0.20515349324E+04  0.25500000920E-02 0.  1.
       -2    1    3    3    0  502 -0.27287288089E+03  0.10844294081E+04 -0.10712482549E+04  0.15485540269E+04  0.25500000920E-02 0. -1.
</event>
<event>
 5   0  0.1505671E-06  0.4029861E+04  0.7818609E-02  0.7998550E-01
        2   -1    0    0  501    0  0.00000000000E+00  0.00000000000E+00  0.24752469600E+04  0.24752469600E+04  0.25500000920E-02 0. -1.
       -2   -1    0    0    0  501  0.00000000000E+00  0.00000000000E+00 -0.16402182491E+04  0.16402182491E+04  0.25500000920E-02 0.  1.
    10030    2    1    2    0    0  0.00000000000E+00  0.00000000000E+00  0.83502871093E+03  0.41154652091E+04  0.40298611563E+04 0.  0.
        3    1    3    3  502    0  0.13670885240E+04 -0.39560179203E+03 -0.10391487823E+04  0.17621753636E+04  0.10100000352E+00 0.  1.
       -3    1    3    3    0  502 -0.13670885240E+04  0.39560179203E+03  0.18741774933E+04  0.23532898454E+04  0.10100000352E+00 0. -1.
</event>
<event>
 5   0  0.1491854E-06  0.2370483E+04  0.7818609E-02  0.8450638E-01
       -2   -1    0    0    0  501  0.00000000000E+00  0.00000000000E+00  0.56227734815E+03  0.56227734816E+03  0.25500000920E-02 0.  1.
        2   -1    0    0  501    0  0.00000000000E+00  0.00000000000E+00 -0.24984059970E+04  0.24984059970E+04  0.25500000920E-02 0. -1.
    10030    2    1    2    0    0  0.00000000000E+00  0.00000000000E+00 -0.19361286489E+04  0.30606833452E+04  0.23704827345E+04 0.  0.
        5    1    3    3  502    0 -0.11168214385E+04 -0.32168337936E+03 -0.66801176947E+03  0.13405342726E+04  0.46999998093E+01 0.  1.
       -5    1    3    3    0  502  0.11168214385E+04  0.32168337936E+03 -0.12681168794E+04  0.17201490725E+04  0.46999998093E+01 0. -1.
</event>
<event>
 5   0  0.4811500E-07  0.3667699E+04  0.7818609E-02  0.8075158E-01
       -1   -1    0    0    0  501  0.00000000000E+00  0.00000000000E+00  0.32710137180E+04  0.32710137180E+04  0.50400001928E-02 0.  1.
        1   -1    0    0  501    0  0.00000000000E+00  0.00000000000E+00 -0.10281230518E+04  0.10281230518E+04  0.50400001928E-02 0. -1.
    10030    2    1    2    0    0  0.00000000000E+00  0.00000000000E+00  0.22428906662E+04  0.42991367698E+04  0.36676993368E+04 0.  0.
        5    1    3    3  502    0 -0.11093415061E+04  0.67380212666E+03 -0.39709668447E+03  0.13573340598E+04  0.46999998093E+01 0. -1.
       -5    1    3    3    0  502  0.11093415061E+04 -0.67380212666E+03  0.26399873507E+04  0.29418027100E+04  0.46999998093E+01 0.  1.
</event>
<event>
 5   0  0.1379425E-06  0.3224969E+04  0.7818609E-02  0.8182254E-01
       -2   -1    0    0    0  501  0.00000000000E+00  0.00000000000E+00  0.11581230010E+04  0.11581230010E+04  0.25500000920E-02 0.  1.
        2   -1    0    0  501    0  0.00000000000E+00  0.00000000000E+00 -0.22451042417E+04  0.22451042417E+04  0.25500000920E-02 0. -1.
    10030    2    1    2    0    0  0.00000000000E+00  0.00000000000E+00 -0.10869812407E+04  0.34032272427E+04  0.32249693716E+04 0.  0.
        4    1    3    3  502    0 -0.13956479476E+04 -0.58015351425E+03 -0.11364138804E+04  0.18909916484E+04  0.12699999809E+01 0. -1.
       -4    1    3    3    0  502  0.13956479476E+04  0.58015351425E+03  0.49432639667E+02  0.15122355943E+04  0.12699999809E+01 0.  1.
</event>
<event>
 5   0  0.4811500E-07  0.3234969E+04  0.7818609E-02  0.8179643E-01
       -1   -1    0    0    0  501  0.00000000000E+00  0.00000000000E+00  0.12531257661E+04  0.12531257661E+04  0.50400001928E-02 0.  1.
        1   -1    0    0  501    0  0.00000000000E+00  0.00000000000E+00 -0.20877841635E+04  0.20877841635E+04  0.50400001928E-02 0. -1.
    10030    2    1    2    0    0  0.00000000000E+00  0.00000000000E+00 -0.83465839742E+03  0.33409099297E+04  0.32349690134E+04 0.  0.
        3    1    3    3  502    0  0.81202968182E+03 -0.46514935013E+03  0.94515556905E+03  0.13300658563E+04  0.10100000352E+00 0.  1.
       -3    1    3    3    0  502 -0.81202968182E+03  0.46514935013E+03 -0.17798139665E+04  0.20108440734E+04  0.10100000352E+00 0. -1.
</event>
<event>
 5   0  0.4811500E-07  0.2879418E+04  0.7818609E-02  0.8279028E-01
       -1   -1    0    0    0  501  0.00000000000E+00  0.00000000000E+00  0.14040415365E+04  0.14040415365E+04  0.50400001928E-02 0.  1.
        1   -1    0    0  501    0  0.00000000000E+00  0.00000000000E+00 -0.14762830354E+04  0.14762830354E+04  0.50400001928E-02 0. -1.
    10030    2    1    2    0    0  0.00000000000E+00  0.00000000000E+00 -0.72241498913E+02  0.28803245718E+04  0.28794184838E+04 0.  0.
        2    1    3    3  502    0  0.70216965447E+03 -0.67048194265E+03  0.10273104119E+04  0.14134903400E+04  0.25500000920E-02 0.  1.
       -2    1    3    3    0  502 -0.70216965447E+03  0.67048194265E+03 -0.10995519108E+04  0.14668342318E+04  0.25500000920E-02 0. -1.
</event>
<event>
 5   0  0.1468942E-06  0.3568877E+04  0.7818609E-02  0.8097658E-01
        2   -1    0    0  501    0  0.00000000000E+00  0.00000000000E+00  0.26075649326E+04  0.26075649326E+04  0.25500000920E-02 0.  1.
       -2   -1    0    0    0  501  0.00000000000E+00  0.00000000000E+00 -0.12211472201E+04  0.12211472201E+04  0.25500000920E-02 0. -1.
    10030    2    1    2    0    0  0.00000000000E+00  0.00000000000E+00  0.13864177125E+04  0.38287121526E+04  0.35688769486E+04 0.  0.
        2    1    3    3  502    0 -0.10787393182E+04 -0.11424655133E+04  0.16005481488E+04  0.22429133604E+04  0.25500000920E-02 0.  1.
       -2    1    3    3    0  502  0.10787393182E+04  0.11424655133E+04 -0.21413043637E+03  0.15857987922E+04  0.25500000920E-02 0. -1.
</event>
<event>
 5   0  0.1505671E-06  0.3663109E+04  0.7818609E-02  0.8076187E-01
       -2   -1    0    0    0  501  0.00000000000E+00  0.00000000000E+00  0.21304680172E+04  0.21304680172E+04  0.25500000920E-02 0.  1.
        2   -1    0    0  501    0  0.00000000000E+00  0.00000000000E+00 -0.15745795726E+04  0.15745795726E+04  0.25500000920E-02 0. -1.
    10030    2    1    2    0    0  0.00000000000E+00  0.00000000000E+00  0.55588844462E+03  0.37050475898E+04  0.36631087453E+04 0.  0.
        3    1    3    3  502    0 -0.12982914153E+04  0.49812049683E+03  0.14836095524E+04  0.20334163230E+04  0.10100000352E+00 0.  1.
       -3    1    3    3    0  502  0.12982914153E+04 -0.49812049683E+03 -0.92772110777E+03  0.16716312669E+04  0.10100000352E+00 0. -1.
</event>
<event>
 5   0  0.4811500E-07  0.3491155E+04  0.7818609E-02  0.8115889E-01
       -1   -1    0    0    0  501  0.00000000000E+00  0.00000000000E+00  0.12814884464E+04  0.12814884464E+04  0.50400001928E-02 0.  1.
        1   -1    0    0  501    0  0.00000000000E+00  0.00000000000E+00 -0.23777350737E+04  0.23777350737E+04  0.50400001928E-02 0. -1.
    10030    2    1    2    0    0  0.00000000000E+00  0.00000000000E+00 -0.10962466274E+04  0.36592235201E+04  0.34911545515E+04 0.  0.
        4    1    3    3  502    0 -0.13669391129E+04 -0.66648401754E+02  0.58758701081E+03  0.14893705570E+04  0.12699999809E+01 0.  1.
       -4    1    3    3    0  502  0.13669391129E+04  0.66648401754E+02 -0.16838336382E+04  0.21698529631E+04  0.12699999809E+01 0. -1.
</event>
<event>
 5   0  0.1505671E-06  0.2746658E+04  0.7818609E-02  0.8320023E-01
       -2   -1    0    0    0  501  0.00000000000E+00  0.00000000000E+00  0.12211966303E+04  0.12211966303E+04  0.25500000920E-02 0. -1.
        2   -1    0    0  501    0  0.00000000000E+00  0.00000000000E+00 -0.15444133420E+04  0.15444133420E+04  0.25500000920E-02 0.  1.
    10030    2    1    2    0    0  0.00000000000E+00  0.00000000000E+00 -0.32321671170E+03  0.27656099723E+04  0.27466578739E+04 0.  0.
        3    1    3    3  502    0 -0.58191602891E+03  0.33303960229E+03  0.10451985253E+04  0.12417655209E+04  0.10100000352E+00 0. -1.
       -3    1    3    3    0  502  0.58191602891E+03 -0.33303960229E+03 -0.13684152369E+04  0.15238444515E+04  0.10100000352E+00 0.  1.
</event>
<event>
 5   0  0.4811500E-07  0.3603808E+04  0.7818609E-02  0.8089620E-01
        1   -1    0    0  501    0  0.00000000000E+00  0.00000000000E+00  0.21573204908E+04  0.21573204908E+04  0.50400001928E-02 0. -1.
       -1   -1    0    0    0  501  0.00000000000E+00  0.00000000000E+00 -0.15050419048E+04  0.15050419048E+04  0.50400001928E-02 0.  1.
    10030    2    1    2    0    0  0.00000000000E+00  0.00000000000E+00  0.65227858599E+03  0.36623623956E+04  0.36038078421E+04 0.  0.
        3    1    3    3  502    0  0.44084569690E+03  0.16545980145E+04  0.89634244591E+03  0.19327362233E+04  0.10100000352E+00 0. -1.
       -3    1    3    3    0  502 -0.44084569690E+03 -0.16545980145E+04 -0.24406385992E+03  0.17296261724E+04  0.10100000352E+00 0.  1.
</event>
<event>
 5   0  0.1468942E-06  0.3648902E+04  0.7818609E-02  0.8079381E-01
       -2   -1    0    0    0  501  0.00000000000E+00  0.00000000000E+00  0.13066026394E+04  0.13066026394E+04  0.25500000920E-02 0.  1.
        2   -1    0    0  501    0  0.00000000000E+00  0.00000000000E+00 -0.25475392752E+04  0.25475392752E+04  0.25500000920E-02 0. -1.
    10030    2    1    2    0    0  0.00000000000E+00  0.00000000000E+00 -0.12409366358E+04  0.38541419146E+04  0.36489020491E+04 0.  0.
        2    1    3    3  502    0  0.95322905353E+03 -0.91498187928E+03  0.70838281901E+03  0.14992143563E+04  0.25500000920E-02 0.  1.
       -2    1    3    3    0  502 -0.95322905353E+03  0.91498187928E+03 -0.19493194548E+04  0.23549275583E+04  0.25500000920E-02 0. -1.
</event>
<event>
 5   0  0.1505671E-06  0.3602444E+04  0.7818609E-02  0.8089932E-01
       -2   -1    0    0    0  501  0.00000000000E+00  0.00000000000E+00  0.14394393887E+04  0.14394393887E+04  0.25500000920E-02 0. -1.
        2   -1    0    0  501    0  0.00000000000E+00  0.00000000000E+00 -0.22539331823E+04  0.22539331823E+04  0.25500000920E-02 0.  1.
    10030    2    1    2    0    0  0.00000000000E+00  0.00000000000E+00 -0.81449379358E+03  0.36933725709E+04  0.36024437272E+04 0.  0.
        3    1    3    3  502    0 -0.14161769142E+04 -0.80179784496E+03  0.38422535264E+03  0.16721441231E+04  0.10100000352E+00 0. -1.
       -3    1    3    3    0  502  0.14161769142E+04  0.80179784496E+03 -0.11987191462E+04  0.20212284478E+04  0.10100000352E+00 0.  1.
</event>
<event>
 5   0  0.1444091E-06  0.3567769E+04  0.7818609E-02  0.8097915E-01
       -2   -1    0    0    0  501  0.00000000000E+00  0.00000000000E+00  0.26590959309E+04  0.26590959309E+04  0.25500000920E-02 0.  1.
        2   -1    0    0  501    0  0.00000000000E+00  0.00000000000E+00 -0.11967390228E+04  0.11967390228E+04  0.25500000920E-02 0. -1.
    10030    2    1    2    0    0  0.00000000000E+00  0.00000000000E+00  0.14623569081E+04  0.38558349538E+04  0.35677689757E+04 0.  0.
        1    1    3    3  502    0 -0.63819888519E+03 -0.96997746909E+02  0.25284408434E+04  0.26095439215E+04  0.50400001928E-02 0.  1.
       -1    1    3    3    0  502  0.63819888519E+03  0.96997746909E+02 -0.10660839353E+04  0.12462910322E+04  0.50400001928E-02 0. -1.
</event>
<event>
 5   0  0.5071661E-07  0.3497956E+04  0.7818609E-02  0.8114274E-01
        1   -1    0    0  501    0  0.00000000000E+00  0.00000000000E+00  0.21086624385E+04  0.21086624385E+04  0.50400001928E-02 0. -1.
       -1   -1    0    0    0  501  0.00000000000E+00  0.00000000000E+00 -0.14506468380E+04  0.14506468380E+04  0.50400001928E-02 0.  1.
    10030    2    1    2    0    0  0.00000000000E+00  0.00000000000E+00  0.65801560047E+03  0.35593092765E+04  0.34979562598E+04 0.  0.
        1    1    3    3  502    0  0.17011580961E+04 -0.29361646345E+03  0.61459949087E+03  0.18324524631E+04  0.50400001928E-02 0. -1.
       -1    1    3    3    0  502 -0.17011580961E+04  0.29361646345E+03  0.43416109598E+02  0.17268568134E+04  0.50400001928E-02 0.  1.
</event>
<event>
 5   0  0.1444091E-06  0.3756376E+04  0.7818609E-02  0.8055582E-01
       -2   -1    0    0    0  501  0.00000000000E+00  0.00000000000E+00  0.16236370252E+04  0.16236370252E+04  0.25500000920E-02 0.  1.
        2   -1    0    0  501    0  0.00000000000E+00  0.00000000000E+00 -0.21726476066E+04  0.21726476066E+04  0.25500000920E-02 0. -1.
    10030    2    1    2    0    0  0.00000000000E+00  0.00000000000E+00 -0.54901058135E+03  0.37962846318E+04  0.37563764970E+04 0.  0.
        1    1    3    3  502    0 -0.11286543264E+04 -0.14781829411E+04 -0.96028009881E+01  0.18598326832E+04  0.50400001928E-02 0. -1.
       -1    1    3    3    0  502  0.11286543264E+04  0.14781829411E+04 -0.53940778036E+03  0.19364519486E+04  0.50400001928E-02 0.  1.
</event>
<event>
 5   0  0.4811500E-07  0.3111542E+04  0.7818609E-02  0.8212577E-01
        1   -1    0    0  501    0  0.00000000000E+00  0.00000000000E+00  0.23650609295E+04  0.23650609295E+04  0.50400001928E-02 0.  1.
       -1   -1    0    0    0  501  0.00000000000E+00  0.00000000000E+00 -0.10234083829E+04  0.10234083829E+04  0.50400001928E-02 0. -1.
    10030    2    1    2    0    0  0.00000000000E+00  0.00000000000E+00  0.13416525466E+04  0.33884693123E+04  0.31115418565E+04 0.  0.
        4    1    3    3  502    0 -0.39721370607E+03 -0.10252295915E+03 -0.96344752819E+03  0.10471496731E+04  0.12699999809E+01 0. -1.
       -4    1    3    3    0  502  0.39721370607E+03  0.10252295915E+03  0.23051000748E+04  0.23413196392E+04  0.12699999809E+01 0.  1.
</event>
<event>
 5   0  0.1491854E-06  0.3578850E+04  0.7818609E-02  0.8095354E-01
        2   -1    0    0  501    0  0.00000000000E+00  0.00000000000E+00  0.13442222125E+04  0.13442222125E+04  0.25500000920E-02 0. -1.
       -2   -1    0    0    0  501  0.00000000000E+00  0.00000000000E+00 -0.23820775422E+04  0.23820775422E+04  0.25500000920E-02 0.  1.
    10030    2    1    2    0    0  0.00000000000E+00  0.00000000000E+00 -0.10378553297E+04  0.37262997547E+04  0.35788498399E+04 0.  0.
        5    1    3    3  502    0 -0.16963357226E+04 -0.55071485751E+03 -0.36740629984E+03  0.18209478897E+04  0.46999998093E+01 0.  1.
       -5    1    3    3    0  502  0.16963357226E+04  0.55071485751E+03 -0.67044902984E+03  0.19053518650E+04  0.46999998093E+01 0. -1.
</event>
<event>
 5   0  0.4811500E-07  0.2764314E+04  0.7818609E-02  0.8314434E-01
        1   -1    0    0  501    0  0.00000000000E+00  0.00000000000E+00  0.19814180258E+04  0.19814180258E+04  0.50400001928E-02 0.  1.
       -1   -1    0    0    0  501  0.00000000000E+00  0.00000000000E+00 -0.96413708266E+03  0.96413708267E+03  0.50400001928E-02 0. -1.
    10030    2    1    2    0    0  0.00000000000E+00  0.00000000000E+00  0.10172809431E+04  0.29455551085E+04  0.27643144502E+04 0.  0.
        4    1    3    3  502    0 -0.20564177719E+03 -0.67397891846E+03  0.17756413056E+04  0.19103506961E+04  0.12699999809E+01 0.  1.
       -4    1    3    3    0  502  0.20564177719E+03  0.67397891846E+03 -0.75836036249E+03  0.10352044124E+04  0.12699999809E+01 0. -1.
</event>
<event>
 5   0  0.4811500E-07  0.3588566E+04  0.7818609E-02  0.8093116E-01
       -1   -1    0    0    0  501  0.00000000000E+00  0.00000000000E+00  0.12583027975E+04  0.12583027975E+04  0.50400001928E-02 0.  1.
        1   -1    0    0  501    0  0.00000000000E+00  0.00000000000E+00 -0.25585665566E+04  0.25585665566E+04  0.50400001928E-02 0. -1.
    10030    2    1    2    0    0  0.00000000000E+00  0.00000000000E+00 -0.13002637591E+04  0.38168693541E+04  0.35885659842E+04 0.  0.
        3    1    3    3  502    0 -0.70918222240E+03 -0.96974529581E+03 -0.20676245095E+04  0.23913210755E+04  0.10100000352E+00 0. -1.
       -3    1    3    3    0  502  0.70918222240E+03  0.96974529581E+03  0.76736075043E+03  0.14255482787E+04  0.10100000352E+00 0.  1.
</event>
<event>
 5   0  0.1444091E-06  0.3298093E+04  0.7818609E-02  0.8163381E-01
       -2   -1    0    0    0  501  0.00000000000E+00  0.00000000000E+00  0.16212222583E+04  0.16212222583E+04  0.25500000920E-02 0.  1.
        2   -1    0    0  501    0  0.00000000000E+00  0.00000000000E+00 -0.16773478687E+04  0.16773478687E+04  0.25500000920E-02 0. -1.
    10030    2    1    2    0    0  0.00000000000E+00  0.00000000000E+00 -0.56125610391E+02  0.32985701270E+04  0.32980926001E+04 0.  0.
        1    1    3    3  502    0 -0.53072020568E+03 -0.10975861189E+04 -0.11386264225E+04  0.16681814515E+04  0.50400001928E-02 0.  1.
       -1    1    3    3    0  502  0.53072020568E+03  0.10975861189E+04  0.10825008121E+04  0.16303886755E+04  0.50400001928E-02 0. -1.
</event>
<event>
 5   0  0.1379425E-06  0.3171579E+04  0.7818609E-02  0.8196364E-01
        2   -1    0    0  501    0  0.00000000000E+00  0.00000000000E+00  0.20756304066E+04  0.20756304066E+04  0.25500000920E-02 0. -1.
       -2   -1    0    0    0  501  0.00000000000E+00  0.00000000000E+00 -0.12115488105E+04  0.12115488105E+04  0.25500000920E-02 0.  1.
    10030    2    1    2    0    0  0.00000000000E+00  0.00000000000E+00  0.86408159610E+03  0.32871792171E+04  0.31715785030E+04 0.  0.
        4    1    3    3  502    0  0.89059076626E+03  0.25686806561E+03  0.17656380265E+04  0.19941445207E+04  0.12699999809E+01 0. -1.
       -4    1    3    3    0  502 -0.89059076626E+03 -0.25686806561E+03 -0.90155643036E+03  0.12930346964E+04  0.12699999809E+01 0.  1.
</event>
<event>
 5   0  0.1505671E-06  0.3371545E+04  0.7818609E-02  0.8144926E-01
        2   -1    0    0  501    0  0.00000000000E+00  0.00000000000E+00  0.20585595199E+04  0.20585595199E+04  0.25500000920E-02 0. -1.
       -2   -1    0    0    0  501  0.00000000000E+00  0.00000000000E+00 -0.13804942005E+04  0.13804942005E+04  0.25500000920E-02 0.  1.
    10030    2    1    2    0    0  0.00000000000E+00  0.00000000000E+00  0.67806531944E+03  0.34390537204E+04  0.33715453304E+04 0.  0.
        3    1    3    3  502    0 -0.14508985635E+04  0.62369627843E+03 -0.26245732608E+03  0.16009333364E+04  0.10100000352E+00 0.  1.
       -3    1    3    3    0  502  0.14508985635E+04 -0.62369627843E+03  0.94052264552E+03  0.18381203841E+04  0.10100000352E+00 0. -1.
</event>
<event>
 5   0  0.4811500E-07  0.3617196E+04  0.7818609E-02  0.8086564E-01
        1   -1    0    0  501    0  0.00000000000E+00  0.00000000000E+00  0.17949505630E+04  0.17949505630E+04  0.50400001928E-02 0.  1.
       -1   -1    0    0    0  501  0.00000000000E+00  0.00000000000E+00 -0.18223492409E+04  0.18223492409E+04  0.50400001928E-02 0. -1.
    10030    2    1    2    0    0  0.00000000000E+00  0.00000000000E+00 -0.27398677841E+02  0.36172998039E+04  0.36171960389E+04 0.  0.
        2    1    3    3  502    0 -0.16821582761E+04 -0.30247089028E+03  0.57782560950E+03  0.18041694877E+04  0.25500000920E-02 0. -1.
       -2    1    3    3    0  502  0.16821582761E+04  0.30247089028E+03 -0.60522428734E+03  0.18131303162E+04  0.25500000920E-02 0.  1.
</event>
<event>
 5   0  0.4811500E-07  0.3589030E+04  0.7818609E-02  0.8093009E-01
       -1   -1    0    0    0  501  0.00000000000E+00  0.00000000000E+00  0.17812173150E+04  0.17812173150E+04  0.50400001928E-02 0. -1.
        1   -1    0    0  501    0  0.00000000000E+00  0.00000000000E+00 -0.18079124618E+04  0.18079124619E+04  0.50400001928E-02 0.  1.
    10030    2    1    2    0    0  0.00000000000E+00  0.00000000000E+00 -0.26695146867E+02  0.35891297768E+04  0.35890304992E+04 0.  0.
        2    1    3    3  502    0  0.14600045184E+03  0.24613450590E+03 -0.17849458013E+04  0.18077416410E+04  0.25500000920E-02 0.  1.
       -2    1    3    3    0  502 -0.14600045184E+03 -0.24613450590E+03  0.17582506544E+04  0.17813881359E+04  0.25500000920E-02 0. -1.
</event>
<event>
 5   0  0.1491854E-06  0.2504753E+04  0.7818609E-02  0.8401294E-01
       -2   -1    0    0    0  501  0.00000000000E+00  0.00000000000E+00  0.85345441631E+03  0.85345441631E+03  0.25500000920E-02 0. -1.
        2   -1    0    0  501    0  0.00000000000E+00  0.00000000000E+00 -0.18377635128E+04  0.18377635128E+04  0.25500000920E-02 0.  1.
    10030    2    1    2    0    0  0.00000000000E+00  0.00000000000E+00 -0.98430909653E+03  0.26912179291E+04  0.25047533900E+04 0.  0.
        5    1    3    3  502    0  0.10006807179E+04 -0.42664059110E+02 -0.12999502872E+04  0.16410590972E+04  0.46999998093E+01 0.  1.
       -5    1    3    3    0  502 -0.10006807179E+04  0.42664059110E+02  0.31564119071E+03  0.10501588320E+04  0.46999998093E+01 0. -1.
</event>
<event>
 5   0  0.5071661E-07  0.2625538E+04  0.7818609E-02  0.8359578E-01
        1   -1    0    0  501    0  0.00000000000E+00  0.00000000000E+00  0.18724719012E+04  0.18724719012E+04  0.50400001928E-02 0.  1.
       -1   -1    0    0    0  501  0.00000000000E+00  0.00000000000E+00 -0.92036781783E+03  0.92036781785E+03  0.50400001928E-02 0. -1.
    10030    2    1    2    0    0  0.00000000000E+00  0.00000000000E+00  0.95210408334E+03  0.27928397190E+04  0.26255383278E+04 0.  0.
        1    1    3    3  502    0  0.11008619414E+03 -0.39266990318E+03  0.18033839127E+04  0.18489191869E+04  0.50400001928E-02 0.  1.
       -1    1    3    3    0  502 -0.11008619414E+03  0.39266990318E+03 -0.85127982939E+03  0.94392053212E+03  0.50400001928E-02 0. -1.
</event>
<event>
 5   0  0.1444091E-06  0.3728449E+04  0.7818609E-02  0.8061686E-01
       -2   -1    0    0    0  501  0.00000000000E+00  0.00000000000E+00  0.13767526333E+04  0.13767526333E+04  0.25500000920E-02 0.  1.
        2   -1    0    0  501    0  0.00000000000E+00  0.00000000000E+00 -0.25242974526E+04  0.25242974526E+04  0.25500000920E-02 0. -1.
    10030    2    1    2    0    0  0.00000000000E+00  0.00000000000E+00 -0.11475448193E+04  0.39010500860E+04  0.37284490959E+04 0.  0.
        1    1    3    3  502    0  0.67550496633E+03 -0.12977841190E+04 -0.17825838854E+04  0.23061127222E+04  0.50400001928E-02 0. -1.
       -1    1    3    3    0  502 -0.67550496633E+03  0.12977841190E+04  0.63503906607E+03  0.15949373638E+04  0.50400001928E-02 0.  1.
</event>
<event>
 5   0  0.4811500E-07  0.3711399E+04  0.7818609E-02  0.8065440E-01
        1   -1    0    0  501    0  0.00000000000E+00  0.00000000000E+00  0.11771026643E+04  0.11771026643E+04  0.50400001928E-02 0.  1.
       -1   -1    0    0    0  501  0.00000000000E+00  0.00000000000E+00 -0.29255056482E+04  0.29255056482E+04  0.50400001928E-02 0. -1.
    10030    2    1    2    0    0  0.00000000000E+00  0.00000000000E+00 -0.17484029839E+04  0.41026083125E+04  0.37113989238E+04 0.  0.
        2    1    3    3  502    0  0.43878914417E+03 -0.90453575480E+03  0.84998610226E+03  0.13165094830E+04  0.25500000920E-02 0.  1.
       -2    1    3    3    0  502 -0.43878914417E+03  0.90453575480E+03 -0.25983890861E+04  0.27860988295E+04  0.25500000920E-02 0. -1.
</event>
<event>
 5   0  0.4811500E-07  0.3662904E+04  0.7818609E-02  0.8076233E-01
       -1   -1    0    0    0  501  0.00000000000E+00  0.00000000000E+00  0.13139455712E+04  0.13139455712E+04  0.50400001928E-02 0. -1.
        1   -1    0    0  501    0  0.00000000000E+00  0.00000000000E+00 -0.25527824145E+04  0.25527824145E+04  0.50400001928E-02 0.  1.
    10030    2    1    2    0    0  0.00000000000E+00  0.00000000000E+00 -0.12388368433E+04  0.38667279857E+04  0.36629043929E+04 0.  0.
        4    1    3    3  502    0  0.16430532827E+03  0.18067809439E+04 -0.35495468446E+03  0.18486341069E+04  0.12699999809E+01 0. -1.
       -4    1    3    3    0  502 -0.16430532827E+03 -0.18067809439E+04 -0.88388215883E+03  0.20180938788E+04  0.12699999809E+01 0.  1.
</event>
<event>
 5   0  0.4811500E-07  0.3549819E+04  0.7818609E-02  0.8102084E-01
        1   -1    0    0  501    0  0.00000000000E+00  0.00000000000E+00  0.23390504389E+04  0.23390504389E+04  0.50400001928E-02 0. -1.
       -1   -1    0    0    0  501  0.00000000000E+00  0.00000000000E+00 -0.13468300179E+04  0.13468300179E+04  0.50400001928E-02 0.  1.
    10030    2    1    2    0    0  0.00000000000E+00  0.00000000000E+00  0.99222042097E+03  0.36858804568E+04  0.35498187810E+04 0.  0.
        5    1    3    3  502    0 -0.13615245148E+04  0.11204028999E+04  0.70694369239E+03  0.18996955379E+04  0.46999998093E+01 0.  1.
       -5    1    3    3    0  502  0.13615245148E+04 -0.11204028999E+04  0.28527672858E+03  0.17861849189E+04  0.46999998093E+01 0. -1.
</event>
<event>
 5   0  0.1379425E-06  0.3370071E+04  0.7818609E-02  0.8145291E-01
        2   -1    0    0  501    0  0.00000000000E+00  0.00000000000E+00  0.22211189448E+04  0.22211189448E+04  0.25500000920E-02 0.  1.
       -2   -1    0    0    0  501  0.00000000000E+00  0.00000000000E+00 -0.12783398416E+04  0.12783398416E+04  0.25500000920E-02 0. -1.
    10030    2    1    2    0    0  0.00000000000E+00  0.00000000000E+00  0.94277910315E+03  0.34994587864E+04  0.33700711210E+04 0.  0.
        4    1    3    3  502    0 -0.16671786403E+04  0.36494837544E+02  0.72260073333E+03  0.18174074735E+04  0.12699999809E+01 0.  1.
       -4    1    3    3    0  502  0.16671786403E+04 -0.36494837544E+02  0.22017836983E+03  0.16820513129E+04  0.12699999809E+01 0. -1.
</event>
<event>
 5   0  0.4811500E-07  0.3465612E+04  0.7818609E-02  0.8121988E-01
        1   -1    0    0  501    0  0.00000000000E+00  0.00000000000E+00  0.21055710257E+04  0.21055710257E+04  0.50400001928E-02 0.  1.
       -1   -1    0    0    0  501  0.00000000000E+00  0.00000000000E+00 -0.14260340693E+04  0.14260340694E+04  0.50400001928E-02 0. -1.
    10030    2    1    2    0    0  0.00000000000E+00  0.00000000000E+00  0.67953695633E+03  0.35316050950E+04  0.34656116448E+04 0.  0.
        5    1    3    3  502    0  0.12410245793E+04 -0.97161026171E+03 -0.39396001576E+03  0.16246215224E+04  0.46999998093E+01 0. -1.
       -5    1    3    3    0  502 -0.12410245793E+04  0.97161026171E+03  0.10734969721E+04  0.19069835726E+04  0.46999998093E+01 0.  1.
</event>
<event>
 5   0  0.1468942E-06  0.3603958E+04  0.7818609E-02  0.8089586E-01
       -2   -1    0    0    0  501  0.00000000000E+00  0.00000000000E+00  0.16395641714E+04  0.16395641714E+04  0.25500000920E-02 0. -1.
        2   -1    0    0  501    0  0.00000000000E+00  0.00000000000E+00 -0.19804824981E+04  0.19804824981E+04  0.25500000920E-02 0.  1.
    10030    2    1    2    0    0  0.00000000000E+00  0.00000000000E+00 -0.34091832673E+03  0.36200466695E+04  0.36039579053E+04 0.  0.
        2    1    3    3  502    0  0.17644413193E+04  0.97487288523E+02  0.18377821183E+03  0.17766629877E+04  0.25500000920E-02 0. -1.
       -2    1    3    3    0  502 -0.17644413193E+04 -0.97487288523E+02 -0.52469653856E+03  0.18433836818E+04  0.25500000920E-02 0.  1.
</event>
<event>
 5   0  0.4811500E-07  0.3814881E+04  0.7818609E-02  0.8042969E-01
       -1   -1    0    0    0  501  0.00000000000E+00  0.00000000000E+00  0.12722892043E+04  0.12722892043E+04  0.50400001928E-02 0. -1.
        1   -1    0    0  501    0  0.00000000000E+00  0.00000000000E+00 -0.28596719140E+04  0.28596719140E+04  0.50400001928E-02 0.  1.
    10030    2    1    2    0    0  0.00000000000E+00  0.00000000000E+00 -0.15873827098E+04  0.41319611183E+04  0.38148812323E+04 0.  0.
        2    1    3    3  502    0  0.15952957738E+04 -0.59817593994E+03 -0.17226156324E+04  0.24228470191E+04  0.25500000920E-02 0.  1.
       -2    1    3    3    0  502 -0.15952957738E+04  0.59817593994E+03  0.13523292261E+03  0.17091140993E+04  0.25500000920E-02 0. -1.
</event>
<event>
 5   0  0.4811500E-07  0.3652643E+04  0.7818609E-02  0.8078539E-01
        1   -1    0    0  501    0  0.00000000000E+00  0.00000000000E+00  0.30032638843E+04  0.30032638843E+04  0.50400001928E-02 0. -1.
       -1   -1    0    0    0  501  0.00000000000E+00  0.00000000000E+00 -0.11106083692E+04  0.11106083693E+04  0.50400001928E-02 0.  1.
    10030    2    1    2    0    0  0.00000000000E+00  0.00000000000E+00  0.18926555150E+04  0.41138722535E+04  0.36526428815E+04 0.  0.
        4    1    3    3  502    0 -0.29614599613E+03 -0.72033941343E+03 -0.91419069989E+03  0.12009735926E+04  0.12699999809E+01 0.  1.
       -4    1    3    3    0  502  0.29614599613E+03  0.72033941343E+03  0.28068462149E+04  0.29128986609E+04  0.12699999809E+01 0. -1.
</event>
<event>
 5   0  0.1468942E-06  0.3431154E+04  0.7818609E-02  0.8130302E-01
       -2   -1    0    0    0  501  0.00000000000E+00  0.00000000000E+00  0.12772529775E+04  0.12772529775E+04  0.25500000920E-02 0.  1.
        2   -1    0    0  501    0  0.00000000000E+00  0.00000000000E+00 -0.23043243626E+04  0.23043243626E+04  0.25500000920E-02 0. -1.
    10030    2    1    2    0    0  0.00000000000E+00  0.00000000000E+00 -0.10270713851E+04  0.35815773401E+04  0.34311544140E+04 0.  0.
        2    1    3    3  502    0 -0.14723287534E+04 -0.14987050974E+03 -0.14193293156E+04  0.20505386692E+04  0.25500000920E-02 0. -1.
       -2    1    3    3    0  502  0.14723287534E+04  0.14987050974E+03  0.39225793053E+03  0.15310386709E+04  0.25500000920E-02 0.  1.
</event>
<event>
 5   0  0.1379425E-06  0.3336849E+04  0.7818609E-02  0.8153582E-01
       -2   -1    0    0    0  501  0.00000000000E+00  0.00000000000E+00  0.12210165978E+04  0.12210165978E+04  0.25500000920E-02 0.  1.
        2   -1    0    0  501    0  0.00000000000E+00  0.00000000000E+00 -0.22797730573E+04  0.22797730573E+04  0.25500000920E-02 0. -1.
    10030    2    1    2    0    0  0.00000000000E+00  0.00000000000E+00 -0.10587564594E+04  0.35007896551E+04  0.33368492578E+04 0.  0.
        4    1    3    3  502    0 -0.49317732043E+03  0.14595724271E+04  0.14244502708E+03  0.15472128935E+04  0.12699999809E+01 0.  1.
       -4    1    3    3    0  502  0.49317732043E+03 -0.14595724271E+04 -0.12012014865E+04  0.19535767616E+04  0.12699999809E+01 0. -1.
</event>
<event>
 5   0  0.4811500E-07  0.2244611E+04  0.7818609E-02  0.8500086E-01
       -1   -1    0    0    0  501  0.00000000000E+00  0.00000000000E+00  0.56766834391E+03  0.56766834393E+03  0.50400001928E-02 0. -1.
        1   -1    0    0  501    0  0.00000000000E+00  0.00000000000E+00 -0.22188475224E+04  0.22188475224E+04  0.50400001928E-02 0.  1.
    10030    2    1    2    0    0  0.00000000000E+00  0.00000000000E+00 -0.16511791785E+04  0.27865158664E+04  0.22446108781E+04 0.  0.
        2    1    3    3  502    0  0.61829826136E+03 -0.68404644361E+03 -0.16198660374E+04  0.18639147663E+04  0.25500000920E-02 0.  1.
       -2    1    3    3    0  502 -0.61829826136E+03  0.68404644361E+03 -0.31313141143E+02  0.92260110006E+03  0.25500000920E-02 0. -1.
</event>
<event>
 5   0  0.5071661E-07  0.3519865E+04  0.7818609E-02  0.8109098E-01
       -1   -1    0    0    0  501  0.00000000000E+00  0.00000000000E+00  0.13399777186E+04  0.13399777186E+04  0.50400001928E-02 0.  1.
        1   -1    0    0  501    0  0.00000000000E+00  0.00000000000E+00 -0.23115030729E+04  0.23115030729E+04  0.50400001928E-02 0. -1.
    10030    2    1    2    0    0  0.00000000000E+00  0.00000000000E+00 -0.97152535436E+03  0.36514807915E+04  0.35198651191E+04 0.  0.
        1    1    3    3  502    0 -0.13380291811E+04  0.10829630308E+04 -0.10568673587E+03  0.17246161027E+04  0.50400001928E-02 0.  1.
       -1    1    3    3    0  502  0.13380291811E+04 -0.10829630308E+04 -0.86583861849E+03  0.19268646888E+04  0.50400001928E-02 0. -1.
</event>
<event>
 5   0  0.4811500E-07  0.3589665E+04  0.7818609E-02  0.8092863E-01
       -1   -1    0    0    0  501  0.00000000000E+00  0.00000000000E+00  0.12710953429E+04  0.12710953429E+04  0.50400001928E-02 0. -1.
        1   -1    0    0  501    0  0.00000000000E+00  0.00000000000E+00 -0.25343685503E+04  0.25343685503E+04  0.50400001928E-02 0.  1.
    10030    2    1    2    0    0  0.00000000000E+00  0.00000000000E+00 -0.12632732074E+04  0.38054638932E+04  0.35896651997E+04 0.  0.
        4    1    3    3  502    0 -0.15462121598E+03 -0.99524916578E+02  0.12610827303E+04  0.12744191598E+04  0.12699999809E+01 0. -1.
       -4    1    3    3    0  502  0.15462121598E+03  0.99524916578E+02 -0.25243559377E+04  0.25310447334E+04  0.12699999809E+01 0.  1.
</event>
<event>
 5   0  0.1379425E-06  0.3462806E+04  0.7818609E-02  0.8122661E-01
       -2   -1    0    0    0  501  0.00000000000E+00  0.00000000000E+00  0.15186462372E+04  0.15186462372E+04  0.25500000920E-02 0. -1.
        2   -1    0    0  501    0  0.00000000000E+00  0.00000000000E+00 -0.19739665267E+04  0.19739665267E+04  0.25500000920E-02 0.  1.
    10030    2    1    2    0    0  0.00000000000E+00  0.00000000000E+00 -0.45532028948E+03  0.34926127638E+04  0.34628062828E+04 0.  0.
        4    1    3    3  502    0 -0.16115529377E+04  0.51273526770E+03  0.14668807044E+03  0.16975038523E+04  0.12699999809E+01 0. -1.
       -4    1    3    3    0  502  0.16115529377E+04 -0.51273526770E+03 -0.60200835992E+03  0.17951089115E+04  0.12699999809E+01 0.  1.
</event>
<event>
 5   0  0.4811500E-07  0.3590243E+04  0.7818609E-02  0.8092730E-01
        1   -1    0    0  501    0  0.00000000000E+00  0.00000000000E+00  0.17079216982E+04  0.17079216982E+04  0.50400001928E-02 0.  1.
       -1   -1    0    0    0  501  0.00000000000E+00  0.00000000000E+00 -0.18867733621E+04  0.18867733621E+04  0.50400001928E-02 0. -1.
    10030    2    1    2    0    0  0.00000000000E+00  0.00000000000E+00 -0.17885166390E+03  0.35946950603E+04  0.35902429804E+04 0.  0.
        3    1    3    3  502    0  0.65087518002E+03 -0.13800158398E+04 -0.10363146641E+04  0.18444593547E+04  0.10100000352E+00 0. -1.
       -3    1    3    3    0  502 -0.65087518002E+03  0.13800158398E+04  0.85746300016E+03  0.17502357055E+04  0.10100000352E+00 0.  1.
</event>
<event>
 5   0  0.5071661E-07  0.2230227E+04  0.7818609E-02  0.8505951E-01
        1   -1    0    0  501    0  0.00000000000E+00  0.00000000000E+00  0.73660486953E+03  0.73660486955E+03  0.50400001928E-02 0. -1.
       -1   -1    0    0    0  501  0.00000000000E+00  0.00000000000E+00 -0.16881203987E+04  0.16881203988E+04  0.50400001928E-02 0.  1.
    10030    2    1    2    0    0  0.00000000000E+00  0.00000000000E+00 -0.95151552922E+03  0.24247252683E+04  0.22302266307E+04 0.  0.
        1    1    3    3  502    0  0.46647892643E+03 -0.24805277553E+03  0.59189429822E+03  0.79339248077E+03  0.50400001928E-02 0. -1.
       -1    1    3    3    0  502 -0.46647892643E+03  0.24805277553E+03 -0.15434098274E+04  0.16313327875E+04  0.50400001928E-02 0.  1.
</event>
<event>
 5   0  0.5071661E-07  0.2787553E+04  0.7818609E-02  0.8307143E-01
        1   -1    0    0  501    0  0.00000000000E+00  0.00000000000E+00  0.11484573623E+04  0.11484573623E+04  0.50400001928E-02 0. -1.
       -1   -1    0    0    0  501  0.00000000000E+00  0.00000000000E+00 -0.16914975977E+04  0.16914975977E+04  0.50400001928E-02 0.  1.
    10030    2    1    2    0    0  0.00000000000E+00  0.00000000000E+00 -0.54304023538E+03  0.28399549600E+04  0.27875529552E+04 0.  0.
        1    1    3    3  502    0  0.15784601230E+03 -0.24965232282E+03 -0.16592461468E+04  0.16853306564E+04  0.50400001928E-02 0.  1.
       -1    1    3    3    0  502 -0.15784601230E+03  0.24965232282E+03  0.11162059114E+04  0.11546243036E+04  0.50400001928E-02 0. -1.
</event>
<event>
 5   0  0.1379425E-06  0.3670696E+04  0.7818609E-02  0.8074487E-01
        2   -1    0    0  501    0  0.00000000000E+00  0.00000000000E+00  0.18059790530E+04  0.18059790530E+04  0.25500000920E-02 0.  1.
       -2   -1    0    0    0  501  0.00000000000E+00  0.00000000000E+00 -0.18651943941E+04  0.18651943941E+04  0.25500000920E-02 0. -1.
    10030    2    1    2    0    0  0.00000000000E+00  0.00000000000E+00 -0.59215341092E+02  0.36711734470E+04  0.36706958498E+04 0.  0.
        4    1    3    3  502    0  0.42125599495E+02  0.13204399684E+04  0.12445926771E+04  0.18150341102E+04  0.12699999809E+01 0.  1.
       -4    1    3    3    0  502 -0.42125599495E+02 -0.13204399684E+04 -0.13038080182E+04  0.18561393368E+04  0.12699999809E+01 0. -1.
</event>
<event>
 5   0  0.1505671E-06  0.2336378E+04  0.7818609E-02  0.8463714E-01
       -2   -1    0    0    0  501  0.00000000000E+00  0.00000000000E+00  0.83088940681E+03  0.83088940681E+03  0.25500000920E-02 0. -1.
        2   -1    0    0  501    0  0.00000000000E+00  0.00000000000E+00 -0.16424154469E+04  0.16424154469E+04  0.25500000920E-02 0.  1.
    10030    2    1    2    0    0  0.00000000000E+00  0.00000000000E+00 -0.81152604008E+03  0.24733048537E+04  0.23363780485E+04 0.  0.
        3    1    3    3  502    0  0.38500852913E+03 -0.44591235949E+03 -0.14736425655E+04  0.15870386955E+04  0.10100000352E+00 0.  1.
       -3    1    3    3    0  502 -0.38500852913E+03  0.44591235949E+03  0.66211652540E+03  0.88626615825E+03  0.10100000352E+00 0. -1.
</event>
<event>
 5   0  0.1491854E-06  0.2393599E+04  0.7818609E-02  0.8441904E-01
       -2   -1    0    0    0  501  0.00000000000E+00  0.00000000000E+00  0.60442885130E+03  0.60442885130E+03  0.25500000920E-02 0.  1.
        2   -1    0    0  501    0  0.00000000000E+00  0.00000000000E+00 -0.23697225009E+04  0.23697225009E+04  0.25500000920E-02 0. -1.
    10030    2    1    2    0    0  0.00000000000E+00  0.00000000000E+00 -0.17652936496E+04  0.29741513522E+04  0.23935986707E+04 0.  0.
        5    1    3    3  502    0 -0.96663976185E+03  0.70244313456E+03 -0.79940776733E+03  0.14376695222E+04  0.46999998093E+01 0. -1.
       -5    1    3    3    0  502  0.96663976185E+03 -0.70244313456E+03 -0.96588588230E+03  0.15364818301E+04  0.46999998093E+01 0.  1.
</event>
<event>
 5   0  0.1505671E-06  0.3667101E+04  0.7818609E-02  0.8075292E-01
        2   -1    0    0  501    0  0.00000000000E+00  0.00000000000E+00  0.25950848634E+04  0.25950848634E+04  0.25500000920E-02 0.  1.
       -2   -1    0    0    0  501  0.00000000000E+00  0.00000000000E+00 -0.12954904985E+04  0.12954904985E+04  0.25500000920E-02 0. -1.
    10030    2    1    2    0    0  0.00000000000E+00  0.00000000000E+00  0.12995943649E+04  0.38905753620E+04  0.36671011895E+04 0.  0.
        3    1    3    3  502    0  0.17399671918E+04 -0.72866076004E+02  0.12584408580E+04  0.21485969135E+04  0.10100000352E+00 0.  1.
       -3    1    3    3    0  502 -0.17399671918E+04  0.72866076004E+02  0.41153506891E+02  0.17419784485E+04  0.10100000352E+00 0. -1.
</event>
<event>
 5   0  0.4811500E-07  0.3268501E+04  0.7818609E-02  0.8170957E-01
        1   -1    0    0  501    0  0.00000000000E+00  0.00000000000E+00  0.10828363533E+04  0.10828363533E+04  0.50400001928E-02 0.  1.
       -1   -1    0    0    0  501  0.00000000000E+00  0.00000000000E+00 -0.24664613837E+04  0.24664613837E+04  0.50400001928E-02 0. -1.
    10030    2    1    2    0    0  0.00000000000E+00  0.00000000000E+00 -0.13836250303E+04  0.35492977370E+04  0.32685006044E+04 0.  0.
        3    1    3    3  502    0 -0.63691310124E+02  0.89232935295E+03 -0.21769571359E+04  0.23536037557E+04  0.10100000352E+00 0.  1.
       -3    1    3    3    0  502  0.63691310124E+02 -0.89232935295E+03  0.79333210553E+03  0.11956939813E+04  0.10100000352E+00 0. -1.
</event>
<event>
 5   0  0.1491854E-06  0.3569673E+04  0.7818609E-02  0.8097474E-01
        2   -1    0    0  501    0  0.00000000000E+00  0.00000000000E+00  0.23307423284E+04  0.23307423284E+04  0.25500000920E-02 0.  1.
       -2   -1    0    0    0  501  0.00000000000E+00  0.00000000000E+00 -0.13667925389E+04  0.13667925389E+04  0.25500000920E-02 0. -1.
    10030    2    1    2    0    0  0.00000000000E+00  0.00000000000E+00  0.96394978950E+03  0.36975348673E+04  0.35696729400E+04 0.  0.
        5    1    3    3  502    0 -0.33823823612E+03 -0.15431841144E+04  0.13422640429E+04  0.20730453845E+04  0.46999998093E+01 0.  1.
       -5    1    3    3    0  502  0.33823823612E+03  0.15431841144E+04 -0.37831425345E+03  0.16244894828E+04  0.46999998093E+01 0. -1.
</event>
<event>
 5   0  0.1468942E-06  0.3588830E+04  0.7818609E-02  0.8093055E-01
        2   -1    0    0  501    0  0.00000000000E+00  0.00000000000E+00  0.23579993997E+04  0.23579993997E+04  0.25500000920E-02 0. -1.
       -2   -1    0    0    0  501  0.00000000000E+00  0.00000000000E+00 -0.13655330333E+04  0.13655330333E+04  0.25500000920E-02 0.  1.
    10030    2    1    2    0    0  0.00000000000E+00  0.00000000000E+00  0.99246636648E+03  0.37235324330E+04  0.35888304907E+04 0.  0.
        2    1    3    3  502    0 -0.57740758687E+03 -0.91089760892E+03 -0.99174783990E+03  0.14651613404E+04  0.25500000920E-02 0.  1.
       -2    1    3    3    0  502  0.57740758687E+03  0.91089760892E+03  0.19842142064E+04  0.22583710927E+04  0.25500000920E-02 0. -1.
</event>
<event>
 5   0  0.1491854E-06  0.3618888E+04  0.7818609E-02  0.8086179E-01
       -2   -1    0    0    0  501  0.00000000000E+00  0.00000000000E+00  0.13740449862E+04  0.13740449862E+04  0.25500000920E-02 0. -1.
        2   -1    0    0  501    0  0.00000000000E+00  0.00000000000E+00 -0.23828097469E+04  0.23828097469E+04  0.25500000920E-02 0.  1.
    10030    2    1    2    0    0  0.00000000000E+00  0.00000000000E+00 -0.10087647607E+04  0.37568547331E+04  0.36188881087E+04 0.  0.
        5    1    3    3  502    0 -0.14946422809E+04  0.84344283553E+03 -0.10995764103E+04  0.20382447686E+04  0.46999998093E+01 0.  1.
       -5    1    3    3    0  502  0.14946422809E+04 -0.84344283553E+03  0.90811649571E+02  0.17186099645E+04  0.46999998093E+01 0. -1.
</event>
<event>
 5   0  0.5071661E-07  0.3597279E+04  0.7818609E-02  0.8091115E-01
        1   -1    0    0  501    0  0.00000000000E+00  0.00000000000E+00  0.27985533222E+04  0.27985533222E+04  0.50400001928E-02 0. -1.
       -1   -1    0    0    0  501  0.00000000000E+00  0.00000000000E+00 -0.11559916353E+04  0.11559916353E+04  0.50400001928E-02 0.  1.
    10030    2    1    2    0    0  0.00000000000E+00  0.00000000000E+00  0.16425616868E+04  0.39545449575E+04  0.35972791004E+04 0.  0.
        1    1    3    3  502    0 -0.11450377355E+04 -0.95795060053E+03 -0.28150499890E+03  0.15192188233E+04  0.50400001928E-02 0.  1.
       -1    1    3    3    0  502  0.11450377355E+04  0.95795060053E+03  0.19240666857E+04  0.24353261342E+04  0.50400001928E-02 0. -1.
</event>
<event>
 5   0  0.1468942E-06  0.2488916E+04  0.7818609E-02  0.8406945E-01
       -2   -1    0    0    0  501  0.00000000000E+00  0.00000000000E+00  0.78948314044E+03  0.78948314044E+03  0.25500000920E-02 0.  1.
        2   -1    0    0  501    0  0.00000000000E+00  0.00000000000E+00 -0.19616329013E+04  0.19616329013E+04  0.25500000920E-02 0. -1.
    10030    2    1    2    0    0  0.00000000000E+00  0.00000000000E+00 -0.11721497609E+04  0.27511160417E+04  0.24889163130E+04 0.  0.
        2    1    3    3  502    0 -0.46442716136E+02  0.12273053374E+04 -0.80780865187E+03  0.14700306579E+04  0.25500000920E-02 0.  1.
       -2    1    3    3    0  502  0.46442716136E+02 -0.12273053374E+04 -0.36434110898E+03  0.12810853839E+04  0.25500000920E-02 0. -1.
</event>
<event>
 5   0  0.4811500E-07  0.2478978E+04  0.7818609E-02  0.8410513E-01
        1   -1    0    0  501    0  0.00000000000E+00  0.00000000000E+00  0.94919764967E+03  0.94919764968E+03  0.50400001928E-02 0. -1.
       -1   -1    0    0    0  501  0.00000000000E+00  0.00000000000E+00 -0.16185601293E+04  0.16185601294E+04  0.50400001928E-02 0.  1.
    10030    2    1    2    0    0  0.00000000000E+00  0.00000000000E+00 -0.66936247968E+03  0.25677577790E+04  0.24789783949E+04 0.  0.
        5    1    3    3  502    0 -0.68949709641E+02  0.11747163212E+04 -0.73798225251E+03  0.13890113004E+04  0.46999998093E+01 0.  1.
       -5    1    3    3    0  502  0.68949709641E+02 -0.11747163212E+04  0.68619772830E+02  0.11787464786E+04  0.46999998093E+01 0. -1.
</event>
<event>
 5   0  0.4811500E-07  0.3010432E+04  0.7818609E-02  0.8240758E-01
       -1   -1    0    0    0  501  0.00000000000E+00  0.00000000000E+00  0.85756012180E+03  0.85756012182E+03  0.50400001928E-02 0.  1.
        1   -1    0    0  501    0  0.00000000000E+00  0.00000000000E+00 -0.26420018798E+04  0.26420018798E+04  0.50400001928E-02 0. -1.
    10030    2    1    2    0    0  0.00000000000E+00  0.00000000000E+00 -0.17844417580E+04  0.34995620016E+04  0.30104321642E+04 0.  0.
        3    1    3    3  502    0  0.10136346231E+04 -0.48252337611E+03 -0.20578286883E+04  0.23441294500E+04  0.10100000352E+00 0. -1.
       -3    1    3    3    0  502 -0.10136346231E+04  0.48252337611E+03  0.27338693032E+03  0.11554325517E+04  0.10100000352E+00 0.  1.
</event>
<event>
 5   0  0.1379425E-06  0.3600379E+04  0.7818609E-02  0.8090405E-01
       -2   -1    0    0    0  501  0.00000000000E+00  0.00000000000E+00  0.14570778006E+04  0.14570778006E+04  0.25500000920E-02 0. -1.
        2   -1    0    0  501    0  0.00000000000E+00  0.00000000000E+00 -0.22240968413E+04  0.22240968413E+04  0.25500000920E-02 0.  1.
    10030    2    1    2    0    0  0.00000000000E+00  0.00000000000E+00 -0.76701904073E+03  0.36811746418E+04  0.36003789432E+04 0.  0.
        4    1    3    3  502    0  0.16598655189E+04  0.68314445425E+03 -0.52385097470E+03  0.18698292282E+04  0.12699999809E+01 0.  1.
       -4    1    3    3    0  502 -0.16598655189E+04 -0.68314445425E+03 -0.24316806603E+03  0.18113454136E+04  0.12699999809E+01 0. -1.
</event>
<event>
 5   0  0.4811500E-07  0.3521357E+04  0.7818609E-02  0.8108747E-01
        1   -1    0    0  501    0  0.00000000000E+00  0.00000000000E+00  0.20970425506E+04  0.20970425506E+04  0.50400001928E-02 0.  1.
       -1   -1    0    0    0  501  0.00000000000E+00  0.00000000000E+00 -0.14782669879E+04  0.14782669879E+04  0.50400001928E-02 0. -1.
    10030    2    1    2    0    0  0.00000000000E+00  0.00000000000E+00  0.61877556265E+03  0.35753095385E+04  0.35213569969E+04 0.  0.
        3    1    3    3  502    0  0.36647904992E+03  0.59813249926E+03  0.19490359656E+04  0.20714271858E+04  0.10100000352E+00 0.  1.
       -3    1    3    3    0  502 -0.36647904992E+03 -0.59813249926E+03 -0.13302604030E+04  0.15038823527E+04  0.10100000352E+00 0. -1.
</event>
<event>
 5   0  0.4811500E-07  0.3842298E+04  0.7818609E-02  0.8037138E-01
        1   -1    0    0  501    0  0.00000000000E+00  0.00000000000E+00  0.13953932426E+04  0.13953932426E+04  0.50400001928E-02 0.  1.
       -1   -1    0    0    0  501  0.00000000000E+00  0.00000000000E+00 -0.26449982785E+04  0.26449982785E+04  0.50400001928E-02 0. -1.
    10030    2    1    2    0    0  0.00000000000E+00  0.00000000000E+00 -0.12496050360E+04  0.40403915211E+04  0.38422976067E+04 0.  0.
        4    1    3    3  502    0 -0.12748114992E+04 -0.89502757569E+03  0.55771540825E+03  0.16544687393E+04  0.12699999809E+01 0.  1.
       -4    1    3    3    0  502  0.12748114992E+04  0.89502757569E+03 -0.18073204442E+04  0.23859227818E+04  0.12699999809E+01 0. -1.
</event>
<event>
 5   0  0.4811500E-07  0.3575598E+04  0.7818609E-02  0.8096104E-01
        1   -1    0    0  501    0  0.00000000000E+00  0.00000000000E+00  0.17932857647E+04  0.17932857647E+04  0.50400001928E-02 0. -1.
       -1   -1    0    0    0  501  0.00000000000E+00  0.00000000000E+00 -0.17823285580E+04  0.17823285580E+04  0.50400001928E-02 0.  1.
    10030    2    1    2    0    0  0.00000000000E+00  0.00000000000E+00  0.10957206727E+02  0.35756143227E+04  0.35755975338E+04 0.  0.
        3    1    3    3  502    0 -0.37265733848E+03 -0.17329858060E+04 -0.22714047011E+03  0.17870943173E+04  0.10100000352E+00 0.  1.
       -3    1    3    3    0  502  0.37265733848E+03  0.17329858060E+04  0.23809767683E+03  0.17885200053E+04  0.10100000352E+00 0. -1.
</event>
<event>
 5   0  0.1505671E-06  0.3636102E+04  0.7818609E-02  0.8082272E-01
        2   -1    0    0  501    0  0.00000000000E+00  0.00000000000E+00  0.27142843709E+04  0.27142843709E+04  0.25500000920E-02 0. -1.
       -2   -1    0    0    0  501  0.00000000000E+00  0.00000000000E+00 -0.12177464338E+04  0.12177464338E+04  0.25500000920E-02 0.  1.
    10030    2    1    2    0    0  0.00000000000E+00  0.00000000000E+00  0.14965379370E+04  0.39320308047E+04  0.36361023710E+04 0.  0.
        3    1    3    3  502    0 -0.16842027703E+04  0.12603809677E+03  0.20531003790E+02  0.16890370351E+04  0.10100000352E+00 0. -1.
       -3    1    3    3    0  502  0.16842027703E+04 -0.12603809677E+03  0.14760069332E+04  0.22429937696E+04  0.10100000352E+00 0.  1.
</event>
<event>
 5   0  0.4811500E-07  0.3615843E+04  0.7818609E-02  0.8086872E-01
       -1   -1    0    0    0  501  0.00000000000E+00  0.00000000000E+00  0.18851501022E+04  0.18851501022E+04  0.50400001928E-02 0.  1.
        1   -1    0    0  501    0  0.00000000000E+00  0.00000000000E+00 -0.17338569719E+04  0.17338569719E+04  0.50400001928E-02 0. -1.
    10030    2    1    2    0    0  0.00000000000E+00  0.00000000000E+00  0.15129313031E+03  0.36190070741E+04  0.36158432752E+04 0.  0.
        4    1    3    3  502    0 -0.18065697661E+04  0.53784017984E+02  0.30975747409E+02  0.18076360669E+04  0.12699999809E+01 0.  1.
       -4    1    3    3    0  502  0.18065697661E+04 -0.53784017984E+02  0.12031738290E+03  0.18113710072E+04  0.12699999809E+01 0. -1.
</event>
<event>
 5   0  0.4811500E-07  0.3644870E+04  0.7818609E-02  0.8080290E-01
       -1   -1    0    0    0  501  0.00000000000E+00  0.00000000000E+00  0.12747312551E+04  0.12747312551E+04  0.50400001928E-02 0. -1.
        1   -1    0    0  501    0  0.00000000000E+00  0.00000000000E+00 -0.26054657316E+04  0.26054657316E+04  0.50400001928E-02 0.  1.
    10030    2    1    2    0    0  0.00000000000E+00  0.00000000000E+00 -0.13307344765E+04  0.38801969867E+04  0.36448696010E+04 0.  0.
        5    1    3    3  502    0  0.14314833604E+04 -0.41219334934E+03 -0.17830066162E+04  0.23233989437E+04  0.46999998093E+01 0.  1.
       -5    1    3    3    0  502 -0.14314833604E+04  0.41219334934E+03  0.45227213966E+03  0.15567980429E+04  0.46999998093E+01 0. -1.
</event>
<event>
 5   0  0.1491854E-06  0.3538676E+04  0.7818609E-02  0.8104685E-01
       -2   -1    0    0    0  501  0.00000000000E+00  0.00000000000E+00  0.17298984838E+04  0.17298984838E+04  0.25500000920E-02 0.  1.
        2   -1    0    0  501    0  0.00000000000E+00  0.00000000000E+00 -0.18096763870E+04  0.18096763870E+04  0.25500000920E-02 0. -1.
    10030    2    1    2    0    0  0.00000000000E+00  0.00000000000E+00 -0.79777903160E+02  0.35395748708E+04  0.35386757060E+04 0.  0.
        5    1    3    3  502    0 -0.54283913375E+03 -0.14318451768E+04 -0.92649976815E+03  0.17897706126E+04  0.46999998093E+01 0. -1.
       -5    1    3    3    0  502  0.54283913375E+03  0.14318451768E+04  0.84672186499E+03  0.17498042582E+04  0.46999998093E+01 0.  1.
</event>
<event>
 5   0  0.4811500E-07  0.3639390E+04  0.7818609E-02  0.8081528E-01
        1   -1    0    0  501    0  0.00000000000E+00  0.00000000000E+00  0.33459183879E+04  0.33459183879E+04  0.50400001928E-02 0.  1.
       -1   -1    0    0    0  501  0.00000000000E+00  0.00000000000E+00 -0.98965035727E+03  0.98965035728E+03  0.50400001928E-02 0. -1.
    10030    2    1    2    0    0  0.00000000000E+00  0.00000000000E+00  0.23562680306E+04  0.43355687452E+04  0.36393896895E+04 0.  0.
        5    1    3    3  502    0  0.14566782200E+04 -0.38955833514E+03 -0.35345697030E+02  0.15082899394E+04  0.46999998093E+01 0. -1.
       -5    1    3    3    0  502 -0.14566782200E+04  0.38955833514E+03  0.23916137277E+04  0.28272788058E+04  0.46999998093E+01 0.  1.
</event>
<event>
 5   0  0.1379425E-06  0.3319168E+04  0.7818609E-02  0.8158035E-01
        2   -1    0    0  501    0  0.00000000000E+00  0.00000000000E+00  0.16459546283E+04  0.16459546283E+04  0.25500000920E-02 0. -1.
       -2   -1    0    0    0  501  0.00000000000E+00  0.00000000000E+00 -0.16733264585E+04  0.16733264585E+04  0.25500000920E-02 0.  1.
    10030    2    1    2    0    0  0.00000000000E+00  0.00000000000E+00 -0.27371830204E+02  0.33192810869E+04  0.33191682266E+04 0.  0.
        4    1    3    3  502    0 -0.75478123088E+03  0.14601076098E+04  0.21568813607E+03  0.16577490533E+04  0.12699999809E+01 0. -1.
       -4    1    3    3    0  502  0.75478123088E+03 -0.14601076098E+04 -0.24305996628E+03  0.16615320336E+04  0.12699999809E+01 0.  1.
</event>
<event>
 5   0  0.4811500E-07  0.3666692E+04  0.7818609E-02  0.8075384E-01
        1   -1    0    0  501    0  0.00000000000E+00  0.00000000000E+00  0.28518349748E+04  0.28518349748E+04  0.50400001928E-02 0.  1.
       -1   -1    0    0    0  501  0.00000000000E+00  0.00000000000E+00 -0.11785946845E+04  0.11785946845E+04  0.50400001928E-02 0. -1.
    10030    2    1    2    0    0  0.00000000000E+00  0.00000000000E+00  0.16732402903E+04  0.40304296593E+04  0.36666919927E+04 0.  0.
        2    1    3    3  502    0  0.21825430497E+03 -0.14379913135E+04  0.20634498213E+04  0.25245354275E+04  0.25500000920E-02 0.  1.
       -2    1    3    3    0  502 -0.21825430497E+03  0.14379913135E+04 -0.39020953106E+03  0.15058942318E+04  0.25500000920E-02 0. -1.
</event>
<event>
 5   0  0.4811500E-07  0.3662347E+04  0.7818609E-02  0.8076358E-01
        1   -1    0    0  501    0  0.00000000000E+00  0.00000000000E+00  0.17395666277E+04  0.17395666277E+04  0.50400001928E-02 0.  1.
       -1   -1    0    0    0  501  0.00000000000E+00  0.00000000000E+00 -0.19276040580E+04  0.19276040580E+04  0.50400001928E-02 0. -1.
    10030    2    1    2    0    0  0.00000000000E+00  0.00000000000E+00 -0.18803743033E+03  0.36671706857E+04  0.36623466197E+04 0.  0.
        2    1    3    3  502    0 -0.16781140435E+04 -0.72853963746E+03 -0.14170688384E+02  0.18294910644E+04  0.25500000920E-02 0.  1.
       -2    1    3    3    0  502  0.16781140435E+04  0.72853963746E+03 -0.17386674195E+03  0.18376796213E+04  0.25500000920E-02 0. -1.
</event>
<event>
 5   0  0.5071661E-07  0.3332736E+04  0.7818609E-02  0.8154615E-01
        1   -1    0    0  501    0  0.00000000000E+00  0.00000000000E+00  0.20891065908E+04  0.20891065908E+04  0.50400001928E-02 0.  1.
       -1   -1    0    0    0  501  0.00000000000E+00  0.00000000000E+00 -0.13291721608E+04  0.13291721608E+04  0.50400001928E-02 0. -1.
    10030    2    1    2    0    0  0.00000000000E+00  0.00000000000E+00  0.75993442994E+03  0.34182787516E+04  0.33327360061E+04 0.  0.
        1    1    3    3  502    0  0.10312106162E+04 -0.51178095577E+02 -0.96156805217E+03  0.14108960456E+04  0.50400001928E-02 0. -1.
       -1    1    3    3    0  502 -0.10312106162E+04  0.51178095577E+02  0.17215024821E+04  0.20073827060E+04  0.50400001928E-02 0.  1.
</event>
<event>
 5   0  0.1444091E-06  0.3531539E+04  0.7818609E-02  0.8106356E-01
        2   -1    0    0  501    0  0.00000000000E+00  0.00000000000E+00  0.22502107097E+04  0.22502107097E+04  0.25500000920E-02 0. -1.
       -2   -1    0    0    0  501  0.00000000000E+00  0.00000000000E+00 -0.13856218844E+04  0.13856218844E+04  0.25500000920E-02 0.  1.
    10030    2    1    2    0    0  0.00000000000E+00  0.00000000000E+00  0.86458882529E+03  0.36358325941E+04  0.35315385904E+04 0.  0.
        1    1    3    3  502    0 -0.46760176014E+03 -0.14413753038E+04  0.13655566841E+04  0.20398429425E+04  0.50400001928E-02 0. -1.
       -1    1    3    3    0  502  0.46760176014E+03  0.14413753038E+04 -0.50096785882E+03  0.15959896516E+04  0.50400001928E-02 0.  1.
</event>
<event>
 5   0  0.4811500E-07  0.2325903E+04  0.7818609E-02  0.8467777E-01
        1   -1    0    0  501    0  0.00000000000E+00  0.00000000000E+00  0.14673772475E+04  0.14673772475E+04  0.50400001928E-02 0. -1.
       -1   -1    0    0    0  501  0.00000000000E+00  0.00000000000E+00 -0.92168268444E+03  0.92168268446E+03  0.50400001928E-02 0.  1.
    10030    2    1    2    0    0  0.00000000000E+00  0.00000000000E+00  0.54569456308E+03  0.23890599320E+04  0.23259030080E+04 0.  0.
        2    1    3    3  502    0  0.35483729939E+02  0.82355516359E+03  0.11154602386E+04  0.13869945012E+04  0.25500000920E-02 0. -1.
       -2    1    3    3    0  502 -0.35483729939E+02 -0.82355516359E+03 -0.56976567550E+03  0.10020654308E+04  0.25500000920E-02 0.  1.
</event>
<event>
 5   0  0.4811500E-07  0.3654485E+04  0.7818609E-02  0.8078124E-01
       -3   -1    0    0    0  501  0.00000000000E+00  0.00000000000E+00  0.18280084321E+04  0.18280084348E+04  0.10100000352E+00 0. -1.
        3   -1    0    0  501    0  0.00000000000E+00  0.00000000000E+00 -0.18264765291E+04  0.18264765319E+04  0.10100000352E+00 0.  1.
    10030    2    1    2    0    0  0.00000000000E+00  0.00000000000E+00  0.15319029919E+01  0.36544849667E+04  0.36544846456E+04 0.  0.
        5    1    3    3  502    0  0.17932638344E+04 -0.34703985056E+03  0.51368115319E+02  0.18272636950E+04  0.46999998093E+01 0. -1.
       -5    1    3    3    0  502 -0.17932638344E+04  0.34703985056E+03 -0.49836212327E+02  0.18272212717E+04  0.46999998093E+01 0.  1.
</event>
<event>
 5   0  0.4811500E-07  0.3548067E+04  0.7818609E-02  0.8102492E-01
        1   -1    0    0  501    0  0.00000000000E+00  0.00000000000E+00  0.13033749515E+04  0.13033749515E+04  0.50400001928E-02 0. -1.
       -1   -1    0    0    0  501  0.00000000000E+00  0.00000000000E+00 -0.24146509332E+04  0.24146509332E+04  0.50400001928E-02 0.  1.
    10030    2    1    2    0    0  0.00000000000E+00  0.00000000000E+00 -0.11112759817E+04  0.37180258847E+04  0.35480673855E+04 0.  0.
        2    1    3    3  502    0  0.74772556888E+03 -0.14976072509E+04 -0.11713857306E+04  0.20430529935E+04  0.25500000920E-02 0. -1.
       -2    1    3    3    0  502 -0.74772556888E+03  0.14976072509E+04  0.60109748970E+02  0.16749728912E+04  0.25500000920E-02 0.  1.
</event>
<event>
 5   0  0.1491854E-06  0.3439888E+04  0.7818609E-02  0.8128185E-01
       -2   -1    0    0    0  501  0.00000000000E+00  0.00000000000E+00  0.10205854851E+04  0.10205854851E+04  0.25500000920E-02 0.  1.
        2   -1    0    0  501    0  0.00000000000E+00  0.00000000000E+00 -0.28985399555E+04  0.28985399555E+04  0.25500000920E-02 0. -1.
    10030    2    1    2    0    0  0.00000000000E+00  0.00000000000E+00 -0.18779544704E+04  0.39191254406E+04  0.34398882578E+04 0.  0.
        5    1    3    3  502    0  0.12431064406E+04 -0.84648780816E+03  0.11742553160E+02  0.15039997372E+04  0.46999998093E+01 0.  1.
       -5    1    3    3    0  502 -0.12431064406E+04  0.84648780816E+03 -0.18896970236E+04  0.24151257033E+04  0.46999998093E+01 0. -1.
</event>
<event>
 5   0  0.1379425E-06  0.3556671E+04  0.7818609E-02  0.8100490E-01
       -2   -1    0    0    0  501  0.00000000000E+00  0.00000000000E+00  0.13650225732E+04  0.13650225732E+04  0.25500000920E-02 0. -1.
        2   -1    0    0  501    0  0.00000000000E+00  0.00000000000E+00 -0.23167941705E+04  0.23167941705E+04  0.25500000920E-02 0.  1.
    10030    2    1    2    0    0  0.00000000000E+00  0.00000000000E+00 -0.95177159731E+03  0.36818167437E+04  0.35566705443E+04 0.  0.
        4    1    3    3  502    0 -0.12902592088E+04 -0.72225979251E+03  0.54682732161E+03  0.15765309278E+04  0.12699999809E+01 0. -1.
       -4    1    3    3    0  502  0.12902592088E+04  0.72225979251E+03 -0.14985989189E+04  0.21052858159E+04  0.12699999809E+01 0.  1.
</event>
<event>
 5   0  0.4811500E-07  0.3561166E+04  0.7818609E-02  0.8099446E-01
       -1   -1    0    0    0  501  0.00000000000E+00  0.00000000000E+00  0.16263187021E+04  0.16263187021E+04  0.50400001928E-02 0.  1.
        1   -1    0    0  501    0  0.00000000000E+00  0.00000000000E+00 -0.19494796966E+04  0.19494796966E+04  0.50400001928E-02 0. -1.
    10030    2    1    2    0    0  0.00000000000E+00  0.00000000000E+00 -0.32316099449E+03  0.35757983987E+04  0.35611657024E+04 0.  0.
        2    1    3    3  502    0 -0.15589389063E+04  0.78686513005E+03  0.18773982322E+03  0.17563295499E+04  0.25500000920E-02 0. -1.
       -2    1    3    3    0  502  0.15589389063E+04 -0.78686513005E+03 -0.51090081771E+03  0.18194688489E+04  0.25500000920E-02 0.  1.
</event>
<event>
 5   0  0.5071661E-07  0.3326577E+04  0.7818609E-02  0.8156165E-01
        1   -1    0    0  501    0  0.00000000000E+00  0.00000000000E+00  0.19905873075E+04  0.19905873075E+04  0.50400001928E-02 0. -1.
       -1   -1    0    0    0  501  0.00000000000E+00  0.00000000000E+00 -0.13898055989E+04  0.13898055989E+04  0.50400001928E-02 0.  1.
    10030    2    1    2    0    0  0.00000000000E+00  0.00000000000E+00  0.60078170866E+03  0.33803929064E+04  0.33265774514E+04 0.  0.
        1    1    3    3  502    0  0.12579758921E+04  0.38020468709E+03  0.13364286834E+04  0.18743266991E+04  0.50400001928E-02 0. -1.
       -1    1    3    3    0  502 -0.12579758921E+04 -0.38020468709E+03 -0.73564697477E+03  0.15060662073E+04  0.50400001928E-02 0.  1.
</event>
<event>
 5   0  0.4811500E-07  0.2820152E+04  0.7818609E-02  0.8297039E-01
       -1   -1    0    0    0  501  0.00000000000E+00  0.00000000000E+00  0.31643020543E+04  0.31643020543E+04  0.50400001928E-02 0.  1.
        1   -1    0    0  501    0  0.00000000000E+00  0.00000000000E+00 -0.62835772074E+03  0.62835772076E+03  0.50400001928E-02 0. -1.
    10030    2    1    2    0    0  0.00000000000E+00  0.00000000000E+00  0.25359443335E+04  0.37926597750E+04  0.28201515042E+04 0.  0.
        3    1    3    3  502    0 -0.13469454966E+04 -0.25925100040E+03  0.17075533822E+04  0.21902538244E+04  0.10100000352E+00 0.  1.
       -3    1    3    3    0  502  0.13469454966E+04  0.25925100040E+03  0.82839095136E+03  0.16024059506E+04  0.10100000352E+00 0. -1.
</event>
<event>
 5   0  0.1468942E-06  0.2676596E+04  0.7818609E-02  0.8342639E-01
       -2   -1    0    0    0  501  0.00000000000E+00  0.00000000000E+00  0.94631529698E+03  0.94631529698E+03  0.25500000920E-02 0.  1.
        2   -1    0    0  501    0  0.00000000000E+00  0.00000000000E+00 -0.18926478160E+04  0.18926478160E+04  0.25500000920E-02 0. -1.
    10030    2    1    2    0    0  0.00000000000E+00  0.00000000000E+00 -0.94633251898E+03  0.28389631129E+04  0.26765960323E+04 0.  0.
        2    1    3    3  502    0  0.61375548887E+02 -0.10276021475E+04  0.43387536024E+03  0.11171306816E+04  0.25500000920E-02 0.  1.
       -2    1    3    3    0  502 -0.61375548887E+02  0.10276021475E+04 -0.13802078792E+04  0.17218324313E+04  0.25500000920E-02 0. -1.
</event>
<event>
 5   0  0.5071661E-07  0.3516402E+04  0.7818609E-02  0.8109914E-01
       -1   -1    0    0    0  501  0.00000000000E+00  0.00000000000E+00  0.17124275055E+04  0.17124275055E+04  0.50400001928E-02 0. -1.
        1   -1    0    0  501    0  0.00000000000E+00  0.00000000000E+00 -0.18051975439E+04  0.18051975439E+04  0.50400001928E-02 0.  1.
    10030    2    1    2    0    0  0.00000000000E+00  0.00000000000E+00 -0.92770038442E+02  0.35176250495E+04  0.35164015283E+04 0.  0.
        1    1    3    3  502    0 -0.61906174109E+03  0.86268353650E+03 -0.14482325304E+04  0.17957833348E+04  0.50400001928E-02 0.  1.
       -1    1    3    3    0  502  0.61906174109E+03 -0.86268353650E+03  0.13554624919E+04  0.17218417147E+04  0.50400001928E-02 0. -1.
</event>
<event>
 5   0  0.1491854E-06  0.3614501E+04  0.7818609E-02  0.8087178E-01
        2   -1    0    0  501    0  0.00000000000E+00  0.00000000000E+00  0.18761206809E+04  0.18761206809E+04  0.25500000920E-02 0. -1.
       -2   -1    0    0    0  501  0.00000000000E+00  0.00000000000E+00 -0.17409084367E+04  0.17409084367E+04  0.25500000920E-02 0.  1.
    10030    2    1    2    0    0  0.00000000000E+00  0.00000000000E+00  0.13521224417E+03  0.36170291176E+04  0.36145009734E+04 0.  0.
        5    1    3    3  502    0 -0.54221713510E+03  0.15513336284E+04  0.82012730297E+03  0.18366454016E+04  0.46999998093E+01 0. -1.
       -5    1    3    3    0  502  0.54221713510E+03 -0.15513336284E+04 -0.68491505880E+03  0.17803837160E+04  0.46999998093E+01 0.  1.
</event>
<event>
 5   0  0.5071661E-07  0.3620731E+04  0.7818609E-02  0.8085760E-01
        1   -1    0    0  501    0  0.00000000000E+00  0.00000000000E+00  0.26106362100E+04  0.26106362100E+04  0.50400001928E-02 0. -1.
       -1   -1    0    0    0  501  0.00000000000E+00  0.00000000000E+00 -0.12554114262E+04  0.12554114262E+04  0.50400001928E-02 0.  1.
    10030    2    1    2    0    0  0.00000000000E+00  0.00000000000E+00  0.13552247837E+04  0.38660476362E+04  0.36207306046E+04 0.  0.
        1    1    3    3  502    0 -0.16127929737E+04 -0.69807879405E+03  0.21340683644E+03  0.17702987478E+04  0.50400001928E-02 0.  1.
       -1    1    3    3    0  502  0.16127929737E+04  0.69807879405E+03  0.11418179473E+04  0.20957488884E+04  0.50400001928E-02 0. -1.
</event>
<event>
 5   0  0.1468942E-06  0.3558029E+04  0.7818609E-02  0.8100174E-01
       -2   -1    0    0    0  501  0.00000000000E+00  0.00000000000E+00  0.13719041200E+04  0.13719041200E+04  0.25500000920E-02 0.  1.
        2   -1    0    0  501    0  0.00000000000E+00  0.00000000000E+00 -0.23069338022E+04  0.23069338022E+04  0.25500000920E-02 0. -1.
    10030    2    1    2    0    0  0.00000000000E+00  0.00000000000E+00 -0.93502968219E+03  0.36788379223E+04  0.35580286609E+04 0.  0.
        2    1    3    3  502    0 -0.94941816452E+03 -0.66862206188E+03 -0.18610307825E+04  0.21936011228E+04  0.25500000920E-02 0. -1.
       -2    1    3    3    0  502  0.94941816452E+03  0.66862206188E+03  0.92600110026E+03  0.14852367995E+04  0.25500000920E-02 0.  1.
</event>
<event>
 5   0  0.4811500E-07  0.3421348E+04  0.7818609E-02  0.8132687E-01
        1   -1    0    0  501    0  0.00000000000E+00  0.00000000000E+00  0.20073143138E+04  0.20073143138E+04  0.50400001928E-02 0.  1.
       -1   -1    0    0    0  501  0.00000000000E+00  0.00000000000E+00 -0.14578714695E+04  0.14578714695E+04  0.50400001928E-02 0. -1.
    10030    2    1    2    0    0  0.00000000000E+00  0.00000000000E+00  0.54944284430E+03  0.34651857833E+04  0.34213484292E+04 0.  0.
        5    1    3    3  502    0 -0.85120087457E+03 -0.12099833437E+04  0.11446690666E+04  0.18705325399E+04  0.46999998093E+01 0.  1.
       -5    1    3    3    0  502  0.85120087457E+03  0.12099833437E+04 -0.59522622227E+03  0.15946532434E+04  0.46999998093E+01 0. -1.
</event>
<event>
 5   0  0.1505671E-06  0.3628718E+04  0.7818609E-02  0.8083945E-01
       -2   -1    0    0    0  501  0.00000000000E+00  0.00000000000E+00  0.15807184303E+04  0.15807184303E+04  0.25500000920E-02 0.  1.
        2   -1    0    0  501    0  0.00000000000E+00  0.00000000000E+00 -0.20825336547E+04  0.20825336547E+04  0.25500000920E-02 0. -1.
    10030    2    1    2    0    0  0.00000000000E+00  0.00000000000E+00 -0.50181522438E+03  0.36632520851E+04  0.36287184128E+04 0.  0.
        3    1    3    3  502    0  0.12409157150E+04 -0.44563596060E+03 -0.15091381849E+04  0.20039863504E+04  0.10100000352E+00 0. -1.
       -3    1    3    3    0  502 -0.12409157150E+04  0.44563596060E+03  0.10073229606E+04  0.16592657347E+04  0.10100000352E+00 0.  1.
</event>
<event>
 5   0  0.5071661E-07  0.3602010E+04  0.7818609E-02  0.8090032E-01
       -1   -1    0    0    0  501  0.00000000000E+00  0.00000000000E+00  0.22904974971E+04  0.22904974971E+04  0.50400001928E-02 0. -1.
        1   -1    0    0  501    0  0.00000000000E+00  0.00000000000E+00 -0.14161194845E+04  0.14161194845E+04  0.50400001928E-02 0.  1.
    10030    2    1    2    0    0  0.00000000000E+00  0.00000000000E+00  0.87437801255E+03  0.37066169816E+04  0.36020095141E+04 0.  0.
        1    1    3    3  502    0 -0.33133374930E+03  0.11351192899E+04  0.18350728524E+04  0.21830644125E+04  0.50400001928E-02 0. -1.
       -1    1    3    3    0  502  0.33133374930E+03 -0.11351192899E+04 -0.96069483980E+03  0.15235525691E+04  0.50400001928E-02 0.  1.
</event>
<event>
 5   0  0.4811500E-07  0.3485183E+04  0.7818609E-02  0.8117310E-01
        1   -1    0    0  501    0  0.00000000000E+00  0.00000000000E+00  0.24314579060E+04  0.24314579060E+04  0.50400001928E-02 0. -1.
       -1   -1    0    0    0  501  0.00000000000E+00  0.00000000000E+00 -0.12488903836E+04  0.12488903836E+04  0.50400001928E-02 0.  1.
    10030    2    1    2    0    0  0.00000000000E+00  0.00000000000E+00  0.11825675224E+04  0.36803482897E+04  0.34851825760E+04 0.  0.
        2    1    3    3  502    0 -0.96989351065E+03 -0.13546155933E+04  0.11307198699E+04  0.20135054636E+04  0.25500000920E-02 0. -1.
       -2    1    3    3    0  502  0.96989351065E+03  0.13546155933E+04  0.51847652469E+02  0.16668428261E+04  0.25500000920E-02 0.  1.
</event>
<event>
 5   0  0.1505671E-06  0.3604979E+04  0.7818609E-02  0.8089352E-01
       -2   -1    0    0    0  501  0.00000000000E+00  0.00000000000E+00  0.11238938570E+04  0.11238938570E+04  0.25500000920E-02 0.  1.
        2   -1    0    0  501    0  0.00000000000E+00  0.00000000000E+00 -0.28908144107E+04  0.28908144107E+04  0.25500000920E-02 0. -1.
    10030    2    1    2    0    0  0.00000000000E+00  0.00000000000E+00 -0.17669205537E+04  0.40147082677E+04  0.36049790889E+04 0.  0.
        3    1    3    3  502    0  0.16778748615E+03 -0.14045225052E+03 -0.28759684976E+04  0.28842805489E+04  0.10100000352E+00 0. -1.
       -3    1    3    3    0  502 -0.16778748615E+03  0.14045225052E+03  0.11090479439E+04  0.11304277188E+04  0.10100000352E+00 0.  1.
</event>
<event>
 5   0  0.4811500E-07  0.3544353E+04  0.7818609E-02  0.8103358E-01
        1   -1    0    0  501    0  0.00000000000E+00  0.00000000000E+00  0.11484943153E+04  0.11484943153E+04  0.50400001928E-02 0.  1.
       -1   -1    0    0    0  501  0.00000000000E+00  0.00000000000E+00 -0.27345458972E+04  0.27345458972E+04  0.50400001928E-02 0. -1.
    10030    2    1    2    0    0  0.00000000000E+00  0.00000000000E+00 -0.15860515819E+04  0.38830402125E+04  0.35443534913E+04 0.  0.
        3    1    3    3  502    0  0.68752881949E+02 -0.14267611960E+04 -0.19421785717E+04  0.24108986051E+04  0.10100000352E+00 0. -1.
       -3    1    3    3    0  502 -0.68752881949E+02  0.14267611960E+04  0.35612698982E+03  0.14721416074E+04  0.10100000352E+00 0.  1.
</event>
<event>
 5   0  0.1444091E-06  0.3542946E+04  0.7818609E-02  0.8103687E-01
        2   -1    0    0  501    0  0.00000000000E+00  0.00000000000E+00  0.25008025788E+04  0.25008025788E+04  0.25500000920E-02 0. -1.
       -2   -1    0    0    0  501  0.00000000000E+00  0.00000000000E+00 -0.12548438426E+04  0.12548438426E+04  0.25500000920E-02 0.  1.
    10030    2    1    2    0    0  0.00000000000E+00  0.00000000000E+00  0.12459587362E+04  0.37556464214E+04  0.35429460722E+04 0.  0.
        1    1    3    3  502    0  0.16381374293E+04  0.60171916547E+03  0.94547488346E+03  0.19848130760E+04  0.50400001928E-02 0. -1.
       -1    1    3    3    0  502 -0.16381374293E+04 -0.60171916547E+03  0.30048385271E+03  0.17708333454E+04  0.50400001928E-02 0.  1.
</event>
<event>
 5   0  0.5071661E-07  0.3543017E+04  0.7818609E-02  0.8103670E-01
       -1   -1    0    0    0  501  0.00000000000E+00  0.00000000000E+00  0.31841498789E+04  0.31841498789E+04  0.50400001928E-02 0.  1.
        1   -1    0    0  501    0  0.00000000000E+00  0.00000000000E+00 -0.98558243309E+03  0.98558243310E+03  0.50400001928E-02 0. -1.
    10030    2    1    2    0    0  0.00000000000E+00  0.00000000000E+00  0.21985674458E+04  0.41697323120E+04  0.35430168980E+04 0.  0.
        1    1    3    3  502    0  0.57969270400E+03 -0.34659074636E+03  0.30266767416E+04  0.31011192939E+04  0.50400001928E-02 0.  1.
       -1    1    3    3    0  502 -0.57969270400E+03  0.34659074636E+03 -0.82810929585E+03  0.10686130181E+04  0.50400001928E-02 0. -1.
</event>
<event>
 5   0  0.1468942E-06  0.3563840E+04  0.7818609E-02  0.8098825E-01
        2   -1    0    0  501    0  0.00000000000E+00  0.00000000000E+00  0.13898801608E+04  0.13898801608E+04  0.25500000920E-02 0.  1.
       -2   -1    0    0    0  501  0.00000000000E+00  0.00000000000E+00 -0.22845420859E+04  0.22845420859E+04  0.25500000920E-02 0. -1.
    10030    2    1    2    0    0  0.00000000000E+00  0.00000000000E+00 -0.89466192511E+03  0.36744222466E+04  0.35638404687E+04 0.  0.
        2    1    3    3  502    0 -0.15639935569E+04  0.80804795073E+03 -0.73198154275E+03  0.19065188999E+04  0.25500000920E-02 0. -1.
       -2    1    3    3    0  502  0.15639935569E+04 -0.80804795073E+03 -0.16268038237E+03  0.17679033467E+04  0.25500000920E-02 0.  1.
</event>
<event>
 5   0  0.4811500E-07  0.3638733E+04  0.7818609E-02  0.8081677E-01
       -1   -1    0    0    0  501  0.00000000000E+00  0.00000000000E+00  0.19040691125E+04  0.19040691125E+04  0.50400001928E-02 0.  1.
        1   -1    0    0  501    0  0.00000000000E+00  0.00000000000E+00 -0.17384321483E+04  0.17384321483E+04  0.50400001928E-02 0. -1.
    10030    2    1    2    0    0  0.00000000000E+00  0.00000000000E+00  0.16563696421E+03  0.36425012609E+04  0.36387332729E+04 0.  0.
        3    1    3    3  502    0  0.62709288017E+03 -0.10417894661E+04  0.14375580535E+04  0.18828552625E+04  0.10100000352E+00 0.  1.
       -3    1    3    3    0  502 -0.62709288017E+03  0.10417894661E+04 -0.12719210893E+04  0.17596459984E+04  0.10100000352E+00 0. -1.
</event>
<event>
 5   0  0.1379425E-06  0.3566428E+04  0.7818609E-02  0.8098225E-01
        2   -1    0    0  501    0  0.00000000000E+00  0.00000000000E+00  0.27013775556E+04  0.27013775556E+04  0.25500000920E-02 0.  1.
       -2   -1    0    0    0  501  0.00000000000E+00  0.00000000000E+00 -0.11771222215E+04  0.11771222215E+04  0.25500000920E-02 0. -1.
    10030    2    1    2    0    0  0.00000000000E+00  0.00000000000E+00  0.15242553341E+04  0.38784997771E+04  0.35664276521E+04 0.  0.
        4    1    3    3  502    0 -0.15454399679E+04 -0.53028122385E+03  0.15389632705E+04  0.22445472665E+04  0.12699999809E+01 0. -1.
       -4    1    3    3    0  502  0.15454399679E+04  0.53028122385E+03 -0.14707936397E+02  0.16339525106E+04  0.12699999809E+01 0.  1.
</event>
<event>
 5   0  0.1444091E-06  0.3427541E+04  0.7818609E-02  0.8131180E-01
        2   -1    0    0  501    0  0.00000000000E+00  0.00000000000E+00  0.22939793307E+04  0.22939793307E+04  0.25500000920E-02 0.  1.
       -2   -1    0    0    0  501  0.00000000000E+00  0.00000000000E+00 -0.12803119608E+04  0.12803119608E+04  0.25500000920E-02 0. -1.
    10030    2    1    2    0    0  0.00000000000E+00  0.00000000000E+00  0.10136673699E+04  0.35742912915E+04  0.34275409115E+04 0.  0.
        1    1    3    3  502    0  0.54429216473E+03  0.16233016986E+04  0.42847107817E+03  0.17649220464E+04  0.50400001928E-02 0. -1.
       -1    1    3    3    0  502 -0.54429216473E+03 -0.16233016986E+04  0.58519629177E+03  0.18093692451E+04  0.50400001928E-02 0.  1.
</event>
<event>
 5   0  0.4811500E-07  0.2616853E+04  0.7818609E-02  0.8362499E-01
        1   -1    0    0  501    0  0.00000000000E+00  0.00000000000E+00  0.18690854042E+04  0.18690854042E+04  0.50400001928E-02 0.  1.
       -1   -1    0    0    0  501  0.00000000000E+00  0.00000000000E+00 -0.91594531804E+03  0.91594531806E+03  0.50400001928E-02 0. -1.
    10030    2    1    2    0    0  0.00000000000E+00  0.00000000000E+00  0.95314008617E+03  0.27850307223E+04  0.26168530911E+04 0.  0.
        3    1    3    3  502    0 -0.45490623934E+03  0.62466892989E+03 -0.64714135955E+03  0.10079399327E+04  0.10100000352E+00 0. -1.
       -3    1    3    3    0  502  0.45490623934E+03 -0.62466892989E+03  0.16002814457E+04  0.17770907895E+04  0.10100000352E+00 0.  1.
</event>
<event>
 5   0  0.4811500E-07  0.3554863E+04  0.7818609E-02  0.8100910E-01
        1   -1    0    0  501    0  0.00000000000E+00  0.00000000000E+00  0.26382269264E+04  0.26382269264E+04  0.50400001928E-02 0.  1.
       -1   -1    0    0    0  501  0.00000000000E+00  0.00000000000E+00 -0.11974947759E+04  0.11974947759E+04  0.50400001928E-02 0. -1.
    10030    2    1    2    0    0  0.00000000000E+00  0.00000000000E+00  0.14407321505E+04  0.38357217022E+04  0.35548631264E+04 0.  0.
        5    1    3    3  502    0 -0.65661727094E+03  0.79742795281E+03  0.22810902111E+04  0.25040831100E+04  0.46999998093E+01 0.  1.
       -5    1    3    3    0  502  0.65661727094E+03 -0.79742795281E+03 -0.84035806061E+03  0.13316385923E+04  0.46999998093E+01 0. -1.
</event>
<event>
 5   0  0.4811500E-07  0.2494444E+04  0.7818609E-02  0.8404967E-01
        1   -1    0    0  501    0  0.00000000000E+00  0.00000000000E+00  0.21021954174E+04  0.21021954174E+04  0.50400001928E-02 0. -1.
       -1   -1    0    0    0  501  0.00000000000E+00  0.00000000000E+00 -0.73997084230E+03  0.73997084232E+03  0.50400001928E-02 0.  1.
    10030    2    1    2    0    0  0.00000000000E+00  0.00000000000E+00  0.13622245751E+04  0.28421662597E+04  0.24944444782E+04 0.  0.
        3    1    3    3  502    0  0.12314583758E+04 -0.19354339249E+03  0.63532990744E+03  0.13991400493E+04  0.10100000352E+00 0.  1.
       -3    1    3    3    0  502 -0.12314583758E+04  0.19354339249E+03  0.72689466767E+03  0.14430262105E+04  0.10100000352E+00 0. -1.
</event>
<event>
 5   0  0.4811500E-07  0.3607125E+04  0.7818609E-02  0.8088862E-01
       -1   -1    0    0    0  501  0.00000000000E+00  0.00000000000E+00  0.18335666838E+04  0.18335666838E+04  0.50400001928E-02 0. -1.
        1   -1    0    0  501    0  0.00000000000E+00  0.00000000000E+00 -0.17740492805E+04  0.17740492806E+04  0.50400001928E-02 0.  1.
    10030    2    1    2    0    0  0.00000000000E+00  0.00000000000E+00  0.59517403225E+02  0.36076159643E+04  0.36071249805E+04 0.  0.
        5    1    3    3  502    0 -0.10766228965E+04  0.60370380266E+03  0.13449435581E+04  0.18255055210E+04  0.46999998093E+01 0. -1.
       -5    1    3    3    0  502  0.10766228965E+04 -0.60370380266E+03 -0.12854261549E+04  0.17821104433E+04  0.46999998093E+01 0.  1.
</event>
<event>
 5   0  0.1468942E-06  0.3727976E+04  0.7818609E-02  0.8061790E-01
        2   -1    0    0  501    0  0.00000000000E+00  0.00000000000E+00  0.16971771035E+04  0.16971771035E+04  0.25500000920E-02 0.  1.
       -2   -1    0    0    0  501  0.00000000000E+00  0.00000000000E+00 -0.20471937841E+04  0.20471937841E+04  0.25500000920E-02 0. -1.
    10030    2    1    2    0    0  0.00000000000E+00  0.00000000000E+00 -0.35001668060E+03  0.37443708876E+04  0.37279755454E+04 0.  0.
        2    1    3    3  502    0 -0.30299170077E+03  0.17414470577E+04  0.41920877605E+03  0.18166391561E+04  0.25500000920E-02 0.  1.
       -2    1    3    3    0  502  0.30299170077E+03 -0.17414470577E+04 -0.76922545665E+03  0.19277317315E+04  0.25500000920E-02 0. -1.
</event>
<event>
 5   0  0.4811500E-07  0.3224787E+04  0.7818609E-02  0.8182302E-01
       -1   -1    0    0    0  501  0.00000000000E+00  0.00000000000E+00  0.11197950435E+04  0.11197950435E+04  0.50400001928E-02 0. -1.
        1   -1    0    0  501    0  0.00000000000E+00  0.00000000000E+00 -0.23216859540E+04  0.23216859540E+04  0.50400001928E-02 0.  1.
    10030    2    1    2    0    0  0.00000000000E+00  0.00000000000E+00 -0.12018909105E+04  0.34414809975E+04  0.32247867674E+04 0.  0.
        3    1    3    3  502    0  0.15216290386E+04 -0.25757343069E+03 -0.10253682138E+03  0.15466779927E+04  0.10100000352E+00 0. -1.
       -3    1    3    3    0  502 -0.15216290386E+04  0.25757343069E+03 -0.10993540891E+04  0.18948030047E+04  0.10100000352E+00 0.  1.
</event>
<event>
 5   0  0.1444091E-06  0.3077757E+04  0.7818609E-02  0.8221869E-01
       -2   -1    0    0    0  501  0.00000000000E+00  0.00000000000E+00  0.10853248293E+04  0.10853248293E+04  0.25500000920E-02 0. -1.
        2   -1    0    0  501    0  0.00000000000E+00  0.00000000000E+00 -0.21819706722E+04  0.21819706722E+04  0.25500000920E-02 0.  1.
    10030    2    1    2    0    0  0.00000000000E+00  0.00000000000E+00 -0.10966458429E+04  0.32672955015E+04  0.30777569412E+04 0.  0.
        1    1    3    3  502    0  0.34278970416E+03  0.17780536028E+03 -0.21296999641E+04  0.21644263592E+04  0.50400001928E-02 0.  1.
       -1    1    3    3    0  502 -0.34278970416E+03 -0.17780536028E+03  0.10330541212E+04  0.11028691422E+04  0.50400001928E-02 0. -1.
</event>
<event>
 5   0  0.1379425E-06  0.3239550E+04  0.7818609E-02  0.8178449E-01
       -2   -1    0    0    0  501  0.00000000000E+00  0.00000000000E+00  0.13610956958E+04  0.13610956958E+04  0.25500000920E-02 0.  1.
        2   -1    0    0  501    0  0.00000000000E+00  0.00000000000E+00 -0.19276173706E+04  0.19276173706E+04  0.25500000920E-02 0. -1.
    10030    2    1    2    0    0  0.00000000000E+00  0.00000000000E+00 -0.56652167472E+03  0.32887130664E+04  0.32395504048E+04 0.  0.
        4    1    3    3  502    0  0.46446423494E+03  0.11484224137E+04  0.77616106146E+03  0.14618579521E+04  0.12699999809E+01 0.  1.
       -4    1    3    3    0  502 -0.46446423494E+03 -0.11484224137E+04 -0.13426827362E+04  0.18268551143E+04  0.12699999809E+01 0. -1.
</event>
<event>
 5   0  0.4811500E-07  0.3554010E+04  0.7818609E-02  0.8101108E-01
        1   -1    0    0  501    0  0.00000000000E+00  0.00000000000E+00  0.24466105664E+04  0.24466105664E+04  0.50400001928E-02 0.  1.
       -1   -1    0    0    0  501  0.00000000000E+00  0.00000000000E+00 -0.12906614939E+04  0.12906614939E+04  0.50400001928E-02 0. -1.
    10030    2    1    2    0    0  0.00000000000E+00  0.00000000000E+00  0.11559490725E+04  0.37372720604E+04  0.35540095941E+04 0.  0.
        3    1    3    3  502    0  0.58770906466E+02 -0.12319534241E+04 -0.76728198774E+03  0.14525442911E+04  0.10100000352E+00 0. -1.
       -3    1    3    3    0  502 -0.58770906466E+02  0.12319534241E+04  0.19232310602E+04  0.22847277693E+04  0.10100000352E+00 0.  1.
</event>
<event>
 5   0  0.1505671E-06  0.3544023E+04  0.7818609E-02  0.8103436E-01
       -2   -1    0    0    0  501  0.00000000000E+00  0.00000000000E+00  0.23142323941E+04  0.23142323941E+04  0.25500000920E-02 0. -1.
        2   -1    0    0  501    0  0.00000000000E+00  0.00000000000E+00 -0.13568322483E+04  0.13568322483E+04  0.25500000920E-02 0.  1.
    10030    2    1    2    0    0  0.00000000000E+00  0.00000000000E+00  0.95740014583E+03  0.36710646424E+04  0.35440232179E+04 0.  0.
        3    1    3    3  502    0 -0.34274278113E+03  0.20600813125E+03 -0.13094824738E+04  0.13691808951E+04  0.10100000352E+00 0.  1.
       -3    1    3    3    0  502  0.34274278113E+03 -0.20600813125E+03  0.22668826197E+04  0.23018837472E+04  0.10100000352E+00 0. -1.
</event>
<event>
 5   0  0.1444091E-06  0.3435085E+04  0.7818609E-02  0.8129349E-01
        2   -1    0    0  501    0  0.00000000000E+00  0.00000000000E+00  0.27851746746E+04  0.27851746746E+04  0.25500000920E-02 0.  1.
       -2   -1    0    0    0  501  0.00000000000E+00  0.00000000000E+00 -0.10591624876E+04  0.10591624876E+04  0.25500000920E-02 0. -1.
    10030    2    1    2    0    0  0.00000000000E+00  0.00000000000E+00  0.17260121871E+04  0.38443371622E+04  0.34350851732E+04 0.  0.
        1    1    3    3  502    0  0.73842301904E+03 -0.52550581526E+03 -0.76975861581E+03  0.11890976594E+04  0.50400001928E-02 0. -1.
       -1    1    3    3    0  502 -0.73842301904E+03  0.52550581526E+03  0.24957708029E+04  0.26552395028E+04  0.50400001928E-02 0.  1.
</event>
<event>
 5   0  0.4811500E-07  0.3610292E+04  0.7818609E-02  0.8088138E-01
        1   -1    0    0  501    0  0.00000000000E+00  0.00000000000E+00  0.26142128687E+04  0.26142128688E+04  0.50400001928E-02 0.  1.
       -1   -1    0    0    0  501  0.00000000000E+00  0.00000000000E+00 -0.12464757341E+04  0.12464757341E+04  0.50400001928E-02 0. -1.
    10030    2    1    2    0    0  0.00000000000E+00  0.00000000000E+00  0.13677371346E+04  0.38606886029E+04  0.36102924561E+04 0.  0.
        2    1    3    3  502    0 -0.26780168096E+03  0.24223606746E+03  0.25751956886E+04  0.26003901413E+04  0.25500000920E-02 0.  1.
       -2    1    3    3    0  502  0.26780168096E+03 -0.24223606746E+03 -0.12074585539E+04  0.12602984615E+04  0.25500000920E-02 0. -1.
</event>
<event>
 5   0  0.4811500E-07  0.3642504E+04  0.7818609E-02  0.8080824E-01
       -1   -1    0    0    0  501  0.00000000000E+00  0.00000000000E+00  0.10585083065E+04  0.10585083065E+04  0.50400001928E-02 0. -1.
        1   -1    0    0  501    0  0.00000000000E+00  0.00000000000E+00 -0.31336158633E+04  0.31336158633E+04  0.50400001928E-02 0.  1.
    10030    2    1    2    0    0  0.00000000000E+00  0.00000000000E+00 -0.20751075568E+04  0.41921241697E+04  0.36425037656E+04 0.  0.
        5    1    3    3  502    0  0.80417551071E+03  0.61211750684E+03  0.70616935473E+03  0.12329165997E+04  0.46999998093E+01 0. -1.
       -5    1    3    3    0  502 -0.80417551071E+03 -0.61211750684E+03 -0.27812769115E+04  0.29592075701E+04  0.46999998093E+01 0.  1.
</event>
<event>
 5   0  0.5071661E-07  0.3043481E+04  0.7818609E-02  0.8231423E-01
       -1   -1    0    0    0  501  0.00000000000E+00  0.00000000000E+00  0.97459660465E+03  0.97459660466E+03  0.50400001928E-02 0.  1.
        1   -1    0    0  501    0  0.00000000000E+00  0.00000000000E+00 -0.23760536841E+04  0.23760536841E+04  0.50400001928E-02 0. -1.
    10030    2    1    2    0    0  0.00000000000E+00  0.00000000000E+00 -0.14014570794E+04  0.33506502887E+04  0.30434808053E+04 0.  0.
        1    1    3    3  502    0 -0.25324987731E+02  0.11312621593E+04 -0.18209175610E+04  0.21438601149E+04  0.50400001928E-02 0. -1.
       -1    1    3    3    0  502  0.25324987731E+02 -0.11312621593E+04  0.41946048158E+03  0.12067901739E+04  0.50400001928E-02 0.  1.
</event>
<event>
 5   0  0.1491854E-06  0.2488999E+04  0.7818609E-02  0.8406915E-01
        2   -1    0    0  501    0  0.00000000000E+00  0.00000000000E+00  0.15661045620E+04  0.15661045620E+04  0.25500000920E-02 0. -1.
       -2   -1    0    0    0  501  0.00000000000E+00  0.00000000000E+00 -0.98893707046E+03  0.98893707046E+03  0.25500000920E-02 0.  1.
    10030    2    1    2    0    0  0.00000000000E+00  0.00000000000E+00  0.57716749157E+03  0.25550416325E+04  0.24889988812E+04 0.  0.
        5    1    3    3  502    0 -0.88274786095E+03  0.78869973419E+03  0.68278572822E+03  0.13665685118E+04  0.46999998093E+01 0.  1.
       -5    1    3    3    0  502  0.88274786095E+03 -0.78869973419E+03 -0.10561823666E+03  0.11884731207E+04  0.46999998093E+01 0. -1.
</event>
<event>
 5   0  0.1505671E-06  0.2531535E+04  0.7818609E-02  0.8391836E-01
       -2   -1    0    0    0  501  0.00000000000E+00  0.00000000000E+00  0.16662659984E+04  0.16662659984E+04  0.25500000920E-02 0.  1.
        2   -1    0    0  501    0  0.00000000000E+00  0.00000000000E+00 -0.96153160824E+03  0.96153160825E+03  0.25500000920E-02 0. -1.
    10030    2    1    2    0    0  0.00000000000E+00  0.00000000000E+00  0.70473439017E+03  0.26277976067E+04  0.25315350483E+04 0.  0.
        3    1    3    3  502    0 -0.34952853432E+03 -0.12017196911E+04  0.15577987070E+03  0.12611771448E+04  0.10100000352E+00 0. -1.
       -3    1    3    3    0  502  0.34952853432E+03  0.12017196911E+04  0.54895451946E+03  0.13666204619E+04  0.10100000352E+00 0.  1.
</event>
<event>
 5   0  0.1379425E-06  0.3638262E+04  0.7818609E-02  0.8081783E-01
       -2   -1    0    0    0  501  0.00000000000E+00  0.00000000000E+00  0.11299449549E+04  0.11299449549E+04  0.25500000920E-02 0. -1.
        2   -1    0    0  501    0  0.00000000000E+00  0.00000000000E+00 -0.29286707455E+04  0.29286707455E+04  0.25500000920E-02 0.  1.
    10030    2    1    2    0    0  0.00000000000E+00  0.00000000000E+00 -0.17987257906E+04  0.40586157004E+04  0.36382615263E+04 0.  0.
        4    1    3    3  502    0  0.12677628295E+04 -0.97268838424E+03 -0.18692323237E+04  0.24591413903E+04  0.12699999809E+01 0.  1.
       -4    1    3    3    0  502 -0.12677628295E+04  0.97268838424E+03  0.70506533149E+02  0.15994743101E+04  0.12699999809E+01 0. -1.
</event>
<event>
 5   0  0.1505671E-06  0.3350479E+04  0.7818609E-02  0.8150169E-01
       -2   -1    0    0    0  501  0.00000000000E+00  0.00000000000E+00  0.13509578751E+04  0.13509578751E+04  0.25500000920E-02 0.  1.
        2   -1    0    0  501    0  0.00000000000E+00  0.00000000000E+00 -0.20773606490E+04  0.20773606490E+04  0.25500000920E-02 0. -1.
    10030    2    1    2    0    0  0.00000000000E+00  0.00000000000E+00 -0.72640277391E+03  0.34283185242E+04  0.33504786096E+04 0.  0.
        3    1    3    3  502    0 -0.86974929734E+03 -0.13408112481E+04 -0.87705165686E+03  0.18230354528E+04  0.10100000352E+00 0. -1.
       -3    1    3    3    0  502  0.86974929734E+03  0.13408112481E+04  0.15064888295E+03  0.16052830714E+04  0.10100000352E+00 0.  1.
</event>
<event>
 5   0  0.4811500E-07  0.3610950E+04  0.7818609E-02  0.8087988E-01
        1   -1    0    0  501    0  0.00000000000E+00  0.00000000000E+00  0.15276306654E+04  0.15276306654E+04  0.50400001928E-02 0.  1.
       -1   -1    0    0    0  501  0.00000000000E+00  0.00000000000E+00 -0.21338528896E+04  0.21338528896E+04  0.50400001928E-02 0. -1.
    10030    2    1    2    0    0  0.00000000000E+00  0.00000000000E+00 -0.60622222422E+03  0.36614835550E+04  0.36109495203E+04 0.  0.
        5    1    3    3  502    0 -0.52095523741E+03 -0.99616566585E+03 -0.17356730112E+04  0.20679272920E+04  0.46999998093E+01 0. -1.
       -5    1    3    3    0  502  0.52095523741E+03  0.99616566585E+03  0.11294507869E+04  0.15935562630E+04  0.46999998093E+01 0.  1.
</event>
<event>
 5   0  0.4811500E-07  0.3570278E+04  0.7818609E-02  0.8097334E-01
        1   -1    0    0  501    0  0.00000000000E+00  0.00000000000E+00  0.19051603556E+04  0.19051603556E+04  0.50400001928E-02 0. -1.
       -1   -1    0    0    0  501  0.00000000000E+00  0.00000000000E+00 -0.16726787977E+04  0.16726787977E+04  0.50400001928E-02 0.  1.
    10030    2    1    2    0    0  0.00000000000E+00  0.00000000000E+00  0.23248155787E+03  0.35778391533E+04  0.35702780469E+04 0.  0.
        4    1    3    3  502    0  0.14739889205E+04 -0.80171665456E+03 -0.49441562158E+03  0.17492402212E+04  0.12699999809E+01 0. -1.
       -4    1    3    3    0  502 -0.14739889205E+04  0.80171665456E+03  0.72689717946E+03  0.18285989320E+04  0.12699999809E+01 0.  1.
</event>
<event>
 5   0  0.4811500E-07  0.3410080E+04  0.7818609E-02  0.8135437E-01
        1   -1    0    0  501    0  0.00000000000E+00  0.00000000000E+00  0.16398932337E+04  0.16398932337E+04  0.50400001928E-02 0. -1.
       -1   -1    0    0    0  501  0.00000000000E+00  0.00000000000E+00 -0.17727750479E+04  0.17727750479E+04  0.50400001928E-02 0.  1.
    10030    2    1    2    0    0  0.00000000000E+00  0.00000000000E+00 -0.13288181420E+03  0.34126682815E+04  0.34100802371E+04 0.  0.
        5    1    3    3  502    0 -0.72114107567E+03 -0.88660806816E+03  0.11998341330E+04  0.16570281694E+04  0.46999998093E+01 0. -1.
       -5    1    3    3    0  502  0.72114107567E+03  0.88660806816E+03 -0.13327159472E+04  0.17556401121E+04  0.46999998093E+01 0.  1.
</event>
<event>
 5   0  0.4811500E-07  0.3605262E+04  0.7818609E-02  0.8089287E-01
       -1   -1    0    0    0  501  0.00000000000E+00  0.00000000000E+00  0.12133926137E+04  0.12133926137E+04  0.50400001928E-02 0. -1.
        1   -1    0    0  501    0  0.00000000000E+00  0.00000000000E+00 -0.26780107460E+04  0.26780107460E+04  0.50400001928E-02 0.  1.
    10030    2    1    2    0    0  0.00000000000E+00  0.00000000000E+00 -0.14646181323E+04  0.38914033597E+04  0.36052619647E+04 0.  0.
        4    1    3    3  502    0 -0.95397900664E+03  0.12395274198E+04 -0.16995169021E+04  0.23097323401E+04  0.12699999809E+01 0.  1.
       -4    1    3    3    0  502  0.95397900664E+03 -0.12395274198E+04  0.23489876974E+03  0.15816710196E+04  0.12699999809E+01 0. -1.
</event>
<event>
 5   0  0.1505671E-06  0.3448215E+04  0.7818609E-02  0.8126173E-01
        2   -1    0    0  501    0  0.00000000000E+00  0.00000000000E+00  0.21216459788E+04  0.21216459788E+04  0.25500000920E-02 0. -1.
       -2   -1    0    0    0  501  0.00000000000E+00  0.00000000000E+00 -0.14010569776E+04  0.14010569776E+04  0.25500000920E-02 0.  1.
    10030    2    1    2    0    0  0.00000000000E+00  0.00000000000E+00  0.72058900121E+03  0.35227029564E+04  0.34482151340E+04 0.  0.
        3    1    3    3  502    0  0.11187797226E+04  0.72135927322E+03  0.14796455273E+04  0.19903211212E+04  0.10100000352E+00 0. -1.
       -3    1    3    3    0  502 -0.11187797226E+04 -0.72135927322E+03 -0.75905652612E+03  0.15323818352E+04  0.10100000352E+00 0.  1.
</event>
<event>
 5   0  0.4811500E-07  0.3634875E+04  0.7818609E-02  0.8082550E-01
        1   -1    0    0  501    0  0.00000000000E+00  0.00000000000E+00  0.22134815596E+04  0.22134815596E+04  0.50400001928E-02 0. -1.
       -1   -1    0    0    0  501  0.00000000000E+00  0.00000000000E+00 -0.14922552352E+04  0.14922552352E+04  0.50400001928E-02 0.  1.
    10030    2    1    2    0    0  0.00000000000E+00  0.00000000000E+00  0.72122632447E+03  0.37057367948E+04  0.36348752085E+04 0.  0.
        3    1    3    3  502    0 -0.13976258423E+04 -0.88674769530E+03 -0.40461945339E+03  0.17039355570E+04  0.10100000352E+00 0.  1.
       -3    1    3    3    0  502  0.13976258423E+04  0.88674769530E+03  0.11258457779E+04  0.20018012378E+04  0.10100000352E+00 0. -1.
</event>
<event>
 5   0  0.1491854E-06  0.3547562E+04  0.7818609E-02  0.8102610E-01
        2   -1    0    0  501    0  0.00000000000E+00  0.00000000000E+00  0.21942307430E+04  0.21942307430E+04  0.25500000920E-02 0. -1.
       -2   -1    0    0    0  501  0.00000000000E+00  0.00000000000E+00 -0.14338959850E+04  0.14338959850E+04  0.25500000920E-02 0.  1.
    10030    2    1    2    0    0  0.00000000000E+00  0.00000000000E+00  0.76033475794E+03  0.36281267280E+04  0.35475617838E+04 0.  0.
        5    1    3    3  502    0 -0.33971706889E+03 -0.17371020087E+04  0.49831356111E+03  0.18388228764E+04  0.46999998093E+01 0. -1.
       -5    1    3    3    0  502  0.33971706889E+03  0.17371020087E+04  0.26202119684E+03  0.17893038516E+04  0.46999998093E+01 0.  1.
</event>
<event>
 5   0  0.1505671E-06  0.3584572E+04  0.7818609E-02  0.8094035E-01
        2   -1    0    0  501    0  0.00000000000E+00  0.00000000000E+00  0.24099870684E+04  0.24099870684E+04  0.25500000920E-02 0. -1.
       -2   -1    0    0    0  501  0.00000000000E+00  0.00000000000E+00 -0.13329069281E+04  0.13329069281E+04  0.25500000920E-02 0.  1.
    10030    2    1    2    0    0  0.00000000000E+00  0.00000000000E+00  0.10770801404E+04  0.37428939965E+04  0.35845716397E+04 0.  0.
        3    1    3    3  502    0 -0.77966173283E+02  0.43176673332E+03  0.23530461764E+04  0.23936013776E+04  0.10100000352E+00 0. -1.
       -3    1    3    3    0  502  0.77966173283E+02 -0.43176673332E+03 -0.12759660360E+04  0.13492926189E+04  0.10100000352E+00 0.  1.
</event>
<event>
 5   0  0.4811500E-07  0.2429250E+04  0.7818609E-02  0.8428633E-01
       -1   -1    0    0    0  501  0.00000000000E+00  0.00000000000E+00  0.13575095731E+04  0.13575095731E+04  0.50400001928E-02 0. -1.
        1   -1    0    0  501    0  0.00000000000E+00  0.00000000000E+00 -0.10867798708E+04  0.10867798708E+04  0.50400001928E-02 0.  1.
    10030    2    1    2    0    0  0.00000000000E+00  0.00000000000E+00  0.27072970233E+03  0.24442894439E+04  0.24292501546E+04 0.  0.
        3    1    3    3  502    0  0.19349336287E+03 -0.19945002414E+03 -0.10543656362E+04  0.10903700741E+04  0.10100000352E+00 0.  1.
       -3    1    3    3    0  502 -0.19349336287E+03  0.19945002414E+03  0.13250953385E+04  0.13539193698E+04  0.10100000352E+00 0. -1.
</event>
<event>
 5   0  0.1379425E-06  0.3574101E+04  0.7818609E-02  0.8096450E-01
        2   -1    0    0  501    0  0.00000000000E+00  0.00000000000E+00  0.28795113206E+04  0.28795113206E+04  0.25500000920E-02 0. -1.
       -2   -1    0    0    0  501  0.00000000000E+00  0.00000000000E+00 -0.11090596587E+04  0.11090596587E+04  0.25500000920E-02 0.  1.
    10030    2    1    2    0    0  0.00000000000E+00  0.00000000000E+00  0.17704516619E+04  0.39885709793E+04  0.35741011975E+04 0.  0.
        4    1    3    3  502    0  0.51574062102E+03  0.98579397639E+03  0.24458897091E+04  0.26870348405E+04  0.12699999809E+01 0. -1.
       -4    1    3    3    0  502 -0.51574062102E+03 -0.98579397639E+03 -0.67543804725E+03  0.13015361388E+04  0.12699999809E+01 0.  1.
</event>
<event>
 5   0  0.1491854E-06  0.3324905E+04  0.7818609E-02  0.8156587E-01
       -2   -1    0    0    0  501  0.00000000000E+00  0.00000000000E+00  0.95936019952E+03  0.95936019952E+03  0.25500000920E-02 0. -1.
        2   -1    0    0  501    0  0.00000000000E+00  0.00000000000E+00 -0.28808246998E+04  0.28808246998E+04  0.25500000920E-02 0.  1.
    10030    2    1    2    0    0  0.00000000000E+00  0.00000000000E+00 -0.19214645002E+04  0.38401848993E+04  0.33249051468E+04 0.  0.
        5    1    3    3  502    0 -0.82542861600E+03  0.85347119000E+03  0.38320552067E+03  0.12476433919E+04  0.46999998093E+01 0. -1.
       -5    1    3    3    0  502  0.82542861600E+03 -0.85347119000E+03 -0.23046700209E+04  0.25925415074E+04  0.46999998093E+01 0.  1.
</event>
<event>
 5   0  0.4811500E-07  0.2855000E+04  0.7818609E-02  0.8286394E-01
        1   -1    0    0  501    0  0.00000000000E+00  0.00000000000E+00  0.14965104214E+04  0.14965104215E+04  0.50400001928E-02 0. -1.
       -1   -1    0    0    0  501  0.00000000000E+00  0.00000000000E+00 -0.13616715889E+04  0.13616715889E+04  0.50400001928E-02 0.  1.
    10030    2    1    2    0    0  0.00000000000E+00  0.00000000000E+00  0.13483883255E+03  0.28581820104E+04  0.28549996311E+04 0.  0.
        2    1    3    3  502    0 -0.79674457241E+03  0.11230835489E+04  0.44418603509E+03  0.14468655104E+04  0.25500000920E-02 0. -1.
       -2    1    3    3    0  502  0.79674457241E+03 -0.11230835489E+04 -0.30934720254E+03  0.14113165000E+04  0.25500000920E-02 0.  1.
</event>
<event>
 5   0  0.4811500E-07  0.2891316E+04  0.7818609E-02  0.8275466E-01
       -1   -1    0    0    0  501  0.00000000000E+00  0.00000000000E+00  0.10031773098E+04  0.10031773098E+04  0.50400001928E-02 0. -1.
        1   -1    0    0  501    0  0.00000000000E+00  0.00000000000E+00 -0.20833082052E+04  0.20833082052E+04  0.50400001928E-02 0.  1.
    10030    2    1    2    0    0  0.00000000000E+00  0.00000000000E+00 -0.10801308954E+04  0.30864855150E+04  0.28913163236E+04 0.  0.
        4    1    3    3  502    0 -0.85208396351E+03  0.54349791477E+03  0.56338702191E+03  0.11570840996E+04  0.12699999809E+01 0. -1.
       -4    1    3    3    0  502  0.85208396351E+03 -0.54349791477E+03 -0.16435179173E+04  0.19294014154E+04  0.12699999809E+01 0.  1.
</event>
<event>
 5   0  0.4811500E-07  0.3263350E+04  0.7818609E-02  0.8172284E-01
       -1   -1    0    0    0  501  0.00000000000E+00  0.00000000000E+00  0.15310658958E+04  0.15310658958E+04  0.50400001928E-02 0. -1.
        1   -1    0    0  501    0  0.00000000000E+00  0.00000000000E+00 -0.17388952049E+04  0.17388952049E+04  0.50400001928E-02 0.  1.
    10030    2    1    2    0    0  0.00000000000E+00  0.00000000000E+00 -0.20782930913E+03  0.32699611008E+04  0.32633499014E+04 0.  0.
        3    1    3    3  502    0 -0.13062819616E+04  0.95458655227E+03 -0.31589721791E+03  0.16484535515E+04  0.10100000352E+00 0. -1.
       -3    1    3    3    0  502  0.13062819616E+04 -0.95458655227E+03  0.10806790877E+03  0.16215075492E+04  0.10100000352E+00 0.  1.
</event>
<event>
 5   0  0.4811500E-07  0.3598036E+04  0.7818609E-02  0.8090942E-01
        1   -1    0    0  501    0  0.00000000000E+00  0.00000000000E+00  0.27101373462E+04  0.27101373462E+04  0.50400001928E-02 0. -1.
       -1   -1    0    0    0  501  0.00000000000E+00  0.00000000000E+00 -0.11942074688E+04  0.11942074688E+04  0.50400001928E-02 0.  1.
    10030    2    1    2    0    0  0.00000000000E+00  0.00000000000E+00  0.15159298774E+04  0.39043448150E+04  0.35980362757E+04 0.  0.
        5    1    3    3  502    0  0.88598469172E+03 -0.58355647264E+03 -0.81863054642E+03  0.13400317505E+04  0.46999998093E+01 0.  1.
       -5    1    3    3    0  502 -0.88598469172E+03  0.58355647264E+03  0.23345604238E+04  0.25643130646E+04  0.46999998093E+01 0. -1.
</event>
<event>
 5   0  0.1444091E-06  0.3465974E+04  0.7818609E-02  0.8121901E-01
       -2   -1    0    0    0  501  0.00000000000E+00  0.00000000000E+00  0.20139420697E+04  0.20139420697E+04  0.25500000920E-02 0.  1.
        2   -1    0    0  501    0  0.00000000000E+00  0.00000000000E+00 -0.14912263261E+04  0.14912263261E+04  0.25500000920E-02 0. -1.
    10030    2    1    2    0    0  0.00000000000E+00  0.00000000000E+00  0.52271574361E+03  0.35051683957E+04  0.34659737065E+04 0.  0.
        1    1    3    3  502    0  0.18957032490E+03 -0.72958343906E+03 -0.13167417003E+04  0.15172467196E+04  0.50400001928E-02 0. -1.
       -1    1    3    3    0  502 -0.18957032490E+03  0.72958343906E+03  0.18394574439E+04  0.19879216762E+04  0.50400001928E-02 0.  1.
</event>
<event>
 5   0  0.5071661E-07  0.2445171E+04  0.7818609E-02  0.8422783E-01
        1   -1    0    0  501    0  0.00000000000E+00  0.00000000000E+00  0.15654997384E+04  0.15654997384E+04  0.50400001928E-02 0.  1.
       -1   -1    0    0    0  501  0.00000000000E+00  0.00000000000E+00 -0.95478463646E+03  0.95478463647E+03  0.50400001928E-02 0. -1.
    10030    2    1    2    0    0  0.00000000000E+00  0.00000000000E+00  0.61071510194E+03  0.25202843749E+04  0.24451708314E+04 0.  0.
        1    1    3    3  502    0 -0.76603775027E+03  0.94466346290E+03  0.17698353809E+03  0.12290346072E+04  0.50400001928E-02 0.  1.
       -1    1    3    3    0  502  0.76603775027E+03 -0.94466346290E+03  0.43373156386E+03  0.12912497677E+04  0.50400001928E-02 0. -1.
</event>
<event>
 5   0  0.1444091E-06  0.3601081E+04  0.7818609E-02  0.8090244E-01
        2   -1    0    0  501    0  0.00000000000E+00  0.00000000000E+00  0.32006910678E+04  0.32006910678E+04  0.25500000920E-02 0. -1.
       -2   -1    0    0    0  501  0.00000000000E+00  0.00000000000E+00 -0.10128892226E+04  0.10128892226E+04  0.25500000920E-02 0.  1.
    10030    2    1    2    0    0  0.00000000000E+00  0.00000000000E+00  0.21878018452E+04  0.42135802904E+04  0.36010806641E+04 0.  0.
        1    1    3    3  502    0  0.12671061553E+04 -0.93290014964E+03  0.21180350629E+04  0.26385475599E+04  0.50400001928E-02 0. -1.
       -1    1    3    3    0  502 -0.12671061553E+04  0.93290014964E+03  0.69766782331E+02  0.15750327305E+04  0.50400001928E-02 0.  1.
</event>
<event>
 5   0  0.4811500E-07  0.3580464E+04  0.7818609E-02  0.8094981E-01
       -1   -1    0    0    0  501  0.00000000000E+00  0.00000000000E+00  0.14936997524E+04  0.14936997524E+04  0.50400001928E-02 0.  1.
        1   -1    0    0  501    0  0.00000000000E+00  0.00000000000E+00 -0.21456320706E+04  0.21456320706E+04  0.50400001928E-02 0. -1.
    10030    2    1    2    0    0  0.00000000000E+00  0.00000000000E+00 -0.65193231816E+03  0.36393318230E+04  0.35804637089E+04 0.  0.
        3    1    3    3  502    0  0.19700546810E+03  0.29975587372E+03  0.14567995639E+04  0.15003098739E+04  0.10100000352E+00 0.  1.
       -3    1    3    3    0  502 -0.19700546810E+03 -0.29975587372E+03 -0.21087318820E+04  0.21390219491E+04  0.10100000352E+00 0. -1.
</event>
<event>
 5   0  0.4811500E-07  0.3639910E+04  0.7818609E-02  0.8081410E-01
        1   -1    0    0  501    0  0.00000000000E+00  0.00000000000E+00  0.17973400448E+04  0.17973400448E+04  0.50400001928E-02 0.  1.
       -1   -1    0    0    0  501  0.00000000000E+00  0.00000000000E+00 -0.18428546707E+04  0.18428546707E+04  0.50400001928E-02 0. -1.
    10030    2    1    2    0    0  0.00000000000E+00  0.00000000000E+00 -0.45514625836E+02  0.36401947155E+04  0.36399101618E+04 0.  0.
        2    1    3    3  502    0  0.15267078894E+04 -0.27093272914E+03  0.93020488236E+03  0.18081821386E+04  0.25500000920E-02 0.  1.
       -2    1    3    3    0  502 -0.15267078894E+04  0.27093272914E+03 -0.97571950819E+03  0.18320125769E+04  0.25500000920E-02 0. -1.
</event>
<event>
 5   0  0.4811500E-07  0.3607382E+04  0.7818609E-02  0.8088803E-01
        1   -1    0    0  501    0  0.00000000000E+00  0.00000000000E+00  0.92706425091E+03  0.92706425092E+03  0.50400001928E-02 0.  1.
       -1   -1    0    0    0  501  0.00000000000E+00  0.00000000000E+00 -0.35092502328E+04  0.35092502328E+04  0.50400001928E-02 0. -1.
    10030    2    1    2    0    0  0.00000000000E+00  0.00000000000E+00 -0.25821859819E+04  0.44363144837E+04  0.36073815647E+04 0.  0.
        5    1    3    3  502    0  0.43709317102E+03 -0.11271938994E+04  0.35501477276E+03  0.12600294068E+04  0.46999998093E+01 0.  1.
       -5    1    3    3    0  502 -0.43709317102E+03  0.11271938994E+04 -0.29372007546E+04  0.31762850769E+04  0.46999998093E+01 0. -1.
</event>
<event>
 5   0  0.1491854E-06  0.2799809E+04  0.7818609E-02  0.8303328E-01
       -2   -1    0    0    0  501  0.00000000000E+00  0.00000000000E+00  0.79285259427E+03  0.79285259427E+03  0.25500000920E-02 0.  1.
        2   -1    0    0  501    0  0.00000000000E+00  0.00000000000E+00 -0.24717496795E+04  0.24717496795E+04  0.25500000920E-02 0. -1.
    10030    2    1    2    0    0  0.00000000000E+00  0.00000000000E+00 -0.16788970852E+04  0.32646022738E+04  0.27998093834E+04 0.  0.
        5    1    3    3  502    0 -0.74828036666E+03  0.53560208318E+03 -0.20695286324E+04  0.22648982204E+04  0.46999998093E+01 0. -1.
       -5    1    3    3    0  502  0.74828036666E+03 -0.53560208318E+03  0.39063154716E+03  0.99970405334E+03  0.46999998093E+01 0.  1.
</event>
<event>
 5   0  0.1491854E-06  0.3621411E+04  0.7818609E-02  0.8085605E-01
        2   -1    0    0  501    0  0.00000000000E+00  0.00000000000E+00  0.24449843863E+04  0.24449843863E+04  0.25500000920E-02 0. -1.
       -2   -1    0    0    0  501  0.00000000000E+00  0.00000000000E+00 -0.13409718199E+04  0.13409718200E+04  0.25500000920E-02 0.  1.
    10030    2    1    2    0    0  0.00000000000E+00  0.00000000000E+00  0.11040125664E+04  0.37859562063E+04  0.36214114167E+04 0.  0.
        5    1    3    3  502    0 -0.17606369184E+04  0.30989409239E+03  0.25126127777E+03  0.18052786562E+04  0.46999998093E+01 0.  1.
       -5    1    3    3    0  502  0.17606369184E+04 -0.30989409239E+03  0.85275128863E+03  0.19806775500E+04  0.46999998093E+01 0. -1.
</event>
<event>
 5   0  0.1491854E-06  0.3473635E+04  0.7818609E-02  0.8120067E-01
        2   -1    0    0  501    0  0.00000000000E+00  0.00000000000E+00  0.21779052385E+04  0.21779052385E+04  0.25500000920E-02 0.  1.
       -2   -1    0    0    0  501  0.00000000000E+00  0.00000000000E+00 -0.13850622319E+04  0.13850622319E+04  0.25500000920E-02 0. -1.
    10030    2    1    2    0    0  0.00000000000E+00  0.00000000000E+00  0.79284300659E+03  0.35629674704E+04  0.34736345752E+04 0.  0.
        5    1    3    3  502    0  0.61553987909E+03 -0.59455127594E+03 -0.11537804974E+04  0.14365277890E+04  0.46999998093E+01 0. -1.
       -5    1    3    3    0  502 -0.61553987909E+03  0.59455127594E+03  0.19466235040E+04  0.21264396814E+04  0.46999998093E+01 0.  1.
</event>
<event>
 5   0  0.4811500E-07  0.3668037E+04  0.7818609E-02  0.8075082E-01
       -1   -1    0    0    0  501  0.00000000000E+00  0.00000000000E+00  0.14451331790E+04  0.14451331790E+04  0.50400001928E-02 0.  1.
        1   -1    0    0  501    0  0.00000000000E+00  0.00000000000E+00 -0.23275527681E+04  0.23275527681E+04  0.50400001928E-02 0. -1.
    10030    2    1    2    0    0  0.00000000000E+00  0.00000000000E+00 -0.88241958908E+03  0.37726859471E+04  0.36680369307E+04 0.  0.
        4    1    3    3  502    0 -0.12538553983E+04  0.64856218109E+03  0.76302087147E+03  0.16046771407E+04  0.12699999809E+01 0.  1.
       -4    1    3    3    0  502  0.12538553983E+04 -0.64856218109E+03 -0.16454404606E+04  0.21680088064E+04  0.12699999809E+01 0. -1.
</event>
<event>
 5   0  0.1468942E-06  0.3630722E+04  0.7818609E-02  0.8083490E-01
        2   -1    0    0  501    0  0.00000000000E+00  0.00000000000E+00  0.27063202273E+04  0.27063202273E+04  0.25500000920E-02 0. -1.
       -2   -1    0    0    0  501  0.00000000000E+00  0.00000000000E+00 -0.12177184532E+04  0.12177184532E+04  0.25500000920E-02 0.  1.
    10030    2    1    2    0    0  0.00000000000E+00  0.00000000000E+00  0.14886017742E+04  0.39240386805E+04  0.36307222868E+04 0.  0.
        2    1    3    3  502    0  0.77569183344E+02  0.88543076965E+03 -0.96646341057E+03  0.13130331869E+04  0.25500000920E-02 0.  1.
       -2    1    3    3    0  502 -0.77569183344E+02 -0.88543076965E+03  0.24550651847E+04  0.26110054936E+04  0.25500000920E-02 0. -1.
</event>
<event>
 5   0  0.1505671E-06  0.3472130E+04  0.7818609E-02  0.8120427E-01
        2   -1    0    0  501    0  0.00000000000E+00  0.00000000000E+00  0.10911358490E+04  0.10911358490E+04  0.25500000920E-02 0. -1.
       -2   -1    0    0    0  501  0.00000000000E+00  0.00000000000E+00 -0.27621877421E+04  0.27621877421E+04  0.25500000920E-02 0.  1.
    10030    2    1    2    0    0  0.00000000000E+00  0.00000000000E+00 -0.16710518931E+04  0.38533235911E+04  0.34721302205E+04 0.  0.
        3    1    3    3  502    0 -0.61694982181E+03 -0.13961795252E+04 -0.17533521454E+04  0.23246909698E+04  0.10100000352E+00 0.  1.
       -3    1    3    3    0  502  0.61694982181E+03  0.13961795252E+04  0.82300252240E+02  0.15286326213E+04  0.10100000352E+00 0. -1.
</event>
<event>
 5   0  0.5071661E-07  0.3268299E+04  0.7818609E-02  0.8171009E-01
       -1   -1    0    0    0  501  0.00000000000E+00  0.00000000000E+00  0.96914530434E+03  0.96914530435E+03  0.50400001928E-02 0. -1.
        1   -1    0    0  501    0  0.00000000000E+00  0.00000000000E+00 -0.27554641977E+04  0.27554641977E+04  0.50400001928E-02 0.  1.
    10030    2    1    2    0    0  0.00000000000E+00  0.00000000000E+00 -0.17863188934E+04  0.37246095021E+04  0.32682993673E+04 0.  0.
        1    1    3    3  502    0  0.13851764802E+04 -0.74591247276E+03 -0.38947208215E+03  0.16207368081E+04  0.50400001928E-02 0. -1.
       -1    1    3    3    0  502 -0.13851764802E+04  0.74591247276E+03 -0.13968468112E+04  0.21038726940E+04  0.50400001928E-02 0.  1.
</event>
<event>
 5   0  0.1505671E-06  0.3566878E+04  0.7818609E-02  0.8098121E-01
        2   -1    0    0  501    0  0.00000000000E+00  0.00000000000E+00  0.23062480218E+04  0.23062480218E+04  0.25500000920E-02 0.  1.
       -2   -1    0    0    0  501  0.00000000000E+00  0.00000000000E+00 -0.13791470417E+04  0.13791470417E+04  0.25500000920E-02 0. -1.
    10030    2    1    2    0    0  0.00000000000E+00  0.00000000000E+00  0.92710098018E+03  0.36853950635E+04  0.35668782635E+04 0.  0.
        3    1    3    3  502    0  0.22369227946E+02  0.27829863535E+03 -0.13564268395E+04  0.13848625542E+04  0.10100000352E+00 0. -1.
       -3    1    3    3    0  502 -0.22369227946E+02 -0.27829863535E+03  0.22835278197E+04  0.23005325093E+04  0.10100000352E+00 0.  1.
</event>
<event>
 5   0  0.4811500E-07  0.3202388E+04  0.7818609E-02  0.8188187E-01
       -1   -1    0    0    0  501  0.00000000000E+00  0.00000000000E+00  0.10942870770E+04  0.10942870770E+04  0.50400001928E-02 0.  1.
        1   -1    0    0  501    0  0.00000000000E+00  0.00000000000E+00 -0.23429160511E+04  0.23429160511E+04  0.50400001928E-02 0. -1.
    10030    2    1    2    0    0  0.00000000000E+00  0.00000000000E+00 -0.12486289740E+04  0.34372031281E+04  0.32023883320E+04 0.  0.
        4    1    3    3  502    0  0.12903454199E+04  0.36901791206E+03 -0.15616507990E+04  0.20591066881E+04  0.12699999809E+01 0. -1.
       -4    1    3    3    0  502 -0.12903454199E+04 -0.36901791206E+03  0.31302182496E+03  0.13780964400E+04  0.12699999809E+01 0.  1.
</event>
<event>
 5   0  0.1505671E-06  0.3606807E+04  0.7818609E-02  0.8088934E-01
        2   -1    0    0  501    0  0.00000000000E+00  0.00000000000E+00  0.29176339100E+04  0.29176339100E+04  0.25500000920E-02 0. -1.
       -2   -1    0    0    0  501  0.00000000000E+00  0.00000000000E+00 -0.11146924381E+04  0.11146924381E+04  0.25500000920E-02 0.  1.
    10030    2    1    2    0    0  0.00000000000E+00  0.00000000000E+00  0.18029414719E+04  0.40323263480E+04  0.36068071512E+04 0.  0.
        3    1    3    3  502    0  0.12819560853E+04 -0.99016095474E+03  0.17877339034E+04  0.24124308571E+04  0.10100000352E+00 0. -1.
       -3    1    3    3    0  502 -0.12819560853E+04  0.99016095474E+03  0.15207568518E+02  0.16198954909E+04  0.10100000352E+00 0.  1.
</event>
<event>
 5   0  0.4811500E-07  0.3573347E+04  0.7818609E-02  0.8096624E-01
       -1   -1    0    0    0  501  0.00000000000E+00  0.00000000000E+00  0.14877258158E+04  0.14877258158E+04  0.50400001928E-02 0.  1.
        1   -1    0    0  501    0  0.00000000000E+00  0.00000000000E+00 -0.21456924473E+04  0.21456924473E+04  0.50400001928E-02 0. -1.
    10030    2    1    2    0    0  0.00000000000E+00  0.00000000000E+00 -0.65796663150E+03  0.36334182631E+04  0.35733469166E+04 0.  0.
        3    1    3    3  502    0 -0.22412280438E+03  0.11028510712E+04  0.10820376262E+04  0.15611908760E+04  0.10100000352E+00 0.  1.
       -3    1    3    3    0  502  0.22412280438E+03 -0.11028510712E+04 -0.17400042577E+04  0.20722273871E+04  0.10100000352E+00 0. -1.
</event>
<event>
 5   0  0.1468942E-06  0.3583918E+04  0.7818609E-02  0.8094185E-01
       -2   -1    0    0    0  501  0.00000000000E+00  0.00000000000E+00  0.15573449958E+04  0.15573449958E+04  0.25500000920E-02 0.  1.
        2   -1    0    0  501    0  0.00000000000E+00  0.00000000000E+00 -0.20619181157E+04  0.20619181157E+04  0.25500000920E-02 0. -1.
    10030    2    1    2    0    0  0.00000000000E+00  0.00000000000E+00 -0.50457311993E+03  0.36192631115E+04  0.35839184474E+04 0.  0.
        2    1    3    3  502    0 -0.15547919974E+04  0.26531757727E+03 -0.11111718526E+04  0.19293715190E+04  0.25500000920E-02 0. -1.
       -2    1    3    3    0  502  0.15547919974E+04 -0.26531757727E+03  0.60659873271E+03  0.16898915926E+04  0.25500000920E-02 0.  1.
</event>
<event>
 5   0  0.4811500E-07  0.3598998E+04  0.7818609E-02  0.8090721E-01
       -1   -1    0    0    0  501  0.00000000000E+00  0.00000000000E+00  0.13053209744E+04  0.13053209744E+04  0.50400001928E-02 0.  1.
        1   -1    0    0  501    0  0.00000000000E+00  0.00000000000E+00 -0.24807665017E+04  0.24807665017E+04  0.50400001928E-02 0. -1.
    10030    2    1    2    0    0  0.00000000000E+00  0.00000000000E+00 -0.11754455273E+04  0.37860874761E+04  0.35989979424E+04 0.  0.
        5    1    3    3  502    0 -0.96388450667E+03  0.77176530005E+03 -0.19647689095E+04  0.23205675983E+04  0.46999998093E+01 0. -1.
       -5    1    3    3    0  502  0.96388450667E+03 -0.77176530005E+03  0.78932338221E+03  0.14655198778E+04  0.46999998093E+01 0.  1.
</event>
<event>
 5   0  0.4811500E-07  0.3600059E+04  0.7818609E-02  0.8090478E-01
       -1   -1    0    0    0  501  0.00000000000E+00  0.00000000000E+00  0.17168589060E+04  0.17168589060E+04  0.50400001928E-02 0.  1.
        1   -1    0    0  501    0  0.00000000000E+00  0.00000000000E+00 -0.18872290770E+04  0.18872290770E+04  0.50400001928E-02 0. -1.
    10030    2    1    2    0    0  0.00000000000E+00  0.00000000000E+00 -0.17037017106E+03  0.36040879830E+04  0.36000589154E+04 0.  0.
        2    1    3    3  502    0 -0.69062829011E+03  0.86657776397E+03 -0.15052865072E+04  0.18691741291E+04  0.25500000920E-02 0. -1.
       -2    1    3    3    0  502  0.69062829011E+03 -0.86657776397E+03  0.13349163361E+04  0.17349138539E+04  0.25500000920E-02 0.  1.
</event>
<event>
 5   0  0.4811500E-07  0.3552566E+04  0.7818609E-02  0.8101444E-01
        1   -1    0    0  501    0  0.00000000000E+00  0.00000000000E+00  0.11204291105E+04  0.11204291105E+04  0.50400001928E-02 0. -1.
       -1   -1    0    0    0  501  0.00000000000E+00  0.00000000000E+00 -0.28160469716E+04  0.28160469716E+04  0.50400001928E-02 0.  1.
    10030    2    1    2    0    0  0.00000000000E+00  0.00000000000E+00 -0.16956178610E+04  0.39364760821E+04  0.35525658353E+04 0.  0.
        5    1    3    3  502    0  0.73825037566E+03  0.13815558075E+04 -0.17758420702E+04  0.23679837869E+04  0.46999998093E+01 0.  1.
       -5    1    3    3    0  502 -0.73825037566E+03 -0.13815558075E+04  0.80224209193E+02  0.15684922952E+04  0.46999998093E+01 0. -1.
</event>
<event>
 5   0  0.1505671E-06  0.3493574E+04  0.7818609E-02  0.8115315E-01
        2   -1    0    0  501    0  0.00000000000E+00  0.00000000000E+00  0.20501975764E+04  0.20501975764E+04  0.25500000920E-02 0.  1.
       -2   -1    0    0    0  501  0.00000000000E+00  0.00000000000E+00 -0.14882782936E+04  0.14882782936E+04  0.25500000920E-02 0. -1.
    10030    2    1    2    0    0  0.00000000000E+00  0.00000000000E+00  0.56191928274E+03  0.35384758700E+04  0.34935738438E+04 0.  0.
        3    1    3    3  502    0 -0.16047585070E+04 -0.56165659894E+03 -0.12488546207E+03  0.17047886642E+04  0.10100000352E+00 0. -1.
       -3    1    3    3    0  502  0.16047585070E+04  0.56165659894E+03  0.68680474482E+03  0.18336872058E+04  0.10100000352E+00 0.  1.
</event>
<event>
 5   0  0.4811500E-07  0.3609486E+04  0.7818609E-02  0.8088322E-01
       -1   -1    0    0    0  501  0.00000000000E+00  0.00000000000E+00  0.22544759199E+04  0.22544759199E+04  0.50400001928E-02 0.  1.
        1   -1    0    0  501    0  0.00000000000E+00  0.00000000000E+00 -0.14447244591E+04  0.14447244591E+04  0.50400001928E-02 0. -1.
    10030    2    1    2    0    0  0.00000000000E+00  0.00000000000E+00  0.80975146085E+03  0.36992003790E+04  0.36094855611E+04 0.  0.
        5    1    3    3  502    0  0.43815826753E+03  0.44373435607E+03  0.21405436058E+04  0.22295362442E+04  0.46999998093E+01 0.  1.
       -5    1    3    3    0  502 -0.43815826753E+03 -0.44373435607E+03 -0.13307921449E+04  0.14696641348E+04  0.46999998093E+01 0. -1.
</event>
<event>
 5   0  0.1444091E-06  0.3613131E+04  0.7818609E-02  0.8087491E-01
        2   -1    0    0  501    0  0.00000000000E+00  0.00000000000E+00  0.12216923823E+04  0.12216923823E+04  0.25500000920E-02 0.  1.
       -2   -1    0    0    0  501  0.00000000000E+00  0.00000000000E+00 -0.26714407136E+04  0.26714407136E+04  0.25500000920E-02 0. -1.
    10030    2    1    2    0    0  0.00000000000E+00  0.00000000000E+00 -0.14497483313E+04  0.38931330959E+04  0.36131309246E+04 0.  0.
        1    1    3    3  502    0  0.46781190780E+03  0.15648066037E+04  0.10711098383E+03  0.16367469111E+04  0.50400001928E-02 0.  1.
       -1    1    3    3    0  502 -0.46781190780E+03 -0.15648066037E+04 -0.15568593152E+04  0.22563861849E+04  0.50400001928E-02 0. -1.
</event>
<event>
 5   0  0.1491854E-06  0.3589062E+04  0.7818609E-02  0.8093002E-01
       -2   -1    0    0    0  501  0.00000000000E+00  0.00000000000E+00  0.16465028399E+04  0.16465028399E+04  0.25500000920E-02 0.  1.
        2   -1    0    0  501    0  0.00000000000E+00  0.00000000000E+00 -0.19558675041E+04  0.19558675041E+04  0.25500000920E-02 0. -1.
    10030    2    1    2    0    0  0.00000000000E+00  0.00000000000E+00 -0.30936466420E+03  0.36023703440E+04  0.35890619387E+04 0.  0.
        5    1    3    3  502    0 -0.15917263612E+03 -0.22716318386E+03  0.16248499336E+04  0.16483623500E+04  0.46999998093E+01 0.  1.
       -5    1    3    3    0  502  0.15917263612E+03  0.22716318386E+03 -0.19342145978E+04  0.19540079940E+04  0.46999998093E+01 0. -1.
</event>
<event>
 5   0  0.1491854E-06  0.2545766E+04  0.7818609E-02  0.8386860E-01
        2   -1    0    0  501    0  0.00000000000E+00  0.00000000000E+00  0.21931293183E+04  0.21931293183E+04  0.25500000920E-02 0.  1.
       -2   -1    0    0    0  501  0.00000000000E+00  0.00000000000E+00 -0.73877563865E+03  0.73877563865E+03  0.25500000920E-02 0. -1.
    10030    2    1    2    0    0  0.00000000000E+00  0.00000000000E+00  0.14543536796E+04  0.29319049569E+04  0.25457655138E+04 0.  0.
        5    1    3    3  502    0  0.12203835290E+04 -0.34740618122E+03  0.61096899232E+03  0.14083082802E+04  0.46999998093E+01 0. -1.
       -5    1    3    3    0  502 -0.12203835290E+04  0.34740618122E+03  0.84338468730E+03  0.15235966767E+04  0.46999998093E+01 0.  1.
</event>
<event>
 5   0  0.4811500E-07  0.3583081E+04  0.7818609E-02  0.8094378E-01
       -1   -1    0    0    0  501  0.00000000000E+00  0.00000000000E+00  0.15188137272E+04  0.15188137272E+04  0.50400001928E-02 0. -1.
        1   -1    0    0  501    0  0.00000000000E+00  0.00000000000E+00 -0.21132392972E+04  0.21132392972E+04  0.50400001928E-02 0.  1.
    10030    2    1    2    0    0  0.00000000000E+00  0.00000000000E+00 -0.59442556997E+03  0.36320530244E+04  0.35830807156E+04 0.  0.
        3    1    3    3  502    0 -0.63376063467E+02  0.38595172462E+03  0.14750080875E+04  0.15259830037E+04  0.10100000352E+00 0. -1.
       -3    1    3    3    0  502  0.63376063467E+02 -0.38595172462E+03 -0.20694336575E+04  0.21060700207E+04  0.10100000352E+00 0.  1.
</event>
<event>
 5   0  0.4811500E-07  0.3595733E+04  0.7818609E-02  0.8091470E-01
       -1   -1    0    0    0  501  0.00000000000E+00  0.00000000000E+00  0.12727911116E+04  0.12727911116E+04  0.50400001928E-02 0.  1.
        1   -1    0    0  501    0  0.00000000000E+00  0.00000000000E+00 -0.25395559041E+04  0.25395559041E+04  0.50400001928E-02 0. -1.
    10030    2    1    2    0    0  0.00000000000E+00  0.00000000000E+00 -0.12667647925E+04  0.38123470157E+04  0.35957331282E+04 0.  0.
        5    1    3    3  502    0 -0.13310929830E+04 -0.49190297587E+03  0.53698496042E+03  0.15172844179E+04  0.46999998093E+01 0.  1.
       -5    1    3    3    0  502  0.13310929830E+04  0.49190297587E+03 -0.18037497529E+04  0.22950625979E+04  0.46999998093E+01 0. -1.
</event>
<event>
 5   0  0.1491854E-06  0.3569474E+04  0.7818609E-02  0.8097520E-01
        2   -1    0    0  501    0  0.00000000000E+00  0.00000000000E+00  0.19205954324E+04  0.19205954324E+04  0.25500000920E-02 0. -1.
       -2   -1    0    0    0  501  0.00000000000E+00  0.00000000000E+00 -0.16584889211E+04  0.16584889211E+04  0.25500000920E-02 0.  1.
    10030    2    1    2    0    0  0.00000000000E+00  0.00000000000E+00  0.26210651125E+03  0.35790843535E+04  0.35694740490E+04 0.  0.
        5    1    3    3  502    0 -0.55871049781E+03  0.88570268135E+03  0.15801562055E+04  0.18956641010E+04  0.46999998093E+01 0. -1.
       -5    1    3    3    0  502  0.55871049781E+03 -0.88570268135E+03 -0.13180496942E+04  0.16834202525E+04  0.46999998093E+01 0.  1.
</event>
<event>
 5   0  0.4811500E-07  0.3561674E+04  0.7818609E-02  0.8099328E-01
       -1   -1    0    0    0  501  0.00000000000E+00  0.00000000000E+00  0.11985540904E+04  0.11985540904E+04  0.50400001928E-02 0. -1.
        1   -1    0    0  501    0  0.00000000000E+00  0.00000000000E+00 -0.26460047829E+04  0.26460047829E+04  0.50400001928E-02 0.  1.
    10030    2    1    2    0    0  0.00000000000E+00  0.00000000000E+00 -0.14474506925E+04  0.38445588733E+04  0.35616736828E+04 0.  0.
        2    1    3    3  502    0  0.22885997219E+02 -0.13913092952E+04 -0.19233517176E+04  0.23739307390E+04  0.25500000920E-02 0.  1.
       -2    1    3    3    0  502 -0.22885997219E+02  0.13913092952E+04  0.47590102515E+03  0.14706281343E+04  0.25500000920E-02 0. -1.
</event>
<event>
 5   0  0.1444091E-06  0.2912546E+04  0.7818609E-02  0.8269154E-01
        2   -1    0    0  501    0  0.00000000000E+00  0.00000000000E+00  0.13751242457E+04  0.13751242457E+04  0.25500000920E-02 0. -1.
       -2   -1    0    0    0  501  0.00000000000E+00  0.00000000000E+00 -0.15422103155E+04  0.15422103155E+04  0.25500000920E-02 0.  1.
    10030    2    1    2    0    0  0.00000000000E+00  0.00000000000E+00 -0.16708606980E+03  0.29173345613E+04  0.29125458259E+04 0.  0.
        1    1    3    3  502    0  0.12862541867E+04 -0.65571908810E+03  0.10733114126E+03  0.14477352414E+04  0.50400001928E-02 0.  1.
       -1    1    3    3    0  502 -0.12862541867E+04  0.65571908810E+03 -0.27441721106E+03  0.14695993199E+04  0.50400001928E-02 0. -1.
</event>
<event>
 5   0  0.4811500E-07  0.3614197E+04  0.7818609E-02  0.8087247E-01
       -1   -1    0    0    0  501  0.00000000000E+00  0.00000000000E+00  0.13560002290E+04  0.13560002290E+04  0.50400001928E-02 0.  1.
        1   -1    0    0  501    0  0.00000000000E+00  0.00000000000E+00 -0.24082629855E+04  0.24082629855E+04  0.50400001928E-02 0. -1.
    10030    2    1    2    0    0  0.00000000000E+00  0.00000000000E+00 -0.10522627565E+04  0.37642632145E+04  0.36141970947E+04 0.  0.
        5    1    3    3  502    0  0.62534993170E+03  0.90529287408E+02  0.12371875343E+04  0.13892131492E+04  0.46999998093E+01 0.  1.
       -5    1    3    3    0  502 -0.62534993170E+03 -0.90529287408E+02 -0.22894502908E+04  0.23750500653E+04  0.46999998093E+01 0. -1.
</event>
<event>
 5   0  0.5071661E-07  0.3629392E+04  0.7818609E-02  0.8083792E-01
        1   -1    0    0  501    0  0.00000000000E+00  0.00000000000E+00  0.17841993263E+04  0.17841993263E+04  0.50400001928E-02 0.  1.
       -1   -1    0    0    0  501  0.00000000000E+00  0.00000000000E+00 -0.18457136858E+04  0.18457136858E+04  0.50400001928E-02 0. -1.
    10030    2    1    2    0    0  0.00000000000E+00  0.00000000000E+00 -0.61514359500E+02  0.36299130120E+04  0.36293917477E+04 0.  0.
        1    1    3    3  502    0  0.16063203263E+04 -0.83852963894E+03  0.67868182125E+02  0.18132851503E+04  0.50400001928E-02 0.  1.
       -1    1    3    3    0  502 -0.16063203263E+04  0.83852963894E+03 -0.12938254163E+03  0.18166278618E+04  0.50400001928E-02 0. -1.
</event>
<event>
 5   0  0.5071661E-07  0.3502177E+04  0.7818609E-02  0.8113274E-01
       -1   -1    0    0    0  501  0.00000000000E+00  0.00000000000E+00  0.17804564468E+04  0.17804564468E+04  0.50400001928E-02 0.  1.
        1   -1    0    0  501    0  0.00000000000E+00  0.00000000000E+00 -0.17222047071E+04  0.17222047071E+04  0.50400001928E-02 0. -1.
    10030    2    1    2    0    0  0.00000000000E+00  0.00000000000E+00  0.58251739640E+02  0.35026611539E+04  0.35021767365E+04 0.  0.
        1    1    3    3  502    0  0.16981513904E+03 -0.21881312728E+03 -0.17001575655E+04  0.17225713667E+04  0.50400001928E-02 0. -1.
       -1    1    3    3    0  502 -0.16981513904E+03  0.21881312728E+03  0.17584093051E+04  0.17800897872E+04  0.50400001928E-02 0.  1.
</event>
<event>
 5   0  0.4811500E-07  0.3502490E+04  0.7818609E-02  0.8113200E-01
       -1   -1    0    0    0  501  0.00000000000E+00  0.00000000000E+00  0.15945720280E+04  0.15945720281E+04  0.50400001928E-02 0. -1.
        1   -1    0    0  501    0  0.00000000000E+00  0.00000000000E+00 -0.19233111739E+04  0.19233111739E+04  0.50400001928E-02 0.  1.
    10030    2    1    2    0    0  0.00000000000E+00  0.00000000000E+00 -0.32873914581E+03  0.35178832019E+04  0.35024895141E+04 0.  0.
        4    1    3    3  502    0 -0.61222061079E+03 -0.15760575670E+04  0.29379870606E+03  0.17161266921E+04  0.12699999809E+01 0. -1.
       -4    1    3    3    0  502  0.61222061079E+03  0.15760575670E+04 -0.62253785187E+03  0.18017565098E+04  0.12699999809E+01 0.  1.
</event>
<event>
 5   0  0.1379425E-06  0.3550131E+04  0.7818609E-02  0.8102011E-01
        2   -1    0    0  501    0  0.00000000000E+00  0.00000000000E+00  0.11713921647E+04  0.11713921647E+04  0.25500000920E-02 0.  1.
       -2   -1    0    0    0  501  0.00000000000E+00  0.00000000000E+00 -0.26898404388E+04  0.26898404388E+04  0.25500000920E-02 0. -1.
    10030    2    1    2    0    0  0.00000000000E+00  0.00000000000E+00 -0.15184482741E+04  0.38612326035E+04  0.35501312732E+04 0.  0.
        4    1    3    3  502    0 -0.10158330488E+04  0.13289609917E+04 -0.11320221303E+03  0.16765650761E+04  0.12699999809E+01 0.  1.
       -4    1    3    3    0  502  0.10158330488E+04 -0.13289609917E+04 -0.14052460611E+04  0.21846675274E+04  0.12699999809E+01 0. -1.
</event>
<event>
 5   0  0.1444091E-06  0.3486546E+04  0.7818609E-02  0.8116986E-01
       -2   -1    0    0    0  501  0.00000000000E+00  0.00000000000E+00  0.14798112348E+04  0.14798112348E+04  0.25500000920E-02 0.  1.
        2   -1    0    0  501    0  0.00000000000E+00  0.00000000000E+00 -0.20536409357E+04  0.20536409357E+04  0.25500000920E-02 0. -1.
    10030    2    1    2    0    0  0.00000000000E+00  0.00000000000E+00 -0.57382970082E+03  0.35334521705E+04  0.34865461012E+04 0.  0.
        1    1    3    3  502    0  0.54676869496E+03  0.16553070428E+04 -0.28881552846E+03  0.17670347538E+04  0.50400001928E-02 0. -1.
       -1    1    3    3    0  502 -0.54676869496E+03 -0.16553070428E+04 -0.28501417236E+03  0.17664174167E+04  0.50400001928E-02 0.  1.
</event>
<event>
 5   0  0.4811500E-07  0.3566298E+04  0.7818609E-02  0.8098256E-01
       -1   -1    0    0    0  501  0.00000000000E+00  0.00000000000E+00  0.28850605009E+04  0.28850605009E+04  0.50400001928E-02 0.  1.
        1   -1    0    0  501    0  0.00000000000E+00  0.00000000000E+00 -0.11020981698E+04  0.11020981698E+04  0.50400001928E-02 0. -1.
    10030    2    1    2    0    0  0.00000000000E+00  0.00000000000E+00  0.17829623312E+04  0.39871586707E+04  0.35662977429E+04 0.  0.
        4    1    3    3  502    0  0.81411456720E+03 -0.12927827547E+04  0.19195334049E+04  0.24532997951E+04  0.12699999809E+01 0.  1.
       -4    1    3    3    0  502 -0.81411456720E+03  0.12927827547E+04 -0.13657107373E+03  0.15338588756E+04  0.12699999809E+01 0. -1.
</event>
<event>
 5   0  0.1491854E-06  0.3600705E+04  0.7818609E-02  0.8090330E-01
       -2   -1    0    0    0  501  0.00000000000E+00  0.00000000000E+00  0.13759737827E+04  0.13759737827E+04  0.25500000920E-02 0. -1.
        2   -1    0    0  501    0  0.00000000000E+00  0.00000000000E+00 -0.23556180086E+04  0.23556180086E+04  0.25500000920E-02 0.  1.
    10030    2    1    2    0    0  0.00000000000E+00  0.00000000000E+00 -0.97964422587E+03  0.37315917913E+04  0.36007047209E+04 0.  0.
        5    1    3    3  502    0 -0.52760196096E+03 -0.86412327366E+03  0.10529739303E+04  0.14607700193E+04  0.46999998093E+01 0. -1.
       -5    1    3    3    0  502  0.52760196096E+03  0.86412327366E+03 -0.20326181562E+04  0.22708217720E+04  0.46999998093E+01 0.  1.
</event>
<event>
 5   0  0.1505671E-06  0.3631686E+04  0.7818609E-02  0.8083272E-01
        2   -1    0    0  501    0  0.00000000000E+00  0.00000000000E+00  0.16046932541E+04  0.16046932541E+04  0.25500000920E-02 0. -1.
       -2   -1    0    0    0  501  0.00000000000E+00  0.00000000000E+00 -0.20547769177E+04  0.20547769177E+04  0.25500000920E-02 0.  1.
    10030    2    1    2    0    0  0.00000000000E+00  0.00000000000E+00 -0.45008366359E+03  0.36594701719E+04  0.36316864725E+04 0.  0.
        3    1    3    3  502    0 -0.97646648122E+03  0.14260803070E+04  0.33607993668E+03  0.17607218875E+04  0.10100000352E+00 0. -1.
       -3    1    3    3    0  502  0.97646648122E+03 -0.14260803070E+04 -0.78616360027E+03  0.18987482844E+04  0.10100000352E+00 0.  1.
</event>
<event>
 5   0  0.1379425E-06  0.3565772E+04  0.7818609E-02  0.8098377E-01
        2   -1    0    0  501    0  0.00000000000E+00  0.00000000000E+00  0.20303841282E+04  0.20303841282E+04  0.25500000920E-02 0.  1.
       -2   -1    0    0    0  501  0.00000000000E+00  0.00000000000E+00 -0.15655568182E+04  0.15655568182E+04  0.25500000920E-02 0. -1.
    10030    2    1    2    0    0  0.00000000000E+00  0.00000000000E+00  0.46482731006E+03  0.35959409464E+04  0.35657715661E+04 0.  0.
        4    1    3    3  502    0  0.45965823888E+03 -0.15621280627E+04  0.96460783319E+03  0.18926171471E+04  0.12699999809E+01 0.  1.
       -4    1    3    3    0  502 -0.45965823888E+03  0.15621280627E+04 -0.49978052313E+03  0.17033237992E+04  0.12699999809E+01 0. -1.
</event>
<event>
 5   0  0.1468942E-06  0.2716171E+04  0.7818609E-02  0.8329777E-01
        2   -1    0    0  501    0  0.00000000000E+00  0.00000000000E+00  0.74714512628E+03  0.74714512628E+03  0.25500000920E-02 0.  1.
       -2   -1    0    0    0  501  0.00000000000E+00  0.00000000000E+00 -0.24685911817E+04  0.24685911817E+04  0.25500000920E-02 0. -1.
    10030    2    1    2    0    0  0.00000000000E+00  0.00000000000E+00 -0.17214460554E+04  0.32157363079E+04  0.27161707385E+04 0.  0.
        2    1    3    3  502    0  0.98903385114E+03  0.59969791440E+03 -0.18080770325E+02  0.11567853999E+04  0.25500000920E-02 0.  1.
       -2    1    3    3    0  502 -0.98903385114E+03 -0.59969791440E+03 -0.17033652851E+04  0.20589509080E+04  0.25500000920E-02 0. -1.
</event>
<event>
 5   0  0.1468942E-06  0.3599759E+04  0.7818609E-02  0.8090547E-01
       -2   -1    0    0    0  501  0.00000000000E+00  0.00000000000E+00  0.14830907216E+04  0.14830907216E+04  0.25500000920E-02 0.  1.
        2   -1    0    0  501    0  0.00000000000E+00  0.00000000000E+00 -0.21843346637E+04  0.21843346637E+04  0.25500000920E-02 0. -1.
    10030    2    1    2    0    0  0.00000000000E+00  0.00000000000E+00 -0.70124394207E+03  0.36674253853E+04  0.35997591434E+04 0.  0.
        2    1    3    3  502    0 -0.14828291770E+04  0.68895902953E+03 -0.11171745049E+04  0.19802842692E+04  0.25500000920E-02 0. -1.
       -2    1    3    3    0  502  0.14828291770E+04 -0.68895902953E+03  0.41593056284E+03  0.16871411161E+04  0.25500000920E-02 0.  1.
</event>
<event>
 5   0  0.1468942E-06  0.2649003E+04  0.7818609E-02  0.8351744E-01
        2   -1    0    0  501    0  0.00000000000E+00  0.00000000000E+00  0.13206794662E+04  0.13206794662E+04  0.25500000920E-02 0.  1.
       -2   -1    0    0    0  501  0.00000000000E+00  0.00000000000E+00 -0.13283345930E+04  0.13283345930E+04  0.25500000920E-02 0. -1.
    10030    2    1    2    0    0  0.00000000000E+00  0.00000000000E+00 -0.76551268257E+01  0.26490140592E+04  0.26490029983E+04 0.  0.
        2    1    3    3  502    0 -0.11422895756E+04  0.37241224478E+03  0.55365827676E+03  0.13228960058E+04  0.25500000920E-02 0.  1.
       -2    1    3    3    0  502  0.11422895756E+04 -0.37241224478E+03 -0.56131340358E+03  0.13261180535E+04  0.25500000920E-02 0. -1.
</event>
<event>
 5   0  0.1505671E-06  0.2948540E+04  0.7818609E-02  0.8258580E-01
       -2   -1    0    0    0  501  0.00000000000E+00  0.00000000000E+00  0.16256513282E+04  0.16256513282E+04  0.25500000920E-02 0. -1.
        2   -1    0    0  501    0  0.00000000000E+00  0.00000000000E+00 -0.13369851895E+04  0.13369851895E+04  0.25500000920E-02 0.  1.
    10030    2    1    2    0    0  0.00000000000E+00  0.00000000000E+00  0.28866613875E+03  0.29626365177E+04  0.29485398075E+04 0.  0.
        3    1    3    3  502    0 -0.44182591877E+03  0.86803705360E+03  0.12563188301E+04  0.15896652106E+04  0.10100000352E+00 0. -1.
       -3    1    3    3    0  502  0.44182591877E+03 -0.86803705360E+03 -0.96765269130E+03  0.13729713071E+04  0.10100000352E+00 0.  1.
</event>
<event>
 5   0  0.1379425E-06  0.3566526E+04  0.7818609E-02  0.8098203E-01
       -2   -1    0    0    0  501  0.00000000000E+00  0.00000000000E+00  0.12402449935E+04  0.12402449935E+04  0.25500000920E-02 0. -1.
        2   -1    0    0  501    0  0.00000000000E+00  0.00000000000E+00 -0.25640314517E+04  0.25640314517E+04  0.25500000920E-02 0.  1.
    10030    2    1    2    0    0  0.00000000000E+00  0.00000000000E+00 -0.13237864582E+04  0.38042764453E+04  0.35665261369E+04 0.  0.
        4    1    3    3  502    0  0.17100349347E+04 -0.49789172240E+03 -0.56702680788E+03  0.18691272452E+04  0.12699999809E+01 0.  1.
       -4    1    3    3    0  502 -0.17100349347E+04  0.49789172240E+03 -0.75675965030E+03  0.19351492000E+04  0.12699999809E+01 0. -1.
</event>
<event>
 5   0  0.1444091E-06  0.3588473E+04  0.7818609E-02  0.8093137E-01
        2   -1    0    0  501    0  0.00000000000E+00  0.00000000000E+00  0.27930492978E+04  0.27930492978E+04  0.25500000920E-02 0.  1.
       -2   -1    0    0    0  501  0.00000000000E+00  0.00000000000E+00 -0.11526057238E+04  0.11526057238E+04  0.25500000920E-02 0. -1.
    10030    2    1    2    0    0  0.00000000000E+00  0.00000000000E+00  0.16404435741E+04  0.39456550216E+04  0.35884729941E+04 0.  0.
        1    1    3    3  502    0  0.14646595434E+04  0.12245243113E+03 -0.31131899263E+03  0.15023786777E+04  0.50400001928E-02 0. -1.
       -1    1    3    3    0  502 -0.14646595434E+04 -0.12245243113E+03  0.19517625667E+04  0.24432763439E+04  0.50400001928E-02 0.  1.
</event>
<event>
 5   0  0.5071661E-07  0.3363244E+04  0.7818609E-02  0.8146987E-01
        1   -1    0    0  501    0  0.00000000000E+00  0.00000000000E+00  0.15776416302E+04  0.15776416302E+04  0.50400001928E-02 0. -1.
       -1   -1    0    0    0  501  0.00000000000E+00  0.00000000000E+00 -0.17924559388E+04  0.17924559389E+04  0.50400001928E-02 0.  1.
    10030    2    1    2    0    0  0.00000000000E+00  0.00000000000E+00 -0.21481430863E+03  0.33700975691E+04  0.33632443322E+04 0.  0.
        1    1    3    3  502    0 -0.34408168267E+03  0.16429887004E+04 -0.69580095573E+01  0.16786460282E+04  0.50400001928E-02 0. -1.
       -1    1    3    3    0  502  0.34408168267E+03 -0.16429887004E+04 -0.20785629907E+03  0.16914515409E+04  0.50400001928E-02 0.  1.
</event>
<event>
 5   0  0.4811500E-07  0.3165058E+04  0.7818609E-02  0.8198107E-01
        1   -1    0    0  501    0  0.00000000000E+00  0.00000000000E+00  0.18826986545E+04  0.18826986545E+04  0.50400001928E-02 0.  1.
       -1   -1    0    0    0  501  0.00000000000E+00  0.00000000000E+00 -0.13302168754E+04  0.13302168754E+04  0.50400001928E-02 0. -1.
    10030    2    1    2    0    0  0.00000000000E+00  0.00000000000E+00  0.55248177910E+03  0.32129155299E+04  0.31650576750E+04 0.  0.
        3    1    3    3  502    0 -0.64740977310E+03  0.27588765467E+03 -0.11626346259E+04  0.13590337361E+04  0.10100000352E+00 0. -1.
       -3    1    3    3    0  502  0.64740977310E+03 -0.27588765467E+03  0.17151164050E+04  0.18538817938E+04  0.10100000352E+00 0.  1.
</event>
<event>
 5   0  0.5071661E-07  0.3541022E+04  0.7818609E-02  0.8104137E-01
        1   -1    0    0  501    0  0.00000000000E+00  0.00000000000E+00  0.21564387669E+04  0.21564387669E+04  0.50400001928E-02 0.  1.
       -1   -1    0    0    0  501  0.00000000000E+00  0.00000000000E+00 -0.14536509088E+04  0.14536509088E+04  0.50400001928E-02 0. -1.
    10030    2    1    2    0    0  0.00000000000E+00  0.00000000000E+00  0.70278785811E+03  0.36100896757E+04  0.35410219843E+04 0.  0.
        1    1    3    3  502    0  0.15624588965E+04  0.58654376393E+03 -0.25123425554E+03  0.16877292559E+04  0.50400001928E-02 0. -1.
       -1    1    3    3    0  502 -0.15624588965E+04 -0.58654376393E+03  0.95402211365E+03  0.19223604198E+04  0.50400001928E-02 0.  1.
</event>
<event>
 5   0  0.1379425E-06  0.3627447E+04  0.7818609E-02  0.8084233E-01
       -2   -1    0    0    0  501  0.00000000000E+00  0.00000000000E+00  0.13710602482E+04  0.13710602482E+04  0.25500000920E-02 0. -1.
        2   -1    0    0  501    0  0.00000000000E+00  0.00000000000E+00 -0.23993054813E+04  0.23993054813E+04  0.25500000920E-02 0.  1.
    10030    2    1    2    0    0  0.00000000000E+00  0.00000000000E+00 -0.10282452331E+04  0.37703657295E+04  0.36274466881E+04 0.  0.
        4    1    3    3  502    0  0.57451673899E+03 -0.10634881209E+04  0.89137987602E+03  0.15018775459E+04  0.12699999809E+01 0. -1.
       -4    1    3    3    0  502 -0.57451673899E+03  0.10634881209E+04 -0.19196251091E+04  0.22684881836E+04  0.12699999809E+01 0.  1.
</event>
<event>
 5   0  0.1468942E-06  0.3615145E+04  0.7818609E-02  0.8087031E-01
       -2   -1    0    0    0  501  0.00000000000E+00  0.00000000000E+00  0.14450469964E+04  0.14450469964E+04  0.25500000920E-02 0. -1.
        2   -1    0    0  501    0  0.00000000000E+00  0.00000000000E+00 -0.22610464661E+04  0.22610464661E+04  0.25500000920E-02 0.  1.
    10030    2    1    2    0    0  0.00000000000E+00  0.00000000000E+00 -0.81599946965E+03  0.37060934625E+04  0.36151450342E+04 0.  0.
        2    1    3    3  502    0  0.12991681739E+04 -0.98477304910E+03 -0.12084781597E+04  0.20292943021E+04  0.25500000920E-02 0.  1.
       -2    1    3    3    0  502 -0.12991681739E+04  0.98477304910E+03  0.39247869003E+03  0.16767991604E+04  0.25500000920E-02 0. -1.
</event>
<event>
 5   0  0.1468942E-06  0.2875695E+04  0.7818609E-02  0.8280146E-01
        2   -1    0    0  501    0  0.00000000000E+00  0.00000000000E+00  0.12238622665E+04  0.12238622665E+04  0.25500000920E-02 0.  1.
       -2   -1    0    0    0  501  0.00000000000E+00  0.00000000000E+00 -0.16892473142E+04  0.16892473142E+04  0.25500000920E-02 0. -1.
    10030    2    1    2    0    0  0.00000000000E+00  0.00000000000E+00 -0.46538504770E+03  0.29131095807E+04  0.28756954266E+04 0.  0.
        2    1    3    3  502    0 -0.12815001968E+04  0.59722241801E+03 -0.49780082060E+03  0.14989072779E+04  0.25500000920E-02 0.  1.
       -2    1    3    3    0  502  0.12815001968E+04 -0.59722241801E+03  0.32415772900E+02  0.14142023028E+04  0.25500000920E-02 0. -1.
</event>
<event>
 5   0  0.1444091E-06  0.3632181E+04  0.7818609E-02  0.8083160E-01
        2   -1    0    0  501    0  0.00000000000E+00  0.00000000000E+00  0.23409133309E+04  0.23409133309E+04  0.25500000920E-02 0.  1.
       -2   -1    0    0    0  501  0.00000000000E+00  0.00000000000E+00 -0.14089303661E+04  0.14089303661E+04  0.25500000920E-02 0. -1.
    10030    2    1    2    0    0  0.00000000000E+00  0.00000000000E+00  0.93198296487E+03  0.37498436970E+04  0.36321805441E+04 0.  0.
        1    1    3    3  502    0 -0.97229475633E+03  0.91992775883E+02 -0.11147406084E+04  0.14820480384E+04  0.50400001928E-02 0. -1.
       -1    1    3    3    0  502  0.97229475633E+03 -0.91992775883E+02  0.20467235733E+04  0.22677956587E+04  0.50400001928E-02 0.  1.
</event>
<event>
 5   0  0.1491854E-06  0.3561992E+04  0.7818609E-02  0.8099254E-01
       -2   -1    0    0    0  501  0.00000000000E+00  0.00000000000E+00  0.13160128181E+04  0.13160128181E+04  0.25500000920E-02 0.  1.
        2   -1    0    0  501    0  0.00000000000E+00  0.00000000000E+00 -0.24102704482E+04  0.24102704482E+04  0.25500000920E-02 0. -1.
    10030    2    1    2    0    0  0.00000000000E+00  0.00000000000E+00 -0.10942576301E+04  0.37262832663E+04  0.35619920297E+04 0.  0.
        5    1    3    3  502    0  0.12164399837E+04 -0.94858888214E+03 -0.14783417964E+04  0.21366009590E+04  0.46999998093E+01 0. -1.
       -5    1    3    3    0  502 -0.12164399837E+04  0.94858888214E+03  0.38408416637E+03  0.15896823073E+04  0.46999998093E+01 0.  1.
</event>
<event>
 5   0  0.4811500E-07  0.2791973E+04  0.7818609E-02  0.8305765E-01
        1   -1    0    0  501    0  0.00000000000E+00  0.00000000000E+00  0.32713513253E+04  0.32713513253E+04  0.50400001928E-02 0. -1.
       -1   -1    0    0    0  501  0.00000000000E+00  0.00000000000E+00 -0.59571032538E+03  0.59571032541E+03  0.50400001928E-02 0.  1.
    10030    2    1    2    0    0  0.00000000000E+00  0.00000000000E+00  0.26756409999E+04  0.38670616507E+04  0.27919726091E+04 0.  0.
        2    1    3    3  502    0 -0.12500260801E+04  0.87428193188E+02  0.21900221945E+04  0.25231738153E+04  0.25500000920E-02 0. -1.
       -2    1    3    3    0  502  0.12500260801E+04 -0.87428193188E+02  0.48561880543E+03  0.13438878354E+04  0.25500000920E-02 0.  1.
</event>
<event>
 5   0  0.5362450E-07  0.2216686E+04  0.7818609E-02  0.8511515E-01
       -1   -1    0    0    0  501  0.00000000000E+00  0.00000000000E+00  0.75997301960E+03  0.75997301962E+03  0.50400001928E-02 0. -1.
        1   -1    0    0  501    0  0.00000000000E+00  0.00000000000E+00 -0.16164044292E+04  0.16164044292E+04  0.50400001928E-02 0.  1.
    10030    2    1    2    0    0  0.00000000000E+00  0.00000000000E+00 -0.85643140961E+03  0.23763774488E+04  0.22166855934E+04 0.  0.
        3    1    3    3  502    0 -0.94368455569E+02 -0.94393896707E+03 -0.10426527635E+04  0.14096279560E+04  0.10100000352E+00 0.  1.
       -3    1    3    3    0  502  0.94368455569E+02  0.94393896707E+03  0.18622135392E+03  0.96674949280E+03  0.10100000352E+00 0. -1.
</event>
<event>
 5   0  0.5071661E-07  0.3598202E+04  0.7818609E-02  0.8090904E-01
       -1   -1    0    0    0  501  0.00000000000E+00  0.00000000000E+00  0.15249962942E+04  0.15249962942E+04  0.50400001928E-02 0. -1.
        1   -1    0    0  501    0  0.00000000000E+00  0.00000000000E+00 -0.21224738982E+04  0.21224738982E+04  0.50400001928E-02 0.  1.
    10030    2    1    2    0    0  0.00000000000E+00  0.00000000000E+00 -0.59747760404E+03  0.36474701925E+04  0.35982022341E+04 0.  0.
        1    1    3    3  502    0  0.11986972222E+02  0.43968168794E+03 -0.20671312356E+04  0.21134084365E+04  0.50400001928E-02 0.  1.
       -1    1    3    3    0  502 -0.11986972222E+02 -0.43968168794E+03  0.14696536316E+04  0.15340617559E+04  0.50400001928E-02 0. -1.
</event>
<event>
 5   0  0.4811500E-07  0.3456808E+04  0.7818609E-02  0.8124103E-01
       -1   -1    0    0    0  501  0.00000000000E+00  0.00000000000E+00  0.17128830896E+04  0.17128830896E+04  0.50400001928E-02 0. -1.
        1   -1    0    0  501    0  0.00000000000E+00  0.00000000000E+00 -0.17440653024E+04  0.17440653024E+04  0.50400001928E-02 0.  1.
    10030    2    1    2    0    0  0.00000000000E+00  0.00000000000E+00 -0.31182212803E+02  0.34569483921E+04  0.34568077550E+04 0.  0.
        2    1    3    3  502    0  0.62751533110E+03 -0.63304023125E+03  0.14653015202E+04  0.17151163139E+04  0.25500000920E-02 0. -1.
       -2    1    3    3    0  502 -0.62751533110E+03  0.63304023125E+03 -0.14964837330E+04  0.17418320781E+04  0.25500000920E-02 0.  1.
</event>
<event>
 5   0  0.1505671E-06  0.3519187E+04  0.7818609E-02  0.8109258E-01
        2   -1    0    0  501    0  0.00000000000E+00  0.00000000000E+00  0.17404249183E+04  0.17404249183E+04  0.25500000920E-02 0. -1.
       -2   -1    0    0    0  501  0.00000000000E+00  0.00000000000E+00 -0.17789732517E+04  0.17789732517E+04  0.25500000920E-02 0.  1.
    10030    2    1    2    0    0  0.00000000000E+00  0.00000000000E+00 -0.38548333435E+02  0.35193981699E+04  0.35191870517E+04 0.  0.
        3    1    3    3  502    0 -0.11283868079E+04  0.11717916476E+03 -0.13644130798E+04  0.17744325311E+04  0.10100000352E+00 0.  1.
       -3    1    3    3    0  502  0.11283868079E+04 -0.11717916476E+03  0.13258647464E+04  0.17449656388E+04  0.10100000352E+00 0. -1.
</event>
<event>
 5   0  0.4811500E-07  0.3553853E+04  0.7818609E-02  0.8101145E-01
        1   -1    0    0  501    0  0.00000000000E+00  0.00000000000E+00  0.19949129095E+04  0.19949129095E+04  0.50400001928E-02 0.  1.
       -1   -1    0    0    0  501  0.00000000000E+00  0.00000000000E+00 -0.15827601281E+04  0.15827601281E+04  0.50400001928E-02 0. -1.
    10030    2    1    2    0    0  0.00000000000E+00  0.00000000000E+00  0.41215278143E+03  0.35776730376E+04  0.35538534647E+04 0.  0.
        2    1    3    3  502    0 -0.94715140255E+03  0.12222789886E+04  0.10873907300E+04  0.18903651248E+04  0.25500000920E-02 0.  1.
       -2    1    3    3    0  502  0.94715140255E+03 -0.12222789886E+04 -0.67523794860E+03  0.16873079128E+04  0.25500000920E-02 0. -1.
</event>
<event>
 5   0  0.1505671E-06  0.3234461E+04  0.7818609E-02  0.8179775E-01
       -2   -1    0    0    0  501  0.00000000000E+00  0.00000000000E+00  0.18911276991E+04  0.18911276991E+04  0.25500000920E-02 0.  1.
        2   -1    0    0  501    0  0.00000000000E+00  0.00000000000E+00 -0.13830029393E+04  0.13830029393E+04  0.25500000920E-02 0. -1.
    10030    2    1    2    0    0  0.00000000000E+00  0.00000000000E+00  0.50812475985E+03  0.32741306384E+04  0.32344614182E+04 0.  0.
        3    1    3    3  502    0 -0.15270909809E+04 -0.41344594248E+03  0.59357226630E+03  0.16897551470E+04  0.10100000352E+00 0.  1.
       -3    1    3    3    0  502  0.15270909809E+04  0.41344594248E+03 -0.85447506447E+02  0.15843754914E+04  0.10100000352E+00 0. -1.
</event>
<event>
 5   0  0.1379425E-06  0.3623027E+04  0.7818609E-02  0.8085237E-01
       -2   -1    0    0    0  501  0.00000000000E+00  0.00000000000E+00  0.16920088357E+04  0.16920088357E+04  0.25500000920E-02 0. -1.
        2   -1    0    0  501    0  0.00000000000E+00  0.00000000000E+00 -0.19394588414E+04  0.19394588414E+04  0.25500000920E-02 0.  1.
    10030    2    1    2    0    0  0.00000000000E+00  0.00000000000E+00 -0.24745000566E+03  0.36314676771E+04  0.36230271852E+04 0.  0.
        4    1    3    3  502    0 -0.72217616582E+03 -0.67134748800E+03  0.13994646009E+04  0.17119429448E+04  0.12699999809E+01 0. -1.
       -4    1    3    3    0  502  0.72217616582E+03  0.67134748800E+03 -0.16469146065E+04  0.19195247324E+04  0.12699999809E+01 0.  1.
</event>
<event>
 5   0  0.4811500E-07  0.3562485E+04  0.7818609E-02  0.8099139E-01
        1   -1    0    0  501    0  0.00000000000E+00  0.00000000000E+00  0.15844295954E+04  0.15844295954E+04  0.50400001928E-02 0.  1.
       -1   -1    0    0    0  501  0.00000000000E+00  0.00000000000E+00 -0.20025025200E+04  0.20025025200E+04  0.50400001928E-02 0. -1.
    10030    2    1    2    0    0  0.00000000000E+00  0.00000000000E+00 -0.41807292461E+03  0.35869321155E+04  0.35624846709E+04 0.  0.
        5    1    3    3  502    0  0.68251523626E+03 -0.16090913441E+04 -0.55461208957E+03  0.18337444373E+04  0.46999998093E+01 0. -1.
       -5    1    3    3    0  502 -0.68251523626E+03  0.16090913441E+04  0.13653916496E+03  0.17531876782E+04  0.46999998093E+01 0.  1.
</event>
<event>
 5   0  0.4811500E-07  0.3641394E+04  0.7818609E-02  0.8081075E-01
        1   -1    0    0  501    0  0.00000000000E+00  0.00000000000E+00  0.22061197617E+04  0.22061197617E+04  0.50400001928E-02 0.  1.
       -1   -1    0    0    0  501  0.00000000000E+00  0.00000000000E+00 -0.15026103751E+04  0.15026103751E+04  0.50400001928E-02 0. -1.
    10030    2    1    2    0    0  0.00000000000E+00  0.00000000000E+00  0.70350938667E+03  0.37087301368E+04  0.36413944816E+04 0.  0.
        3    1    3    3  502    0 -0.13046564137E+04  0.47235013807E+03  0.15524071588E+04  0.20821169534E+04  0.10100000352E+00 0.  1.
       -3    1    3    3    0  502  0.13046564137E+04 -0.47235013807E+03 -0.84889777216E+03  0.16266131834E+04  0.10100000352E+00 0. -1.
</event>
<event>
 5   0  0.4811500E-07  0.3350312E+04  0.7818609E-02  0.8150210E-01
        1   -1    0    0  501    0  0.00000000000E+00  0.00000000000E+00  0.21618000546E+04  0.21618000546E+04  0.50400001928E-02 0. -1.
       -1   -1    0    0    0  501  0.00000000000E+00  0.00000000000E+00 -0.12980603139E+04  0.12980603139E+04  0.50400001928E-02 0.  1.
    10030    2    1    2    0    0  0.00000000000E+00  0.00000000000E+00  0.86373974071E+03  0.34598603685E+04  0.33503115422E+04 0.  0.
        4    1    3    3  502    0  0.11290067224E+04  0.19994414231E+03 -0.82933798733E+03  0.14150748918E+04  0.12699999809E+01 0.  1.
       -4    1    3    3    0  502 -0.11290067224E+04 -0.19994414231E+03  0.16930777280E+04  0.20447854766E+04  0.12699999809E+01 0. -1.
</event>
<event>
 5   0  0.4811500E-07  0.3572285E+04  0.7818609E-02  0.8096870E-01
       -1   -1    0    0    0  501  0.00000000000E+00  0.00000000000E+00  0.22997400026E+04  0.22997400026E+04  0.50400001928E-02 0. -1.
        1   -1    0    0  501    0  0.00000000000E+00  0.00000000000E+00 -0.13872456022E+04  0.13872456022E+04  0.50400001928E-02 0.  1.
    10030    2    1    2    0    0  0.00000000000E+00  0.00000000000E+00  0.91249440046E+03  0.36869856048E+04  0.35722845378E+04 0.  0.
        5    1    3    3  502    0 -0.16682213760E+03  0.75833165302E+03  0.21164302520E+04  0.22543725565E+04  0.46999998093E+01 0. -1.
       -5    1    3    3    0  502  0.16682213760E+03 -0.75833165302E+03 -0.12039358516E+04  0.14326130483E+04  0.46999998093E+01 0.  1.
</event>
<event>
 5   0  0.1468942E-06  0.2527322E+04  0.7818609E-02  0.8393316E-01
        2   -1    0    0  501    0  0.00000000000E+00  0.00000000000E+00  0.11194172365E+04  0.11194172365E+04  0.25500000920E-02 0. -1.
       -2   -1    0    0    0  501  0.00000000000E+00  0.00000000000E+00 -0.14264919755E+04  0.14264919755E+04  0.25500000920E-02 0.  1.
    10030    2    1    2    0    0  0.00000000000E+00  0.00000000000E+00 -0.30707473900E+03  0.25459092120E+04  0.25273224607E+04 0.  0.
        2    1    3    3  502    0  0.14249300865E+03 -0.25441814241E+03 -0.13921354733E+04  0.14223480674E+04  0.25500000920E-02 0.  1.
       -2    1    3    3    0  502 -0.14249300865E+03  0.25441814241E+03  0.10850607343E+04  0.11235611447E+04  0.25500000920E-02 0. -1.
</event>
<event>
 5   0  0.4811500E-07  0.3497151E+04  0.7818609E-02  0.8114465E-01
        1   -1    0    0  501    0  0.00000000000E+00  0.00000000000E+00  0.20452494247E+04  0.20452494247E+04  0.50400001928E-02 0. -1.
       -1   -1    0    0    0  501  0.00000000000E+00  0.00000000000E+00 -0.14949359749E+04  0.14949359750E+04  0.50400001928E-02 0.  1.
    10030    2    1    2    0    0  0.00000000000E+00  0.00000000000E+00  0.55031344976E+03  0.35401853997E+04  0.34971513795E+04 0.  0.
        2    1    3    3  502    0 -0.40102565820E+03 -0.35991731864E+03 -0.14087898515E+04  0.15083271862E+04  0.25500000920E-02 0.  1.
       -2    1    3    3    0  502  0.40102565820E+03  0.35991731864E+03  0.19591033013E+04  0.20318582135E+04  0.25500000920E-02 0. -1.
</event>
<event>
 5   0  0.1505671E-06  0.3571849E+04  0.7818609E-02  0.8096971E-01
        2   -1    0    0  501    0  0.00000000000E+00  0.00000000000E+00  0.27979139577E+04  0.27979139577E+04  0.25500000920E-02 0.  1.
       -2   -1    0    0    0  501  0.00000000000E+00  0.00000000000E+00 -0.11399657257E+04  0.11399657257E+04  0.25500000920E-02 0. -1.
    10030    2    1    2    0    0  0.00000000000E+00  0.00000000000E+00  0.16579482321E+04  0.39378796834E+04  0.35718488295E+04 0.  0.
        3    1    3    3  502    0  0.58281273653E+03 -0.12587447615E+04  0.20691583199E+04  0.24910891641E+04  0.10100000352E+00 0.  1.
       -3    1    3    3    0  502 -0.58281273653E+03  0.12587447615E+04 -0.41121008784E+03  0.14467905194E+04  0.10100000352E+00 0. -1.
</event>
<event>
 5   0  0.5071661E-07  0.3018850E+04  0.7818609E-02  0.8238368E-01
        1   -1    0    0  501    0  0.00000000000E+00  0.00000000000E+00  0.22121466879E+04  0.22121466879E+04  0.50400001928E-02 0. -1.
       -1   -1    0    0    0  501  0.00000000000E+00  0.00000000000E+00 -0.10299336333E+04  0.10299336333E+04  0.50400001928E-02 0.  1.
    10030    2    1    2    0    0  0.00000000000E+00  0.00000000000E+00  0.11822130546E+04  0.32420803212E+04  0.30188502948E+04 0.  0.
        1    1    3    3  502    0  0.81045264816E+03  0.12252535268E+04  0.96357298079E+03  0.17568587277E+04  0.50400001928E-02 0.  1.
       -1    1    3    3    0  502 -0.81045264816E+03 -0.12252535268E+04  0.21864007377E+03  0.14852215935E+04  0.50400001928E-02 0. -1.
</event>
<event>
 5   0  0.1505671E-06  0.3637704E+04  0.7818609E-02  0.8081909E-01
        2   -1    0    0  501    0  0.00000000000E+00  0.00000000000E+00  0.20323079197E+04  0.20323079197E+04  0.25500000920E-02 0.  1.
       -2   -1    0    0    0  501  0.00000000000E+00  0.00000000000E+00 -0.16278159536E+04  0.16278159536E+04  0.25500000920E-02 0. -1.
    10030    2    1    2    0    0  0.00000000000E+00  0.00000000000E+00  0.40449196615E+03  0.36601238733E+04  0.36377043609E+04 0.  0.
        3    1    3    3  502    0 -0.74261067123E+03  0.11246644570E+04 -0.10267082001E+04  0.16942462891E+04  0.10100000352E+00 0. -1.
       -3    1    3    3    0  502  0.74261067123E+03 -0.11246644570E+04  0.14312001662E+04  0.19658775842E+04  0.10100000352E+00 0.  1.
</event>
<event>
 5   0  0.1491854E-06  0.3607917E+04  0.7818609E-02  0.8088681E-01
       -2   -1    0    0    0  501  0.00000000000E+00  0.00000000000E+00  0.16413760165E+04  0.16413760165E+04  0.25500000920E-02 0. -1.
        2   -1    0    0  501    0  0.00000000000E+00  0.00000000000E+00 -0.19826447487E+04  0.19826447487E+04  0.25500000920E-02 0.  1.
    10030    2    1    2    0    0  0.00000000000E+00  0.00000000000E+00 -0.34126873218E+03  0.36240207652E+04  0.36079165954E+04 0.  0.
        5    1    3    3  502    0  0.75725593945E+03 -0.15540862334E+04  0.34705223118E+03  0.17632605933E+04  0.46999998093E+01 0. -1.
       -5    1    3    3    0  502 -0.75725593945E+03  0.15540862334E+04 -0.68832096336E+03  0.18607601719E+04  0.46999998093E+01 0.  1.
</event>
<event>
 5   0  0.1491854E-06  0.3555968E+04  0.7818609E-02  0.8100653E-01
        2   -1    0    0  501    0  0.00000000000E+00  0.00000000000E+00  0.14571321972E+04  0.14571321972E+04  0.25500000920E-02 0. -1.
       -2   -1    0    0    0  501  0.00000000000E+00  0.00000000000E+00 -0.21694852569E+04  0.21694852569E+04  0.25500000920E-02 0.  1.
    10030    2    1    2    0    0  0.00000000000E+00  0.00000000000E+00 -0.71235305969E+03  0.36266174541E+04  0.35559678397E+04 0.  0.
        5    1    3    3  502    0 -0.12995996431E+04 -0.80368400879E+03 -0.12832681524E+04  0.19954113509E+04  0.46999998093E+01 0.  1.
       -5    1    3    3    0  502  0.12995996431E+04  0.80368400879E+03  0.57091509271E+03  0.16312061033E+04  0.46999998093E+01 0. -1.
</event>
<event>
 5   0  0.1505671E-06  0.3730006E+04  0.7818609E-02  0.8061345E-01
        2   -1    0    0  501    0  0.00000000000E+00  0.00000000000E+00  0.13258041891E+04  0.13258041891E+04  0.25500000920E-02 0.  1.
       -2   -1    0    0    0  501  0.00000000000E+00  0.00000000000E+00 -0.26234909644E+04  0.26234909644E+04  0.25500000920E-02 0. -1.
    10030    2    1    2    0    0  0.00000000000E+00  0.00000000000E+00 -0.12976867753E+04  0.39492951534E+04  0.37300055284E+04 0.  0.
        3    1    3    3  502    0  0.21327606016E+03 -0.16360227199E+04 -0.15695520239E+04  0.22771804021E+04  0.10100000352E+00 0.  1.
       -3    1    3    3    0  502 -0.21327606016E+03  0.16360227199E+04  0.27186524861E+03  0.16721147513E+04  0.10100000352E+00 0. -1.
</event>
<event>
 5   0  0.5071661E-07  0.3611408E+04  0.7818609E-02  0.8087884E-01
       -1   -1    0    0    0  501  0.00000000000E+00  0.00000000000E+00  0.16968229492E+04  0.16968229492E+04  0.50400001928E-02 0. -1.
        1   -1    0    0  501    0  0.00000000000E+00  0.00000000000E+00 -0.19215717663E+04  0.19215717663E+04  0.50400001928E-02 0.  1.
    10030    2    1    2    0    0  0.00000000000E+00  0.00000000000E+00 -0.22474881719E+03  0.36183947155E+04  0.36114080753E+04 0.  0.
        1    1    3    3  502    0  0.16550003740E+03  0.70234576374E+03  0.15460883371E+04  0.17061855059E+04  0.50400001928E-02 0. -1.
       -1    1    3    3    0  502 -0.16550003740E+03 -0.70234576374E+03 -0.17708371543E+04  0.19122092096E+04  0.50400001928E-02 0.  1.
</event>
<event>
 5   0  0.4811500E-07  0.2479001E+04  0.7818609E-02  0.8410505E-01
       -1   -1    0    0    0  501  0.00000000000E+00  0.00000000000E+00  0.92058993204E+03  0.92058993205E+03  0.50400001928E-02 0.  1.
        1   -1    0    0  501    0  0.00000000000E+00  0.00000000000E+00 -0.16688877244E+04  0.16688877244E+04  0.50400001928E-02 0. -1.
    10030    2    1    2    0    0  0.00000000000E+00  0.00000000000E+00 -0.74829779233E+03  0.25894776564E+04  0.24790007961E+04 0.  0.
        2    1    3    3  502    0 -0.35348857874E+03  0.47171981253E+03  0.76480430234E+03  0.96560829415E+03  0.25500000920E-02 0.  1.
       -2    1    3    3    0  502  0.35348857874E+03 -0.47171981253E+03 -0.15131020947E+04  0.16238693623E+04  0.25500000920E-02 0. -1.
</event>
<event>
 5   0  0.4811500E-07  0.3592753E+04  0.7818609E-02  0.8092154E-01
        1   -1    0    0  501    0  0.00000000000E+00  0.00000000000E+00  0.24048814966E+04  0.24048814966E+04  0.50400001928E-02 0. -1.
       -1   -1    0    0    0  501  0.00000000000E+00  0.00000000000E+00 -0.13418412536E+04  0.13418412536E+04  0.50400001928E-02 0.  1.
    10030    2    1    2    0    0  0.00000000000E+00  0.00000000000E+00  0.10630402430E+04  0.37467227502E+04  0.35927533743E+04 0.  0.
        5    1    3    3  502    0 -0.74698652845E+03 -0.99325127306E+03 -0.82114437420E+03  0.14895761607E+04  0.46999998093E+01 0.  1.
       -5    1    3    3    0  502  0.74698652845E+03  0.99325127306E+03  0.18841846172E+04  0.22571465896E+04  0.46999998093E+01 0. -1.
</event>
<event>
 5   0  0.1468942E-06  0.3707700E+04  0.7818609E-02  0.8066258E-01
       -2   -1    0    0    0  501  0.00000000000E+00  0.00000000000E+00  0.21205940200E+04  0.21205940200E+04  0.25500000920E-02 0. -1.
        2   -1    0    0  501    0  0.00000000000E+00  0.00000000000E+00 -0.16206586934E+04  0.16206586934E+04  0.25500000920E-02 0.  1.
    10030    2    1    2    0    0  0.00000000000E+00  0.00000000000E+00  0.49993532660E+03  0.37412527134E+04  0.37076996285E+04 0.  0.
        2    1    3    3  502    0 -0.13110113206E+04  0.81220402688E+03 -0.78809527243E+03  0.17319123022E+04  0.25500000920E-02 0.  1.
       -2    1    3    3    0  502  0.13110113206E+04 -0.81220402688E+03  0.12880305990E+04  0.20093404112E+04  0.25500000920E-02 0. -1.
</event>
<event>
 5   0  0.4811500E-07  0.3589083E+04  0.7818609E-02  0.8092997E-01
        1   -1    0    0  501    0  0.00000000000E+00  0.00000000000E+00  0.18273992849E+04  0.18273992849E+04  0.50400001928E-02 0. -1.
       -1   -1    0    0    0  501  0.00000000000E+00  0.00000000000E+00 -0.17622748486E+04  0.17622748486E+04  0.50400001928E-02 0.  1.
    10030    2    1    2    0    0  0.00000000000E+00  0.00000000000E+00  0.65124436261E+02  0.35896741335E+04  0.35890833360E+04 0.  0.
        3    1    3    3  502    0 -0.27645087058E+03  0.56041964903E+03 -0.16499407537E+04  0.17643128316E+04  0.10100000352E+00 0.  1.
       -3    1    3    3    0  502  0.27645087058E+03 -0.56041964903E+03  0.17150651899E+04  0.18253613020E+04  0.10100000352E+00 0. -1.
</event>
<event>
 5   0  0.4811500E-07  0.2425742E+04  0.7818609E-02  0.8429928E-01
       -1   -1    0    0    0  501  0.00000000000E+00  0.00000000000E+00  0.10124515747E+04  0.10124515747E+04  0.50400001928E-02 0.  1.
        1   -1    0    0  501    0  0.00000000000E+00  0.00000000000E+00 -0.14529646098E+04  0.14529646098E+04  0.50400001928E-02 0. -1.
    10030    2    1    2    0    0  0.00000000000E+00  0.00000000000E+00 -0.44051303511E+03  0.24654161845E+04  0.24257422017E+04 0.  0.
        4    1    3    3  502    0  0.55520327117E+03 -0.55316158958E+02 -0.13147840562E+04  0.14282749305E+04  0.12699999809E+01 0. -1.
       -4    1    3    3    0  502 -0.55520327117E+03  0.55316158958E+02  0.87427102105E+03  0.10371412541E+04  0.12699999809E+01 0.  1.
</event>
<event>
 5   0  0.1379425E-06  0.3606706E+04  0.7818609E-02  0.8088957E-01
       -2   -1    0    0    0  501  0.00000000000E+00  0.00000000000E+00  0.16219815428E+04  0.16219815428E+04  0.25500000920E-02 0. -1.
        2   -1    0    0  501    0  0.00000000000E+00  0.00000000000E+00 -0.20050059102E+04  0.20050059102E+04  0.25500000920E-02 0.  1.
    10030    2    1    2    0    0  0.00000000000E+00  0.00000000000E+00 -0.38302436742E+03  0.36269874531E+04  0.36067062978E+04 0.  0.
        4    1    3    3  502    0  0.15062253571E+04  0.69934505453E+03  0.51549357582E+03  0.17388310933E+04  0.12699999809E+01 0. -1.
       -4    1    3    3    0  502 -0.15062253571E+04 -0.69934505453E+03 -0.89851794325E+03  0.18881563597E+04  0.12699999809E+01 0.  1.
</event>
<event>
 5   0  0.4811500E-07  0.2687410E+04  0.7818609E-02  0.8339102E-01
        1   -1    0    0  501    0  0.00000000000E+00  0.00000000000E+00  0.14037608238E+04  0.14037608238E+04  0.50400001928E-02 0.  1.
       -1   -1    0    0    0  501  0.00000000000E+00  0.00000000000E+00 -0.12862180744E+04  0.12862180744E+04  0.50400001928E-02 0. -1.
    10030    2    1    2    0    0  0.00000000000E+00  0.00000000000E+00  0.11754274940E+03  0.26899788981E+04  0.26874095658E+04 0.  0.
        4    1    3    3  502    0  0.71952753645E+03 -0.92379034916E+03  0.71851642569E+03  0.13738180199E+04  0.12699999809E+01 0.  1.
       -4    1    3    3    0  502 -0.71952753645E+03  0.92379034916E+03 -0.60097367629E+03  0.13161608782E+04  0.12699999809E+01 0. -1.
</event>
<event>
 5   0  0.4811500E-07  0.2873753E+04  0.7818609E-02  0.8280730E-01
       -1   -1    0    0    0  501  0.00000000000E+00  0.00000000000E+00  0.11478945331E+04  0.11478945331E+04  0.50400001928E-02 0. -1.
        1   -1    0    0  501    0  0.00000000000E+00  0.00000000000E+00 -0.17986098050E+04  0.17986098050E+04  0.50400001928E-02 0.  1.
    10030    2    1    2    0    0  0.00000000000E+00  0.00000000000E+00 -0.65071527191E+03  0.29465043382E+04  0.28737531992E+04 0.  0.
        4    1    3    3  502    0 -0.11816229055E+03  0.14112855331E+04 -0.57424458875E+03  0.15282171454E+04  0.12699999809E+01 0. -1.
       -4    1    3    3    0  502  0.11816229055E+03 -0.14112855331E+04 -0.76470683157E+02  0.14182871928E+04  0.12699999809E+01 0.  1.
</event>
<event>
 5   0  0.5071661E-07  0.2702767E+04  0.7818609E-02  0.8334108E-01
       -1   -1    0    0    0  501  0.00000000000E+00  0.00000000000E+00  0.15941351600E+04  0.15941351600E+04  0.50400001928E-02 0. -1.
        1   -1    0    0  501    0  0.00000000000E+00  0.00000000000E+00 -0.11455977011E+04  0.11455977011E+04  0.50400001928E-02 0.  1.
    10030    2    1    2    0    0  0.00000000000E+00  0.00000000000E+00  0.44853745884E+03  0.27397328611E+04  0.27027671558E+04 0.  0.
        1    1    3    3  502    0 -0.66299792460E+03  0.11528567045E+04  0.46753588506E+03  0.14096930988E+04  0.50400001928E-02 0. -1.
       -1    1    3    3    0  502  0.66299792460E+03 -0.11528567045E+04 -0.18998426223E+02  0.13300397623E+04  0.50400001928E-02 0.  1.
</event>
<event>
 5   0  0.1444091E-06  0.3092304E+04  0.7818609E-02  0.8217853E-01
       -2   -1    0    0    0  501  0.00000000000E+00  0.00000000000E+00  0.21897577872E+04  0.21897577872E+04  0.25500000920E-02 0.  1.
        2   -1    0    0  501    0  0.00000000000E+00  0.00000000000E+00 -0.10917128312E+04  0.10917128312E+04  0.25500000920E-02 0. -1.
    10030    2    1    2    0    0  0.00000000000E+00  0.00000000000E+00  0.10980449560E+04  0.32814706184E+04  0.30923044311E+04 0.  0.
        1    1    3    3  502    0 -0.45035723603E+03  0.40185759719E+03 -0.96152898032E+03  0.11352749220E+04  0.50400001928E-02 0. -1.
       -1    1    3    3    0  502  0.45035723603E+03 -0.40185759719E+03  0.20595739363E+04  0.21461956965E+04  0.50400001928E-02 0.  1.
</event>
<event>
 5   0  0.4811500E-07  0.3339570E+04  0.7818609E-02  0.8152899E-01
       -1   -1    0    0    0  501  0.00000000000E+00  0.00000000000E+00  0.11754618879E+04  0.11754618879E+04  0.50400001928E-02 0.  1.
        1   -1    0    0  501    0  0.00000000000E+00  0.00000000000E+00 -0.23719878529E+04  0.23719878529E+04  0.50400001928E-02 0. -1.
    10030    2    1    2    0    0  0.00000000000E+00  0.00000000000E+00 -0.11965259650E+04  0.35474497408E+04  0.33395696247E+04 0.  0.
        3    1    3    3  502    0  0.12435750465E+04  0.90454541549E+03 -0.12895405415E+04  0.20068871726E+04  0.10100000352E+00 0.  1.
       -3    1    3    3    0  502 -0.12435750465E+04 -0.90454541549E+03  0.93014576472E+02  0.15405625682E+04  0.10100000352E+00 0. -1.
</event>
<event>
 5   0  0.1468942E-06  0.3069299E+04  0.7818609E-02  0.8224214E-01
       -2   -1    0    0    0  501  0.00000000000E+00  0.00000000000E+00  0.11532961403E+04  0.11532961403E+04  0.25500000920E-02 0.  1.
        2   -1    0    0  501    0  0.00000000000E+00  0.00000000000E+00 -0.20421026616E+04  0.20421026616E+04  0.25500000920E-02 0. -1.
    10030    2    1    2    0    0  0.00000000000E+00  0.00000000000E+00 -0.88880652129E+03  0.31953988020E+04  0.30692990195E+04 0.  0.
        2    1    3    3  502    0  0.12756884688E+04  0.29194163215E+03 -0.12789205150E+04  0.18298220322E+04  0.25500000920E-02 0. -1.
       -2    1    3    3    0  502 -0.12756884688E+04 -0.29194163215E+03  0.39011399367E+03  0.13655767698E+04  0.25500000920E-02 0.  1.
</event>
<event>
 5   0  0.1505671E-06  0.3406684E+04  0.7818609E-02  0.8136268E-01
        2   -1    0    0  501    0  0.00000000000E+00  0.00000000000E+00  0.19697389406E+04  0.19697389406E+04  0.25500000920E-02 0. -1.
       -2   -1    0    0    0  501  0.00000000000E+00  0.00000000000E+00 -0.14729737419E+04  0.14729737419E+04  0.25500000920E-02 0.  1.
    10030    2    1    2    0    0  0.00000000000E+00  0.00000000000E+00  0.49676519865E+03  0.34427126825E+04  0.34066838643E+04 0.  0.
        3    1    3    3  502    0 -0.38399938474E+03  0.16800867529E+03  0.19168098658E+04  0.19621015555E+04  0.10100000352E+00 0. -1.
       -3    1    3    3    0  502  0.38399938474E+03 -0.16800867529E+03 -0.14200446671E+04  0.14806111270E+04  0.10100000352E+00 0.  1.
</event>
<event>
 5   0  0.4811500E-07  0.3649793E+04  0.7818609E-02  0.8079180E-01
        3   -1    0    0  501    0  0.00000000000E+00  0.00000000000E+00  0.23699562528E+04  0.23699562549E+04  0.10100000352E+00 0. -1.
       -3   -1    0    0    0  501  0.00000000000E+00  0.00000000000E+00 -0.14051938856E+04  0.14051938892E+04  0.10100000352E+00 0.  1.
    10030    2    1    2    0    0  0.00000000000E+00  0.00000000000E+00  0.96476236719E+03  0.37751501442E+04  0.36497934443E+04 0.  0.
        4    1    3    3  502    0 -0.36958392074E+03 -0.25327695357E+03 -0.13474194058E+04  0.14199585057E+04  0.12699999809E+01 0.  1.
       -4    1    3    3    0  502  0.36958392074E+03  0.25327695357E+03  0.23121817730E+04  0.23551916385E+04  0.12699999809E+01 0. -1.
</event>
<event>
 5   0  0.4811500E-07  0.3618829E+04  0.7818609E-02  0.8086192E-01
       -1   -1    0    0    0  501  0.00000000000E+00  0.00000000000E+00  0.15100400144E+04  0.15100400144E+04  0.50400001928E-02 0.  1.
        1   -1    0    0  501    0  0.00000000000E+00  0.00000000000E+00 -0.21681420041E+04  0.21681420041E+04  0.50400001928E-02 0. -1.
    10030    2    1    2    0    0  0.00000000000E+00  0.00000000000E+00 -0.65810198974E+03  0.36781820186E+04  0.36188291936E+04 0.  0.
        5    1    3    3  502    0  0.39164815408E+03 -0.44625068673E+02 -0.21239645446E+04  0.21602377531E+04  0.46999998093E+01 0. -1.
       -5    1    3    3    0  502 -0.39164815408E+03  0.44625068673E+02  0.14658625548E+04  0.15179442654E+04  0.46999998093E+01 0.  1.
</event>
<event>
 5   0  0.1379425E-06  0.3307756E+04  0.7818609E-02  0.8160925E-01
        2   -1    0    0  501    0  0.00000000000E+00  0.00000000000E+00  0.11184898454E+04  0.11184898454E+04  0.25500000920E-02 0. -1.
       -2   -1    0    0    0  501  0.00000000000E+00  0.00000000000E+00 -0.24455403088E+04  0.24455403088E+04  0.25500000920E-02 0.  1.
    10030    2    1    2    0    0  0.00000000000E+00  0.00000000000E+00 -0.13270504635E+04  0.35640301542E+04  0.33077557358E+04 0.  0.
        4    1    3    3  502    0 -0.84679240738E+03  0.14019140031E+04 -0.91132179526E+03  0.18742810037E+04  0.12699999809E+01 0.  1.
       -4    1    3    3    0  502  0.84679240738E+03 -0.14019140031E+04 -0.41572866819E+03  0.16897491505E+04  0.12699999809E+01 0. -1.
</event>
<event>
 5   0  0.1379425E-06  0.3596206E+04  0.7818609E-02  0.8091361E-01
        2   -1    0    0  501    0  0.00000000000E+00  0.00000000000E+00  0.32508113154E+04  0.32508113154E+04  0.25500000920E-02 0.  1.
       -2   -1    0    0    0  501  0.00000000000E+00  0.00000000000E+00 -0.99457451316E+03  0.99457451316E+03  0.25500000920E-02 0. -1.
    10030    2    1    2    0    0  0.00000000000E+00  0.00000000000E+00  0.22562368022E+04  0.42453858285E+04  0.35962058236E+04 0.  0.
        4    1    3    3  502    0 -0.87694487978E+03 -0.69848079893E+03  0.27876869079E+04  0.30046809577E+04  0.12699999809E+01 0.  1.
       -4    1    3    3    0  502  0.87694487978E+03  0.69848079893E+03 -0.53145010567E+03  0.12407048708E+04  0.12699999809E+01 0. -1.
</event>
<event>
 5   0  0.1468942E-06  0.2875294E+04  0.7818609E-02  0.8280266E-01
       -2   -1    0    0    0  501  0.00000000000E+00  0.00000000000E+00  0.17482059150E+04  0.17482059150E+04  0.25500000920E-02 0.  1.
        2   -1    0    0  501    0  0.00000000000E+00  0.00000000000E+00 -0.11822569713E+04  0.11822569713E+04  0.25500000920E-02 0. -1.
    10030    2    1    2    0    0  0.00000000000E+00  0.00000000000E+00  0.56594894366E+03  0.29304628863E+04  0.28752938148E+04 0.  0.
        2    1    3    3  502    0 -0.83940649291E+03  0.11257357002E+04 -0.31068377374E+02  0.14045815644E+04  0.25500000920E-02 0. -1.
       -2    1    3    3    0  502  0.83940649291E+03 -0.11257357002E+04  0.59701732104E+03  0.15258813219E+04  0.25500000920E-02 0.  1.
</event>
<event>
 5   0  0.4811500E-07  0.3577129E+04  0.7818609E-02  0.8095751E-01
       -1   -1    0    0    0  501  0.00000000000E+00  0.00000000000E+00  0.17431241753E+04  0.17431241753E+04  0.50400001928E-02 0.  1.
        1   -1    0    0  501    0  0.00000000000E+00  0.00000000000E+00 -0.18351893397E+04  0.18351893397E+04  0.50400001928E-02 0. -1.
    10030    2    1    2    0    0  0.00000000000E+00  0.00000000000E+00 -0.92065164387E+02  0.35783135150E+04  0.35771289629E+04 0.  0.
        3    1    3    3  502    0 -0.59396459070E+03  0.12163812770E+03 -0.17292582449E+04  0.18324638760E+04  0.10100000352E+00 0. -1.
       -3    1    3    3    0  502  0.59396459070E+03 -0.12163812770E+03  0.16371930805E+04  0.17458496390E+04  0.10100000352E+00 0.  1.
</event>
<event>
 5   0  0.1505671E-06  0.3721386E+04  0.7818609E-02  0.8063239E-01
       -2   -1    0    0    0  501  0.00000000000E+00  0.00000000000E+00  0.16599616652E+04  0.16599616652E+04  0.25500000920E-02 0. -1.
        2   -1    0    0  501    0  0.00000000000E+00  0.00000000000E+00 -0.20856980035E+04  0.20856980035E+04  0.25500000920E-02 0.  1.
    10030    2    1    2    0    0  0.00000000000E+00  0.00000000000E+00 -0.42573633836E+03  0.37456596687E+04  0.37213861562E+04 0.  0.
        3    1    3    3  502    0  0.16210269879E+04 -0.60730311868E+03  0.47395592420E+03  0.17947645533E+04  0.10100000352E+00 0. -1.
       -3    1    3    3    0  502 -0.16210269879E+04  0.60730311868E+03 -0.89969226256E+03  0.19508951154E+04  0.10100000352E+00 0.  1.
</event>
<event>
 5   0  0.4811500E-07  0.3616954E+04  0.7818609E-02  0.8086619E-01
        1   -1    0    0  501    0  0.00000000000E+00  0.00000000000E+00  0.21732233843E+04  0.21732233843E+04  0.50400001928E-02 0.  1.
       -1   -1    0    0    0  501  0.00000000000E+00  0.00000000000E+00 -0.15049481326E+04  0.15049481326E+04  0.50400001928E-02 0. -1.
    10030    2    1    2    0    0  0.00000000000E+00  0.00000000000E+00  0.66827525164E+03  0.36781715169E+04  0.36169536762E+04 0.  0.
        5    1    3    3  502    0  0.16665797331E+04 -0.24012306093E+02  0.10478002218E+04  0.19687488393E+04  0.46999998093E+01 0.  1.
       -5    1    3    3    0  502 -0.16665797331E+04  0.24012306093E+02 -0.37952497020E+03  0.17094226776E+04  0.46999998093E+01 0. -1.
</event>
<event>
 5   0  0.4811500E-07  0.3544153E+04  0.7818609E-02  0.8103405E-01
       -1   -1    0    0    0  501  0.00000000000E+00  0.00000000000E+00  0.16042997363E+04  0.16042997364E+04  0.50400001928E-02 0. -1.
        1   -1    0    0  501    0  0.00000000000E+00  0.00000000000E+00 -0.19573991884E+04  0.19573991884E+04  0.50400001928E-02 0.  1.
    10030    2    1    2    0    0  0.00000000000E+00  0.00000000000E+00 -0.35309945208E+03  0.35616989248E+04  0.35441529323E+04 0.  0.
        3    1    3    3  502    0 -0.24168971404E+03 -0.35066744821E+02 -0.19404060659E+04  0.19557145255E+04  0.10100000352E+00 0.  1.
       -3    1    3    3    0  502  0.24168971404E+03  0.35066744821E+02  0.15873066138E+04  0.16059843993E+04  0.10100000352E+00 0. -1.
</event>
<event>
 5   0  0.4811500E-07  0.3608498E+04  0.7818609E-02  0.8088548E-01
        1   -1    0    0  501    0  0.00000000000E+00  0.00000000000E+00  0.14517553046E+04  0.14517553046E+04  0.50400001928E-02 0.  1.
       -1   -1    0    0    0  501  0.00000000000E+00  0.00000000000E+00 -0.22423302572E+04  0.22423302572E+04  0.50400001928E-02 0. -1.
    10030    2    1    2    0    0  0.00000000000E+00  0.00000000000E+00 -0.79057495264E+03  0.36940855618E+04  0.36084982170E+04 0.  0.
        5    1    3    3  502    0  0.91315767357E+03 -0.13622735681E+04  0.37464568339E+03  0.16822686139E+04  0.46999998093E+01 0.  1.
       -5    1    3    3    0  502 -0.91315767357E+03  0.13622735681E+04 -0.11652206360E+04  0.20118169479E+04  0.46999998093E+01 0. -1.
</event>
<event>
 5   0  0.1379425E-06  0.3568550E+04  0.7818609E-02  0.8097734E-01
       -2   -1    0    0    0  501  0.00000000000E+00  0.00000000000E+00  0.10307636427E+04  0.10307636427E+04  0.25500000920E-02 0.  1.
        2   -1    0    0  501    0  0.00000000000E+00  0.00000000000E+00 -0.30886201162E+04  0.30886201162E+04  0.25500000920E-02 0. -1.
    10030    2    1    2    0    0  0.00000000000E+00  0.00000000000E+00 -0.20578564735E+04  0.41193837589E+04  0.35685500260E+04 0.  0.
        4    1    3    3  502    0  0.11593340769E+04  0.37922872795E+03  0.47429470949E+03  0.13087501726E+04  0.12699999809E+01 0.  1.
       -4    1    3    3    0  502 -0.11593340769E+04 -0.37922872795E+03 -0.25321511830E+04  0.28106335863E+04  0.12699999809E+01 0. -1.
</event>
<event>
 5   0  0.4811500E-07  0.3617157E+04  0.7818609E-02  0.8086573E-01
        1   -1    0    0  501    0  0.00000000000E+00  0.00000000000E+00  0.13296894682E+04  0.13296894683E+04  0.50400001928E-02 0. -1.
       -1   -1    0    0    0  501  0.00000000000E+00  0.00000000000E+00 -0.24599393562E+04  0.24599393562E+04  0.50400001928E-02 0.  1.
    10030    2    1    2    0    0  0.00000000000E+00  0.00000000000E+00 -0.11302498880E+04  0.37896288245E+04  0.36171565930E+04 0.  0.
        4    1    3    3  502    0  0.16963795878E+04  0.53537485031E+03 -0.22302212150E+03  0.17927828691E+04  0.12699999809E+01 0. -1.
       -4    1    3    3    0  502 -0.16963795878E+04 -0.53537485031E+03 -0.90722776646E+03  0.19968459553E+04  0.12699999809E+01 0.  1.
</event>
<event>
 5   0  0.4811500E-07  0.2486529E+04  0.7818609E-02  0.8407800E-01
       -1   -1    0    0    0  501  0.00000000000E+00  0.00000000000E+00  0.20573557342E+04  0.20573557342E+04  0.50400001928E-02 0. -1.
        1   -1    0    0  501    0  0.00000000000E+00  0.00000000000E+00 -0.75130748861E+03  0.75130748863E+03  0.50400001928E-02 0.  1.
    10030    2    1    2    0    0  0.00000000000E+00  0.00000000000E+00  0.13060482456E+04  0.28086632228E+04  0.24865291230E+04 0.  0.
        3    1    3    3  502    0 -0.85055483234E+02 -0.82617096468E+03 -0.39198756384E+03  0.91839379272E+03  0.10100000352E+00 0.  1.
       -3    1    3    3    0  502  0.85055483234E+02  0.82617096468E+03  0.16980358094E+04  0.18902694301E+04  0.10100000352E+00 0. -1.
</event>
<event>
 5   0  0.1468942E-06  0.3507361E+04  0.7818609E-02  0.8112048E-01
        2   -1    0    0  501    0  0.00000000000E+00  0.00000000000E+00  0.27756576473E+04  0.27756576473E+04  0.25500000920E-02 0. -1.
       -2   -1    0    0    0  501  0.00000000000E+00  0.00000000000E+00 -0.11079880177E+04  0.11079880177E+04  0.25500000920E-02 0.  1.
    10030    2    1    2    0    0  0.00000000000E+00  0.00000000000E+00  0.16676696295E+04  0.38836456650E+04  0.35073610675E+04 0.  0.
        2    1    3    3  502    0  0.12215303901E+04 -0.98767193886E+03  0.16970643132E+04  0.23125007321E+04  0.25500000920E-02 0. -1.
       -2    1    3    3    0  502 -0.12215303901E+04  0.98767193886E+03 -0.29394683703E+02  0.15711449329E+04  0.25500000920E-02 0.  1.
</event>
<event>
 5   0  0.4811500E-07  0.3622865E+04  0.7818609E-02  0.8085274E-01
        1   -1    0    0  501    0  0.00000000000E+00  0.00000000000E+00  0.18050930530E+04  0.18050930530E+04  0.50400001928E-02 0.  1.
       -1   -1    0    0    0  501  0.00000000000E+00  0.00000000000E+00 -0.18177943096E+04  0.18177943096E+04  0.50400001928E-02 0. -1.
    10030    2    1    2    0    0  0.00000000000E+00  0.00000000000E+00 -0.12701256612E+02  0.36228873626E+04  0.36228650983E+04 0.  0.
        3    1    3    3  502    0 -0.10319757279E+04 -0.80690752163E+01 -0.14950668863E+04  0.18166628795E+04  0.10100000352E+00 0. -1.
       -3    1    3    3    0  502  0.10319757279E+04  0.80690752163E+01  0.14823656297E+04  0.18062244831E+04  0.10100000352E+00 0.  1.
</event>
<event>
 5   0  0.1379425E-06  0.3450232E+04  0.7818609E-02  0.8125687E-01
        2   -1    0    0  501    0  0.00000000000E+00  0.00000000000E+00  0.28174022895E+04  0.28174022895E+04  0.25500000920E-02 0. -1.
       -2   -1    0    0    0  501  0.00000000000E+00  0.00000000000E+00 -0.10563008904E+04  0.10563008904E+04  0.25500000920E-02 0.  1.
    10030    2    1    2    0    0  0.00000000000E+00  0.00000000000E+00  0.17611013991E+04  0.38737031800E+04  0.34502316137E+04 0.  0.
        4    1    3    3  502    0 -0.15160168741E+04  0.29434359867E+03  0.17437286681E+04  0.23292781280E+04  0.12699999809E+01 0. -1.
       -4    1    3    3    0  502  0.15160168741E+04 -0.29434359867E+03  0.17372730974E+02  0.15444250520E+04  0.12699999809E+01 0.  1.
</event>
<event>
 5   0  0.1444091E-06  0.2792281E+04  0.7818609E-02  0.8305669E-01
        2   -1    0    0  501    0  0.00000000000E+00  0.00000000000E+00  0.17655756349E+04  0.17655756349E+04  0.25500000920E-02 0.  1.
       -2   -1    0    0    0  501  0.00000000000E+00  0.00000000000E+00 -0.11040073214E+04  0.11040073215E+04  0.25500000920E-02 0. -1.
    10030    2    1    2    0    0  0.00000000000E+00  0.00000000000E+00  0.66156831346E+03  0.28695829564E+04  0.27922810944E+04 0.  0.
        1    1    3    3  502    0  0.86202108363E+03 -0.42973403776E+03 -0.70786682669E+03  0.11953355747E+04  0.50400001928E-02 0. -1.
       -1    1    3    3    0  502 -0.86202108363E+03  0.42973403776E+03  0.13694351401E+04  0.16742473816E+04  0.50400001928E-02 0.  1.
</event>
<event>
 5   0  0.1444091E-06  0.3669149E+04  0.7818609E-02  0.8074833E-01
        2   -1    0    0  501    0  0.00000000000E+00  0.00000000000E+00  0.19720934328E+04  0.19720934328E+04  0.25500000920E-02 0.  1.
       -2   -1    0    0    0  501  0.00000000000E+00  0.00000000000E+00 -0.17066449464E+04  0.17066449464E+04  0.25500000920E-02 0. -1.
    10030    2    1    2    0    0  0.00000000000E+00  0.00000000000E+00  0.26544848638E+03  0.36787383792E+04  0.36691488337E+04 0.  0.
        1    1    3    3  502    0  0.72021463552E+03  0.71166162394E+03  0.16665892725E+04  0.19500490228E+04  0.50400001928E-02 0.  1.
       -1    1    3    3    0  502 -0.72021463552E+03 -0.71166162394E+03 -0.14011407861E+04  0.17286893564E+04  0.50400001928E-02 0. -1.
</event>
<event>
 5   0  0.1505671E-06  0.3560444E+04  0.7818609E-02  0.8099613E-01
       -2   -1    0    0    0  501  0.00000000000E+00  0.00000000000E+00  0.16906294900E+04  0.16906294900E+04  0.25500000920E-02 0. -1.
        2   -1    0    0  501    0  0.00000000000E+00  0.00000000000E+00 -0.18745623021E+04  0.18745623021E+04  0.25500000920E-02 0.  1.
    10030    2    1    2    0    0  0.00000000000E+00  0.00000000000E+00 -0.18393281214E+03  0.35651917921E+04  0.35604439660E+04 0.  0.
        3    1    3    3  502    0  0.68680530622E+03 -0.47416529399E+02  0.15519415604E+04  0.16977845779E+04  0.10100000352E+00 0. -1.
       -3    1    3    3    0  502 -0.68680530622E+03  0.47416529399E+02 -0.17358743726E+04  0.18674072141E+04  0.10100000352E+00 0.  1.
</event>
<event>
 5   0  0.1491854E-06  0.3599451E+04  0.7818609E-02  0.8090618E-01
        2   -1    0    0  501    0  0.00000000000E+00  0.00000000000E+00  0.11520803844E+04  0.11520803844E+04  0.25500000920E-02 0.  1.
       -2   -1    0    0    0  501  0.00000000000E+00  0.00000000000E+00 -0.28114457023E+04  0.28114457023E+04  0.25500000920E-02 0. -1.
    10030    2    1    2    0    0  0.00000000000E+00  0.00000000000E+00 -0.16593653179E+04  0.39635260866E+04  0.35994507610E+04 0.  0.
        5    1    3    3  502    0 -0.15045774038E+04 -0.35789776621E+03  0.18381898467E+03  0.15574515993E+04  0.46999998093E+01 0. -1.
       -5    1    3    3    0  502  0.15045774038E+04  0.35789776621E+03 -0.18431843026E+04  0.24060744873E+04  0.46999998093E+01 0.  1.
</event>
<event>
 5   0  0.4811500E-07  0.2650469E+04  0.7818609E-02  0.8351257E-01
        1   -1    0    0  501    0  0.00000000000E+00  0.00000000000E+00  0.16390983924E+04  0.16390983924E+04  0.50400001928E-02 0.  1.
       -1   -1    0    0    0  501  0.00000000000E+00  0.00000000000E+00 -0.10714710824E+04  0.10714710824E+04  0.50400001928E-02 0. -1.
    10030    2    1    2    0    0  0.00000000000E+00  0.00000000000E+00  0.56762731007E+03  0.27105694748E+04  0.26504690367E+04 0.  0.
        3    1    3    3  502    0  0.60414245415E+03  0.95591992339E+03  0.99047829456E+03  0.15032691931E+04  0.10100000352E+00 0.  1.
       -3    1    3    3    0  502 -0.60414245415E+03 -0.95591992339E+03 -0.42285098449E+03  0.12073002817E+04  0.10100000352E+00 0. -1.
</event>
<event>
 5   0  0.4811500E-07  0.3402952E+04  0.7818609E-02  0.8137182E-01
       -1   -1    0    0    0  501  0.00000000000E+00  0.00000000000E+00  0.23694391164E+04  0.23694391164E+04  0.50400001928E-02 0.  1.
        1   -1    0    0  501    0  0.00000000000E+00  0.00000000000E+00 -0.12218170866E+04  0.12218170866E+04  0.50400001928E-02 0. -1.
    10030    2    1    2    0    0  0.00000000000E+00  0.00000000000E+00  0.11476220297E+04  0.35912562030E+04  0.34029523641E+04 0.  0.
        4    1    3    3  502    0 -0.54328337395E+03 -0.15789147676E+04  0.22877778652E+03  0.16853692641E+04  0.12699999809E+01 0. -1.
       -4    1    3    3    0  502  0.54328337395E+03  0.15789147676E+04  0.91884424320E+03  0.19058869389E+04  0.12699999809E+01 0.  1.
</event>
<event>
 5   0  0.1379425E-06  0.3704768E+04  0.7818609E-02  0.8066906E-01
       -2   -1    0    0    0  501  0.00000000000E+00  0.00000000000E+00  0.14375060351E+04  0.14375060351E+04  0.25500000920E-02 0. -1.
        2   -1    0    0  501    0  0.00000000000E+00  0.00000000000E+00 -0.23869996459E+04  0.23869996459E+04  0.25500000920E-02 0.  1.
    10030    2    1    2    0    0  0.00000000000E+00  0.00000000000E+00 -0.94949361082E+03  0.38245056811E+04  0.37047679533E+04 0.  0.
        4    1    3    3  502    0 -0.20548552858E+03  0.57801576702E+02 -0.23742601517E+04  0.23838368664E+04  0.12699999809E+01 0.  1.
       -4    1    3    3    0  502  0.20548552858E+03 -0.57801576702E+02  0.14247665409E+04  0.14406688147E+04  0.12699999809E+01 0. -1.
</event>
<event>
 5   0  0.6024460E-07  0.2209286E+04  0.7818609E-02  0.8514573E-01
       -1   -1    0    0    0  501  0.00000000000E+00  0.00000000000E+00  0.91693472830E+03  0.91693472831E+03  0.50400001928E-02 0. -1.
        1   -1    0    0  501    0  0.00000000000E+00  0.00000000000E+00 -0.13307781297E+04  0.13307781297E+04  0.50400001928E-02 0.  1.
    10030    2    1    2    0    0  0.00000000000E+00  0.00000000000E+00 -0.41384340144E+03  0.22477128581E+04  0.22092864756E+04 0.  0.
        3    1    3    3  502    0  0.55431298917E+03  0.32355740993E+03 -0.11216052967E+04  0.12922657386E+04  0.10100000352E+00 0.  1.
       -3    1    3    3    0  502 -0.55431298917E+03 -0.32355740993E+03  0.70776189524E+03  0.95544711944E+03  0.10100000352E+00 0. -1.
</event>
<event>
 5   0  0.4811500E-07  0.3647651E+04  0.7818609E-02  0.8079663E-01
        1   -1    0    0  501    0  0.00000000000E+00  0.00000000000E+00  0.20177163747E+04  0.20177163747E+04  0.50400001928E-02 0. -1.
       -1   -1    0    0    0  501  0.00000000000E+00  0.00000000000E+00 -0.16485661609E+04  0.16485661609E+04  0.50400001928E-02 0.  1.
    10030    2    1    2    0    0  0.00000000000E+00  0.00000000000E+00  0.36915021388E+03  0.36662825356E+04  0.36476507166E+04 0.  0.
        2    1    3    3  502    0 -0.41524900559E+03 -0.10001491781E+04  0.16595889474E+04  0.19816572835E+04  0.25500000920E-02 0. -1.
       -2    1    3    3    0  502  0.41524900559E+03  0.10001491781E+04 -0.12904387335E+04  0.16846252521E+04  0.25500000920E-02 0.  1.
</event>
<event>
 5   0  0.4811500E-07  0.3575970E+04  0.7818609E-02  0.8096018E-01
        1   -1    0    0  501    0  0.00000000000E+00  0.00000000000E+00  0.11316658578E+04  0.11316658578E+04  0.50400001928E-02 0.  1.
       -1   -1    0    0    0  501  0.00000000000E+00  0.00000000000E+00 -0.28249424678E+04  0.28249424678E+04  0.50400001928E-02 0. -1.
    10030    2    1    2    0    0  0.00000000000E+00  0.00000000000E+00 -0.16932766101E+04  0.39566083256E+04  0.35759703248E+04 0.  0.
        3    1    3    3  502    0  0.66094420587E+03 -0.15600487961E+04 -0.14786600134E+04  0.22487852132E+04  0.10100000352E+00 0. -1.
       -3    1    3    3    0  502 -0.66094420587E+03  0.15600487961E+04 -0.21461659668E+03  0.17078231124E+04  0.10100000352E+00 0.  1.
</event>
<event>
 5   0  0.4811500E-07  0.2999928E+04  0.7818609E-02  0.8243751E-01
        1   -1    0    0  501    0  0.00000000000E+00  0.00000000000E+00  0.24874779161E+04  0.24874779161E+04  0.50400001928E-02 0.  1.
       -1   -1    0    0    0  501  0.00000000000E+00  0.00000000000E+00 -0.90448725114E+03  0.90448725116E+03  0.50400001928E-02 0. -1.
    10030    2    1    2    0    0  0.00000000000E+00  0.00000000000E+00  0.15829906650E+04  0.33919651673E+04  0.29999280409E+04 0.  0.
        3    1    3    3  502    0  0.13735872377E+04 -0.22136491316E+03  0.14252300624E+04  0.19917392061E+04  0.10100000352E+00 0.  1.
       -3    1    3    3    0  502 -0.13735872377E+04  0.22136491316E+03  0.15776060257E+03  0.14002259611E+04  0.10100000352E+00 0. -1.
</event>
<event>
 5   0  0.4811500E-07  0.3119136E+04  0.7818609E-02  0.8210506E-01
       -1   -1    0    0    0  501  0.00000000000E+00  0.00000000000E+00  0.17053808556E+04  0.17053808556E+04  0.50400001928E-02 0. -1.
        1   -1    0    0  501    0  0.00000000000E+00  0.00000000000E+00 -0.14262223394E+04  0.14262223394E+04  0.50400001928E-02 0.  1.
    10030    2    1    2    0    0  0.00000000000E+00  0.00000000000E+00  0.27915851621E+03  0.31316031949E+04  0.31191359530E+04 0.  0.
        5    1    3    3  502    0 -0.44286234997E+03  0.14713924031E+04 -0.12814651668E+03  0.15419358886E+04  0.46999998093E+01 0. -1.
       -5    1    3    3    0  502  0.44286234997E+03 -0.14713924031E+04  0.40730503289E+03  0.15896673063E+04  0.46999998093E+01 0.  1.
</event>
<event>
 5   0  0.4811500E-07  0.3601652E+04  0.7818609E-02  0.8090113E-01
       -1   -1    0    0    0  501  0.00000000000E+00  0.00000000000E+00  0.25868534401E+04  0.25868534401E+04  0.50400001928E-02 0.  1.
        1   -1    0    0  501    0  0.00000000000E+00  0.00000000000E+00 -0.12536366783E+04  0.12536366783E+04  0.50400001928E-02 0. -1.
    10030    2    1    2    0    0  0.00000000000E+00  0.00000000000E+00  0.13332167617E+04  0.38404901184E+04  0.36016520398E+04 0.  0.
        2    1    3    3  502    0  0.12791728160E+04  0.12622701343E+04  0.78988348397E+03  0.19630397101E+04  0.25500000920E-02 0. -1.
       -2    1    3    3    0  502 -0.12791728160E+04 -0.12622701343E+04  0.54333327777E+03  0.18774504083E+04  0.25500000920E-02 0.  1.
</event>
<event>
 5   0  0.4811500E-07  0.3583108E+04  0.7818609E-02  0.8094372E-01
       -3   -1    0    0    0  501  0.00000000000E+00  0.00000000000E+00  0.16444213386E+04  0.16444213417E+04  0.10100000352E+00 0.  1.
        3   -1    0    0  501    0  0.00000000000E+00  0.00000000000E+00 -0.19518507981E+04  0.19518508007E+04  0.10100000352E+00 0. -1.
    10030    2    1    2    0    0  0.00000000000E+00  0.00000000000E+00 -0.30742945955E+03  0.35962721424E+04  0.35831076525E+04 0.  0.
        4    1    3    3  502    0  0.12996671602E+04  0.12123183261E+04 -0.37996042087E+03  0.18174768184E+04  0.12699999809E+01 0. -1.
       -4    1    3    3    0  502 -0.12996671602E+04 -0.12123183261E+04  0.72530961320E+02  0.17787953239E+04  0.12699999809E+01 0.  1.
</event>
<event>
 5   0  0.4811500E-07  0.3424040E+04  0.7818609E-02  0.8132031E-01
        4   -1    0    0  501    0  0.00000000000E+00  0.00000000000E+00  0.14811951919E+04  0.14811957363E+04  0.12699999809E+01 0.  1.
       -4   -1    0    0    0  501  0.00000000000E+00  0.00000000000E+00 -0.19788147164E+04  0.19788151240E+04  0.12699999809E+01 0. -1.
    10030    2    1    2    0    0  0.00000000000E+00  0.00000000000E+00 -0.49761952456E+03  0.34600108603E+04  0.34240400059E+04 0.  0.
        1    1    3    3  502    0 -0.93716697325E+02  0.43940795707E+03 -0.19181788224E+04  0.19700944563E+04  0.50400001928E-02 0. -1.
       -1    1    3    3    0  502  0.93716697325E+02 -0.43940795707E+03  0.14205592979E+04  0.14899164040E+04  0.50400001928E-02 0.  1.
</event>
<event>
 5   0  0.1491854E-06  0.3526627E+04  0.7818609E-02  0.8107509E-01
        2   -1    0    0  501    0  0.00000000000E+00  0.00000000000E+00  0.10180111244E+04  0.10180111244E+04  0.25500000920E-02 0. -1.
       -2   -1    0    0    0  501  0.00000000000E+00  0.00000000000E+00 -0.30542635041E+04  0.30542635041E+04  0.25500000920E-02 0.  1.
    10030    2    1    2    0    0  0.00000000000E+00  0.00000000000E+00 -0.20362523798E+04  0.40722746285E+04  0.35266268439E+04 0.  0.
        5    1    3    3  502    0  0.11460933592E+04 -0.11998229218E+04 -0.32901031100E+03  0.16915599033E+04  0.46999998093E+01 0. -1.
       -5    1    3    3    0  502 -0.11460933592E+04  0.11998229218E+04 -0.17072420688E+04  0.23807147252E+04  0.46999998093E+01 0.  1.
</event>
<event>
 5   0  0.5071661E-07  0.3634913E+04  0.7818609E-02  0.8082541E-01
        1   -1    0    0  501    0  0.00000000000E+00  0.00000000000E+00  0.23512758479E+04  0.23512758479E+04  0.50400001928E-02 0. -1.
       -1   -1    0    0    0  501  0.00000000000E+00  0.00000000000E+00 -0.14048319072E+04  0.14048319072E+04  0.50400001928E-02 0.  1.
    10030    2    1    2    0    0  0.00000000000E+00  0.00000000000E+00  0.94644394075E+03  0.37561077551E+04  0.36349125622E+04 0.  0.
        1    1    3    3  502    0  0.10819458129E+04  0.89922778866E+03  0.16622075355E+04  0.21776481004E+04  0.50400001928E-02 0. -1.
       -1    1    3    3    0  502 -0.10819458129E+04 -0.89922778866E+03 -0.71576359478E+03  0.15784596547E+04  0.50400001928E-02 0.  1.
</event>
<event>
 5   0  0.1491854E-06  0.3701379E+04  0.7818609E-02  0.8067656E-01
       -2   -1    0    0    0  501  0.00000000000E+00  0.00000000000E+00  0.12572912611E+04  0.12572912611E+04  0.25500000920E-02 0.  1.
        2   -1    0    0  501    0  0.00000000000E+00  0.00000000000E+00 -0.27241518810E+04  0.27241518810E+04  0.25500000920E-02 0. -1.
    10030    2    1    2    0    0  0.00000000000E+00  0.00000000000E+00 -0.14668606199E+04  0.39814431421E+04  0.37013793936E+04 0.  0.
        5    1    3    3  502    0  0.35617209233E+03 -0.13957384575E+04  0.51641887135E+03  0.15302466931E+04  0.46999998093E+01 0.  1.
       -5    1    3    3    0  502 -0.35617209233E+03  0.13957384575E+04 -0.19832794913E+04  0.24511964490E+04  0.46999998093E+01 0. -1.
</event>
<event>
 5   0  0.4811500E-07  0.3093111E+04  0.7818609E-02  0.8217631E-01
       -1   -1    0    0    0  501  0.00000000000E+00  0.00000000000E+00  0.17076272224E+04  0.17076272224E+04  0.50400001928E-02 0.  1.
        1   -1    0    0  501    0  0.00000000000E+00  0.00000000000E+00 -0.14006766993E+04  0.14006766993E+04  0.50400001928E-02 0. -1.
    10030    2    1    2    0    0  0.00000000000E+00  0.00000000000E+00  0.30695052306E+03  0.31083039217E+04  0.30931108363E+04 0.  0.
        3    1    3    3  502    0 -0.22845830710E+03  0.69540354590E+03 -0.12155874435E+04  0.14189545915E+04  0.10100000352E+00 0. -1.
       -3    1    3    3    0  502  0.22845830710E+03 -0.69540354590E+03  0.15225379665E+04  0.16893493302E+04  0.10100000352E+00 0.  1.
</event>
<event>
 5   0  0.1379425E-06  0.3635656E+04  0.7818609E-02  0.8082373E-01
       -2   -1    0    0    0  501  0.00000000000E+00  0.00000000000E+00  0.18174895784E+04  0.18174895784E+04  0.25500000920E-02 0. -1.
        2   -1    0    0  501    0  0.00000000000E+00  0.00000000000E+00 -0.18181664868E+04  0.18181664868E+04  0.25500000920E-02 0.  1.
    10030    2    1    2    0    0  0.00000000000E+00  0.00000000000E+00 -0.67690844732E+00  0.36356560652E+04  0.36356560022E+04 0.  0.
        4    1    3    3  502    0 -0.31457585189E+03 -0.14907749451E+04 -0.99186715238E+03  0.18180126414E+04  0.12699999809E+01 0.  1.
       -4    1    3    3    0  502  0.31457585189E+03  0.14907749451E+04  0.99119024393E+03  0.18176434238E+04  0.12699999809E+01 0. -1.
</event>
<event>
 5   0  0.4811500E-07  0.3336341E+04  0.7818609E-02  0.8153710E-01
        1   -1    0    0  501    0  0.00000000000E+00  0.00000000000E+00  0.12456793521E+04  0.12456793521E+04  0.50400001928E-02 0.  1.
       -1   -1    0    0    0  501  0.00000000000E+00  0.00000000000E+00 -0.22339558987E+04  0.22339558987E+04  0.50400001928E-02 0. -1.
    10030    2    1    2    0    0  0.00000000000E+00  0.00000000000E+00 -0.98827654656E+03  0.34796352508E+04  0.33363409517E+04 0.  0.
        4    1    3    3  502    0  0.48992205049E+03  0.10355063768E+04  0.77058331446E+03  0.13806148374E+04  0.12699999809E+01 0.  1.
       -4    1    3    3    0  502 -0.48992205049E+03 -0.10355063768E+04 -0.17588598610E+04  0.20990204133E+04  0.12699999809E+01 0. -1.
</event>
<event>
 5   0  0.1379425E-06  0.2422556E+04  0.7818609E-02  0.8431107E-01
        2   -1    0    0  501    0  0.00000000000E+00  0.00000000000E+00  0.14593947255E+04  0.14593947255E+04  0.25500000920E-02 0. -1.
       -2   -1    0    0    0  501  0.00000000000E+00  0.00000000000E+00 -0.10053440782E+04  0.10053440782E+04  0.25500000920E-02 0.  1.
    10030    2    1    2    0    0  0.00000000000E+00  0.00000000000E+00  0.45405064728E+03  0.24647388037E+04  0.24225555474E+04 0.  0.
        4    1    3    3  502    0  0.16417955709E+03 -0.37935051284E+03 -0.93136528281E+03  0.10189723458E+04  0.12699999809E+01 0.  1.
       -4    1    3    3    0  502 -0.16417955709E+03  0.37935051284E+03  0.13854159301E+04  0.14457664579E+04  0.12699999809E+01 0. -1.
</event>
<event>
 5   0  0.1468942E-06  0.3599112E+04  0.7818609E-02  0.8090695E-01
       -2   -1    0    0    0  501  0.00000000000E+00  0.00000000000E+00  0.15659460502E+04  0.15659460502E+04  0.25500000920E-02 0. -1.
        2   -1    0    0  501    0  0.00000000000E+00  0.00000000000E+00 -0.20680166947E+04  0.20680166947E+04  0.25500000920E-02 0.  1.
    10030    2    1    2    0    0  0.00000000000E+00  0.00000000000E+00 -0.50207064452E+03  0.36339627449E+04  0.35991124322E+04 0.  0.
        2    1    3    3  502    0 -0.70603022732E+03 -0.15479800484E+04  0.34088498161E+03  0.17352012802E+04  0.25500000920E-02 0. -1.
       -2    1    3    3    0  502  0.70603022732E+03  0.15479800484E+04 -0.84295562612E+03  0.18987614647E+04  0.25500000920E-02 0.  1.
</event>
<event>
 5   0  0.5071661E-07  0.3517263E+04  0.7818609E-02  0.8109711E-01
        1   -1    0    0  501    0  0.00000000000E+00  0.00000000000E+00  0.17379625637E+04  0.17379625638E+04  0.50400001928E-02 0. -1.
       -1   -1    0    0    0  501  0.00000000000E+00  0.00000000000E+00 -0.17795461513E+04  0.17795461513E+04  0.50400001928E-02 0.  1.
    10030    2    1    2    0    0  0.00000000000E+00  0.00000000000E+00 -0.41583587562E+02  0.35175087151E+04  0.35172629083E+04 0.  0.
        1    1    3    3  502    0  0.21002851613E+03 -0.11320773911E+04  0.13086142352E+04  0.17430382708E+04  0.50400001928E-02 0. -1.
       -1    1    3    3    0  502 -0.21002851613E+03  0.11320773911E+04 -0.13501978227E+04  0.17744704443E+04  0.50400001928E-02 0.  1.
</event>
<event>
 5   0  0.4811500E-07  0.2482524E+04  0.7818609E-02  0.8409238E-01
        1   -1    0    0  501    0  0.00000000000E+00  0.00000000000E+00  0.20803392753E+04  0.20803392753E+04  0.50400001928E-02 0. -1.
       -1   -1    0    0    0  501  0.00000000000E+00  0.00000000000E+00 -0.74061521213E+03  0.74061521215E+03  0.50400001928E-02 0.  1.
    10030    2    1    2    0    0  0.00000000000E+00  0.00000000000E+00  0.13397240632E+04  0.28209544874E+04  0.24825236464E+04 0.  0.
        5    1    3    3  502    0 -0.10551526292E+04  0.40967250509E+03  0.12487528067E+04  0.16854033033E+04  0.46999998093E+01 0. -1.
       -5    1    3    3    0  502  0.10551526292E+04 -0.40967250509E+03  0.90971256447E+02  0.11355511842E+04  0.46999998093E+01 0.  1.
</event>
<event>
 5   0  0.5071661E-07  0.3589626E+04  0.7818609E-02  0.8092872E-01
       -1   -1    0    0    0  501  0.00000000000E+00  0.00000000000E+00  0.16607780529E+04  0.16607780529E+04  0.50400001928E-02 0.  1.
        1   -1    0    0  501    0  0.00000000000E+00  0.00000000000E+00 -0.19396653888E+04  0.19396653889E+04  0.50400001928E-02 0. -1.
    10030    2    1    2    0    0  0.00000000000E+00  0.00000000000E+00 -0.27888733595E+03  0.36004434418E+04  0.35896260016E+04 0.  0.
        1    1    3    3  502    0  0.27621075814E+03  0.46160546213E+03 -0.18569067882E+04  0.19332549769E+04  0.50400001928E-02 0. -1.
       -1    1    3    3    0  502 -0.27621075814E+03 -0.46160546213E+03  0.15780194523E+04  0.16671884649E+04  0.50400001928E-02 0.  1.
</event>
<event>
 5   0  0.1491854E-06  0.3605581E+04  0.7818609E-02  0.8089215E-01
       -2   -1    0    0    0  501  0.00000000000E+00  0.00000000000E+00  0.13701151790E+04  0.13701151790E+04  0.25500000920E-02 0. -1.
        2   -1    0    0  501    0  0.00000000000E+00  0.00000000000E+00 -0.23721018580E+04  0.23721018580E+04  0.25500000920E-02 0.  1.
    10030    2    1    2    0    0  0.00000000000E+00  0.00000000000E+00 -0.10019866790E+04  0.37422170370E+04  0.36055805424E+04 0.  0.
        5    1    3    3  502    0 -0.10641908698E+04 -0.14518836337E+04 -0.39950018778E+03  0.18439335084E+04  0.46999998093E+01 0. -1.
       -5    1    3    3    0  502  0.10641908698E+04  0.14518836337E+04 -0.60248649122E+03  0.18982835287E+04  0.46999998093E+01 0.  1.
</event>
<event>
 5   0  0.1505671E-06  0.3488570E+04  0.7818609E-02  0.8116504E-01
        2   -1    0    0  501    0  0.00000000000E+00  0.00000000000E+00  0.16277539482E+04  0.16277539482E+04  0.25500000920E-02 0.  1.
       -2   -1    0    0    0  501  0.00000000000E+00  0.00000000000E+00 -0.18691582681E+04  0.18691582681E+04  0.25500000920E-02 0. -1.
    10030    2    1    2    0    0  0.00000000000E+00  0.00000000000E+00 -0.24140431994E+03  0.34969122163E+04  0.34885697647E+04 0.  0.
        3    1    3    3  502    0  0.17414996001E+04 -0.39998455134E+02 -0.30436791843E+02  0.17422247679E+04  0.10100000352E+00 0.  1.
       -3    1    3    3    0  502 -0.17414996001E+04  0.39998455134E+02 -0.21096752810E+03  0.17546874484E+04  0.10100000352E+00 0. -1.
</event>
<event>
 5   0  0.1505671E-06  0.3603348E+04  0.7818609E-02  0.8089725E-01
        2   -1    0    0  501    0  0.00000000000E+00  0.00000000000E+00  0.19594709158E+04  0.19594709158E+04  0.25500000920E-02 0.  1.
       -2   -1    0    0    0  501  0.00000000000E+00  0.00000000000E+00 -0.16565842543E+04  0.16565842543E+04  0.25500000920E-02 0. -1.
    10030    2    1    2    0    0  0.00000000000E+00  0.00000000000E+00  0.30288666155E+03  0.36160551701E+04  0.36033477023E+04 0.  0.
        3    1    3    3  502    0 -0.12602605636E+04  0.15963779211E+03  0.14335590845E+04  0.19154196856E+04  0.10100000352E+00 0.  1.
       -3    1    3    3    0  502  0.12602605636E+04 -0.15963779211E+03 -0.11306724230E+04  0.17006354845E+04  0.10100000352E+00 0. -1.
</event>
<event>
 5   0  0.4811500E-07  0.3616035E+04  0.7818609E-02  0.8086829E-01
       -1   -1    0    0    0  501  0.00000000000E+00  0.00000000000E+00  0.11454329944E+04  0.11454329944E+04  0.50400001928E-02 0.  1.
        1   -1    0    0  501    0  0.00000000000E+00  0.00000000000E+00 -0.28538791311E+04  0.28538791311E+04  0.50400001928E-02 0. -1.
    10030    2    1    2    0    0  0.00000000000E+00  0.00000000000E+00 -0.17084461366E+04  0.39993121255E+04  0.36160350213E+04 0.  0.
        2    1    3    3  502    0 -0.10739729090E+04  0.21489640427E+03  0.73676692702E+03  0.13200090070E+04  0.25500000920E-02 0.  1.
       -2    1    3    3    0  502  0.10739729090E+04 -0.21489640427E+03 -0.24452130637E+04  0.26793031185E+04  0.25500000920E-02 0. -1.
</event>
<event>
 5   0  0.1379425E-06  0.2533986E+04  0.7818609E-02  0.8390977E-01
       -2   -1    0    0    0  501  0.00000000000E+00  0.00000000000E+00  0.77190517839E+03  0.77190517840E+03  0.25500000920E-02 0. -1.
        2   -1    0    0  501    0  0.00000000000E+00  0.00000000000E+00 -0.20796220500E+04  0.20796220500E+04  0.25500000920E-02 0.  1.
    10030    2    1    2    0    0  0.00000000000E+00  0.00000000000E+00 -0.13077168716E+04  0.28515272284E+04  0.25339858165E+04 0.  0.
        4    1    3    3  502    0  0.39437291379E+03 -0.99607986642E+03  0.10734268594E+03  0.10766750487E+04  0.12699999809E+01 0.  1.
       -4    1    3    3    0  502 -0.39437291379E+03  0.99607986642E+03 -0.14150595576E+04  0.17748521797E+04  0.12699999809E+01 0. -1.
</event>
<event>
 5   0  0.5071661E-07  0.3557765E+04  0.7818609E-02  0.8100235E-01
        1   -1    0    0  501    0  0.00000000000E+00  0.00000000000E+00  0.19502622534E+04  0.19502622534E+04  0.50400001928E-02 0. -1.
       -1   -1    0    0    0  501  0.00000000000E+00  0.00000000000E+00 -0.16225623337E+04  0.16225623337E+04  0.50400001928E-02 0.  1.
    10030    2    1    2    0    0  0.00000000000E+00  0.00000000000E+00  0.32769991968E+03  0.35728245871E+04  0.35577645077E+04 0.  0.
        1    1    3    3  502    0 -0.42642908593E+03  0.60630169471E+03  0.17877846626E+04  0.19353597883E+04  0.50400001928E-02 0. -1.
       -1    1    3    3    0  502  0.42642908593E+03 -0.60630169471E+03 -0.14600847430E+04  0.16374647987E+04  0.50400001928E-02 0.  1.
</event>
<event>
 5   0  0.1505671E-06  0.3580974E+04  0.7818609E-02  0.8094864E-01
       -2   -1    0    0    0  501  0.00000000000E+00  0.00000000000E+00  0.14433334545E+04  0.14433334545E+04  0.25500000920E-02 0. -1.
        2   -1    0    0  501    0  0.00000000000E+00  0.00000000000E+00 -0.22211389931E+04  0.22211389931E+04  0.25500000920E-02 0.  1.
    10030    2    1    2    0    0  0.00000000000E+00  0.00000000000E+00 -0.77780553858E+03  0.36644724476E+04  0.35809742897E+04 0.  0.
        3    1    3    3  502    0  0.10659104108E+04 -0.27126233728E+02  0.10830184273E+04  0.15198124096E+04  0.10100000352E+00 0. -1.
       -3    1    3    3    0  502 -0.10659104108E+04  0.27126233728E+02 -0.18608239659E+04  0.21446600380E+04  0.10100000352E+00 0.  1.
</event>
<event>
 5   0  0.5071661E-07  0.3541574E+04  0.7818609E-02  0.8104007E-01
        1   -1    0    0  501    0  0.00000000000E+00  0.00000000000E+00  0.21845763895E+04  0.21845763895E+04  0.50400001928E-02 0. -1.
       -1   -1    0    0    0  501  0.00000000000E+00  0.00000000000E+00 -0.14353752992E+04  0.14353752992E+04  0.50400001928E-02 0.  1.
    10030    2    1    2    0    0  0.00000000000E+00  0.00000000000E+00  0.74920109027E+03  0.36199516887E+04  0.35415742199E+04 0.  0.
        1    1    3    3  502    0  0.27066076241E+03 -0.40727174539E+03  0.21141935449E+04  0.21700096471E+04  0.50400001928E-02 0. -1.
       -1    1    3    3    0  502 -0.27066076241E+03  0.40727174539E+03 -0.13649924547E+04  0.14499420417E+04  0.50400001928E-02 0.  1.
</event>
<event>
 5   0  0.1491854E-06  0.3586083E+04  0.7818609E-02  0.8093687E-01
       -2   -1    0    0    0  501  0.00000000000E+00  0.00000000000E+00  0.17151160689E+04  0.17151160689E+04  0.25500000920E-02 0. -1.
        2   -1    0    0  501    0  0.00000000000E+00  0.00000000000E+00 -0.18745072652E+04  0.18745072652E+04  0.25500000920E-02 0.  1.
    10030    2    1    2    0    0  0.00000000000E+00  0.00000000000E+00 -0.15939119638E+03  0.35896233341E+04  0.35860828389E+04 0.  0.
        5    1    3    3  502    0 -0.12763428963E+04 -0.12310540421E+04 -0.34534449580E+03  0.18066073603E+04  0.46999998093E+01 0.  1.
       -5    1    3    3    0  502  0.12763428963E+04  0.12310540421E+04  0.18595329942E+03  0.17830159738E+04  0.46999998093E+01 0. -1.
</event>
<event>
 5   0  0.4811500E-07  0.3657467E+04  0.7818609E-02  0.8077454E-01
       -3   -1    0    0    0  501  0.00000000000E+00  0.00000000000E+00  0.13932501769E+04  0.13932501806E+04  0.10100000352E+00 0.  1.
        3   -1    0    0  501    0  0.00000000000E+00  0.00000000000E+00 -0.24003345978E+04  0.24003345999E+04  0.10100000352E+00 0. -1.
    10030    2    1    2    0    0  0.00000000000E+00  0.00000000000E+00 -0.10070844209E+04  0.37935847805E+04  0.36574672188E+04 0.  0.
        2    1    3    3  502    0  0.91640983236E+03  0.13756402822E+04  0.30792527287E+03  0.16813718032E+04  0.25500000920E-02 0. -1.
       -2    1    3    3    0  502 -0.91640983236E+03 -0.13756402822E+04 -0.13150096937E+04  0.21122129773E+04  0.25500000920E-02 0.  1.
</event>
<event>
 5   0  0.4811500E-07  0.3653743E+04  0.7818609E-02  0.8078291E-01
       -1   -1    0    0    0  501  0.00000000000E+00  0.00000000000E+00  0.12537964579E+04  0.12537964579E+04  0.50400001928E-02 0.  1.
        1   -1    0    0  501    0  0.00000000000E+00  0.00000000000E+00 -0.26618837215E+04  0.26618837215E+04  0.50400001928E-02 0. -1.
    10030    2    1    2    0    0  0.00000000000E+00  0.00000000000E+00 -0.14080872636E+04  0.39156801794E+04  0.36537434947E+04 0.  0.
        4    1    3    3  502    0  0.84290551629E+03 -0.13878411804E+02  0.10328799620E+04  0.13332385190E+04  0.12699999809E+01 0.  1.
       -4    1    3    3    0  502 -0.84290551629E+03  0.13878411804E+02 -0.24409672256E+04  0.25824416604E+04  0.12699999809E+01 0. -1.
</event>
<event>
 5   0  0.1468942E-06  0.3585801E+04  0.7818609E-02  0.8093752E-01
       -2   -1    0    0    0  501  0.00000000000E+00  0.00000000000E+00  0.11430488566E+04  0.11430488566E+04  0.25500000920E-02 0.  1.
        2   -1    0    0  501    0  0.00000000000E+00  0.00000000000E+00 -0.28122085889E+04  0.28122085889E+04  0.25500000920E-02 0. -1.
    10030    2    1    2    0    0  0.00000000000E+00  0.00000000000E+00 -0.16691597324E+04  0.39552574455E+04  0.35858007820E+04 0.  0.
        2    1    3    3  502    0 -0.11168180059E+04 -0.13902396895E+04 -0.62986997397E+03  0.18912390215E+04  0.25500000920E-02 0. -1.
       -2    1    3    3    0  502  0.11168180059E+04  0.13902396895E+04 -0.10392897584E+04  0.20640184240E+04  0.25500000920E-02 0.  1.
</event>
<event>
 5   0  0.1505671E-06  0.3589058E+04  0.7818609E-02  0.8093003E-01
       -2   -1    0    0    0  501  0.00000000000E+00  0.00000000000E+00  0.27444545297E+04  0.27444545297E+04  0.25500000920E-02 0. -1.
        2   -1    0    0  501    0  0.00000000000E+00  0.00000000000E+00 -0.11733971745E+04  0.11733971745E+04  0.25500000920E-02 0.  1.
    10030    2    1    2    0    0  0.00000000000E+00  0.00000000000E+00  0.15710573552E+04  0.39178517042E+04  0.35890584786E+04 0.  0.
        3    1    3    3  502    0  0.26729751015E+03  0.61826258269E+03 -0.10301695713E+04  0.12308314003E+04  0.10100000352E+00 0.  1.
       -3    1    3    3    0  502 -0.26729751015E+03 -0.61826258269E+03  0.26012269265E+04  0.26870203039E+04  0.10100000352E+00 0. -1.
</event>
<event>
 5   0  0.4811500E-07  0.3579075E+04  0.7818609E-02  0.8095302E-01
       -1   -1    0    0    0  501  0.00000000000E+00  0.00000000000E+00  0.16019959502E+04  0.16019959502E+04  0.50400001928E-02 0.  1.
        1   -1    0    0  501    0  0.00000000000E+00  0.00000000000E+00 -0.19990344796E+04  0.19990344796E+04  0.50400001928E-02 0. -1.
    10030    2    1    2    0    0  0.00000000000E+00  0.00000000000E+00 -0.39703852941E+03  0.36010304298E+04  0.35790753781E+04 0.  0.
        3    1    3    3  502    0 -0.61263877916E+02  0.17882868455E+04 -0.22555463426E+03  0.18034960515E+04  0.10100000352E+00 0. -1.
       -3    1    3    3    0  502  0.61263877916E+02 -0.17882868455E+04 -0.17148389515E+03  0.17975343783E+04  0.10100000352E+00 0.  1.
</event>
<event>
 5   0  0.1491854E-06  0.3442076E+04  0.7818609E-02  0.8127656E-01
        2   -1    0    0  501    0  0.00000000000E+00  0.00000000000E+00  0.23267256117E+04  0.23267256117E+04  0.25500000920E-02 0.  1.
       -2   -1    0    0    0  501  0.00000000000E+00  0.00000000000E+00 -0.12730211705E+04  0.12730211705E+04  0.25500000920E-02 0. -1.
    10030    2    1    2    0    0  0.00000000000E+00  0.00000000000E+00  0.10537044412E+04  0.35997467821E+04  0.34420755143E+04 0.  0.
        5    1    3    3  502    0 -0.20342029351E+03  0.12892854597E+04  0.16999811310E+04  0.21432673068E+04  0.46999998093E+01 0.  1.
       -5    1    3    3    0  502  0.20342029351E+03 -0.12892854597E+04 -0.64627668981E+03  0.14564794754E+04  0.46999998093E+01 0. -1.
</event>
<event>
 5   0  0.1379425E-06  0.3538951E+04  0.7818609E-02  0.8104621E-01
        2   -1    0    0  501    0  0.00000000000E+00  0.00000000000E+00  0.24982074276E+04  0.24982074276E+04  0.25500000920E-02 0. -1.
       -2   -1    0    0    0  501  0.00000000000E+00  0.00000000000E+00 -0.12533158896E+04  0.12533158896E+04  0.25500000920E-02 0.  1.
    10030    2    1    2    0    0  0.00000000000E+00  0.00000000000E+00  0.12448915380E+04  0.37515233173E+04  0.35389507285E+04 0.  0.
        4    1    3    3  502    0  0.51117190071E+03 -0.24211750491E+03  0.23997964467E+04  0.24655510939E+04  0.12699999809E+01 0. -1.
       -4    1    3    3    0  502 -0.51117190071E+03  0.24211750491E+03 -0.11549049087E+04  0.12859722234E+04  0.12699999809E+01 0.  1.
</event>
<event>
 5   0  0.1468942E-06  0.3593391E+04  0.7818609E-02  0.8092007E-01
        2   -1    0    0  501    0  0.00000000000E+00  0.00000000000E+00  0.20620362229E+04  0.20620362229E+04  0.25500000920E-02 0. -1.
       -2   -1    0    0    0  501  0.00000000000E+00  0.00000000000E+00 -0.15654987646E+04  0.15654987646E+04  0.25500000920E-02 0.  1.
    10030    2    1    2    0    0  0.00000000000E+00  0.00000000000E+00  0.49653745825E+03  0.36275349875E+04  0.35933912448E+04 0.  0.
        2    1    3    3  502    0 -0.81568515632E+03 -0.98617309261E+03 -0.10247588987E+04  0.16395153074E+04  0.25500000920E-02 0.  1.
       -2    1    3    3    0  502  0.81568515632E+03  0.98617309261E+03  0.15212963569E+04  0.19880196801E+04  0.25500000920E-02 0. -1.
</event>
<event>
 5   0  0.4811500E-07  0.3673978E+04  0.7818609E-02  0.8073753E-01
       -1   -1    0    0    0  501  0.00000000000E+00  0.00000000000E+00  0.18647801521E+04  0.18647801521E+04  0.50400001928E-02 0. -1.
        1   -1    0    0  501    0  0.00000000000E+00  0.00000000000E+00 -0.18096118863E+04  0.18096118863E+04  0.50400001928E-02 0.  1.
    10030    2    1    2    0    0  0.00000000000E+00  0.00000000000E+00  0.55168265782E+02  0.36743920384E+04  0.36739778598E+04 0.  0.
        2    1    3    3  502    0 -0.78893714694E+03  0.13610747453E+04 -0.92098578085E+03  0.18229539469E+04  0.25500000920E-02 0.  1.
       -2    1    3    3    0  502  0.78893714694E+03 -0.13610747453E+04  0.97615404664E+03  0.18514380915E+04  0.25500000920E-02 0. -1.
</event>
<event>
 5   0  0.1468942E-06  0.3569548E+04  0.7818609E-02  0.8097503E-01
       -2   -1    0    0    0  501  0.00000000000E+00  0.00000000000E+00  0.11791392003E+04  0.11791392003E+04  0.25500000920E-02 0. -1.
        2   -1    0    0  501    0  0.00000000000E+00  0.00000000000E+00 -0.27014773646E+04  0.27014773646E+04  0.25500000920E-02 0.  1.
    10030    2    1    2    0    0  0.00000000000E+00  0.00000000000E+00 -0.15223381644E+04  0.38806165649E+04  0.35695477917E+04 0.  0.
        2    1    3    3  502    0 -0.15851509387E+04  0.41659293103E+03  0.69162306483E+01  0.16389938996E+04  0.25500000920E-02 0. -1.
       -2    1    3    3    0  502  0.15851509387E+04 -0.41659293103E+03 -0.15292543950E+04  0.22416226653E+04  0.25500000920E-02 0.  1.
</event>
<event>
 5   0  0.1491854E-06  0.2774987E+04  0.7818609E-02  0.8311076E-01
       -2   -1    0    0    0  501  0.00000000000E+00  0.00000000000E+00  0.13094720658E+04  0.13094720658E+04  0.25500000920E-02 0.  1.
        2   -1    0    0  501    0  0.00000000000E+00  0.00000000000E+00 -0.14701632179E+04  0.14701632179E+04  0.25500000920E-02 0. -1.
    10030    2    1    2    0    0  0.00000000000E+00  0.00000000000E+00 -0.16069115208E+03  0.27796352838E+04  0.27749866062E+04 0.  0.
        5    1    3    3  502    0 -0.64251721562E+03 -0.11964907456E+04 -0.36489380492E+03  0.14062674197E+04  0.46999998093E+01 0.  1.
       -5    1    3    3    0  502  0.64251721562E+03  0.11964907456E+04  0.20420265283E+03  0.13733678641E+04  0.46999998093E+01 0. -1.
</event>
<event>
 5   0  0.1379425E-06  0.3585557E+04  0.7818609E-02  0.8093808E-01
        2   -1    0    0  501    0  0.00000000000E+00  0.00000000000E+00  0.11383284861E+04  0.11383284861E+04  0.25500000920E-02 0.  1.
       -2   -1    0    0    0  501  0.00000000000E+00  0.00000000000E+00 -0.28234862825E+04  0.28234862825E+04  0.25500000920E-02 0. -1.
    10030    2    1    2    0    0  0.00000000000E+00  0.00000000000E+00 -0.16851577964E+04  0.39618147686E+04  0.35855570644E+04 0.  0.
        4    1    3    3  502    0 -0.14883881220E+04  0.32310758437E+03  0.20236416810E+03  0.15364408815E+04  0.12699999809E+01 0.  1.
       -4    1    3    3    0  502  0.14883881220E+04 -0.32310758437E+03 -0.18875219645E+04  0.24253738871E+04  0.12699999809E+01 0. -1.
</event>
<event>
 5   0  0.1468942E-06  0.3497330E+04  0.7818609E-02  0.8114423E-01
       -2   -1    0    0    0  501  0.00000000000E+00  0.00000000000E+00  0.95701353619E+03  0.95701353620E+03  0.25500000920E-02 0.  1.
        2   -1    0    0  501    0  0.00000000000E+00  0.00000000000E+00 -0.31951789750E+04  0.31951789750E+04  0.25500000920E-02 0. -1.
    10030    2    1    2    0    0  0.00000000000E+00  0.00000000000E+00 -0.22381654388E+04  0.41521925112E+04  0.34973301415E+04 0.  0.
        2    1    3    3  502    0 -0.76416174546E+03  0.48813322046E+03  0.65608379348E+03  0.11192243556E+04  0.25500000920E-02 0.  1.
       -2    1    3    3    0  502  0.76416174546E+03 -0.48813322046E+03 -0.28942492323E+04  0.30329681556E+04  0.25500000920E-02 0. -1.
</event>
<event>
 5   0  0.1491854E-06  0.3608329E+04  0.7818609E-02  0.8088586E-01
        2   -1    0    0  501    0  0.00000000000E+00  0.00000000000E+00  0.10528801720E+04  0.10528801720E+04  0.25500000920E-02 0. -1.
       -2   -1    0    0    0  501  0.00000000000E+00  0.00000000000E+00 -0.30915295605E+04  0.30915295605E+04  0.25500000920E-02 0.  1.
    10030    2    1    2    0    0  0.00000000000E+00  0.00000000000E+00 -0.20386493885E+04  0.41444097326E+04  0.36083293506E+04 0.  0.
        5    1    3    3  502    0 -0.20075357854E+03  0.26581877122E+03 -0.30558959539E+04  0.30740012670E+04  0.46999998093E+01 0.  1.
       -5    1    3    3    0  502  0.20075357854E+03 -0.26581877122E+03  0.10172465654E+04  0.10704084656E+04  0.46999998093E+01 0. -1.
</event>
<event>
 5   0  0.5071661E-07  0.3151596E+04  0.7818609E-02  0.8201719E-01
       -1   -1    0    0    0  501  0.00000000000E+00  0.00000000000E+00  0.11072407732E+04  0.11072407732E+04  0.50400001928E-02 0.  1.
        1   -1    0    0  501    0  0.00000000000E+00  0.00000000000E+00 -0.22426369970E+04  0.22426369970E+04  0.50400001928E-02 0. -1.
    10030    2    1    2    0    0  0.00000000000E+00  0.00000000000E+00 -0.11353962238E+04  0.33498777702E+04  0.31515958641E+04 0.  0.
        1    1    3    3  502    0 -0.78137807614E+03  0.32313790696E+03  0.84568651765E+03  0.11958910866E+04  0.50400001928E-02 0.  1.
       -1    1    3    3    0  502  0.78137807614E+03 -0.32313790696E+03 -0.19810827415E+04  0.21539866836E+04  0.50400001928E-02 0. -1.
</event>
<event>
 5   0  0.1505671E-06  0.3572006E+04  0.7818609E-02  0.8096934E-01
        2   -1    0    0  501    0  0.00000000000E+00  0.00000000000E+00  0.26735094491E+04  0.26735094491E+04  0.25500000920E-02 0.  1.
       -2   -1    0    0    0  501  0.00000000000E+00  0.00000000000E+00 -0.11931159497E+04  0.11931159497E+04  0.25500000920E-02 0. -1.
    10030    2    1    2    0    0  0.00000000000E+00  0.00000000000E+00  0.14803934994E+04  0.38666253988E+04  0.35720060276E+04 0.  0.
        3    1    3    3  502    0 -0.96836089577E+03 -0.10131555009E+04  0.19385759648E+04  0.23921295272E+04  0.10100000352E+00 0.  1.
       -3    1    3    3    0  502  0.96836089577E+03  0.10131555009E+04 -0.45818246539E+03  0.14744958716E+04  0.10100000352E+00 0. -1.
</event>
<event>
 5   0  0.5071661E-07  0.2360602E+04  0.7818609E-02  0.8454402E-01
        1   -1    0    0  501    0  0.00000000000E+00  0.00000000000E+00  0.81675607986E+03  0.81675607987E+03  0.50400001928E-02 0.  1.
       -1   -1    0    0    0  501  0.00000000000E+00  0.00000000000E+00 -0.17056632844E+04  0.17056632844E+04  0.50400001928E-02 0. -1.
    10030    2    1    2    0    0  0.00000000000E+00  0.00000000000E+00 -0.88890720456E+03  0.25224193643E+04  0.23606023450E+04 0.  0.
        1    1    3    3  502    0  0.73415495587E+03 -0.14205245283E+03  0.53135369801E+03  0.91733262833E+03  0.50400001928E-02 0.  1.
       -1    1    3    3    0  502 -0.73415495587E+03  0.14205245283E+03 -0.14202609026E+04  0.16050867360E+04  0.50400001928E-02 0. -1.
</event>
<event>
 5   0  0.1468942E-06  0.3626528E+04  0.7818609E-02  0.8084442E-01
       -2   -1    0    0    0  501  0.00000000000E+00  0.00000000000E+00  0.16220381779E+04  0.16220381779E+04  0.25500000920E-02 0. -1.
        2   -1    0    0  501    0  0.00000000000E+00  0.00000000000E+00 -0.20270336870E+04  0.20270336870E+04  0.25500000920E-02 0.  1.
    10030    2    1    2    0    0  0.00000000000E+00  0.00000000000E+00 -0.40499550913E+03  0.36490718648E+04  0.36265278315E+04 0.  0.
        2    1    3    3  502    0 -0.12897484251E+04  0.67461479997E+03  0.88559860429E+03  0.17037725835E+04  0.25500000920E-02 0. -1.
       -2    1    3    3    0  502  0.12897484251E+04 -0.67461479997E+03 -0.12905941134E+04  0.19452992813E+04  0.25500000920E-02 0.  1.
</event>
<event>
 5   0  0.1491854E-06  0.3596539E+04  0.7818609E-02  0.8091285E-01
       -2   -1    0    0    0  501  0.00000000000E+00  0.00000000000E+00  0.12597216164E+04  0.12597216164E+04  0.25500000920E-02 0. -1.
        2   -1    0    0  501    0  0.00000000000E+00  0.00000000000E+00 -0.25670535729E+04  0.25670535729E+04  0.25500000920E-02 0.  1.
    10030    2    1    2    0    0  0.00000000000E+00  0.00000000000E+00 -0.13073319565E+04  0.38267751893E+04  0.35965388229E+04 0.  0.
        5    1    3    3  502    0 -0.42622367422E+03  0.13181970414E+04  0.56621848531E+03  0.14966414145E+04  0.46999998093E+01 0. -1.
       -5    1    3    3    0  502  0.42622367422E+03 -0.13181970414E+04 -0.18735504418E+04  0.23301337748E+04  0.46999998093E+01 0.  1.
</event>
<event>
 5   0  0.5071661E-07  0.3548541E+04  0.7818609E-02  0.8102382E-01
        1   -1    0    0  501    0  0.00000000000E+00  0.00000000000E+00  0.19664335202E+04  0.19664335202E+04  0.50400001928E-02 0.  1.
       -1   -1    0    0    0  501  0.00000000000E+00  0.00000000000E+00 -0.16008855077E+04  0.16008855078E+04  0.50400001928E-02 0. -1.
    10030    2    1    2    0    0  0.00000000000E+00  0.00000000000E+00  0.36554801242E+03  0.35673190279E+04  0.35485405025E+04 0.  0.
        1    1    3    3  502    0 -0.30185501786E+02 -0.82563462507E+03  0.17612587597E+04  0.19454089846E+04  0.50400001928E-02 0.  1.
       -1    1    3    3    0  502  0.30185501786E+02  0.82563462507E+03 -0.13957107473E+04  0.16219100434E+04  0.50400001928E-02 0. -1.
</event>
<event>
 5   0  0.4811500E-07  0.3569491E+04  0.7818609E-02  0.8097516E-01
       -1   -1    0    0    0  501  0.00000000000E+00  0.00000000000E+00  0.10458304205E+04  0.10458304205E+04  0.50400001928E-02 0. -1.
        1   -1    0    0  501    0  0.00000000000E+00  0.00000000000E+00 -0.30457287918E+04  0.30457287918E+04  0.50400001928E-02 0.  1.
    10030    2    1    2    0    0  0.00000000000E+00  0.00000000000E+00 -0.19998983713E+04  0.40915592123E+04  0.35694906208E+04 0.  0.
        4    1    3    3  502    0 -0.15292260935E+04  0.17840925678E+03  0.34832144249E+02  0.15399925971E+04  0.12699999809E+01 0. -1.
       -4    1    3    3    0  502  0.15292260935E+04 -0.17840925678E+03 -0.20347305156E+04  0.25515666152E+04  0.12699999809E+01 0.  1.
</event>
<event>
 5   0  0.4811500E-07  0.3693063E+04  0.7818609E-02  0.8069501E-01
       -1   -1    0    0    0  501  0.00000000000E+00  0.00000000000E+00  0.24584364055E+04  0.24584364055E+04  0.50400001928E-02 0. -1.
        1   -1    0    0  501    0  0.00000000000E+00  0.00000000000E+00 -0.13869298954E+04  0.13869298954E+04  0.50400001928E-02 0.  1.
    10030    2    1    2    0    0  0.00000000000E+00  0.00000000000E+00  0.10715065101E+04  0.38453663009E+04  0.36930631983E+04 0.  0.
        3    1    3    3  502    0 -0.28749650417E+03 -0.12290731787E+03 -0.13591663807E+04  0.13946661641E+04  0.10100000352E+00 0.  1.
       -3    1    3    3    0  502  0.28749650417E+03  0.12290731787E+03  0.24306728907E+04  0.24507001368E+04  0.10100000352E+00 0. -1.
</event>
<event>
 5   0  0.4811500E-07  0.3619804E+04  0.7818609E-02  0.8085970E-01
        3   -1    0    0  501    0  0.00000000000E+00  0.00000000000E+00  0.10372554931E+04  0.10372554980E+04  0.10100000352E+00 0.  1.
       -3   -1    0    0    0  501  0.00000000000E+00  0.00000000000E+00 -0.31580893959E+04  0.31580893975E+04  0.10100000352E+00 0. -1.
    10030    2    1    2    0    0  0.00000000000E+00  0.00000000000E+00 -0.21208339028E+04  0.41953448955E+04  0.36198041865E+04 0.  0.
        2    1    3    3  502    0  0.96163933274E+03 -0.23159302724E+03  0.69628111784E+03  0.12096251203E+04  0.25500000920E-02 0.  1.
       -2    1    3    3    0  502 -0.96163933274E+03  0.23159302724E+03 -0.28171150207E+04  0.29857197752E+04  0.25500000920E-02 0. -1.
</event>
<event>
 5   0  0.4811500E-07  0.3561926E+04  0.7818609E-02  0.8099269E-01
        1   -1    0    0  501    0  0.00000000000E+00  0.00000000000E+00  0.14042461966E+04  0.14042461966E+04  0.50400001928E-02 0.  1.
       -1   -1    0    0    0  501  0.00000000000E+00  0.00000000000E+00 -0.22587410472E+04  0.22587410472E+04  0.50400001928E-02 0. -1.
    10030    2    1    2    0    0  0.00000000000E+00  0.00000000000E+00 -0.85449485052E+03  0.36629872438E+04  0.35619256167E+04 0.  0.
        5    1    3    3  502    0  0.14351675215E+04  0.13778325571E+03  0.64793897941E+03  0.15806761374E+04  0.46999998093E+01 0.  1.
       -5    1    3    3    0  502 -0.14351675215E+04 -0.13778325571E+03 -0.15024338299E+04  0.20823111064E+04  0.46999998093E+01 0. -1.
</event>
<event>
 5   0  0.4811500E-07  0.3591818E+04  0.7818609E-02  0.8092368E-01
        1   -1    0    0  501    0  0.00000000000E+00  0.00000000000E+00  0.19630900315E+04  0.19630900315E+04  0.50400001928E-02 0. -1.
       -1   -1    0    0    0  501  0.00000000000E+00  0.00000000000E+00 -0.16429653404E+04  0.16429653404E+04  0.50400001928E-02 0.  1.
    10030    2    1    2    0    0  0.00000000000E+00  0.00000000000E+00  0.32012469108E+03  0.36060553719E+04  0.35918178583E+04 0.  0.
        3    1    3    3  502    0 -0.11097430370E+03  0.12651312008E+04  0.14349053899E+04  0.19162008610E+04  0.10100000352E+00 0. -1.
       -3    1    3    3    0  502  0.11097430370E+03 -0.12651312008E+04 -0.11147806989E+04  0.16898545109E+04  0.10100000352E+00 0.  1.
</event>
<event>
 5   0  0.1491854E-06  0.3523479E+04  0.7818609E-02  0.8108248E-01
       -2   -1    0    0    0  501  0.00000000000E+00  0.00000000000E+00  0.19062856979E+04  0.19062856979E+04  0.25500000920E-02 0. -1.
        2   -1    0    0  501    0  0.00000000000E+00  0.00000000000E+00 -0.16281540883E+04  0.16281540883E+04  0.25500000920E-02 0.  1.
    10030    2    1    2    0    0  0.00000000000E+00  0.00000000000E+00  0.27813160965E+03  0.35344397862E+04  0.35234794465E+04 0.  0.
        5    1    3    3  502    0 -0.10819613063E+04 -0.10854572609E+04  0.10105877352E+04  0.18358015671E+04  0.46999998093E+01 0. -1.
       -5    1    3    3    0  502  0.10819613063E+04  0.10854572609E+04 -0.73245612552E+03  0.16986382191E+04  0.46999998093E+01 0.  1.
</event>
<event>
 5   0  0.4811500E-07  0.3565343E+04  0.7818609E-02  0.8098477E-01
       -1   -1    0    0    0  501  0.00000000000E+00  0.00000000000E+00  0.14679133583E+04  0.14679133583E+04  0.50400001928E-02 0.  1.
        1   -1    0    0  501    0  0.00000000000E+00  0.00000000000E+00 -0.21649219962E+04  0.21649219962E+04  0.50400001928E-02 0. -1.
    10030    2    1    2    0    0  0.00000000000E+00  0.00000000000E+00 -0.69700863790E+03  0.36328353544E+04  0.35653431351E+04 0.  0.
        5    1    3    3  502    0 -0.40016667932E+03 -0.70556758968E+03 -0.19659853984E+04  0.21267533170E+04  0.46999998093E+01 0. -1.
       -5    1    3    3    0  502  0.40016667932E+03  0.70556758968E+03  0.12689767605E+04  0.15060820374E+04  0.46999998093E+01 0.  1.
</event>
<event>
 5   0  0.1491854E-06  0.3138071E+04  0.7818609E-02  0.8205367E-01
        2   -1    0    0  501    0  0.00000000000E+00  0.00000000000E+00  0.17115721416E+04  0.17115721416E+04  0.25500000920E-02 0. -1.
       -2   -1    0    0    0  501  0.00000000000E+00  0.00000000000E+00 -0.14383689889E+04  0.14383689889E+04  0.25500000920E-02 0.  1.
    10030    2    1    2    0    0  0.00000000000E+00  0.00000000000E+00  0.27320315270E+03  0.31499411305E+04  0.31380709302E+04 0.  0.
        5    1    3    3  502    0  0.12819692167E+04  0.69499258532E+03  0.71792124543E+03  0.16253900365E+04  0.46999998093E+01 0. -1.
       -5    1    3    3    0  502 -0.12819692167E+04 -0.69499258532E+03 -0.44471809273E+03  0.15245510940E+04  0.46999998093E+01 0.  1.
</event>
<event>
 5   0  0.4811500E-07  0.3549676E+04  0.7818609E-02  0.8102117E-01
       -1   -1    0    0    0  501  0.00000000000E+00  0.00000000000E+00  0.13423568979E+04  0.13423568979E+04  0.50400001928E-02 0.  1.
        1   -1    0    0  501    0  0.00000000000E+00  0.00000000000E+00 -0.23466554035E+04  0.23466554035E+04  0.50400001928E-02 0. -1.
    10030    2    1    2    0    0  0.00000000000E+00  0.00000000000E+00 -0.10042985056E+04  0.36890123014E+04  0.35496755163E+04 0.  0.
        4    1    3    3  502    0  0.12816697784E+04 -0.80279665893E+03  0.46323131350E+03  0.15816904751E+04  0.12699999809E+01 0. -1.
       -4    1    3    3    0  502 -0.12816697784E+04  0.80279665893E+03 -0.14675298191E+04  0.21073218262E+04  0.12699999809E+01 0.  1.
</event>
<event>
 5   0  0.4811500E-07  0.3095009E+04  0.7818609E-02  0.8217109E-01
        1   -1    0    0  501    0  0.00000000000E+00  0.00000000000E+00  0.18379308042E+04  0.18379308042E+04  0.50400001928E-02 0. -1.
       -1   -1    0    0    0  501  0.00000000000E+00  0.00000000000E+00 -0.13029711576E+04  0.13029711576E+04  0.50400001928E-02 0.  1.
    10030    2    1    2    0    0  0.00000000000E+00  0.00000000000E+00  0.53495964666E+03  0.31409019618E+04  0.30950094200E+04 0.  0.
        5    1    3    3  502    0 -0.10069546076E+04  0.11674643450E+04  0.13201584714E+03  0.15473787037E+04  0.46999998093E+01 0.  1.
       -5    1    3    3    0  502  0.10069546076E+04 -0.11674643450E+04  0.40294379953E+03  0.15935232581E+04  0.46999998093E+01 0. -1.
</event>
<event>
 5   0  0.1505671E-06  0.3660183E+04  0.7818609E-02  0.8076844E-01
        2   -1    0    0  501    0  0.00000000000E+00  0.00000000000E+00  0.22268364298E+04  0.22268364298E+04  0.25500000920E-02 0. -1.
       -2   -1    0    0    0  501  0.00000000000E+00  0.00000000000E+00 -0.15040323577E+04  0.15040323577E+04  0.25500000920E-02 0.  1.
    10030    2    1    2    0    0  0.00000000000E+00  0.00000000000E+00  0.72280407203E+03  0.37308687875E+04  0.36601825341E+04 0.  0.
        3    1    3    3  502    0  0.26096889300E+03 -0.17621494792E+04  0.78897706988E+03  0.19482711251E+04  0.10100000352E+00 0. -1.
       -3    1    3    3    0  502 -0.26096889300E+03  0.17621494792E+04 -0.66172997847E+02  0.17825976624E+04  0.10100000352E+00 0.  1.
</event>
<event>
 5   0  0.1491854E-06  0.3069791E+04  0.7818609E-02  0.8224078E-01
       -2   -1    0    0    0  501  0.00000000000E+00  0.00000000000E+00  0.14957630093E+04  0.14957630093E+04  0.25500000920E-02 0.  1.
        2   -1    0    0  501    0  0.00000000000E+00  0.00000000000E+00 -0.15750518601E+04  0.15750518601E+04  0.25500000920E-02 0. -1.
    10030    2    1    2    0    0  0.00000000000E+00  0.00000000000E+00 -0.79288850833E+02  0.30708148694E+04  0.30697910744E+04 0.  0.
        5    1    3    3  502    0  0.14334811658E+02  0.10628993720E+04  0.10679383030E+04  0.15068095005E+04  0.46999998093E+01 0.  1.
       -5    1    3    3    0  502 -0.14334811658E+02 -0.10628993720E+04 -0.11472271538E+04  0.15640053690E+04  0.46999998093E+01 0. -1.
</event>
<event>
 5   0  0.4811500E-07  0.3087658E+04  0.7818609E-02  0.8219133E-01
        1   -1    0    0  501    0  0.00000000000E+00  0.00000000000E+00  0.15658105119E+04  0.15658105119E+04  0.50400001928E-02 0. -1.
       -1   -1    0    0    0  501  0.00000000000E+00  0.00000000000E+00 -0.15221559285E+04  0.15221559285E+04  0.50400001928E-02 0.  1.
    10030    2    1    2    0    0  0.00000000000E+00  0.00000000000E+00  0.43654583446E+02  0.30879664404E+04  0.30876578525E+04 0.  0.
        5    1    3    3  502    0  0.67446644360E+03  0.52312103620E+03  0.13083558971E+04  0.15621708759E+04  0.46999998093E+01 0. -1.
       -5    1    3    3    0  502 -0.67446644360E+03 -0.52312103620E+03 -0.12647013136E+04  0.15257955645E+04  0.46999998093E+01 0.  1.
</event>
<event>
 5   0  0.1379425E-06  0.3580773E+04  0.7818609E-02  0.8094910E-01
        2   -1    0    0  501    0  0.00000000000E+00  0.00000000000E+00  0.25948674687E+04  0.25948674687E+04  0.25500000920E-02 0. -1.
       -2   -1    0    0    0  501  0.00000000000E+00  0.00000000000E+00 -0.12353170664E+04  0.12353170664E+04  0.25500000920E-02 0.  1.
    10030    2    1    2    0    0  0.00000000000E+00  0.00000000000E+00  0.13595504023E+04  0.38301845350E+04  0.35807731394E+04 0.  0.
        4    1    3    3  502    0 -0.12257122251E+04  0.86943278434E+03 -0.36125522349E+03  0.15455713424E+04  0.12699999809E+01 0.  1.
       -4    1    3    3    0  502  0.12257122251E+04 -0.86943278434E+03  0.17208056258E+04  0.22846131926E+04  0.12699999809E+01 0. -1.
</event>
<event>
 5   0  0.5071661E-07  0.3618684E+04  0.7818609E-02  0.8086225E-01
       -1   -1    0    0    0  501  0.00000000000E+00  0.00000000000E+00  0.28740307585E+04  0.28740307585E+04  0.50400001928E-02 0. -1.
        1   -1    0    0  501    0  0.00000000000E+00  0.00000000000E+00 -0.11390684244E+04  0.11390684245E+04  0.50400001928E-02 0.  1.
    10030    2    1    2    0    0  0.00000000000E+00  0.00000000000E+00  0.17349623341E+04  0.40130991830E+04  0.36186835661E+04 0.  0.
        1    1    3    3  502    0  0.91411595286E+02  0.17950865796E+04  0.10975160303E+04  0.21059993696E+04  0.50400001928E-02 0. -1.
       -1    1    3    3    0  502 -0.91411595286E+02 -0.17950865796E+04  0.63744630374E+03  0.19070998134E+04  0.50400001928E-02 0.  1.
</event>
<event>
 5   0  0.4811500E-07  0.3591643E+04  0.7818609E-02  0.8092409E-01
        1   -1    0    0  501    0  0.00000000000E+00  0.00000000000E+00  0.12276181662E+04  0.12276181662E+04  0.50400001928E-02 0. -1.
       -1   -1    0    0    0  501  0.00000000000E+00  0.00000000000E+00 -0.26270184004E+04  0.26270184004E+04  0.50400001928E-02 0.  1.
    10030    2    1    2    0    0  0.00000000000E+00  0.00000000000E+00 -0.13994002342E+04  0.38546365666E+04  0.35916433628E+04 0.  0.
        2    1    3    3  502    0 -0.17471326309E+04 -0.38207203248E+02 -0.11435573005E+04  0.20884576893E+04  0.25500000920E-02 0.  1.
       -2    1    3    3    0  502  0.17471326309E+04  0.38207203248E+02 -0.25584293364E+03  0.17661788774E+04  0.25500000920E-02 0. -1.
</event>
<event>
 5   0  0.4811500E-07  0.2944369E+04  0.7818609E-02  0.8259797E-01
        1   -1    0    0  501    0  0.00000000000E+00  0.00000000000E+00  0.19161966809E+04  0.19161966809E+04  0.50400001928E-02 0.  1.
       -1   -1    0    0    0  501  0.00000000000E+00  0.00000000000E+00 -0.11310570655E+04  0.11310570655E+04  0.50400001928E-02 0. -1.
    10030    2    1    2    0    0  0.00000000000E+00  0.00000000000E+00  0.78513961538E+03  0.30472537464E+04  0.29443694027E+04 0.  0.
        4    1    3    3  502    0  0.22966064478E+03 -0.49902346118E+03 -0.10210111074E+04  0.11594109370E+04  0.12699999809E+01 0. -1.
       -4    1    3    3    0  502 -0.22966064478E+03  0.49902346118E+03  0.18061507228E+04  0.18878428094E+04  0.12699999809E+01 0.  1.
</event>
<event>
 5   0  0.4811500E-07  0.2475251E+04  0.7818609E-02  0.8411856E-01
        1   -1    0    0  501    0  0.00000000000E+00  0.00000000000E+00  0.84653833807E+03  0.84653833809E+03  0.50400001928E-02 0.  1.
       -1   -1    0    0    0  501  0.00000000000E+00  0.00000000000E+00 -0.18093886071E+04  0.18093886071E+04  0.50400001928E-02 0. -1.
    10030    2    1    2    0    0  0.00000000000E+00  0.00000000000E+00 -0.96285026898E+03  0.26559269451E+04  0.24752509565E+04 0.  0.
        4    1    3    3  502    0  0.70839476246E+03  0.31331333662E+03 -0.15171423323E+04  0.17034408871E+04  0.12699999809E+01 0. -1.
       -4    1    3    3    0  502 -0.70839476246E+03 -0.31331333662E+03  0.55429206335E+03  0.95248605805E+03  0.12699999809E+01 0.  1.
</event>
<event>
 5   0  0.5071661E-07  0.3204081E+04  0.7818609E-02  0.8187740E-01
       -1   -1    0    0    0  501  0.00000000000E+00  0.00000000000E+00  0.18462809666E+04  0.18462809666E+04  0.50400001928E-02 0. -1.
        1   -1    0    0  501    0  0.00000000000E+00  0.00000000000E+00 -0.13901097339E+04  0.13901097339E+04  0.50400001928E-02 0.  1.
    10030    2    1    2    0    0  0.00000000000E+00  0.00000000000E+00  0.45617123272E+03  0.32363907005E+04  0.32040806127E+04 0.  0.
        1    1    3    3  502    0 -0.98677152048E+03 -0.76887368810E+03  0.12390018087E+04  0.17606846009E+04  0.50400001928E-02 0. -1.
       -1    1    3    3    0  502  0.98677152048E+03  0.76887368810E+03 -0.78283057595E+03  0.14757060997E+04  0.50400001928E-02 0.  1.
</event>
<event>
 5   0  0.4811500E-07  0.3614106E+04  0.7818609E-02  0.8087268E-01
       -1   -1    0    0    0  501  0.00000000000E+00  0.00000000000E+00  0.20616789524E+04  0.20616789524E+04  0.50400001928E-02 0.  1.
        1   -1    0    0  501    0  0.00000000000E+00  0.00000000000E+00 -0.15838741575E+04  0.15838741575E+04  0.50400001928E-02 0. -1.
    10030    2    1    2    0    0  0.00000000000E+00  0.00000000000E+00  0.47780479492E+03  0.36455531100E+04  0.36141057062E+04 0.  0.
        5    1    3    3  502    0 -0.58676229338E+02  0.39162166144E+03  0.20173682215E+04  0.20558713619E+04  0.46999998093E+01 0.  1.
       -5    1    3    3    0  502  0.58676229338E+02 -0.39162166144E+03 -0.15395634266E+04  0.15896817481E+04  0.46999998093E+01 0. -1.
</event>
<event>
 5   0  0.1379425E-06  0.3679537E+04  0.7818609E-02  0.8072512E-01
       -2   -1    0    0    0  501  0.00000000000E+00  0.00000000000E+00  0.17938734245E+04  0.17938734245E+04  0.25500000920E-02 0.  1.
        2   -1    0    0  501    0  0.00000000000E+00  0.00000000000E+00 -0.18868375156E+04  0.18868375156E+04  0.25500000920E-02 0. -1.
    10030    2    1    2    0    0  0.00000000000E+00  0.00000000000E+00 -0.92964091119E+02  0.36807109402E+04  0.36795367511E+04 0.  0.
        4    1    3    3  502    0  0.21717668740E+03 -0.27711832678E+03  0.17598587956E+04  0.17947325355E+04  0.12699999809E+01 0.  1.
       -4    1    3    3    0  502 -0.21717668740E+03  0.27711832678E+03 -0.18528228867E+04  0.18859784047E+04  0.12699999809E+01 0. -1.
</event>
<event>
 5   0  0.4811500E-07  0.3522382E+04  0.7818609E-02  0.8108506E-01
        1   -1    0    0  501    0  0.00000000000E+00  0.00000000000E+00  0.26555375136E+04  0.26555375136E+04  0.50400001928E-02 0.  1.
       -1   -1    0    0    0  501  0.00000000000E+00  0.00000000000E+00 -0.11680471625E+04  0.11680471625E+04  0.50400001928E-02 0. -1.
    10030    2    1    2    0    0  0.00000000000E+00  0.00000000000E+00  0.14874903511E+04  0.38235846762E+04  0.35223816135E+04 0.  0.
        5    1    3    3  502    0  0.10749801538E+04 -0.10003900255E+03 -0.76670799594E+03  0.13241802650E+04  0.46999998093E+01 0. -1.
       -5    1    3    3    0  502 -0.10749801538E+04  0.10003900255E+03  0.22541983470E+04  0.24994044112E+04  0.46999998093E+01 0.  1.
</event>
<event>
 5   0  0.1379425E-06  0.3627807E+04  0.7818609E-02  0.8084152E-01
        2   -1    0    0  501    0  0.00000000000E+00  0.00000000000E+00  0.17436168072E+04  0.17436168072E+04  0.25500000920E-02 0. -1.
       -2   -1    0    0    0  501  0.00000000000E+00  0.00000000000E+00 -0.18870233376E+04  0.18870233376E+04  0.25500000920E-02 0.  1.
    10030    2    1    2    0    0  0.00000000000E+00  0.00000000000E+00 -0.14340653046E+03  0.36306401448E+04  0.36278068345E+04 0.  0.
        4    1    3    3  502    0  0.15076096489E+03 -0.13036627131E+04 -0.13248707677E+04  0.18648188926E+04  0.12699999809E+01 0.  1.
       -4    1    3    3    0  502 -0.15076096489E+03  0.13036627131E+04  0.11814642373E+04  0.17658212522E+04  0.12699999809E+01 0. -1.
</event>
<event>
 5   0  0.5071661E-07  0.3692980E+04  0.7818609E-02  0.8069519E-01
        1   -1    0    0  501    0  0.00000000000E+00  0.00000000000E+00  0.22769893865E+04  0.22769893865E+04  0.50400001928E-02 0.  1.
       -1   -1    0    0    0  501  0.00000000000E+00  0.00000000000E+00 -0.14973833630E+04  0.14973833631E+04  0.50400001928E-02 0. -1.
    10030    2    1    2    0    0  0.00000000000E+00  0.00000000000E+00  0.77960602346E+03  0.37743727496E+04  0.36929803819E+04 0.  0.
        1    1    3    3  502    0  0.30163122196E+03  0.77745589112E+03  0.20735671967E+04  0.22349720303E+04  0.50400001928E-02 0.  1.
       -1    1    3    3    0  502 -0.30163122196E+03 -0.77745589112E+03 -0.12939611733E+04  0.15394007193E+04  0.50400001928E-02 0. -1.
</event>
<event>
 5   0  0.1444091E-06  0.3558961E+04  0.7818609E-02  0.8099957E-01
        2   -1    0    0  501    0  0.00000000000E+00  0.00000000000E+00  0.19800389482E+04  0.19800389482E+04  0.25500000920E-02 0.  1.
       -2   -1    0    0    0  501  0.00000000000E+00  0.00000000000E+00 -0.15992370797E+04  0.15992370797E+04  0.25500000920E-02 0. -1.
    10030    2    1    2    0    0  0.00000000000E+00  0.00000000000E+00  0.38080186850E+03  0.35792760279E+04  0.35589614807E+04 0.  0.
        1    1    3    3  502    0 -0.11206159251E+04 -0.13186740740E+04  0.60733979226E+03  0.18339964526E+04  0.50400001928E-02 0.  1.
       -1    1    3    3    0  502  0.11206159251E+04  0.13186740740E+04 -0.22653792376E+03  0.17452795753E+04  0.50400001928E-02 0. -1.
</event>
<event>
 5   0  0.4811500E-07  0.3559556E+04  0.7818609E-02  0.8099819E-01
       -1   -1    0    0    0  501  0.00000000000E+00  0.00000000000E+00  0.14255651015E+04  0.14255651015E+04  0.50400001928E-02 0. -1.
        1   -1    0    0  501    0  0.00000000000E+00  0.00000000000E+00 -0.22220024692E+04  0.22220024693E+04  0.50400001928E-02 0.  1.
    10030    2    1    2    0    0  0.00000000000E+00  0.00000000000E+00 -0.79643736780E+03  0.36475675707E+04  0.35595556889E+04 0.  0.
        3    1    3    3  502    0  0.22583097360E+03 -0.31469143047E+03  0.13818504388E+04  0.14351100900E+04  0.10100000352E+00 0. -1.
       -3    1    3    3    0  502 -0.22583097360E+03  0.31469143047E+03 -0.21782878066E+04  0.22124574807E+04  0.10100000352E+00 0.  1.
</event>
<event>
 5   0  0.1468942E-06  0.3510636E+04  0.7818609E-02  0.8111274E-01
       -2   -1    0    0    0  501  0.00000000000E+00  0.00000000000E+00  0.13804107208E+04  0.13804107208E+04  0.25500000920E-02 0.  1.
        2   -1    0    0  501    0  0.00000000000E+00  0.00000000000E+00 -0.22320469476E+04  0.22320469476E+04  0.25500000920E-02 0. -1.
    10030    2    1    2    0    0  0.00000000000E+00  0.00000000000E+00 -0.85163622680E+03  0.36124576684E+04  0.35106361451E+04 0.  0.
        2    1    3    3  502    0  0.16550865868E+04  0.24832184922E+03  0.11884103788E+03  0.16778255401E+04  0.25500000920E-02 0. -1.
       -2    1    3    3    0  502 -0.16550865868E+04 -0.24832184922E+03 -0.97047726468E+03  0.19346321283E+04  0.25500000920E-02 0.  1.
</event>
<event>
 5   0  0.5071661E-07  0.2407126E+04  0.7818609E-02  0.8436840E-01
        1   -1    0    0  501    0  0.00000000000E+00  0.00000000000E+00  0.10651100903E+04  0.10651100903E+04  0.50400001928E-02 0. -1.
       -1   -1    0    0    0  501  0.00000000000E+00  0.00000000000E+00 -0.13600134731E+04  0.13600134731E+04  0.50400001928E-02 0.  1.
    10030    2    1    2    0    0  0.00000000000E+00  0.00000000000E+00 -0.29490338277E+03  0.24251235634E+04  0.24071261480E+04 0.  0.
        1    1    3    3  502    0  0.77818763702E+03  0.33869921393E+03  0.71231675902E+03  0.11080109752E+04  0.50400001928E-02 0. -1.
       -1    1    3    3    0  502 -0.77818763702E+03 -0.33869921393E+03 -0.10072201418E+04  0.13171125882E+04  0.50400001928E-02 0.  1.
</event>
<event>
 5   0  0.4811500E-07  0.2576428E+04  0.7818609E-02  0.8376252E-01
        1   -1    0    0  501    0  0.00000000000E+00  0.00000000000E+00  0.21447961362E+04  0.21447961362E+04  0.50400001928E-02 0.  1.
       -1   -1    0    0    0  501  0.00000000000E+00  0.00000000000E+00 -0.77373089545E+03  0.77373089547E+03  0.50400001928E-02 0. -1.
    10030    2    1    2    0    0  0.00000000000E+00  0.00000000000E+00  0.13710652408E+04  0.29185270317E+04  0.25764277867E+04 0.  0.
        3    1    3    3  502    0 -0.61343940903E+03  0.60053730641E+02  0.19669174571E+04  0.20612323140E+04  0.10100000352E+00 0.  1.
       -3    1    3    3    0  502  0.61343940903E+03 -0.60053730641E+02 -0.59585221631E+03  0.85729471770E+03  0.10100000352E+00 0. -1.
</event>
<event>
 5   0  0.5071661E-07  0.3594844E+04  0.7818609E-02  0.8091674E-01
        1   -1    0    0  501    0  0.00000000000E+00  0.00000000000E+00  0.24799025992E+04  0.24799025992E+04  0.50400001928E-02 0.  1.
       -1   -1    0    0    0  501  0.00000000000E+00  0.00000000000E+00 -0.13027630373E+04  0.13027630373E+04  0.50400001928E-02 0. -1.
    10030    2    1    2    0    0  0.00000000000E+00  0.00000000000E+00  0.11771395619E+04  0.37826656366E+04  0.35948437754E+04 0.  0.
        1    1    3    3  502    0 -0.82111015419E+03  0.44224882581E+03  0.22053780632E+04  0.23944724494E+04  0.50400001928E-02 0.  1.
       -1    1    3    3    0  502  0.82111015419E+03 -0.44224882581E+03 -0.10282385013E+04  0.13881931872E+04  0.50400001928E-02 0. -1.
</event>
<event>
 5   0  0.1491854E-06  0.3644501E+04  0.7818609E-02  0.8080374E-01
        2   -1    0    0  501    0  0.00000000000E+00  0.00000000000E+00  0.21064673076E+04  0.21064673076E+04  0.25500000920E-02 0. -1.
       -2   -1    0    0    0  501  0.00000000000E+00  0.00000000000E+00 -0.15763819409E+04  0.15763819409E+04  0.25500000920E-02 0.  1.
    10030    2    1    2    0    0  0.00000000000E+00  0.00000000000E+00  0.53008536673E+03  0.36828492485E+04  0.36445010757E+04 0.  0.
        5    1    3    3  502    0 -0.14788639047E+04  0.87477304423E+03  0.87831278493E+03  0.19296947338E+04  0.46999998093E+01 0. -1.
       -5    1    3    3    0  502  0.14788639047E+04 -0.87477304423E+03 -0.34822741820E+03  0.17531545147E+04  0.46999998093E+01 0.  1.
</event>
<event>
 5   0  0.1444091E-06  0.3671093E+04  0.7818609E-02  0.8074398E-01
        2   -1    0    0  501    0  0.00000000000E+00  0.00000000000E+00  0.14503801325E+04  0.14503801325E+04  0.25500000920E-02 0.  1.
       -2   -1    0    0    0  501  0.00000000000E+00  0.00000000000E+00 -0.23229979457E+04  0.23229979457E+04  0.25500000920E-02 0. -1.
    10030    2    1    2    0    0  0.00000000000E+00  0.00000000000E+00 -0.87261781320E+03  0.37733780783E+04  0.36710925177E+04 0.  0.
        1    1    3    3  502    0 -0.67807910079E+03  0.46536145573E+03 -0.21230300644E+04  0.22767540943E+04  0.50400001928E-02 0. -1.
       -1    1    3    3    0  502  0.67807910079E+03 -0.46536145573E+03  0.12504122512E+04  0.14966239840E+04  0.50400001928E-02 0.  1.
</event>
<event>
 5   0  0.1444091E-06  0.3771584E+04  0.7818609E-02  0.8052281E-01
        2   -1    0    0  501    0  0.00000000000E+00  0.00000000000E+00  0.20523118326E+04  0.20523118326E+04  0.25500000920E-02 0. -1.
       -2   -1    0    0    0  501  0.00000000000E+00  0.00000000000E+00 -0.17327830646E+04  0.17327830646E+04  0.25500000920E-02 0.  1.
    10030    2    1    2    0    0  0.00000000000E+00  0.00000000000E+00  0.31952876795E+03  0.37850948972E+04  0.37715838513E+04 0.  0.
        1    1    3    3  502    0  0.79121010332E+03 -0.88799272536E+02  0.18753655343E+04  0.20373744442E+04  0.50400001928E-02 0. -1.
       -1    1    3    3    0  502 -0.79121010332E+03  0.88799272536E+02 -0.15558367664E+04  0.17477204531E+04  0.50400001928E-02 0.  1.
</event>
<event>
 5   0  0.4811500E-07  0.3573840E+04  0.7818609E-02  0.8096510E-01
        1   -1    0    0  501    0  0.00000000000E+00  0.00000000000E+00  0.30606134184E+04  0.30606134184E+04  0.50400001928E-02 0. -1.
       -1   -1    0    0    0  501  0.00000000000E+00  0.00000000000E+00 -0.10432823308E+04  0.10432823308E+04  0.50400001928E-02 0.  1.
    10030    2    1    2    0    0  0.00000000000E+00  0.00000000000E+00  0.20173310876E+04  0.41038957492E+04  0.35738404558E+04 0.  0.
        2    1    3    3  502    0  0.77660492427E+03 -0.14975162521E+04  0.16855034469E+04  0.23846576281E+04  0.25500000920E-02 0.  1.
       -2    1    3    3    0  502 -0.77660492427E+03  0.14975162521E+04  0.33182764072E+03  0.17192381211E+04  0.25500000920E-02 0. -1.
</event>
<event>
 5   0  0.5071661E-07  0.3233922E+04  0.7818609E-02  0.8179916E-01
       -1   -1    0    0    0  501  0.00000000000E+00  0.00000000000E+00  0.11021870021E+04  0.11021870021E+04  0.50400001928E-02 0.  1.
        1   -1    0    0  501    0  0.00000000000E+00  0.00000000000E+00 -0.23721586408E+04  0.23721586408E+04  0.50400001928E-02 0. -1.
    10030    2    1    2    0    0  0.00000000000E+00  0.00000000000E+00 -0.12699716387E+04  0.34743456429E+04  0.32339217188E+04 0.  0.
        1    1    3    3  502    0 -0.12234924117E+04 -0.46331138478E+03 -0.16558794451E+04  0.21103383277E+04  0.50400001928E-02 0. -1.
       -1    1    3    3    0  502  0.12234924117E+04  0.46331138478E+03  0.38590780642E+03  0.13640073152E+04  0.50400001928E-02 0.  1.
</event>
<event>
 5   0  0.1491854E-06  0.3605913E+04  0.7818609E-02  0.8089139E-01
       -2   -1    0    0    0  501  0.00000000000E+00  0.00000000000E+00  0.18268478821E+04  0.18268478821E+04  0.25500000920E-02 0. -1.
        2   -1    0    0  501    0  0.00000000000E+00  0.00000000000E+00 -0.17793778409E+04  0.17793778409E+04  0.25500000920E-02 0.  1.
    10030    2    1    2    0    0  0.00000000000E+00  0.00000000000E+00  0.47470041199E+02  0.36062257231E+04  0.36059132770E+04 0.  0.
        5    1    3    3  502    0 -0.16879493730E+04 -0.60402778967E+03  0.21508349343E+03  0.18056316500E+04  0.46999998093E+01 0.  1.
       -5    1    3    3    0  502  0.16879493730E+04  0.60402778967E+03 -0.16761345223E+03  0.18005940730E+04  0.46999998093E+01 0. -1.
</event>
<event>
 5   0  0.4811500E-07  0.3560142E+04  0.7818609E-02  0.8099683E-01
       -1   -1    0    0    0  501  0.00000000000E+00  0.00000000000E+00  0.25435362196E+04  0.25435362196E+04  0.50400001928E-02 0. -1.
        1   -1    0    0  501    0  0.00000000000E+00  0.00000000000E+00 -0.12457664724E+04  0.12457664725E+04  0.50400001928E-02 0.  1.
    10030    2    1    2    0    0  0.00000000000E+00  0.00000000000E+00  0.12977697472E+04  0.37893026921E+04  0.35601416511E+04 0.  0.
        3    1    3    3  502    0 -0.61246942869E+03 -0.10564100326E+04  0.20274501028E+04  0.23667857714E+04  0.10100000352E+00 0. -1.
       -3    1    3    3    0  502  0.61246942869E+03  0.10564100326E+04 -0.72968035564E+03  0.14225169207E+04  0.10100000352E+00 0.  1.
</event>
<event>
 5   0  0.4811500E-07  0.3672137E+04  0.7818609E-02  0.8074165E-01
        1   -1    0    0  501    0  0.00000000000E+00  0.00000000000E+00  0.13160593759E+04  0.13160593759E+04  0.50400001928E-02 0.  1.
       -1   -1    0    0    0  501  0.00000000000E+00  0.00000000000E+00 -0.25615468218E+04  0.25615468218E+04  0.50400001928E-02 0. -1.
    10030    2    1    2    0    0  0.00000000000E+00  0.00000000000E+00 -0.12454874459E+04  0.38776061978E+04  0.36721370953E+04 0.  0.
        4    1    3    3  502    0  0.12993597349E+03 -0.73907897588E+03 -0.23922222625E+04  0.25071597587E+04  0.12699999809E+01 0. -1.
       -4    1    3    3    0  502 -0.12993597349E+03  0.73907897588E+03  0.11467348166E+04  0.13704464390E+04  0.12699999809E+01 0.  1.
</event>
<event>
 5   0  0.1505671E-06  0.3587323E+04  0.7818609E-02  0.8093402E-01
       -2   -1    0    0    0  501  0.00000000000E+00  0.00000000000E+00  0.23877980287E+04  0.23877980287E+04  0.25500000920E-02 0. -1.
        2   -1    0    0  501    0  0.00000000000E+00  0.00000000000E+00 -0.13473595223E+04  0.13473595223E+04  0.25500000920E-02 0.  1.
    10030    2    1    2    0    0  0.00000000000E+00  0.00000000000E+00  0.10404385063E+04  0.37351575510E+04  0.35873234654E+04 0.  0.
        3    1    3    3  502    0  0.12932596926E+04  0.34338409620E+03 -0.72348833231E+03  0.15211405745E+04  0.10100000352E+00 0. -1.
       -3    1    3    3    0  502 -0.12932596926E+04 -0.34338409620E+03  0.17639268386E+04  0.22140169765E+04  0.10100000352E+00 0.  1.
</event>
<event>
 5   0  0.4811500E-07  0.3681722E+04  0.7818609E-02  0.8072025E-01
        1   -1    0    0  501    0  0.00000000000E+00  0.00000000000E+00  0.14589117046E+04  0.14589117046E+04  0.50400001928E-02 0.  1.
       -1   -1    0    0    0  501  0.00000000000E+00  0.00000000000E+00 -0.23228060117E+04  0.23228060117E+04  0.50400001928E-02 0. -1.
    10030    2    1    2    0    0  0.00000000000E+00  0.00000000000E+00 -0.86389430706E+03  0.37817177163E+04  0.36817218135E+04 0.  0.
        5    1    3    3  502    0  0.19184498099E+03  0.13981884634E+04  0.78210711116E+03  0.16135207155E+04  0.46999998093E+01 0.  1.
       -5    1    3    3    0  502 -0.19184498099E+03 -0.13981884634E+04 -0.16460014182E+04  0.21681970009E+04  0.46999998093E+01 0. -1.
</event>
<event>
 5   0  0.1491854E-06  0.3457339E+04  0.7818609E-02  0.8123975E-01
       -2   -1    0    0    0  501  0.00000000000E+00  0.00000000000E+00  0.11187725250E+04  0.11187725250E+04  0.25500000920E-02 0. -1.
        2   -1    0    0  501    0  0.00000000000E+00  0.00000000000E+00 -0.26710505005E+04  0.26710505005E+04  0.25500000920E-02 0.  1.
    10030    2    1    2    0    0  0.00000000000E+00  0.00000000000E+00 -0.15522779755E+04  0.37898230254E+04  0.34573388105E+04 0.  0.
        5    1    3    3  502    0  0.19787021343E+03 -0.10983654974E+04 -0.22232116939E+04  0.24876196882E+04  0.46999998093E+01 0.  1.
       -5    1    3    3    0  502 -0.19787021343E+03  0.10983654974E+04  0.67093371835E+03  0.13022033373E+04  0.46999998093E+01 0. -1.
</event>
<event>
 5   0  0.1379425E-06  0.2357517E+04  0.7818609E-02  0.8455582E-01
       -2   -1    0    0    0  501  0.00000000000E+00  0.00000000000E+00  0.14394991465E+04  0.14394991465E+04  0.25500000920E-02 0.  1.
        2   -1    0    0  501    0  0.00000000000E+00  0.00000000000E+00 -0.96524689019E+03  0.96524689019E+03  0.25500000920E-02 0. -1.
    10030    2    1    2    0    0  0.00000000000E+00  0.00000000000E+00  0.47425225630E+03  0.24047460367E+04  0.23575174015E+04 0.  0.
        4    1    3    3  502    0  0.13666341980E+03  0.61933285503E+03 -0.77636830608E+03  0.10024966011E+04  0.12699999809E+01 0. -1.
       -4    1    3    3    0  502 -0.13666341980E+03 -0.61933285503E+03  0.12506205624E+04  0.14022494356E+04  0.12699999809E+01 0.  1.
</event>
<event>
 5   0  0.1444091E-06  0.3086146E+04  0.7818609E-02  0.8219550E-01
       -2   -1    0    0    0  501  0.00000000000E+00  0.00000000000E+00  0.18152618222E+04  0.18152618222E+04  0.25500000920E-02 0. -1.
        2   -1    0    0  501    0  0.00000000000E+00  0.00000000000E+00 -0.13116976866E+04  0.13116976866E+04  0.25500000920E-02 0.  1.
    10030    2    1    2    0    0  0.00000000000E+00  0.00000000000E+00  0.50356413553E+03  0.31269595088E+04  0.30861462913E+04 0.  0.
        1    1    3    3  502    0  0.15084226365E+04 -0.44811298917E+02  0.57810935828E+03  0.16160313527E+04  0.50400001928E-02 0. -1.
       -1    1    3    3    0  502 -0.15084226365E+04  0.44811298917E+02 -0.74545222753E+02  0.15109281561E+04  0.50400001928E-02 0.  1.
</event>
<event>
 5   0  0.1444091E-06  0.2537548E+04  0.7818609E-02  0.8389730E-01
       -2   -1    0    0    0  501  0.00000000000E+00  0.00000000000E+00  0.20267927896E+04  0.20267927896E+04  0.25500000920E-02 0. -1.
        2   -1    0    0  501    0  0.00000000000E+00  0.00000000000E+00 -0.79425370779E+03  0.79425370780E+03  0.25500000920E-02 0.  1.
    10030    2    1    2    0    0  0.00000000000E+00  0.00000000000E+00  0.12325390818E+04  0.28210464974E+04  0.25375481773E+04 0.  0.
        1    1    3    3  502    0 -0.10710576507E+04 -0.27937940178E+03 -0.73150406515E+02  0.11093098409E+04  0.50400001928E-02 0.  1.
       -1    1    3    3    0  502  0.10710576507E+04  0.27937940178E+03  0.13056894883E+04  0.17117366564E+04  0.50400001928E-02 0. -1.
</event>
<event>
 5   0  0.4811500E-07  0.3552617E+04  0.7818609E-02  0.8101432E-01
       -1   -1    0    0    0  501  0.00000000000E+00  0.00000000000E+00  0.17899157847E+04  0.17899157847E+04  0.50400001928E-02 0. -1.
        1   -1    0    0  501    0  0.00000000000E+00  0.00000000000E+00 -0.17628045463E+04  0.17628045463E+04  0.50400001928E-02 0.  1.
    10030    2    1    2    0    0  0.00000000000E+00  0.00000000000E+00  0.27111238347E+02  0.35527203310E+04  0.35526168850E+04 0.  0.
        2    1    3    3  502    0 -0.53641860075E+03 -0.83204439230E+03 -0.14613530480E+04  0.17651049592E+04  0.25500000920E-02 0.  1.
       -2    1    3    3    0  502  0.53641860075E+03  0.83204439230E+03  0.14884642863E+04  0.17876153719E+04  0.25500000920E-02 0. -1.
</event>
<event>
 5   0  0.1379425E-06  0.2552999E+04  0.7818609E-02  0.8384344E-01
       -2   -1    0    0    0  501  0.00000000000E+00  0.00000000000E+00  0.73085883690E+03  0.73085883690E+03  0.25500000920E-02 0. -1.
        2   -1    0    0  501    0  0.00000000000E+00  0.00000000000E+00 -0.22295014804E+04  0.22295014804E+04  0.25500000920E-02 0.  1.
    10030    2    1    2    0    0  0.00000000000E+00  0.00000000000E+00 -0.14986426435E+04  0.29603603173E+04  0.25529989102E+04 0.  0.
        4    1    3    3  502    0  0.11776547974E+04  0.19857080884E+03 -0.12719584780E+04  0.17447581983E+04  0.12699999809E+01 0. -1.
       -4    1    3    3    0  502 -0.11776547974E+04 -0.19857080884E+03 -0.22668416553E+03  0.12156021190E+04  0.12699999809E+01 0.  1.
</event>
<event>
 5   0  0.4811500E-07  0.3427006E+04  0.7818609E-02  0.8131310E-01
        1   -1    0    0  501    0  0.00000000000E+00  0.00000000000E+00  0.16942694495E+04  0.16942694495E+04  0.50400001928E-02 0.  1.
       -1   -1    0    0    0  501  0.00000000000E+00  0.00000000000E+00 -0.17329550359E+04  0.17329550359E+04  0.50400001928E-02 0. -1.
    10030    2    1    2    0    0  0.00000000000E+00  0.00000000000E+00 -0.38685586428E+02  0.34272244855E+04  0.34270061423E+04 0.  0.
        5    1    3    3  502    0  0.50016241491E+02 -0.45149372739E+03  0.16329496508E+04  0.16949616109E+04  0.46999998093E+01 0.  1.
       -5    1    3    3    0  502 -0.50016241491E+02  0.45149372739E+03 -0.16716352372E+04  0.17322628746E+04  0.46999998093E+01 0. -1.
</event>
<event>
 5   0  0.4811500E-07  0.3624317E+04  0.7818609E-02  0.8084944E-01
       -1   -1    0    0    0  501  0.00000000000E+00  0.00000000000E+00  0.19946661673E+04  0.19946661673E+04  0.50400001928E-02 0. -1.
        1   -1    0    0  501    0  0.00000000000E+00  0.00000000000E+00 -0.16463494538E+04  0.16463494538E+04  0.50400001928E-02 0.  1.
    10030    2    1    2    0    0  0.00000000000E+00  0.00000000000E+00  0.34831671347E+03  0.36410156210E+04  0.36243165176E+04 0.  0.
        3    1    3    3  502    0 -0.12973988380E+04 -0.12485764309E+04 -0.31063795922E+02  0.18008752922E+04  0.10100000352E+00 0. -1.
       -3    1    3    3    0  502  0.12973988380E+04  0.12485764309E+04  0.37938050940E+03  0.18401403288E+04  0.10100000352E+00 0.  1.
</event>
<event>
 5   0  0.1379425E-06  0.3153008E+04  0.7818609E-02  0.8201339E-01
        2   -1    0    0  501    0  0.00000000000E+00  0.00000000000E+00  0.18762889001E+04  0.18762889001E+04  0.25500000920E-02 0. -1.
       -2   -1    0    0    0  501  0.00000000000E+00  0.00000000000E+00 -0.13246172596E+04  0.13246172596E+04  0.25500000920E-02 0.  1.
    10030    2    1    2    0    0  0.00000000000E+00  0.00000000000E+00  0.55167164053E+03  0.32009061596E+04  0.31530078725E+04 0.  0.
        4    1    3    3  502    0  0.12798892343E+04  0.57138059578E+03  0.10084430565E+04  0.17267168988E+04  0.12699999809E+01 0.  1.
       -4    1    3    3    0  502 -0.12798892343E+04 -0.57138059578E+03 -0.45677141601E+03  0.14741892608E+04  0.12699999809E+01 0. -1.
</event>
<event>
 5   0  0.4811500E-07  0.3157312E+04  0.7818609E-02  0.8200183E-01
       -1   -1    0    0    0  501  0.00000000000E+00  0.00000000000E+00  0.10626324201E+04  0.10626324201E+04  0.50400001928E-02 0.  1.
        1   -1    0    0  501    0  0.00000000000E+00  0.00000000000E+00 -0.23452648221E+04  0.23452648221E+04  0.50400001928E-02 0. -1.
    10030    2    1    2    0    0  0.00000000000E+00  0.00000000000E+00 -0.12826324020E+04  0.34078972423E+04  0.31573117894E+04 0.  0.
        4    1    3    3  502    0  0.85222422778E+03 -0.40374609155E+03 -0.20078369920E+04  0.22182669001E+04  0.12699999809E+01 0. -1.
       -4    1    3    3    0  502 -0.85222422778E+03  0.40374609155E+03  0.72520458994E+03  0.11896303422E+04  0.12699999809E+01 0.  1.
</event>
<event>
 5   0  0.1444091E-06  0.3599415E+04  0.7818609E-02  0.8090626E-01
       -2   -1    0    0    0  501  0.00000000000E+00  0.00000000000E+00  0.15938278003E+04  0.15938278003E+04  0.25500000920E-02 0. -1.
        2   -1    0    0  501    0  0.00000000000E+00  0.00000000000E+00 -0.20321810248E+04  0.20321810248E+04  0.25500000920E-02 0.  1.
    10030    2    1    2    0    0  0.00000000000E+00  0.00000000000E+00 -0.43835322451E+03  0.36260088252E+04  0.35994147372E+04 0.  0.
        1    1    3    3  502    0 -0.85897273732E+03  0.15503755396E+04 -0.53364987993E+03  0.18510215211E+04  0.50400001928E-02 0.  1.
       -1    1    3    3    0  502  0.85897273732E+03 -0.15503755396E+04  0.95296655425E+02  0.17749873041E+04  0.50400001928E-02 0. -1.
</event>
<event>
 5   0  0.1505671E-06  0.3607311E+04  0.7818609E-02  0.8088819E-01
        2   -1    0    0  501    0  0.00000000000E+00  0.00000000000E+00  0.17512023707E+04  0.17512023707E+04  0.25500000920E-02 0. -1.
       -2   -1    0    0    0  501  0.00000000000E+00  0.00000000000E+00 -0.18576795831E+04  0.18576795831E+04  0.25500000920E-02 0.  1.
    10030    2    1    2    0    0  0.00000000000E+00  0.00000000000E+00 -0.10647721244E+03  0.36088819537E+04  0.36073108487E+04 0.  0.
        3    1    3    3  502    0  0.25315184992E+02  0.16543052477E+04 -0.77174787409E+03  0.18256400255E+04  0.10100000352E+00 0.  1.
       -3    1    3    3    0  502 -0.25315184992E+02 -0.16543052477E+04  0.66527066165E+03  0.17832419283E+04  0.10100000352E+00 0. -1.
</event>
<event>
 5   0  0.1505671E-06  0.3639884E+04  0.7818609E-02  0.8081416E-01
        2   -1    0    0  501    0  0.00000000000E+00  0.00000000000E+00  0.21403689425E+04  0.21403689425E+04  0.25500000920E-02 0.  1.
       -2   -1    0    0    0  501  0.00000000000E+00  0.00000000000E+00 -0.15474848697E+04  0.15474848697E+04  0.25500000920E-02 0. -1.
    10030    2    1    2    0    0  0.00000000000E+00  0.00000000000E+00  0.59288407280E+03  0.36878538121E+04  0.36398838190E+04 0.  0.
        3    1    3    3  502    0 -0.38504844262E+03  0.90691811738E+03  0.18467799659E+04  0.20931696127E+04  0.10100000352E+00 0.  1.
       -3    1    3    3    0  502  0.38504844262E+03 -0.90691811738E+03 -0.12538958931E+04  0.15946841994E+04  0.10100000352E+00 0. -1.
</event>
<event>
 5   0  0.4811500E-07  0.3539287E+04  0.7818609E-02  0.8104542E-01
        1   -1    0    0  501    0  0.00000000000E+00  0.00000000000E+00  0.19527369804E+04  0.19527369804E+04  0.50400001928E-02 0.  1.
       -1   -1    0    0    0  501  0.00000000000E+00  0.00000000000E+00 -0.16037171756E+04  0.16037171756E+04  0.50400001928E-02 0. -1.
    10030    2    1    2    0    0  0.00000000000E+00  0.00000000000E+00  0.34901980476E+03  0.35564541560E+04  0.35392868405E+04 0.  0.
        2    1    3    3  502    0  0.85870496596E+02 -0.43003669503E+03  0.18972740072E+04  0.19472940096E+04  0.25500000920E-02 0.  1.
       -2    1    3    3    0  502 -0.85870496596E+02  0.43003669503E+03 -0.15482542025E+04  0.16091601464E+04  0.25500000920E-02 0. -1.
</event>
<event>
 5   0  0.1491854E-06  0.3630199E+04  0.7818609E-02  0.8083609E-01
       -2   -1    0    0    0  501  0.00000000000E+00  0.00000000000E+00  0.13124371421E+04  0.13124371421E+04  0.25500000920E-02 0.  1.
        2   -1    0    0  501    0  0.00000000000E+00  0.00000000000E+00 -0.25102810242E+04  0.25102810242E+04  0.25500000920E-02 0. -1.
    10030    2    1    2    0    0  0.00000000000E+00  0.00000000000E+00 -0.11978438821E+04  0.38227181662E+04  0.36301989219E+04 0.  0.
        5    1    3    3  502    0  0.11046524431E+03  0.82360073618E+03 -0.22982058736E+04  0.24438275451E+04  0.46999998093E+01 0. -1.
       -5    1    3    3    0  502 -0.11046524431E+03 -0.82360073618E+03  0.11003619915E+04  0.13788906211E+04  0.46999998093E+01 0.  1.
</event>
<event>
 5   0  0.1491854E-06  0.3707071E+04  0.7818609E-02  0.8066397E-01
       -2   -1    0    0    0  501  0.00000000000E+00  0.00000000000E+00  0.19311347424E+04  0.19311347424E+04  0.25500000920E-02 0.  1.
        2   -1    0    0  501    0  0.00000000000E+00  0.00000000000E+00 -0.17790548739E+04  0.17790548739E+04  0.25500000920E-02 0. -1.
    10030    2    1    2    0    0  0.00000000000E+00  0.00000000000E+00  0.15207986851E+03  0.37101896163E+04  0.37070714455E+04 0.  0.
        5    1    3    3  502    0  0.81462308727E+02 -0.13455147645E+04  0.13493232728E+04  0.19072864163E+04  0.46999998093E+01 0.  1.
       -5    1    3    3    0  502 -0.81462308727E+02  0.13455147645E+04 -0.11972434043E+04  0.18029032000E+04  0.46999998093E+01 0. -1.
</event>
<event>
 5   0  0.1379425E-06  0.3617050E+04  0.7818609E-02  0.8086597E-01
       -2   -1    0    0    0  501  0.00000000000E+00  0.00000000000E+00  0.19410399166E+04  0.19410399166E+04  0.25500000920E-02 0. -1.
        2   -1    0    0  501    0  0.00000000000E+00  0.00000000000E+00 -0.16850572065E+04  0.16850572065E+04  0.25500000920E-02 0.  1.
    10030    2    1    2    0    0  0.00000000000E+00  0.00000000000E+00  0.25598271008E+03  0.36260971230E+04  0.36170503449E+04 0.  0.
        4    1    3    3  502    0  0.76863530376E+03  0.11935264187E+04 -0.99528250348E+03  0.17337515442E+04  0.12699999809E+01 0.  1.
       -4    1    3    3    0  502 -0.76863530376E+03 -0.11935264187E+04  0.12512652136E+04  0.18923455789E+04  0.12699999809E+01 0. -1.
</event>
<event>
 5   0  0.1379425E-06  0.2422546E+04  0.7818609E-02  0.8431111E-01
       -2   -1    0    0    0  501  0.00000000000E+00  0.00000000000E+00  0.86926167535E+03  0.86926167535E+03  0.25500000920E-02 0.  1.
        2   -1    0    0  501    0  0.00000000000E+00  0.00000000000E+00 -0.16878485846E+04  0.16878485846E+04  0.25500000920E-02 0. -1.
    10030    2    1    2    0    0  0.00000000000E+00  0.00000000000E+00 -0.81858690929E+03  0.25571102600E+04  0.24225458414E+04 0.  0.
        4    1    3    3  502    0 -0.57656468235E+03  0.83869712656E+02  0.71163527049E+03  0.91972133428E+03  0.12699999809E+01 0.  1.
       -4    1    3    3    0  502  0.57656468235E+03 -0.83869712656E+02 -0.15302221798E+04  0.16373889257E+04  0.12699999809E+01 0. -1.
</event>
<event>
 5   0  0.4811500E-07  0.3697726E+04  0.7818609E-02  0.8068466E-01
        1   -1    0    0  501    0  0.00000000000E+00  0.00000000000E+00  0.21121243054E+04  0.21121243054E+04  0.50400001928E-02 0. -1.
       -1   -1    0    0    0  501  0.00000000000E+00  0.00000000000E+00 -0.16184152694E+04  0.16184152694E+04  0.50400001928E-02 0.  1.
    10030    2    1    2    0    0  0.00000000000E+00  0.00000000000E+00  0.49370903600E+03  0.37305395748E+04  0.36977259102E+04 0.  0.
        2    1    3    3  502    0 -0.11228924718E+04 -0.84689466749E+03 -0.96386833959E+03  0.17050396644E+04  0.25500000920E-02 0.  1.
       -2    1    3    3    0  502  0.11228924718E+04  0.84689466749E+03  0.14575773756E+04  0.20254999104E+04  0.25500000920E-02 0. -1.
</event>
<event>
 5   0  0.1505671E-06  0.3637853E+04  0.7818609E-02  0.8081876E-01
        2   -1    0    0  501    0  0.00000000000E+00  0.00000000000E+00  0.20376430118E+04  0.20376430118E+04  0.25500000920E-02 0.  1.
       -2   -1    0    0    0  501  0.00000000000E+00  0.00000000000E+00 -0.16236867534E+04  0.16236867534E+04  0.25500000920E-02 0. -1.
    10030    2    1    2    0    0  0.00000000000E+00  0.00000000000E+00  0.41395625831E+03  0.36613297652E+04  0.36378531946E+04 0.  0.
        3    1    3    3  502    0  0.40286549352E+03  0.11469314757E+04  0.15687588929E+04  0.19846301646E+04  0.10100000352E+00 0.  1.
       -3    1    3    3    0  502 -0.40286549352E+03 -0.11469314757E+04 -0.11548026346E+04  0.16766996007E+04  0.10100000352E+00 0. -1.
</event>
<event>
 5   0  0.4811500E-07  0.3333761E+04  0.7818609E-02  0.8154358E-01
       -1   -1    0    0    0  501  0.00000000000E+00  0.00000000000E+00  0.25095212874E+04  0.25095212874E+04  0.50400001928E-02 0. -1.
        1   -1    0    0  501    0  0.00000000000E+00  0.00000000000E+00 -0.11071796407E+04  0.11071796407E+04  0.50400001928E-02 0.  1.
    10030    2    1    2    0    0  0.00000000000E+00  0.00000000000E+00  0.14023416467E+04  0.36167009281E+04  0.33337611656E+04 0.  0.
        4    1    3    3  502    0  0.11284728031E+04  0.13781257844E+03 -0.62132483224E+03  0.12955652567E+04  0.12699999809E+01 0.  1.
       -4    1    3    3    0  502 -0.11284728031E+04 -0.13781257844E+03  0.20236664790E+04  0.23211356714E+04  0.12699999809E+01 0. -1.
</event>
<event>
 5   0  0.1444091E-06  0.3749895E+04  0.7818609E-02  0.8056994E-01
        2   -1    0    0  501    0  0.00000000000E+00  0.00000000000E+00  0.26182856337E+04  0.26182856337E+04  0.25500000920E-02 0. -1.
       -2   -1    0    0    0  501  0.00000000000E+00  0.00000000000E+00 -0.13426451620E+04  0.13426451620E+04  0.25500000920E-02 0.  1.
    10030    2    1    2    0    0  0.00000000000E+00  0.00000000000E+00  0.12756404717E+04  0.39609307957E+04  0.37498952193E+04 0.  0.
        1    1    3    3  502    0 -0.13240580813E+04  0.61535825898E+03 -0.60465736959E+03  0.15803183616E+04  0.50400001928E-02 0.  1.
       -1    1    3    3    0  502  0.13240580813E+04 -0.61535825898E+03  0.18802978413E+04  0.23806124341E+04  0.50400001928E-02 0. -1.
</event>
<event>
 5   0  0.1468942E-06  0.3641040E+04  0.7818609E-02  0.8081155E-01
       -2   -1    0    0    0  501  0.00000000000E+00  0.00000000000E+00  0.17943089004E+04  0.17943089004E+04  0.25500000920E-02 0.  1.
        2   -1    0    0  501    0  0.00000000000E+00  0.00000000000E+00 -0.18471136770E+04  0.18471136770E+04  0.25500000920E-02 0. -1.
    10030    2    1    2    0    0  0.00000000000E+00  0.00000000000E+00 -0.52804776618E+02  0.36414225775E+04  0.36410396926E+04 0.  0.
        2    1    3    3  502    0  0.81089338198E+03  0.16065702518E+04  0.24872008739E+03  0.18167216993E+04  0.25500000920E-02 0. -1.
       -2    1    3    3    0  502 -0.81089338198E+03 -0.16065702518E+04 -0.30152486400E+03  0.18247008781E+04  0.25500000920E-02 0.  1.
</event>
<event>
 5   0  0.4811500E-07  0.2904909E+04  0.7818609E-02  0.8271418E-01
        1   -1    0    0  501    0  0.00000000000E+00  0.00000000000E+00  0.11917868867E+04  0.11917868867E+04  0.50400001928E-02 0.  1.
       -1   -1    0    0    0  501  0.00000000000E+00  0.00000000000E+00 -0.17701358609E+04  0.17701358609E+04  0.50400001928E-02 0. -1.
    10030    2    1    2    0    0  0.00000000000E+00  0.00000000000E+00 -0.57834897414E+03  0.29619227476E+04  0.29049094352E+04 0.  0.
        4    1    3    3  502    0  0.70891133782E+03 -0.49460559136E+03 -0.14793163342E+04  0.17133500534E+04  0.12699999809E+01 0. -1.
       -4    1    3    3    0  502 -0.70891133782E+03  0.49460559136E+03  0.90096736006E+03  0.12485726942E+04  0.12699999809E+01 0.  1.
</event>
<event>
 5   0  0.4811500E-07  0.3268479E+04  0.7818609E-02  0.8170963E-01
       -1   -1    0    0    0  501  0.00000000000E+00  0.00000000000E+00  0.14500083613E+04  0.14500083613E+04  0.50400001928E-02 0.  1.
        1   -1    0    0  501    0  0.00000000000E+00  0.00000000000E+00 -0.18418781358E+04  0.18418781358E+04  0.50400001928E-02 0. -1.
    10030    2    1    2    0    0  0.00000000000E+00  0.00000000000E+00 -0.39186977449E+03  0.32918864971E+04  0.32684789719E+04 0.  0.
        2    1    3    3  502    0  0.10998942386E+04 -0.10156119277E+04 -0.85599372332E+03  0.17245173754E+04  0.25500000920E-02 0. -1.
       -2    1    3    3    0  502 -0.10998942386E+04  0.10156119277E+04  0.46412394883E+03  0.15673691217E+04  0.25500000920E-02 0.  1.
</event>
<event>
 5   0  0.1379425E-06  0.3560736E+04  0.7818609E-02  0.8099545E-01
        2   -1    0    0  501    0  0.00000000000E+00  0.00000000000E+00  0.27181875063E+04  0.27181875063E+04  0.25500000920E-02 0.  1.
       -2   -1    0    0    0  501  0.00000000000E+00  0.00000000000E+00 -0.11661118326E+04  0.11661118326E+04  0.25500000920E-02 0. -1.
    10030    2    1    2    0    0  0.00000000000E+00  0.00000000000E+00  0.15520756737E+04  0.38842993389E+04  0.35607362240E+04 0.  0.
        4    1    3    3  502    0 -0.66444876361E+03  0.73634728169E+03 -0.83683048809E+03  0.12976849993E+04  0.12699999809E+01 0. -1.
       -4    1    3    3    0  502  0.66444876361E+03 -0.73634728169E+03  0.23889061618E+04  0.25866143395E+04  0.12699999809E+01 0.  1.
</event>
<event>
 5   0  0.1379425E-06  0.3537336E+04  0.7818609E-02  0.8104998E-01
        2   -1    0    0  501    0  0.00000000000E+00  0.00000000000E+00  0.22929632993E+04  0.22929632993E+04  0.25500000920E-02 0.  1.
       -2   -1    0    0    0  501  0.00000000000E+00  0.00000000000E+00 -0.13642546061E+04  0.13642546061E+04  0.25500000920E-02 0. -1.
    10030    2    1    2    0    0  0.00000000000E+00  0.00000000000E+00  0.92870869321E+03  0.36572179054E+04  0.35373355750E+04 0.  0.
        4    1    3    3  502    0  0.35113862113E+03 -0.59458499218E+03 -0.12191276405E+04  0.14011079405E+04  0.12699999809E+01 0. -1.
       -4    1    3    3    0  502 -0.35113862113E+03  0.59458499218E+03  0.21478363337E+04  0.22561099649E+04  0.12699999809E+01 0.  1.
</event>
<event>
 5   0  0.4811500E-07  0.2322451E+04  0.7818609E-02  0.8469121E-01
       -1   -1    0    0    0  501  0.00000000000E+00  0.00000000000E+00  0.85744731103E+03  0.85744731105E+03  0.50400001928E-02 0. -1.
        1   -1    0    0  501    0  0.00000000000E+00  0.00000000000E+00 -0.15726261948E+04  0.15726261948E+04  0.50400001928E-02 0.  1.
    10030    2    1    2    0    0  0.00000000000E+00  0.00000000000E+00 -0.71517888377E+03  0.24300735059E+04  0.23224505179E+04 0.  0.
        4    1    3    3  502    0  0.87256785320E+03  0.30835867895E+03 -0.10915080197E+04  0.14310314823E+04  0.12699999809E+01 0.  1.
       -4    1    3    3    0  502 -0.87256785320E+03 -0.30835867895E+03  0.37632913597E+03  0.99904202354E+03  0.12699999809E+01 0. -1.
</event>
<event>
 5   0  0.4811500E-07  0.3519168E+04  0.7818609E-02  0.8109262E-01
        1   -1    0    0  501    0  0.00000000000E+00  0.00000000000E+00  0.13682783815E+04  0.13682783815E+04  0.50400001928E-02 0.  1.
       -1   -1    0    0    0  501  0.00000000000E+00  0.00000000000E+00 -0.22627968666E+04  0.22627968666E+04  0.50400001928E-02 0. -1.
    10030    2    1    2    0    0  0.00000000000E+00  0.00000000000E+00 -0.89451848507E+03  0.36310752481E+04  0.35191681030E+04 0.  0.
        2    1    3    3  502    0  0.17157850385E+04 -0.38532641725E+03 -0.51037035296E+03  0.18310850999E+04  0.25500000920E-02 0. -1.
       -2    1    3    3    0  502 -0.17157850385E+04  0.38532641725E+03 -0.38414813211E+03  0.17999901482E+04  0.25500000920E-02 0.  1.
</event>
<event>
 5   0  0.1491854E-06  0.3591722E+04  0.7818609E-02  0.8092390E-01
        2   -1    0    0  501    0  0.00000000000E+00  0.00000000000E+00  0.16583522272E+04  0.16583522272E+04  0.25500000920E-02 0.  1.
       -2   -1    0    0    0  501  0.00000000000E+00  0.00000000000E+00 -0.19447721103E+04  0.19447721103E+04  0.25500000920E-02 0. -1.
    10030    2    1    2    0    0  0.00000000000E+00  0.00000000000E+00 -0.28641988308E+03  0.36031243374E+04  0.35917222389E+04 0.  0.
        5    1    3    3  502    0 -0.76077869102E+03  0.11568908404E+04  0.10040614715E+04  0.17103631666E+04  0.46999998093E+01 0.  1.
       -5    1    3    3    0  502  0.76077869102E+03 -0.11568908404E+04 -0.12904813546E+04  0.18927611708E+04  0.46999998093E+01 0. -1.
</event>
<event>
 5   0  0.1491854E-06  0.3670375E+04  0.7818609E-02  0.8074559E-01
       -2   -1    0    0    0  501  0.00000000000E+00  0.00000000000E+00  0.15212118433E+04  0.15212118433E+04  0.25500000920E-02 0.  1.
        2   -1    0    0  501    0  0.00000000000E+00  0.00000000000E+00 -0.22139673617E+04  0.22139673617E+04  0.25500000920E-02 0. -1.
    10030    2    1    2    0    0  0.00000000000E+00  0.00000000000E+00 -0.69275551844E+03  0.37351792050E+04  0.36703751151E+04 0.  0.
        5    1    3    3  502    0  0.41906160467E+03  0.93639657446E+03  0.12021456224E+04  0.15803883575E+04  0.46999998093E+01 0.  1.
       -5    1    3    3    0  502 -0.41906160467E+03 -0.93639657446E+03 -0.18949011408E+04  0.21547908475E+04  0.46999998093E+01 0. -1.
</event>
<event>
 5   0  0.4811500E-07  0.3117675E+04  0.7818609E-02  0.8210904E-01
        1   -1    0    0  501    0  0.00000000000E+00  0.00000000000E+00  0.16937508272E+04  0.16937508272E+04  0.50400001928E-02 0.  1.
       -1   -1    0    0    0  501  0.00000000000E+00  0.00000000000E+00 -0.14346709474E+04  0.14346709474E+04  0.50400001928E-02 0. -1.
    10030    2    1    2    0    0  0.00000000000E+00  0.00000000000E+00  0.25907987975E+03  0.31284217746E+04  0.31176754828E+04 0.  0.
        3    1    3    3  502    0  0.37585690800E+03  0.15098792422E+04  0.34496236198E+02  0.15563398542E+04  0.10100000352E+00 0. -1.
       -3    1    3    3    0  502 -0.37585690800E+03 -0.15098792422E+04  0.22458364355E+03  0.15720819204E+04  0.10100000352E+00 0.  1.
</event>
<event>
 5   0  0.1468942E-06  0.3681005E+04  0.7818609E-02  0.8072184E-01
       -2   -1    0    0    0  501  0.00000000000E+00  0.00000000000E+00  0.21980546235E+04  0.21980546235E+04  0.25500000920E-02 0. -1.
        2   -1    0    0  501    0  0.00000000000E+00  0.00000000000E+00 -0.15411125373E+04  0.15411125373E+04  0.25500000920E-02 0.  1.
    10030    2    1    2    0    0  0.00000000000E+00  0.00000000000E+00  0.65694208614E+03  0.37391671608E+04  0.36810050464E+04 0.  0.
        2    1    3    3  502    0 -0.40461032477E+03  0.31326853062E+02 -0.14950986235E+04  0.15491968179E+04  0.25500000920E-02 0.  1.
       -2    1    3    3    0  502  0.40461032477E+03 -0.31326853062E+02  0.21520407097E+04  0.21899703429E+04  0.25500000920E-02 0. -1.
</event>
<event>
 5   0  0.4811500E-07  0.3740400E+04  0.7818609E-02  0.8059067E-01
        1   -1    0    0  501    0  0.00000000000E+00  0.00000000000E+00  0.22557674297E+04  0.22557674297E+04  0.50400001928E-02 0.  1.
       -1   -1    0    0    0  501  0.00000000000E+00  0.00000000000E+00 -0.15505360302E+04  0.15505360302E+04  0.50400001928E-02 0. -1.
    10030    2    1    2    0    0  0.00000000000E+00  0.00000000000E+00  0.70523139958E+03  0.38063034599E+04  0.37404003398E+04 0.  0.
        4    1    3    3  502    0 -0.32890286168E+03  0.14963692671E+04  0.14440563606E+04  0.21053737107E+04  0.12699999809E+01 0.  1.
       -4    1    3    3    0  502  0.32890286168E+03 -0.14963692671E+04 -0.73882496106E+03  0.17009297493E+04  0.12699999809E+01 0. -1.
</event>
<event>
 5   0  0.1505671E-06  0.3065807E+04  0.7818609E-02  0.8225185E-01
        2   -1    0    0  501    0  0.00000000000E+00  0.00000000000E+00  0.17957244658E+04  0.17957244659E+04  0.25500000920E-02 0. -1.
       -2   -1    0    0    0  501  0.00000000000E+00  0.00000000000E+00 -0.13085491492E+04  0.13085491492E+04  0.25500000920E-02 0.  1.
    10030    2    1    2    0    0  0.00000000000E+00  0.00000000000E+00  0.48717531664E+03  0.31042736151E+04  0.30658073795E+04 0.  0.
        3    1    3    3  502    0 -0.13314122175E+03  0.47037319136E+03 -0.12275060444E+04  0.13212678091E+04  0.10100000352E+00 0.  1.
       -3    1    3    3    0  502  0.13314122175E+03 -0.47037319136E+03  0.17146813610E+04  0.17830058060E+04  0.10100000352E+00 0. -1.
</event>
<event>
 5   0  0.1491854E-06  0.3205135E+04  0.7818609E-02  0.8187462E-01
       -2   -1    0    0    0  501  0.00000000000E+00  0.00000000000E+00  0.24715373079E+04  0.24715373079E+04  0.25500000920E-02 0. -1.
        2   -1    0    0  501    0  0.00000000000E+00  0.00000000000E+00 -0.10391191907E+04  0.10391191907E+04  0.25500000920E-02 0.  1.
    10030    2    1    2    0    0  0.00000000000E+00  0.00000000000E+00  0.14324181172E+04  0.35106564987E+04  0.32051345353E+04 0.  0.
        5    1    3    3  502    0 -0.42502222365E+03 -0.62611492612E+03 -0.83108142308E+03  0.11240027638E+04  0.46999998093E+01 0.  1.
       -5    1    3    3    0  502  0.42502222365E+03  0.62611492612E+03  0.22634995403E+04  0.23866537349E+04  0.46999998093E+01 0. -1.
</event>
<event>
 5   0  0.1468942E-06  0.2507737E+04  0.7818609E-02  0.8400234E-01
       -2   -1    0    0    0  501  0.00000000000E+00  0.00000000000E+00  0.52635639618E+03  0.52635639619E+03  0.25500000920E-02 0. -1.
        2   -1    0    0  501    0  0.00000000000E+00  0.00000000000E+00 -0.29869232586E+04  0.29869232586E+04  0.25500000920E-02 0.  1.
    10030    2    1    2    0    0  0.00000000000E+00  0.00000000000E+00 -0.24605668624E+04  0.35132796548E+04  0.25077369576E+04 0.  0.
        2    1    3    3  502    0 -0.30392637208E+02  0.12527345816E+04 -0.12916474290E+04  0.17996168273E+04  0.25500000920E-02 0.  1.
       -2    1    3    3    0  502  0.30392637208E+02 -0.12527345816E+04 -0.11689194334E+04  0.17136628275E+04  0.25500000920E-02 0. -1.
</event>
<event>
 5   0  0.4811500E-07  0.3480516E+04  0.7818609E-02  0.8118423E-01
       -1   -1    0    0    0  501  0.00000000000E+00  0.00000000000E+00  0.18786031138E+04  0.18786031138E+04  0.50400001928E-02 0. -1.
        1   -1    0    0  501    0  0.00000000000E+00  0.00000000000E+00 -0.16121007782E+04  0.16121007782E+04  0.50400001928E-02 0.  1.
    10030    2    1    2    0    0  0.00000000000E+00  0.00000000000E+00  0.26650233561E+03  0.34907038921E+04  0.34805157904E+04 0.  0.
        3    1    3    3  502    0 -0.17398518422E+04 -0.15603479638E+02  0.98951198988E+02  0.17427332702E+04  0.10100000352E+00 0.  1.
       -3    1    3    3    0  502  0.17398518422E+04  0.15603479638E+02  0.16755113662E+03  0.17479706218E+04  0.10100000352E+00 0. -1.
</event>
<event>
 5   0  0.1468942E-06  0.3595051E+04  0.7818609E-02  0.8091626E-01
        2   -1    0    0  501    0  0.00000000000E+00  0.00000000000E+00  0.15035291399E+04  0.15035291399E+04  0.25500000920E-02 0. -1.
       -2   -1    0    0    0  501  0.00000000000E+00  0.00000000000E+00 -0.21490096297E+04  0.21490096297E+04  0.25500000920E-02 0.  1.
    10030    2    1    2    0    0  0.00000000000E+00  0.00000000000E+00 -0.64548048974E+03  0.36525387696E+04  0.35950513767E+04 0.  0.
        2    1    3    3  502    0  0.11051678979E+03  0.12113828452E+04 -0.16673210257E+04  0.20638851134E+04  0.25500000920E-02 0.  1.
       -2    1    3    3    0  502 -0.11051678979E+03 -0.12113828452E+04  0.10218405360E+04  0.15886536562E+04  0.25500000920E-02 0. -1.
</event>
<event>
 5   0  0.4811500E-07  0.2240671E+04  0.7818609E-02  0.8501688E-01
        1   -1    0    0  501    0  0.00000000000E+00  0.00000000000E+00  0.13042333404E+04  0.13042333404E+04  0.50400001928E-02 0.  1.
       -1   -1    0    0    0  501  0.00000000000E+00  0.00000000000E+00 -0.96236740198E+03  0.96236740199E+03  0.50400001928E-02 0. -1.
    10030    2    1    2    0    0  0.00000000000E+00  0.00000000000E+00  0.34186593839E+03  0.22666007424E+04  0.22406710168E+04 0.  0.
        5    1    3    3  502    0  0.87453143701E+03 -0.32897233551E+03 -0.45436399209E+03  0.10389883345E+04  0.46999998093E+01 0. -1.
       -5    1    3    3    0  502 -0.87453143701E+03  0.32897233551E+03  0.79622993048E+03  0.12276124079E+04  0.46999998093E+01 0.  1.
</event>
<event>
 5   0  0.4811500E-07  0.3641752E+04  0.7818609E-02  0.8080994E-01
        1   -1    0    0  501    0  0.00000000000E+00  0.00000000000E+00  0.22244701500E+04  0.22244701500E+04  0.50400001928E-02 0. -1.
       -1   -1    0    0    0  501  0.00000000000E+00  0.00000000000E+00 -0.14905076956E+04  0.14905076956E+04  0.50400001928E-02 0.  1.
    10030    2    1    2    0    0  0.00000000000E+00  0.00000000000E+00  0.73396245443E+03  0.37149778456E+04  0.36417522580E+04 0.  0.
        4    1    3    3  502    0  0.14864763855E+04 -0.97569539917E+03 -0.33330882251E+02  0.17783998755E+04  0.12699999809E+01 0.  1.
       -4    1    3    3    0  502 -0.14864763855E+04  0.97569539917E+03  0.76729333668E+03  0.19365779701E+04  0.12699999809E+01 0. -1.
</event>
<event>
 5   0  0.1505671E-06  0.3277495E+04  0.7818609E-02  0.8168645E-01
        2   -1    0    0  501    0  0.00000000000E+00  0.00000000000E+00  0.88166679047E+03  0.88166679047E+03  0.25500000920E-02 0.  1.
       -2   -1    0    0    0  501  0.00000000000E+00  0.00000000000E+00 -0.30459283539E+04  0.30459283539E+04  0.25500000920E-02 0. -1.
    10030    2    1    2    0    0  0.00000000000E+00  0.00000000000E+00 -0.21642615635E+04  0.39275951444E+04  0.32774953094E+04 0.  0.
        3    1    3    3  502    0  0.14056184980E+04 -0.43811688509E+03 -0.19444319810E+04  0.24389599229E+04  0.10100000352E+00 0.  1.
       -3    1    3    3    0  502 -0.14056184980E+04  0.43811688509E+03 -0.21982958252E+03  0.14886352215E+04  0.10100000352E+00 0. -1.
</event>
<event>
 5   0  0.4811500E-07  0.3646603E+04  0.7818609E-02  0.8079899E-01
       -1   -1    0    0    0  501  0.00000000000E+00  0.00000000000E+00  0.18973281343E+04  0.18973281343E+04  0.50400001928E-02 0.  1.
        1   -1    0    0  501    0  0.00000000000E+00  0.00000000000E+00 -0.17521631648E+04  0.17521631648E+04  0.50400001928E-02 0. -1.
    10030    2    1    2    0    0  0.00000000000E+00  0.00000000000E+00  0.14516496951E+03  0.36494912991E+04  0.36466030596E+04 0.  0.
        3    1    3    3  502    0 -0.35094829208E+02 -0.86508311411E+03  0.16784804713E+04  0.18886230816E+04  0.10100000352E+00 0.  1.
       -3    1    3    3    0  502  0.35094829208E+02  0.86508311411E+03 -0.15333155018E+04  0.17608682176E+04  0.10100000352E+00 0. -1.
</event>
<event>
 5   0  0.4811500E-07  0.2784830E+04  0.7818609E-02  0.8307993E-01
       -1   -1    0    0    0  501  0.00000000000E+00  0.00000000000E+00  0.10399016879E+04  0.10399016879E+04  0.50400001928E-02 0.  1.
        1   -1    0    0  501    0  0.00000000000E+00  0.00000000000E+00 -0.18644264218E+04  0.18644264218E+04  0.50400001928E-02 0. -1.
    10030    2    1    2    0    0  0.00000000000E+00  0.00000000000E+00 -0.82452473390E+03  0.29043281098E+04  0.27848304674E+04 0.  0.
        2    1    3    3  502    0  0.70496752806E+02  0.53637321383E+03  0.92581790986E+03  0.10722895220E+04  0.25500000920E-02 0.  1.
       -2    1    3    3    0  502 -0.70496752806E+02 -0.53637321383E+03 -0.17503426438E+04  0.18320385878E+04  0.25500000920E-02 0. -1.
</event>
<event>
 5   0  0.4811500E-07  0.3718673E+04  0.7818609E-02  0.8063836E-01
       -1   -1    0    0    0  501  0.00000000000E+00  0.00000000000E+00  0.30890075245E+04  0.30890075245E+04  0.50400001928E-02 0.  1.
        1   -1    0    0  501    0  0.00000000000E+00  0.00000000000E+00 -0.11191722510E+04  0.11191722510E+04  0.50400001928E-02 0. -1.
    10030    2    1    2    0    0  0.00000000000E+00  0.00000000000E+00  0.19698352735E+04  0.42081797755E+04  0.37186726151E+04 0.  0.
        2    1    3    3  502    0 -0.63979010620E+03  0.40310329786E+03 -0.93729938328E+03  0.12043063492E+04  0.25500000920E-02 0. -1.
       -2    1    3    3    0  502  0.63979010620E+03 -0.40310329786E+03  0.29071346567E+04  0.30038734263E+04  0.25500000920E-02 0.  1.
</event>
<event>
 5   0  0.1379425E-06  0.2655463E+04  0.7818609E-02  0.8349602E-01
        2   -1    0    0  501    0  0.00000000000E+00  0.00000000000E+00  0.62200337085E+03  0.62200337086E+03  0.25500000920E-02 0.  1.
       -2   -1    0    0    0  501  0.00000000000E+00  0.00000000000E+00 -0.28341832312E+04  0.28341832312E+04  0.25500000920E-02 0. -1.
    10030    2    1    2    0    0  0.00000000000E+00  0.00000000000E+00 -0.22121798604E+04  0.34561866021E+04  0.26554634424E+04 0.  0.
        4    1    3    3  502    0 -0.23226002820E+03 -0.19678377263E+03 -0.27881490999E+04  0.28047184511E+04  0.12699999809E+01 0. -1.
       -4    1    3    3    0  502  0.23226002820E+03  0.19678377263E+03  0.57596923956E+03  0.65146815094E+03  0.12699999809E+01 0.  1.
</event>
<event>
 5   0  0.4811500E-07  0.3588212E+04  0.7818609E-02  0.8093197E-01
       -1   -1    0    0    0  501  0.00000000000E+00  0.00000000000E+00  0.29415429052E+04  0.29415429052E+04  0.50400001928E-02 0.  1.
        1   -1    0    0  501    0  0.00000000000E+00  0.00000000000E+00 -0.10942609859E+04  0.10942609859E+04  0.50400001928E-02 0. -1.
    10030    2    1    2    0    0  0.00000000000E+00  0.00000000000E+00  0.18472819192E+04  0.40358038911E+04  0.35882116100E+04 0.  0.
        4    1    3    3  502    0  0.12971616733E+04 -0.63525432092E+03  0.21206501610E+04  0.25658010791E+04  0.12699999809E+01 0.  1.
       -4    1    3    3    0  502 -0.12971616733E+04  0.63525432092E+03 -0.27336824179E+03  0.14700028120E+04  0.12699999809E+01 0. -1.
</event>
<event>
 5   0  0.5071661E-07  0.3553398E+04  0.7818609E-02  0.8101251E-01
        1   -1    0    0  501    0  0.00000000000E+00  0.00000000000E+00  0.19431910829E+04  0.19431910829E+04  0.50400001928E-02 0. -1.
       -1   -1    0    0    0  501  0.00000000000E+00  0.00000000000E+00 -0.16244719067E+04  0.16244719067E+04  0.50400001928E-02 0.  1.
    10030    2    1    2    0    0  0.00000000000E+00  0.00000000000E+00  0.31871917618E+03  0.35676629895E+04  0.35533979926E+04 0.  0.
        1    1    3    3  502    0 -0.93544287829E+02 -0.10732035040E+04 -0.12591615068E+04  0.16571071163E+04  0.50400001928E-02 0.  1.
       -1    1    3    3    0  502  0.93544287829E+02  0.10732035040E+04  0.15778806830E+04  0.19105558732E+04  0.50400001928E-02 0. -1.
</event>
<event>
 5   0  0.1491854E-06  0.3668376E+04  0.7818609E-02  0.8075006E-01
       -2   -1    0    0    0  501  0.00000000000E+00  0.00000000000E+00  0.20108544128E+04  0.20108544128E+04  0.25500000920E-02 0. -1.
        2   -1    0    0  501    0  0.00000000000E+00  0.00000000000E+00 -0.16730432329E+04  0.16730432329E+04  0.25500000920E-02 0.  1.
    10030    2    1    2    0    0  0.00000000000E+00  0.00000000000E+00  0.33781117993E+03  0.36838976458E+04  0.36683764081E+04 0.  0.
        5    1    3    3  502    0  0.14881073367E+03 -0.93053310410E+03 -0.14113431470E+04  0.16970409721E+04  0.46999998093E+01 0.  1.
       -5    1    3    3    0  502 -0.14881073367E+03  0.93053310410E+03  0.17491543269E+04  0.19868566737E+04  0.46999998093E+01 0. -1.
</event>
<event>
 5   0  0.1444091E-06  0.2661019E+04  0.7818609E-02  0.8347765E-01
        2   -1    0    0  501    0  0.00000000000E+00  0.00000000000E+00  0.18896380728E+04  0.18896380728E+04  0.25500000920E-02 0. -1.
       -2   -1    0    0    0  501  0.00000000000E+00  0.00000000000E+00 -0.93682287690E+03  0.93682287690E+03  0.25500000920E-02 0.  1.
    10030    2    1    2    0    0  0.00000000000E+00  0.00000000000E+00  0.95281519585E+03  0.28264609497E+04  0.26610194855E+04 0.  0.
        1    1    3    3  502    0  0.72190720066E+03 -0.25362498698E+03 -0.67974162115E+03  0.10234863516E+04  0.50400001928E-02 0.  1.
       -1    1    3    3    0  502 -0.72190720066E+03  0.25362498698E+03  0.16325568170E+04  0.18029745980E+04  0.50400001928E-02 0. -1.
</event>
<event>
 5   0  0.1444091E-06  0.3561447E+04  0.7818609E-02  0.8099380E-01
        2   -1    0    0  501    0  0.00000000000E+00  0.00000000000E+00  0.91391847097E+03  0.91391847097E+03  0.25500000920E-02 0.  1.
       -2   -1    0    0    0  501  0.00000000000E+00  0.00000000000E+00 -0.34696492999E+04  0.34696492999E+04  0.25500000920E-02 0. -1.
    10030    2    1    2    0    0  0.00000000000E+00  0.00000000000E+00 -0.25557308289E+04  0.43835677709E+04  0.35614472244E+04 0.  0.
        1    1    3    3  502    0  0.57409616408E+03 -0.60572961574E+03  0.65830395375E+03  0.10629481965E+04  0.50400001928E-02 0.  1.
       -1    1    3    3    0  502 -0.57409616408E+03  0.60572961574E+03 -0.32140347827E+04  0.33206195743E+04  0.50400001928E-02 0. -1.
</event>
<event>
 5   0  0.4811500E-07  0.3714499E+04  0.7818609E-02  0.8064756E-01
       -1   -1    0    0    0  501  0.00000000000E+00  0.00000000000E+00  0.21167214960E+04  0.21167214960E+04  0.50400001928E-02 0.  1.
        1   -1    0    0  501    0  0.00000000000E+00  0.00000000000E+00 -0.16295841353E+04  0.16295841353E+04  0.50400001928E-02 0. -1.
    10030    2    1    2    0    0  0.00000000000E+00  0.00000000000E+00  0.48713736076E+03  0.37463056313E+04  0.37144990342E+04 0.  0.
        3    1    3    3  502    0  0.13795483302E+04 -0.12186726695E+04 -0.56485761302E+01  0.18407467472E+04  0.10100000352E+00 0. -1.
       -3    1    3    3    0  502 -0.13795483302E+04  0.12186726695E+04  0.49278593689E+03  0.19055588841E+04  0.10100000352E+00 0.  1.
</event>
<event>
 5   0  0.1491854E-06  0.3575855E+04  0.7818609E-02  0.8096045E-01
       -2   -1    0    0    0  501  0.00000000000E+00  0.00000000000E+00  0.11887260266E+04  0.11887260267E+04  0.25500000920E-02 0. -1.
        2   -1    0    0  501    0  0.00000000000E+00  0.00000000000E+00 -0.26891688563E+04  0.26891688563E+04  0.25500000920E-02 0.  1.
    10030    2    1    2    0    0  0.00000000000E+00  0.00000000000E+00 -0.15004428297E+04  0.38778948830E+04  0.35758551478E+04 0.  0.
        5    1    3    3  502    0  0.15384620069E+04 -0.83335690801E+03 -0.11491427086E+04  0.20932988648E+04  0.46999998093E+01 0.  1.
       -5    1    3    3    0  502 -0.15384620069E+04  0.83335690801E+03 -0.35130012110E+03  0.17845960181E+04  0.46999998093E+01 0. -1.
</event>
<event>
 5   0  0.1468942E-06  0.3578087E+04  0.7818609E-02  0.8095530E-01
       -2   -1    0    0    0  501  0.00000000000E+00  0.00000000000E+00  0.24140925682E+04  0.24140925682E+04  0.25500000920E-02 0.  1.
        2   -1    0    0  501    0  0.00000000000E+00  0.00000000000E+00 -0.13258298001E+04  0.13258298001E+04  0.25500000920E-02 0. -1.
    10030    2    1    2    0    0  0.00000000000E+00  0.00000000000E+00  0.10882627681E+04  0.37399223683E+04  0.35780865652E+04 0.  0.
        2    1    3    3  502    0  0.12964654913E+04  0.11189743607E+04  0.32823484479E+01  0.17125820167E+04  0.25500000920E-02 0. -1.
       -2    1    3    3    0  502 -0.12964654913E+04 -0.11189743607E+04  0.10849804197E+04  0.20273403516E+04  0.25500000920E-02 0.  1.
</event>
<event>
 5   0  0.4811500E-07  0.3590817E+04  0.7818609E-02  0.8092598E-01
        1   -1    0    0  501    0  0.00000000000E+00  0.00000000000E+00  0.16594108259E+04  0.16594108259E+04  0.50400001928E-02 0.  1.
       -1   -1    0    0    0  501  0.00000000000E+00  0.00000000000E+00 -0.19425522502E+04  0.19425522502E+04  0.50400001928E-02 0. -1.
    10030    2    1    2    0    0  0.00000000000E+00  0.00000000000E+00 -0.28314142433E+03  0.36019630761E+04  0.35908173074E+04 0.  0.
        5    1    3    3  502    0 -0.12395470372E+04 -0.45098304299E+03 -0.13633857575E+04  0.18970254022E+04  0.46999998093E+01 0. -1.
       -5    1    3    3    0  502  0.12395470372E+04  0.45098304299E+03  0.10802443332E+04  0.17049376739E+04  0.46999998093E+01 0.  1.
</event>
<event>
 5   0  0.1444091E-06  0.3578026E+04  0.7818609E-02  0.8095544E-01
        2   -1    0    0  501    0  0.00000000000E+00  0.00000000000E+00  0.15825756629E+04  0.15825756629E+04  0.25500000920E-02 0. -1.
       -2   -1    0    0    0  501  0.00000000000E+00  0.00000000000E+00 -0.20223788938E+04  0.20223788938E+04  0.25500000920E-02 0.  1.
    10030    2    1    2    0    0  0.00000000000E+00  0.00000000000E+00 -0.43980323093E+03  0.36049545568E+04  0.35780260584E+04 0.  0.
        1    1    3    3  502    0  0.34403349435E+03  0.14747756833E+04  0.73976115865E+03  0.16853987460E+04  0.50400001928E-02 0. -1.
       -1    1    3    3    0  502 -0.34403349435E+03 -0.14747756833E+04 -0.11795643896E+04  0.19195558107E+04  0.50400001928E-02 0.  1.
</event>
<event>
 5   0  0.1379425E-06  0.2962097E+04  0.7818609E-02  0.8254638E-01
        2   -1    0    0  501    0  0.00000000000E+00  0.00000000000E+00  0.20001494505E+04  0.20001494505E+04  0.25500000920E-02 0. -1.
       -2   -1    0    0    0  501  0.00000000000E+00  0.00000000000E+00 -0.10966702342E+04  0.10966702342E+04  0.25500000920E-02 0.  1.
    10030    2    1    2    0    0  0.00000000000E+00  0.00000000000E+00  0.90347921629E+03  0.30968196846E+04  0.29620968021E+04 0.  0.
        4    1    3    3  502    0 -0.10513784761E+04 -0.10325313744E+04  0.29672235114E+03  0.15031844549E+04  0.12699999809E+01 0. -1.
       -4    1    3    3    0  502  0.10513784761E+04  0.10325313744E+04  0.60675686515E+03  0.15936352297E+04  0.12699999809E+01 0.  1.
</event>
<event>
 5   0  0.1444091E-06  0.3676878E+04  0.7818609E-02  0.8073105E-01
       -2   -1    0    0    0  501  0.00000000000E+00  0.00000000000E+00  0.16641649564E+04  0.16641649564E+04  0.25500000920E-02 0.  1.
        2   -1    0    0  501    0  0.00000000000E+00  0.00000000000E+00 -0.20309638456E+04  0.20309638456E+04  0.25500000920E-02 0. -1.
    10030    2    1    2    0    0  0.00000000000E+00  0.00000000000E+00 -0.36679888915E+03  0.36951288020E+04  0.36768784911E+04 0.  0.
        1    1    3    3  502    0 -0.49028193634E+03 -0.98629821027E+03 -0.16626765194E+04  0.19944056119E+04  0.50400001928E-02 0. -1.
       -1    1    3    3    0  502  0.49028193634E+03  0.98629821027E+03  0.12958776302E+04  0.17007231901E+04  0.50400001928E-02 0.  1.
</event>
<event>
 5   0  0.1468942E-06  0.3386791E+04  0.7818609E-02  0.8141156E-01
        2   -1    0    0  501    0  0.00000000000E+00  0.00000000000E+00  0.15906316918E+04  0.15906316918E+04  0.25500000920E-02 0.  1.
       -2   -1    0    0    0  501  0.00000000000E+00  0.00000000000E+00 -0.18027988760E+04  0.18027988760E+04  0.25500000920E-02 0. -1.
    10030    2    1    2    0    0  0.00000000000E+00  0.00000000000E+00 -0.21216718412E+03  0.33934305678E+04  0.33867914173E+04 0.  0.
        2    1    3    3  502    0  0.61670337600E+03  0.50285443835E+02 -0.16854785997E+04  0.17954636698E+04  0.25500000920E-02 0. -1.
       -2    1    3    3    0  502 -0.61670337600E+03 -0.50285443835E+02  0.14733114155E+04  0.15979668980E+04  0.25500000920E-02 0.  1.
</event>
<event>
 5   0  0.4811500E-07  0.3420898E+04  0.7818609E-02  0.8132796E-01
       -1   -1    0    0    0  501  0.00000000000E+00  0.00000000000E+00  0.15241643133E+04  0.15241643133E+04  0.50400001928E-02 0. -1.
        1   -1    0    0  501    0  0.00000000000E+00  0.00000000000E+00 -0.19195012427E+04  0.19195012427E+04  0.50400001928E-02 0.  1.
    10030    2    1    2    0    0  0.00000000000E+00  0.00000000000E+00 -0.39533692935E+03  0.34436655560E+04  0.34208977147E+04 0.  0.
        2    1    3    3  502    0  0.12744805542E+03 -0.15872508154E+04 -0.82634650343E+03  0.17940057697E+04  0.25500000920E-02 0.  1.
       -2    1    3    3    0  502 -0.12744805542E+03  0.15872508154E+04  0.43100957408E+03  0.16496597864E+04  0.25500000920E-02 0. -1.
</event>
<event>
 5   0  0.4811500E-07  0.3511119E+04  0.7818609E-02  0.8111160E-01
       -1   -1    0    0    0  501  0.00000000000E+00  0.00000000000E+00  0.13383913343E+04  0.13383913343E+04  0.50400001928E-02 0. -1.
        1   -1    0    0  501    0  0.00000000000E+00  0.00000000000E+00 -0.23027558056E+04  0.23027558057E+04  0.50400001928E-02 0.  1.
    10030    2    1    2    0    0  0.00000000000E+00  0.00000000000E+00 -0.96436447135E+03  0.36411471400E+04  0.35111185769E+04 0.  0.
        2    1    3    3  502    0 -0.33188179989E+03 -0.14134774229E+04 -0.15056056990E+04  0.20916291437E+04  0.25500000920E-02 0.  1.
       -2    1    3    3    0  502  0.33188179989E+03  0.14134774229E+04  0.54124122764E+03  0.15495179962E+04  0.25500000920E-02 0. -1.
</event>
<event>
 5   0  0.1444091E-06  0.3447652E+04  0.7818609E-02  0.8126309E-01
        2   -1    0    0  501    0  0.00000000000E+00  0.00000000000E+00  0.20513174134E+04  0.20513174134E+04  0.25500000920E-02 0. -1.
       -2   -1    0    0    0  501  0.00000000000E+00  0.00000000000E+00 -0.14486187220E+04  0.14486187220E+04  0.25500000920E-02 0.  1.
    10030    2    1    2    0    0  0.00000000000E+00  0.00000000000E+00  0.60269869142E+03  0.34999361355E+04  0.34476524244E+04 0.  0.
        1    1    3    3  502    0  0.16897928506E+04  0.51145911419E+02 -0.40749257631E+02  0.16910577412E+04  0.50400001928E-02 0. -1.
       -1    1    3    3    0  502 -0.16897928506E+04 -0.51145911419E+02  0.64344794905E+03  0.18088783943E+04  0.50400001928E-02 0.  1.
</event>
<event>
 5   0  0.5071661E-07  0.3597174E+04  0.7818609E-02  0.8091139E-01
        1   -1    0    0  501    0  0.00000000000E+00  0.00000000000E+00  0.17903757646E+04  0.17903757646E+04  0.50400001928E-02 0. -1.
       -1   -1    0    0    0  501  0.00000000000E+00  0.00000000000E+00 -0.18068361689E+04  0.18068361689E+04  0.50400001928E-02 0.  1.
    10030    2    1    2    0    0  0.00000000000E+00  0.00000000000E+00 -0.16460404350E+02  0.35972119335E+04  0.35971742729E+04 0.  0.
        1    1    3    3  502    0 -0.16174479988E+04  0.15409855940E+03 -0.77962099291E+03  0.18021357572E+04  0.50400001928E-02 0.  1.
       -1    1    3    3    0  502  0.16174479988E+04 -0.15409855940E+03  0.76316058856E+03  0.17950761763E+04  0.50400001928E-02 0. -1.
</event>
<event>
 5   0  0.4811500E-07  0.3495578E+04  0.7818609E-02  0.8114839E-01
        1   -1    0    0  501    0  0.00000000000E+00  0.00000000000E+00  0.18188951387E+04  0.18188951387E+04  0.50400001928E-02 0.  1.
       -1   -1    0    0    0  501  0.00000000000E+00  0.00000000000E+00 -0.16794621726E+04  0.16794621726E+04  0.50400001928E-02 0. -1.
    10030    2    1    2    0    0  0.00000000000E+00  0.00000000000E+00  0.13943296602E+03  0.34983573113E+04  0.34955775382E+04 0.  0.
        5    1    3    3  502    0 -0.81552061634E+03 -0.14800184362E+04 -0.37697357959E+03  0.17313750653E+04  0.46999998093E+01 0. -1.
       -5    1    3    3    0  502  0.81552061634E+03  0.14800184362E+04  0.51640654561E+03  0.17669822460E+04  0.46999998093E+01 0.  1.
</event>
<event>
 5   0  0.1444091E-06  0.3395824E+04  0.7818609E-02  0.8138932E-01
        2   -1    0    0  501    0  0.00000000000E+00  0.00000000000E+00  0.15078775239E+04  0.15078775239E+04  0.25500000920E-02 0.  1.
       -2   -1    0    0    0  501  0.00000000000E+00  0.00000000000E+00 -0.19118955860E+04  0.19118955860E+04  0.25500000920E-02 0. -1.
    10030    2    1    2    0    0  0.00000000000E+00  0.00000000000E+00 -0.40401806204E+03  0.34197731099E+04  0.33958235420E+04 0.  0.
        1    1    3    3  502    0 -0.97169540524E+03 -0.29534394683E+03 -0.15722981334E+04  0.18717749404E+04  0.50400001928E-02 0. -1.
       -1    1    3    3    0  502  0.97169540524E+03  0.29534394683E+03  0.11682800713E+04  0.15479981694E+04  0.50400001928E-02 0.  1.
</event>
<event>
 5   0  0.4811500E-07  0.3570409E+04  0.7818609E-02  0.8097304E-01
        1   -1    0    0  501    0  0.00000000000E+00  0.00000000000E+00  0.21969240955E+04  0.21969240955E+04  0.50400001928E-02 0.  1.
       -1   -1    0    0    0  501  0.00000000000E+00  0.00000000000E+00 -0.14506438487E+04  0.14506438487E+04  0.50400001928E-02 0. -1.
    10030    2    1    2    0    0  0.00000000000E+00  0.00000000000E+00  0.74628024686E+03  0.36475679442E+04  0.35704086181E+04 0.  0.
        4    1    3    3  502    0  0.98355515918E+02  0.15290163425E+04  0.13091207377E+04  0.20152824869E+04  0.12699999809E+01 0.  1.
       -4    1    3    3    0  502 -0.98355515918E+02 -0.15290163425E+04 -0.56284049081E+03  0.16322854573E+04  0.12699999809E+01 0. -1.
</event>
<event>
 5   0  0.1468942E-06  0.3016418E+04  0.7818609E-02  0.8239058E-01
        2   -1    0    0  501    0  0.00000000000E+00  0.00000000000E+00  0.15510012450E+04  0.15510012450E+04  0.25500000920E-02 0.  1.
       -2   -1    0    0    0  501  0.00000000000E+00  0.00000000000E+00 -0.14665969779E+04  0.14665969779E+04  0.25500000920E-02 0. -1.
    10030    2    1    2    0    0  0.00000000000E+00  0.00000000000E+00  0.84404267074E+02  0.30175982229E+04  0.30164175696E+04 0.  0.
        2    1    3    3  502    0 -0.10646784670E+04 -0.96418404143E+03 -0.41787202923E+03  0.14959305253E+04  0.25500000920E-02 0. -1.
       -2    1    3    3    0  502  0.10646784670E+04  0.96418404143E+03  0.50227629631E+03  0.15216676975E+04  0.25500000920E-02 0.  1.
</event>
<event>
 5   0  0.4811500E-07  0.3047625E+04  0.7818609E-02  0.8230261E-01
       -1   -1    0    0    0  501  0.00000000000E+00  0.00000000000E+00  0.16349464521E+04  0.16349464521E+04  0.50400001928E-02 0. -1.
        1   -1    0    0  501    0  0.00000000000E+00  0.00000000000E+00 -0.14202324541E+04  0.14202324541E+04  0.50400001928E-02 0.  1.
    10030    2    1    2    0    0  0.00000000000E+00  0.00000000000E+00  0.21471399798E+03  0.30551789061E+04  0.30476246566E+04 0.  0.
        4    1    3    3  502    0 -0.89746834215E+03  0.68868752364E+03  0.11308001358E+04  0.15995157050E+04  0.12699999809E+01 0.  1.
       -4    1    3    3    0  502  0.89746834215E+03 -0.68868752364E+03 -0.91608613784E+03  0.14556632012E+04  0.12699999809E+01 0. -1.
</event>
<event>
 5   0  0.5071661E-07  0.3490026E+04  0.7818609E-02  0.8116158E-01
       -1   -1    0    0    0  501  0.00000000000E+00  0.00000000000E+00  0.11607533338E+04  0.11607533338E+04  0.50400001928E-02 0.  1.
        1   -1    0    0  501    0  0.00000000000E+00  0.00000000000E+00 -0.26233573278E+04  0.26233573278E+04  0.50400001928E-02 0. -1.
    10030    2    1    2    0    0  0.00000000000E+00  0.00000000000E+00 -0.14626039940E+04  0.37841106616E+04  0.34900262256E+04 0.  0.
        1    1    3    3  502    0  0.55568710481E+03  0.91528504371E+03 -0.22252811731E+04  0.24694961366E+04  0.50400001928E-02 0. -1.
       -1    1    3    3    0  502 -0.55568710481E+03 -0.91528504371E+03  0.76267717903E+03  0.13146145249E+04  0.50400001928E-02 0.  1.
</event>
<event>
 5   0  0.1491854E-06  0.3546813E+04  0.7818609E-02  0.8102785E-01
       -2   -1    0    0    0  501  0.00000000000E+00  0.00000000000E+00  0.12375191321E+04  0.12375191321E+04  0.25500000920E-02 0.  1.
        2   -1    0    0  501    0  0.00000000000E+00  0.00000000000E+00 -0.25413510797E+04  0.25413510797E+04  0.25500000920E-02 0. -1.
    10030    2    1    2    0    0  0.00000000000E+00  0.00000000000E+00 -0.13038319475E+04  0.37788702118E+04  0.35468129822E+04 0.  0.
        5    1    3    3  502    0 -0.14486980062E+04 -0.88577484826E+03 -0.10695711065E+03  0.17014067440E+04  0.46999998093E+01 0.  1.
       -5    1    3    3    0  502  0.14486980062E+04  0.88577484826E+03 -0.11968748369E+04  0.20774634678E+04  0.46999998093E+01 0. -1.
</event>
<event>
 5   0  0.4811500E-07  0.3632648E+04  0.7818609E-02  0.8083054E-01
       -1   -1    0    0    0  501  0.00000000000E+00  0.00000000000E+00  0.13922001271E+04  0.13922001271E+04  0.50400001928E-02 0.  1.
        1   -1    0    0  501    0  0.00000000000E+00  0.00000000000E+00 -0.23696540060E+04  0.23696540060E+04  0.50400001928E-02 0. -1.
    10030    2    1    2    0    0  0.00000000000E+00  0.00000000000E+00 -0.97745387894E+03  0.37618541331E+04  0.36326478543E+04 0.  0.
        3    1    3    3  502    0 -0.93484225454E+03  0.95100512960E+03  0.78829763302E+03  0.15491139293E+04  0.10100000352E+00 0.  1.
       -3    1    3    3    0  502  0.93484225454E+03 -0.95100512960E+03 -0.17657515120E+04  0.22127402038E+04  0.10100000352E+00 0. -1.
</event>
<event>
 5   0  0.5375140E-07  0.2338348E+04  0.7818609E-02  0.8462953E-01
        1   -1    0    0  501    0  0.00000000000E+00  0.00000000000E+00  0.11307046795E+04  0.11307046795E+04  0.50400001928E-02 0. -1.
       -1   -1    0    0    0  501  0.00000000000E+00  0.00000000000E+00 -0.12089520270E+04  0.12089520271E+04  0.50400001928E-02 0.  1.
    10030    2    1    2    0    0  0.00000000000E+00  0.00000000000E+00 -0.78247347563E+02  0.23396567066E+04  0.23383478905E+04 0.  0.
        3    1    3    3  502    0  0.26725146885E+03 -0.43376564955E+03 -0.10920394916E+04  0.12050420108E+04  0.10100000352E+00 0.  1.
       -3    1    3    3    0  502 -0.26725146885E+03  0.43376564955E+03  0.10137921440E+04  0.11346146958E+04  0.10100000352E+00 0. -1.
</event>
<event>
 5   0  0.1468942E-06  0.2209420E+04  0.7818609E-02  0.8514518E-01
        2   -1    0    0  501    0  0.00000000000E+00  0.00000000000E+00  0.15339793651E+04  0.15339793651E+04  0.25500000920E-02 0. -1.
       -2   -1    0    0    0  501  0.00000000000E+00  0.00000000000E+00 -0.79556725318E+03  0.79556725319E+03  0.25500000920E-02 0.  1.
    10030    2    1    2    0    0  0.00000000000E+00  0.00000000000E+00  0.73841211188E+03  0.23295466183E+04  0.22094196070E+04 0.  0.
        2    1    3    3  502    0  0.64836500936E+03 -0.53023248922E+03 -0.39027741740E+03  0.92403470742E+03  0.25500000920E-02 0.  1.
       -2    1    3    3    0  502 -0.64836500936E+03  0.53023248922E+03  0.11286895293E+04  0.14055119108E+04  0.25500000920E-02 0. -1.
</event>
<event>
 5   0  0.1379425E-06  0.3613387E+04  0.7818609E-02  0.8087432E-01
       -2   -1    0    0    0  501  0.00000000000E+00  0.00000000000E+00  0.15906528634E+04  0.15906528634E+04  0.25500000920E-02 0. -1.
        2   -1    0    0  501    0  0.00000000000E+00  0.00000000000E+00 -0.20520764318E+04  0.20520764318E+04  0.25500000920E-02 0.  1.
    10030    2    1    2    0    0  0.00000000000E+00  0.00000000000E+00 -0.46142356840E+03  0.36427292953E+04  0.36133869166E+04 0.  0.
        4    1    3    3  502    0  0.11875136198E+04  0.68462963419E+03  0.95580501968E+03  0.16710688740E+04  0.12699999809E+01 0. -1.
       -4    1    3    3    0  502 -0.11875136198E+04 -0.68462963419E+03 -0.14172285881E+04  0.19716604213E+04  0.12699999809E+01 0.  1.
</event>
<event>
 5   0  0.4811500E-07  0.3567183E+04  0.7818609E-02  0.8098050E-01
        1   -1    0    0  501    0  0.00000000000E+00  0.00000000000E+00  0.96899567302E+03  0.96899567303E+03  0.50400001928E-02 0.  1.
       -1   -1    0    0    0  501  0.00000000000E+00  0.00000000000E+00 -0.32829851938E+04  0.32829851938E+04  0.50400001928E-02 0. -1.
    10030    2    1    2    0    0  0.00000000000E+00  0.00000000000E+00 -0.23139895207E+04  0.42519808668E+04  0.35671828926E+04 0.  0.
        3    1    3    3  502    0 -0.32512402888E+03 -0.22860816658E+03  0.91553892969E+03  0.99808760636E+03  0.10100000352E+00 0.  1.
       -3    1    3    3    0  502  0.32512402888E+03  0.22860816658E+03 -0.32295284504E+04  0.32538932604E+04  0.10100000352E+00 0. -1.
</event>
<event>
 5   0  0.1468942E-06  0.2519699E+04  0.7818609E-02  0.8396001E-01
       -2   -1    0    0    0  501  0.00000000000E+00  0.00000000000E+00  0.99629688308E+03  0.99629688308E+03  0.25500000920E-02 0. -1.
        2   -1    0    0  501    0  0.00000000000E+00  0.00000000000E+00 -0.15931207883E+04  0.15931207883E+04  0.25500000920E-02 0.  1.
    10030    2    1    2    0    0  0.00000000000E+00  0.00000000000E+00 -0.59682390525E+03  0.25894176714E+04  0.25196994073E+04 0.  0.
        2    1    3    3  502    0 -0.12392225215E+04 -0.19846946601E+03 -0.18509451353E+03  0.12685907794E+04  0.25500000920E-02 0. -1.
       -2    1    3    3    0  502  0.12392225215E+04  0.19846946601E+03 -0.41172939171E+03  0.13208268920E+04  0.25500000920E-02 0.  1.
</event>
<event>
 5   0  0.1379425E-06  0.3589464E+04  0.7818609E-02  0.8092909E-01
        2   -1    0    0  501    0  0.00000000000E+00  0.00000000000E+00  0.28025456122E+04  0.28025456122E+04  0.25500000920E-02 0.  1.
       -2   -1    0    0    0  501  0.00000000000E+00  0.00000000000E+00 -0.11493344856E+04  0.11493344856E+04  0.25500000920E-02 0. -1.
    10030    2    1    2    0    0  0.00000000000E+00  0.00000000000E+00  0.16532111266E+04  0.39518800978E+04  0.35894636477E+04 0.  0.
        4    1    3    3  502    0  0.16249604630E+04 -0.17247065099E+02 -0.12058509245E+02  0.16250972242E+04  0.12699999809E+01 0. -1.
       -4    1    3    3    0  502 -0.16249604630E+04  0.17247065099E+02  0.16652696359E+04  0.23267828736E+04  0.12699999809E+01 0.  1.
</event>
<event>
 5   0  0.1505671E-06  0.3661700E+04  0.7818609E-02  0.8076503E-01
       -2   -1    0    0    0  501  0.00000000000E+00  0.00000000000E+00  0.14850517973E+04  0.14850517973E+04  0.25500000920E-02 0.  1.
        2   -1    0    0  501    0  0.00000000000E+00  0.00000000000E+00 -0.22571680510E+04  0.22571680510E+04  0.25500000920E-02 0. -1.
    10030    2    1    2    0    0  0.00000000000E+00  0.00000000000E+00 -0.77211625368E+03  0.37422198484E+04  0.36616998627E+04 0.  0.
        3    1    3    3  502    0  0.10572531354E+03 -0.88897864558E+03  0.12461048599E+04  0.15343526994E+04  0.10100000352E+00 0.  1.
       -3    1    3    3    0  502 -0.10572531354E+03  0.88897864558E+03 -0.20182211135E+04  0.22078671490E+04  0.10100000352E+00 0. -1.
</event>
<event>
 5   0  0.4811500E-07  0.3510174E+04  0.7818609E-02  0.8111383E-01
        1   -1    0    0  501    0  0.00000000000E+00  0.00000000000E+00  0.30176387726E+04  0.30176387726E+04  0.50400001928E-02 0. -1.
       -1   -1    0    0    0  501  0.00000000000E+00  0.00000000000E+00 -0.10207748604E+04  0.10207748604E+04  0.50400001928E-02 0.  1.
    10030    2    1    2    0    0  0.00000000000E+00  0.00000000000E+00  0.19968639122E+04  0.40384136330E+04  0.35101736691E+04 0.  0.
        3    1    3    3  502    0  0.19009988066E+03  0.43688878137E+03  0.29418106480E+04  0.29801442366E+04  0.10100000352E+00 0. -1.
       -3    1    3    3    0  502 -0.19009988066E+03 -0.43688878137E+03 -0.94494673575E+03  0.10582693965E+04  0.10100000352E+00 0.  1.
</event>
<event>
 5   0  0.1468942E-06  0.3442729E+04  0.7818609E-02  0.8127498E-01
        2   -1    0    0  501    0  0.00000000000E+00  0.00000000000E+00  0.16146176407E+04  0.16146176407E+04  0.25500000920E-02 0. -1.
       -2   -1    0    0    0  501  0.00000000000E+00  0.00000000000E+00 -0.18351682443E+04  0.18351682443E+04  0.25500000920E-02 0.  1.
    10030    2    1    2    0    0  0.00000000000E+00  0.00000000000E+00 -0.22055060360E+03  0.34497858850E+04  0.34427285812E+04 0.  0.
        2    1    3    3  502    0 -0.86742371491E+03  0.14865819134E+04 -0.82918521726E+02  0.17231439776E+04  0.25500000920E-02 0.  1.
       -2    1    3    3    0  502  0.86742371491E+03 -0.14865819134E+04 -0.13763208187E+03  0.17266419074E+04  0.25500000920E-02 0. -1.
</event>
<event>
 5   0  0.4811500E-07  0.3524922E+04  0.7818609E-02  0.8107909E-01
        1   -1    0    0  501    0  0.00000000000E+00  0.00000000000E+00  0.17263004599E+04  0.17263004599E+04  0.50400001928E-02 0.  1.
       -1   -1    0    0    0  501  0.00000000000E+00  0.00000000000E+00 -0.17993787027E+04  0.17993787027E+04  0.50400001928E-02 0. -1.
    10030    2    1    2    0    0  0.00000000000E+00  0.00000000000E+00 -0.73078242797E+02  0.35256791625E+04  0.35249217193E+04 0.  0.
        5    1    3    3  502    0  0.11460667075E+04  0.48423311383E+03  0.12120462211E+04  0.17369596249E+04  0.46999998093E+01 0.  1.
       -5    1    3    3    0  502 -0.11460667075E+04 -0.48423311383E+03 -0.12851244639E+04  0.17887195376E+04  0.46999998093E+01 0. -1.
</event>
<event>
 5   0  0.4811500E-07  0.3491458E+04  0.7818609E-02  0.8115817E-01
       -1   -1    0    0    0  501  0.00000000000E+00  0.00000000000E+00  0.18958400639E+04  0.18958400639E+04  0.50400001928E-02 0.  1.
        1   -1    0    0  501    0  0.00000000000E+00  0.00000000000E+00 -0.16075036782E+04  0.16075036782E+04  0.50400001928E-02 0. -1.
    10030    2    1    2    0    0  0.00000000000E+00  0.00000000000E+00  0.28833638570E+03  0.35033437422E+04  0.34914580772E+04 0.  0.
        4    1    3    3  502    0 -0.19779015825E+03  0.12560287689E+03  0.18799911366E+04  0.18945356466E+04  0.12699999809E+01 0.  1.
       -4    1    3    3    0  502  0.19779015825E+03 -0.12560287689E+03 -0.15916547509E+04  0.16088080956E+04  0.12699999809E+01 0. -1.
</event>
<event>
 5   0  0.1468942E-06  0.3284921E+04  0.7818609E-02  0.8166743E-01
       -2   -1    0    0    0  501  0.00000000000E+00  0.00000000000E+00  0.13173261821E+04  0.13173261821E+04  0.25500000920E-02 0. -1.
        2   -1    0    0  501    0  0.00000000000E+00  0.00000000000E+00 -0.20478429593E+04  0.20478429593E+04  0.25500000920E-02 0.  1.
    10030    2    1    2    0    0  0.00000000000E+00  0.00000000000E+00 -0.73051677725E+03  0.33651691414E+04  0.32849213976E+04 0.  0.
        2    1    3    3  502    0 -0.75863402919E+02 -0.24995792065E+03  0.12959105054E+04  0.13219751344E+04  0.25500000920E-02 0. -1.
       -2    1    3    3    0  502  0.75863402919E+02  0.24995792065E+03 -0.20264272827E+04  0.20431940069E+04  0.25500000920E-02 0.  1.
</event>
<event>
 5   0  0.4811500E-07  0.2475324E+04  0.7818609E-02  0.8411830E-01
        1   -1    0    0  501    0  0.00000000000E+00  0.00000000000E+00  0.23946638323E+04  0.23946638323E+04  0.50400001928E-02 0.  1.
       -1   -1    0    0    0  501  0.00000000000E+00  0.00000000000E+00 -0.63967519935E+03  0.63967519937E+03  0.50400001928E-02 0. -1.
    10030    2    1    2    0    0  0.00000000000E+00  0.00000000000E+00  0.17549886329E+04  0.30343390316E+04  0.24753238692E+04 0.  0.
        3    1    3    3  502    0 -0.89641348335E+03  0.75221184649E+03  0.38345497784E+03  0.12314290582E+04  0.10100000352E+00 0. -1.
       -3    1    3    3    0  502  0.89641348335E+03 -0.75221184649E+03  0.13715336551E+04  0.18029099734E+04  0.10100000352E+00 0.  1.
</event>
<event>
 5   0  0.4811500E-07  0.3304952E+04  0.7818609E-02  0.8161637E-01
       -1   -1    0    0    0  501  0.00000000000E+00  0.00000000000E+00  0.16493289696E+04  0.16493289696E+04  0.50400001928E-02 0. -1.
        1   -1    0    0  501    0  0.00000000000E+00  0.00000000000E+00 -0.16556286552E+04  0.16556286552E+04  0.50400001928E-02 0.  1.
    10030    2    1    2    0    0  0.00000000000E+00  0.00000000000E+00 -0.62996855369E+01  0.33049576248E+04  0.33049516208E+04 0.  0.
        3    1    3    3  502    0  0.89015269338E+03  0.11487134428E+04 -0.78976547354E+03  0.16539782056E+04  0.10100000352E+00 0. -1.
       -3    1    3    3    0  502 -0.89015269338E+03 -0.11487134428E+04  0.78346578800E+03  0.16509794192E+04  0.10100000352E+00 0.  1.
</event>
<event>
 5   0  0.4811500E-07  0.2407020E+04  0.7818609E-02  0.8436880E-01
        1   -1    0    0  501    0  0.00000000000E+00  0.00000000000E+00  0.18353053832E+04  0.18353053832E+04  0.50400001928E-02 0. -1.
       -1   -1    0    0    0  501  0.00000000000E+00  0.00000000000E+00 -0.78920742403E+03  0.78920742405E+03  0.50400001928E-02 0.  1.
    10030    2    1    2    0    0  0.00000000000E+00  0.00000000000E+00  0.10460979592E+04  0.26245128073E+04  0.24070202607E+04 0.  0.
        3    1    3    3  502    0  0.65763433716E+03 -0.53385970383E+03 -0.40915735262E+03  0.94069062619E+03  0.10100000352E+00 0.  1.
       -3    1    3    3    0  502 -0.65763433716E+03  0.53385970383E+03  0.14552553118E+04  0.16838221811E+04  0.10100000352E+00 0. -1.
</event>
<event>
 5   0  0.4811500E-07  0.3575466E+04  0.7818609E-02  0.8096135E-01
        1   -1    0    0  501    0  0.00000000000E+00  0.00000000000E+00  0.12132688993E+04  0.12132688993E+04  0.50400001928E-02 0.  1.
       -1   -1    0    0    0  501  0.00000000000E+00  0.00000000000E+00 -0.26341965764E+04  0.26341965764E+04  0.50400001928E-02 0. -1.
    10030    2    1    2    0    0  0.00000000000E+00  0.00000000000E+00 -0.14209276771E+04  0.38474654757E+04  0.35754657212E+04 0.  0.
        2    1    3    3  502    0 -0.25652762064E+03  0.32997707418E+03  0.11599549561E+04  0.12329585516E+04  0.25500000920E-02 0.  1.
       -2    1    3    3    0  502  0.25652762064E+03 -0.32997707418E+03 -0.25808826333E+04  0.26145069241E+04  0.25500000920E-02 0. -1.
</event>
<event>
 5   0  0.1491854E-06  0.3533615E+04  0.7818609E-02  0.8105869E-01
       -2   -1    0    0    0  501  0.00000000000E+00  0.00000000000E+00  0.13837500685E+04  0.13837500685E+04  0.25500000920E-02 0.  1.
        2   -1    0    0  501    0  0.00000000000E+00  0.00000000000E+00 -0.22559054274E+04  0.22559054274E+04  0.25500000920E-02 0. -1.
    10030    2    1    2    0    0  0.00000000000E+00  0.00000000000E+00 -0.87215535888E+03  0.36396554958E+04  0.35336153099E+04 0.  0.
        5    1    3    3  502    0 -0.65253612597E+03  0.12285400809E+04  0.68586315171E+03  0.15509817790E+04  0.46999998093E+01 0.  1.
       -5    1    3    3    0  502  0.65253612597E+03 -0.12285400809E+04 -0.15580185106E+04  0.20886737168E+04  0.46999998093E+01 0. -1.
</event>
<event>
 5   0  0.4811500E-07  0.2314855E+04  0.7818609E-02  0.8472087E-01
        1   -1    0    0  501    0  0.00000000000E+00  0.00000000000E+00  0.20544653318E+04  0.20544653318E+04  0.50400001928E-02 0.  1.
       -1   -1    0    0    0  501  0.00000000000E+00  0.00000000000E+00 -0.65206189261E+03  0.65206189263E+03  0.50400001928E-02 0. -1.
    10030    2    1    2    0    0  0.00000000000E+00  0.00000000000E+00  0.14024034392E+04  0.27065272245E+04  0.23148551165E+04 0.  0.
        4    1    3    3  502    0  0.19962121998E+03 -0.72254806912E+03 -0.32989202495E+03  0.81899615670E+03  0.12699999809E+01 0. -1.
       -4    1    3    3    0  502 -0.19962121998E+03  0.72254806912E+03  0.17322954642E+04  0.18875310678E+04  0.12699999809E+01 0.  1.
</event>
<event>
 5   0  0.4811500E-07  0.2965817E+04  0.7818609E-02  0.8253560E-01
       -1   -1    0    0    0  501  0.00000000000E+00  0.00000000000E+00  0.16489044731E+04  0.16489044731E+04  0.50400001928E-02 0. -1.
        1   -1    0    0  501    0  0.00000000000E+00  0.00000000000E+00 -0.13336237652E+04  0.13336237652E+04  0.50400001928E-02 0.  1.
    10030    2    1    2    0    0  0.00000000000E+00  0.00000000000E+00  0.31528070787E+03  0.29825282383E+04  0.29658173861E+04 0.  0.
        3    1    3    3  502    0  0.49166109358E+03  0.61692365019E+03 -0.11050989377E+04  0.13577809445E+04  0.10100000352E+00 0.  1.
       -3    1    3    3    0  502 -0.49166109358E+03 -0.61692365019E+03  0.14203796455E+04  0.16247472938E+04  0.10100000352E+00 0. -1.
</event>
<event>
 5   0  0.1468942E-06  0.2403513E+04  0.7818609E-02  0.8438189E-01
       -2   -1    0    0    0  501  0.00000000000E+00  0.00000000000E+00  0.10065457530E+04  0.10065457530E+04  0.25500000920E-02 0.  1.
        2   -1    0    0  501    0  0.00000000000E+00  0.00000000000E+00 -0.14348271494E+04  0.14348271494E+04  0.25500000920E-02 0. -1.
    10030    2    1    2    0    0  0.00000000000E+00  0.00000000000E+00 -0.42828139642E+03  0.24413729024E+04  0.24035134063E+04 0.  0.
        2    1    3    3  502    0  0.17168381749E+03 -0.94935754831E+03  0.51371050987E+03  0.10930020932E+04  0.25500000920E-02 0.  1.
       -2    1    3    3    0  502 -0.17168381749E+03  0.94935754831E+03 -0.94199190630E+03  0.13483708093E+04  0.25500000920E-02 0. -1.
</event>
<event>
 5   0  0.4811500E-07  0.3537127E+04  0.7818609E-02  0.8105047E-01
        4   -1    0    0  501    0  0.00000000000E+00  0.00000000000E+00  0.16352875616E+04  0.16352880547E+04  0.12699999809E+01 0.  1.
       -4   -1    0    0    0  501  0.00000000000E+00  0.00000000000E+00 -0.19127005639E+04  0.19127009855E+04  0.12699999809E+01 0. -1.
    10030    2    1    2    0    0  0.00000000000E+00  0.00000000000E+00 -0.27741300231E+03  0.35479890402E+04  0.35371271190E+04 0.  0.
        5    1    3    3  502    0  0.95047935543E+03 -0.70834416901E+03  0.11778148924E+04  0.16710572934E+04  0.46999998093E+01 0.  1.
       -5    1    3    3    0  502 -0.95047935543E+03  0.70834416901E+03 -0.14552278947E+04  0.18769317469E+04  0.46999998093E+01 0. -1.
</event>
<event>
 5   0  0.1491854E-06  0.3617777E+04  0.7818609E-02  0.8086432E-01
        2   -1    0    0  501    0  0.00000000000E+00  0.00000000000E+00  0.12036941345E+04  0.12036941345E+04  0.25500000920E-02 0.  1.
       -2   -1    0    0    0  501  0.00000000000E+00  0.00000000000E+00 -0.27183626455E+04  0.27183626455E+04  0.25500000920E-02 0. -1.
    10030    2    1    2    0    0  0.00000000000E+00  0.00000000000E+00 -0.15146685110E+04  0.39220567800E+04  0.36177767603E+04 0.  0.
        5    1    3    3  502    0 -0.10126849610E+03  0.76189187094E+03 -0.25325309496E+04  0.26465958573E+04  0.46999998093E+01 0. -1.
       -5    1    3    3    0  502  0.10126849610E+03 -0.76189187094E+03  0.10178624386E+04  0.12754609227E+04  0.46999998093E+01 0.  1.
</event>
<event>
 5   0  0.5071661E-07  0.3586816E+04  0.7818609E-02  0.8093518E-01
        1   -1    0    0  501    0  0.00000000000E+00  0.00000000000E+00  0.30224169385E+04  0.30224169385E+04  0.50400001928E-02 0.  1.
       -1   -1    0    0    0  501  0.00000000000E+00  0.00000000000E+00 -0.10641523373E+04  0.10641523373E+04  0.50400001928E-02 0. -1.
    10030    2    1    2    0    0  0.00000000000E+00  0.00000000000E+00  0.19582646013E+04  0.40865692758E+04  0.35868158856E+04 0.  0.
        1    1    3    3  502    0  0.11661518627E+04 -0.21660729239E+03 -0.55346146375E+03  0.13088729800E+04  0.50400001928E-02 0. -1.
       -1    1    3    3    0  502 -0.11661518627E+04  0.21660729239E+03  0.25117260650E+04  0.27776962958E+04  0.50400001928E-02 0.  1.
</event>
<event>
 5   0  0.1505671E-06  0.2234513E+04  0.7818609E-02  0.8504199E-01
        2   -1    0    0  501    0  0.00000000000E+00  0.00000000000E+00  0.21985282424E+04  0.21985282424E+04  0.25500000920E-02 0. -1.
       -2   -1    0    0    0  501  0.00000000000E+00  0.00000000000E+00 -0.56777158920E+03  0.56777158920E+03  0.25500000920E-02 0.  1.
    10030    2    1    2    0    0  0.00000000000E+00  0.00000000000E+00  0.16307566532E+04  0.27662998317E+04  0.22345128096E+04 0.  0.
        3    1    3    3  502    0  0.69662814184E+03 -0.85033326811E+03  0.10626799416E+04  0.15289362653E+04  0.10100000352E+00 0. -1.
       -3    1    3    3    0  502 -0.69662814184E+03  0.85033326811E+03  0.56807671167E+03  0.12373635664E+04  0.10100000352E+00 0.  1.
</event>
<event>
 5   0  0.1491854E-06  0.2394881E+04  0.7818609E-02  0.8441423E-01
       -2   -1    0    0    0  501  0.00000000000E+00  0.00000000000E+00  0.86228662878E+03  0.86228662879E+03  0.25500000920E-02 0.  1.
        2   -1    0    0  501    0  0.00000000000E+00  0.00000000000E+00 -0.16628617685E+04  0.16628617685E+04  0.25500000920E-02 0. -1.
    10030    2    1    2    0    0  0.00000000000E+00  0.00000000000E+00 -0.80057513967E+03  0.25251483972E+04  0.23948807640E+04 0.  0.
        5    1    3    3  502    0  0.41008566535E+02 -0.11850101562E+04 -0.22413554459E+03  0.12067268146E+04  0.46999998093E+01 0.  1.
       -5    1    3    3    0  502 -0.41008566535E+02  0.11850101562E+04 -0.57643959508E+03  0.13184215826E+04  0.46999998093E+01 0. -1.
</event>
<event>
 5   0  0.5071661E-07  0.2869118E+04  0.7818609E-02  0.8282125E-01
        1   -1    0    0  501    0  0.00000000000E+00  0.00000000000E+00  0.12308126586E+04  0.12308126586E+04  0.50400001928E-02 0. -1.
       -1   -1    0    0    0  501  0.00000000000E+00  0.00000000000E+00 -0.16720333352E+04  0.16720333352E+04  0.50400001928E-02 0.  1.
    10030    2    1    2    0    0  0.00000000000E+00  0.00000000000E+00 -0.44122067658E+03  0.29028459938E+04  0.28691181883E+04 0.  0.
        1    1    3    3  502    0 -0.41075291121E+02  0.11893105368E+04 -0.10311603805E+04  0.15746232765E+04  0.50400001928E-02 0.  1.
       -1    1    3    3    0  502  0.41075291121E+02 -0.11893105368E+04  0.58993970392E+03  0.13282227173E+04  0.50400001928E-02 0. -1.
</event>
<event>
 5   0  0.1468942E-06  0.3453014E+04  0.7818609E-02  0.8125016E-01
        2   -1    0    0  501    0  0.00000000000E+00  0.00000000000E+00  0.18387362617E+04  0.18387362617E+04  0.25500000920E-02 0.  1.
       -2   -1    0    0    0  501  0.00000000000E+00  0.00000000000E+00 -0.16211278524E+04  0.16211278524E+04  0.25500000920E-02 0. -1.
    10030    2    1    2    0    0  0.00000000000E+00  0.00000000000E+00  0.21760840931E+03  0.34598641141E+04  0.34530140845E+04 0.  0.
        2    1    3    3  502    0  0.12556755430E+03 -0.28784793657E+03 -0.15922688663E+04  0.16229429404E+04  0.25500000920E-02 0. -1.
       -2    1    3    3    0  502 -0.12556755430E+03  0.28784793657E+03  0.18098772756E+04  0.18369211736E+04  0.25500000920E-02 0.  1.
</event>
<event>
 5   0  0.1491854E-06  0.2479182E+04  0.7818609E-02  0.8410440E-01
        2   -1    0    0  501    0  0.00000000000E+00  0.00000000000E+00  0.89139525903E+03  0.89139525903E+03  0.25500000920E-02 0.  1.
       -2   -1    0    0    0  501  0.00000000000E+00  0.00000000000E+00 -0.17237984149E+04  0.17237984149E+04  0.25500000920E-02 0. -1.
    10030    2    1    2    0    0  0.00000000000E+00  0.00000000000E+00 -0.83240315589E+03  0.26151936739E+04  0.24791819091E+04 0.  0.
        5    1    3    3  502    0  0.94421683146E+03  0.47344403944E+03  0.26813367351E+03  0.10897763258E+04  0.46999998093E+01 0.  1.
       -5    1    3    3    0  502 -0.94421683146E+03 -0.47344403944E+03 -0.11005368294E+04  0.15254173482E+04  0.46999998093E+01 0. -1.
</event>
<event>
 5   0  0.4811500E-07  0.3620462E+04  0.7818609E-02  0.8085821E-01
        1   -1    0    0  501    0  0.00000000000E+00  0.00000000000E+00  0.18276097838E+04  0.18276097838E+04  0.50400001928E-02 0. -1.
       -1   -1    0    0    0  501  0.00000000000E+00  0.00000000000E+00 -0.17930178961E+04  0.17930178961E+04  0.50400001928E-02 0.  1.
    10030    2    1    2    0    0  0.00000000000E+00  0.00000000000E+00  0.34591887680E+02  0.36206276800E+04  0.36204624288E+04 0.  0.
        2    1    3    3  502    0 -0.98517494873E+03  0.72461370787E+03 -0.13174193660E+04  0.17975618185E+04  0.25500000920E-02 0.  1.
       -2    1    3    3    0  502  0.98517494873E+03 -0.72461370787E+03  0.13520112537E+04  0.18230658615E+04  0.25500000920E-02 0. -1.
</event>
<event>
 5   0  0.1505671E-06  0.3547852E+04  0.7818609E-02  0.8102542E-01
       -2   -1    0    0    0  501  0.00000000000E+00  0.00000000000E+00  0.16532882689E+04  0.16532882689E+04  0.25500000920E-02 0.  1.
        2   -1    0    0  501    0  0.00000000000E+00  0.00000000000E+00 -0.19033661302E+04  0.19033661302E+04  0.25500000920E-02 0. -1.
    10030    2    1    2    0    0  0.00000000000E+00  0.00000000000E+00 -0.25007786128E+03  0.35566543992E+04  0.35478516849E+04 0.  0.
        3    1    3    3  502    0  0.12069705591E+03  0.15426024713E+04 -0.99472972472E+03  0.18394774800E+04  0.10100000352E+00 0. -1.
       -3    1    3    3    0  502 -0.12069705591E+03 -0.15426024713E+04  0.74465186344E+03  0.17171769192E+04  0.10100000352E+00 0.  1.
</event>
<event>
 5   0  0.4811500E-07  0.3506134E+04  0.7818609E-02  0.8112338E-01
        1   -1    0    0  501    0  0.00000000000E+00  0.00000000000E+00  0.14148873871E+04  0.14148873871E+04  0.50400001928E-02 0.  1.
       -1   -1    0    0    0  501  0.00000000000E+00  0.00000000000E+00 -0.21720766347E+04  0.21720766347E+04  0.50400001928E-02 0. -1.
    10030    2    1    2    0    0  0.00000000000E+00  0.00000000000E+00 -0.75718924757E+03  0.35869640218E+04  0.35061339588E+04 0.  0.
        4    1    3    3  502    0 -0.99594734238E+03  0.14266300054E+04 -0.59815338522E+03  0.18398297112E+04  0.12699999809E+01 0. -1.
       -4    1    3    3    0  502  0.99594734238E+03 -0.14266300054E+04 -0.15903586235E+03  0.17471343106E+04  0.12699999809E+01 0.  1.
</event>
<event>
 5   0  0.4811500E-07  0.3530545E+04  0.7818609E-02  0.8106589E-01
       -1   -1    0    0    0  501  0.00000000000E+00  0.00000000000E+00  0.14185757831E+04  0.14185757832E+04  0.50400001928E-02 0. -1.
        1   -1    0    0  501    0  0.00000000000E+00  0.00000000000E+00 -0.21967013771E+04  0.21967013771E+04  0.50400001928E-02 0.  1.
    10030    2    1    2    0    0  0.00000000000E+00  0.00000000000E+00 -0.77812559395E+03  0.36152771603E+04  0.35305452136E+04 0.  0.
        5    1    3    3  502    0 -0.11260779534E+04  0.10878076050E+04  0.44585076940E+03  0.16279379414E+04  0.46999998093E+01 0. -1.
       -5    1    3    3    0  502  0.11260779534E+04 -0.10878076050E+04 -0.12239763634E+04  0.19873392188E+04  0.46999998093E+01 0.  1.
</event>
<event>
 5   0  0.4811500E-07  0.3736072E+04  0.7818609E-02  0.8060015E-01
       -1   -1    0    0    0  501  0.00000000000E+00  0.00000000000E+00  0.29118931329E+04  0.29118931329E+04  0.50400001928E-02 0.  1.
        1   -1    0    0  501    0  0.00000000000E+00  0.00000000000E+00 -0.11983813486E+04  0.11983813486E+04  0.50400001928E-02 0. -1.
    10030    2    1    2    0    0  0.00000000000E+00  0.00000000000E+00  0.17135117843E+04  0.41102744815E+04  0.37360719584E+04 0.  0.
        5    1    3    3  502    0 -0.24474684963E+03 -0.15652574058E+04  0.19456383269E+04  0.25090759964E+04  0.46999998093E+01 0.  1.
       -5    1    3    3    0  502  0.24474684963E+03  0.15652574058E+04 -0.23212654260E+03  0.16011984851E+04  0.46999998093E+01 0. -1.
</event>
<event>
 5   0  0.4811500E-07  0.3584453E+04  0.7818609E-02  0.8094062E-01
        1   -1    0    0  501    0  0.00000000000E+00  0.00000000000E+00  0.23352351477E+04  0.23352351477E+04  0.50400001928E-02 0. -1.
       -1   -1    0    0    0  501  0.00000000000E+00  0.00000000000E+00 -0.13754826773E+04  0.13754826773E+04  0.50400001928E-02 0.  1.
    10030    2    1    2    0    0  0.00000000000E+00  0.00000000000E+00  0.95975247049E+03  0.37107178250E+04  0.35844528135E+04 0.  0.
        5    1    3    3  502    0 -0.11422012086E+04 -0.69446774515E+02 -0.94806258965E+03  0.14860320384E+04  0.46999998093E+01 0.  1.
       -5    1    3    3    0  502  0.11422012086E+04  0.69446774515E+02  0.19078150601E+04  0.22246857866E+04  0.46999998093E+01 0. -1.
</event>
<event>
 5   0  0.1505671E-06  0.3600683E+04  0.7818609E-02  0.8090335E-01
        2   -1    0    0  501    0  0.00000000000E+00  0.00000000000E+00  0.15301338771E+04  0.15301338771E+04  0.25500000920E-02 0.  1.
       -2   -1    0    0    0  501  0.00000000000E+00  0.00000000000E+00 -0.21182653983E+04  0.21182653983E+04  0.25500000920E-02 0. -1.
    10030    2    1    2    0    0  0.00000000000E+00  0.00000000000E+00 -0.58813152123E+03  0.36483992754E+04  0.36006830722E+04 0.  0.
        3    1    3    3  502    0 -0.11170270077E+04 -0.42636207752E+03 -0.16578952858E+04  0.20440525301E+04  0.10100000352E+00 0. -1.
       -3    1    3    3    0  502  0.11170270077E+04  0.42636207752E+03  0.10697637645E+04  0.16043467453E+04  0.10100000352E+00 0.  1.
</event>
<event>
 5   0  0.4811500E-07  0.2585690E+04  0.7818609E-02  0.8373078E-01
       -1   -1    0    0    0  501  0.00000000000E+00  0.00000000000E+00  0.95952484709E+03  0.95952484710E+03  0.50400001928E-02 0.  1.
        1   -1    0    0  501    0  0.00000000000E+00  0.00000000000E+00 -0.17419536044E+04  0.17419536044E+04  0.50400001928E-02 0. -1.
    10030    2    1    2    0    0  0.00000000000E+00  0.00000000000E+00 -0.78242875727E+03  0.27014784515E+04  0.25856896688E+04 0.  0.
        5    1    3    3  502    0  0.76473863547E+03 -0.19797515653E+03 -0.14604728635E+04  0.16604283839E+04  0.46999998093E+01 0. -1.
       -5    1    3    3    0  502 -0.76473863547E+03  0.19797515653E+03  0.67804410621E+03  0.10410500675E+04  0.46999998093E+01 0.  1.
</event>
<event>
 5   0  0.4811500E-07  0.3569263E+04  0.7818609E-02  0.8097569E-01
       -1   -1    0    0    0  501  0.00000000000E+00  0.00000000000E+00  0.23487598639E+04  0.23487598639E+04  0.50400001928E-02 0.  1.
        1   -1    0    0  501    0  0.00000000000E+00  0.00000000000E+00 -0.13559962973E+04  0.13559962974E+04  0.50400001928E-02 0. -1.
    10030    2    1    2    0    0  0.00000000000E+00  0.00000000000E+00  0.99276356658E+03  0.37047561613E+04  0.35692630494E+04 0.  0.
        5    1    3    3  502    0 -0.36365773579E+03 -0.17469421963E+04  0.52634998634E+03  0.18604086605E+04  0.46999998093E+01 0. -1.
       -5    1    3    3    0  502  0.36365773579E+03  0.17469421963E+04  0.46641358024E+03  0.18443475008E+04  0.46999998093E+01 0.  1.
</event>
<event>
 5   0  0.1505671E-06  0.3633556E+04  0.7818609E-02  0.8082848E-01
        2   -1    0    0  501    0  0.00000000000E+00  0.00000000000E+00  0.26792558296E+04  0.26792558296E+04  0.25500000920E-02 0.  1.
       -2   -1    0    0    0  501  0.00000000000E+00  0.00000000000E+00 -0.12319399083E+04  0.12319399083E+04  0.25500000920E-02 0. -1.
    10030    2    1    2    0    0  0.00000000000E+00  0.00000000000E+00  0.14473159214E+04  0.39111957379E+04  0.36335559338E+04 0.  0.
        3    1    3    3  502    0  0.11720290207E+03  0.12008662917E+04 -0.73838485499E+03  0.14145771718E+04  0.10100000352E+00 0. -1.
       -3    1    3    3    0  502 -0.11720290207E+03 -0.12008662917E+04  0.21857007763E+04  0.24966185661E+04  0.10100000352E+00 0.  1.
</event>
<event>
 5   0  0.1444091E-06  0.3566765E+04  0.7818609E-02  0.8098147E-01
        2   -1    0    0  501    0  0.00000000000E+00  0.00000000000E+00  0.23508726021E+04  0.23508726021E+04  0.25500000920E-02 0. -1.
       -2   -1    0    0    0  501  0.00000000000E+00  0.00000000000E+00 -0.13528817193E+04  0.13528817193E+04  0.25500000920E-02 0.  1.
    10030    2    1    2    0    0  0.00000000000E+00  0.00000000000E+00  0.99799088279E+03  0.37037543214E+04  0.35667646785E+04 0.  0.
        1    1    3    3  502    0 -0.25971326999E+03 -0.15435879175E+04 -0.38842543461E+03  0.16127581840E+04  0.50400001928E-02 0.  1.
       -1    1    3    3    0  502  0.25971326999E+03  0.15435879175E+04  0.13864163174E+04  0.20909961375E+04  0.50400001928E-02 0. -1.
</event>
<event>
 5   0  0.1379425E-06  0.2975866E+04  0.7818609E-02  0.8250656E-01
       -2   -1    0    0    0  501  0.00000000000E+00  0.00000000000E+00  0.10140357251E+04  0.10140357251E+04  0.25500000920E-02 0. -1.
        2   -1    0    0  501    0  0.00000000000E+00  0.00000000000E+00 -0.21832998720E+04  0.21832998720E+04  0.25500000920E-02 0.  1.
    10030    2    1    2    0    0  0.00000000000E+00  0.00000000000E+00 -0.11692641469E+04  0.31973355971E+04  0.29758656346E+04 0.  0.
        4    1    3    3  502    0 -0.12467223153E+04 -0.61285864169E+03 -0.11572397578E+04  0.18080701635E+04  0.12699999809E+01 0. -1.
       -4    1    3    3    0  502  0.12467223153E+04  0.61285864169E+03 -0.12024389043E+02  0.13892654336E+04  0.12699999809E+01 0.  1.
</event>
<event>
 5   0  0.4811500E-07  0.3590845E+04  0.7818609E-02  0.8092592E-01
        1   -1    0    0  501    0  0.00000000000E+00  0.00000000000E+00  0.17177287037E+04  0.17177287037E+04  0.50400001928E-02 0.  1.
       -1   -1    0    0    0  501  0.00000000000E+00  0.00000000000E+00 -0.18766306653E+04  0.18766306653E+04  0.50400001928E-02 0. -1.
    10030    2    1    2    0    0  0.00000000000E+00  0.00000000000E+00 -0.15890196168E+03  0.35943593690E+04  0.35908452264E+04 0.  0.
        2    1    3    3  502    0  0.15635379851E+04 -0.31842974993E+03 -0.90335662868E+03  0.18336034836E+04  0.25500000920E-02 0. -1.
       -2    1    3    3    0  502 -0.15635379851E+04  0.31842974993E+03  0.74445466699E+03  0.17607558854E+04  0.25500000920E-02 0.  1.
</event>
<event>
 5   0  0.1491854E-06  0.3615288E+04  0.7818609E-02  0.8086999E-01
       -2   -1    0    0    0  501  0.00000000000E+00  0.00000000000E+00  0.11619986702E+04  0.11619986702E+04  0.25500000920E-02 0.  1.
        2   -1    0    0  501    0  0.00000000000E+00  0.00000000000E+00 -0.28120318738E+04  0.28120318738E+04  0.25500000920E-02 0. -1.
    10030    2    1    2    0    0  0.00000000000E+00  0.00000000000E+00 -0.16500332036E+04  0.39740305440E+04  0.36152882584E+04 0.  0.
        5    1    3    3  502    0 -0.15015473726E+04  0.94994266910E+03 -0.45958343284E+03  0.18352859746E+04  0.46999998093E+01 0. -1.
       -5    1    3    3    0  502  0.15015473726E+04 -0.94994266910E+03 -0.11904497707E+04  0.21387445694E+04  0.46999998093E+01 0.  1.
</event>
<event>
 5   0  0.4811500E-07  0.3496971E+04  0.7818609E-02  0.8114508E-01
        1   -1    0    0  501    0  0.00000000000E+00  0.00000000000E+00  0.20942687936E+04  0.20942687936E+04  0.50400001928E-02 0.  1.
       -1   -1    0    0    0  501  0.00000000000E+00  0.00000000000E+00 -0.14597943195E+04  0.14597943195E+04  0.50400001928E-02 0. -1.
    10030    2    1    2    0    0  0.00000000000E+00  0.00000000000E+00  0.63447447413E+03  0.35540631131E+04  0.34969710828E+04 0.  0.
        4    1    3    3  502    0  0.14738997262E+03  0.54108204614E+03  0.20003870062E+04  0.20775089343E+04  0.12699999809E+01 0.  1.
       -4    1    3    3    0  502 -0.14738997262E+03 -0.54108204614E+03 -0.13659125321E+04  0.14765541788E+04  0.12699999809E+01 0. -1.
</event>
<event>
 5   0  0.1444091E-06  0.2276241E+04  0.7818609E-02  0.8487348E-01
        2   -1    0    0  501    0  0.00000000000E+00  0.00000000000E+00  0.10064273078E+04  0.10064273078E+04  0.25500000920E-02 0.  1.
       -2   -1    0    0    0  501  0.00000000000E+00  0.00000000000E+00 -0.12870455723E+04  0.12870455723E+04  0.25500000920E-02 0. -1.
    10030    2    1    2    0    0  0.00000000000E+00  0.00000000000E+00 -0.28061826450E+03  0.22934728801E+04  0.22762405939E+04 0.  0.
        1    1    3    3  502    0  0.58384821761E+03 -0.95265552352E+03 -0.35848135527E+03  0.11734309395E+04  0.50400001928E-02 0. -1.
       -1    1    3    3    0  502 -0.58384821761E+03  0.95265552352E+03  0.77863090769E+02  0.11200419406E+04  0.50400001928E-02 0.  1.
</event>
<event>
 5   0  0.1491854E-06  0.2792301E+04  0.7818609E-02  0.8305663E-01
        2   -1    0    0  501    0  0.00000000000E+00  0.00000000000E+00  0.15676879575E+04  0.15676879575E+04  0.25500000920E-02 0.  1.
       -2   -1    0    0    0  501  0.00000000000E+00  0.00000000000E+00 -0.12433824940E+04  0.12433824940E+04  0.25500000920E-02 0. -1.
    10030    2    1    2    0    0  0.00000000000E+00  0.00000000000E+00  0.32430546354E+03  0.28110704515E+04  0.27923006732E+04 0.  0.
        5    1    3    3  502    0 -0.18881639076E+03 -0.86908975306E+03  0.12456049782E+04  0.15305301304E+04  0.46999998093E+01 0.  1.
       -5    1    3    3    0  502  0.18881639076E+03  0.86908975306E+03 -0.92129951466E+03  0.12805403211E+04  0.46999998093E+01 0. -1.
</event>
<event>
 5   0  0.1468942E-06  0.3613362E+04  0.7818609E-02  0.8087438E-01
        2   -1    0    0  501    0  0.00000000000E+00  0.00000000000E+00  0.23477729195E+04  0.23477729195E+04  0.25500000920E-02 0. -1.
       -2   -1    0    0    0  501  0.00000000000E+00  0.00000000000E+00 -0.13902950354E+04  0.13902950355E+04  0.25500000920E-02 0.  1.
    10030    2    1    2    0    0  0.00000000000E+00  0.00000000000E+00  0.95747788404E+03  0.37380679549E+04  0.36133624420E+04 0.  0.
        2    1    3    3  502    0  0.12650536831E+04  0.94267816883E+03 -0.43203978227E+03  0.16357448837E+04  0.25500000920E-02 0.  1.
       -2    1    3    3    0  502 -0.12650536831E+04 -0.94267816883E+03  0.13895176663E+04  0.21023230713E+04  0.25500000920E-02 0. -1.
</event>
<event>
 5   0  0.5071661E-07  0.3468995E+04  0.7818609E-02  0.8121177E-01
        1   -1    0    0  501    0  0.00000000000E+00  0.00000000000E+00  0.24502426431E+04  0.24502426431E+04  0.50400001928E-02 0.  1.
       -1   -1    0    0    0  501  0.00000000000E+00  0.00000000000E+00 -0.12278302833E+04  0.12278302833E+04  0.50400001928E-02 0. -1.
    10030    2    1    2    0    0  0.00000000000E+00  0.00000000000E+00  0.12224123599E+04  0.36780729264E+04  0.34689953120E+04 0.  0.
        1    1    3    3  502    0 -0.15369830272E+04 -0.65319045549E+02  0.14606797597E+04  0.21213601213E+04  0.50400001928E-02 0.  1.
       -1    1    3    3    0  502  0.15369830272E+04  0.65319045549E+02 -0.23826739987E+03  0.15567128051E+04  0.50400001928E-02 0. -1.
</event>
<event>
 5   0  0.4811500E-07  0.3591167E+04  0.7818609E-02  0.8092518E-01
       -1   -1    0    0    0  501  0.00000000000E+00  0.00000000000E+00  0.13390744121E+04  0.13390744122E+04  0.50400001928E-02 0. -1.
        1   -1    0    0  501    0  0.00000000000E+00  0.00000000000E+00 -0.24077224218E+04  0.24077224218E+04  0.50400001928E-02 0.  1.
    10030    2    1    2    0    0  0.00000000000E+00  0.00000000000E+00 -0.10686480097E+04  0.37467968340E+04  0.35911666554E+04 0.  0.
        4    1    3    3  502    0  0.22252812377E+03 -0.87420153170E+03  0.10854950836E+04  0.14113994025E+04  0.12699999809E+01 0. -1.
       -4    1    3    3    0  502 -0.22252812377E+03  0.87420153170E+03 -0.21541430933E+04  0.23353974315E+04  0.12699999809E+01 0.  1.
</event>
<event>
 5   0  0.1468942E-06  0.3524722E+04  0.7818609E-02  0.8107956E-01
       -2   -1    0    0    0  501  0.00000000000E+00  0.00000000000E+00  0.13675193591E+04  0.13675193591E+04  0.25500000920E-02 0. -1.
        2   -1    0    0  501    0  0.00000000000E+00  0.00000000000E+00 -0.22712044143E+04  0.22712044143E+04  0.25500000920E-02 0.  1.
    10030    2    1    2    0    0  0.00000000000E+00  0.00000000000E+00 -0.90368505520E+03  0.36387237733E+04  0.35247218358E+04 0.  0.
        2    1    3    3  502    0  0.56812747276E+03  0.15708502842E+04  0.12808885506E+03  0.16753346518E+04  0.25500000920E-02 0.  1.
       -2    1    3    3    0  502 -0.56812747276E+03 -0.15708502842E+04 -0.10317739103E+04  0.19633891215E+04  0.25500000920E-02 0. -1.
</event>
<event>
 5   0  0.1491854E-06  0.3580210E+04  0.7818609E-02  0.8095040E-01
        2   -1    0    0  501    0  0.00000000000E+00  0.00000000000E+00  0.14513594753E+04  0.14513594753E+04  0.25500000920E-02 0. -1.
       -2   -1    0    0    0  501  0.00000000000E+00  0.00000000000E+00 -0.22079135767E+04  0.22079135767E+04  0.25500000920E-02 0.  1.
    10030    2    1    2    0    0  0.00000000000E+00  0.00000000000E+00 -0.75655410140E+03  0.36592730521E+04  0.35802102119E+04 0.  0.
        5    1    3    3  502    0 -0.14384491565E+03 -0.49986878280E+03  0.13724099335E+04  0.14676822801E+04  0.46999998093E+01 0. -1.
       -5    1    3    3    0  502  0.14384491565E+03  0.49986878280E+03 -0.21289640349E+04  0.21915907720E+04  0.46999998093E+01 0.  1.
</event>
<event>
 5   0  0.4811500E-07  0.3613056E+04  0.7818609E-02  0.8087508E-01
        1   -1    0    0  501    0  0.00000000000E+00  0.00000000000E+00  0.19296995233E+04  0.19296995233E+04  0.50400001928E-02 0.  1.
       -1   -1    0    0    0  501  0.00000000000E+00  0.00000000000E+00 -0.16912184056E+04  0.16912184056E+04  0.50400001928E-02 0. -1.
    10030    2    1    2    0    0  0.00000000000E+00  0.00000000000E+00  0.23848111773E+03  0.36209179289E+04  0.36130559647E+04 0.  0.
        4    1    3    3  502    0  0.56719519850E+03  0.65788022849E+03 -0.14681963826E+04  0.17059070957E+04  0.12699999809E+01 0. -1.
       -4    1    3    3    0  502 -0.56719519850E+03 -0.65788022849E+03  0.17066775004E+04  0.19150108332E+04  0.12699999809E+01 0.  1.
</event>
<event>
 5   0  0.4811500E-07  0.3708862E+04  0.7818609E-02  0.8066001E-01
       -1   -1    0    0    0  501  0.00000000000E+00  0.00000000000E+00  0.19101497274E+04  0.19101497274E+04  0.50400001928E-02 0. -1.
        1   -1    0    0  501    0  0.00000000000E+00  0.00000000000E+00 -0.18003371886E+04  0.18003371886E+04  0.50400001928E-02 0.  1.
    10030    2    1    2    0    0  0.00000000000E+00  0.00000000000E+00  0.10981253875E+03  0.37104869160E+04  0.37088615989E+04 0.  0.
        2    1    3    3  502    0 -0.83398923843E+03  0.21774470935E+03 -0.15877519963E+04  0.18066286863E+04  0.25500000920E-02 0.  1.
       -2    1    3    3    0  502  0.83398923843E+03 -0.21774470935E+03  0.16975645350E+04  0.19038582297E+04  0.25500000920E-02 0. -1.
</event>
<event>
 5   0  0.1379425E-06  0.2373662E+04  0.7818609E-02  0.8449430E-01
        2   -1    0    0  501    0  0.00000000000E+00  0.00000000000E+00  0.15583231825E+04  0.15583231825E+04  0.25500000920E-02 0.  1.
       -2   -1    0    0    0  501  0.00000000000E+00  0.00000000000E+00 -0.90389981062E+03  0.90389981062E+03  0.25500000920E-02 0. -1.
    10030    2    1    2    0    0  0.00000000000E+00  0.00000000000E+00  0.65442337183E+03  0.24622229931E+04  0.23736621744E+04 0.  0.
        4    1    3    3  502    0 -0.37030953772E+03  0.81712381743E+03  0.11332126874E+04  0.14453349420E+04  0.12699999809E+01 0.  1.
       -4    1    3    3    0  502  0.37030953772E+03 -0.81712381743E+03 -0.47878931561E+03  0.10168880511E+04  0.12699999809E+01 0. -1.
</event>
<event>
 5   0  0.4811500E-07  0.2716555E+04  0.7818609E-02  0.8329653E-01
        1   -1    0    0  501    0  0.00000000000E+00  0.00000000000E+00  0.14707408710E+04  0.14707408710E+04  0.50400001928E-02 0. -1.
       -1   -1    0    0    0  501  0.00000000000E+00  0.00000000000E+00 -0.12544141134E+04  0.12544141134E+04  0.50400001928E-02 0.  1.
    10030    2    1    2    0    0  0.00000000000E+00  0.00000000000E+00  0.21632675765E+03  0.27251549844E+04  0.27165552494E+04 0.  0.
        5    1    3    3  502    0  0.81791142091E+03  0.41179799474E+03  0.11145037335E+04  0.14424622501E+04  0.46999998093E+01 0. -1.
       -5    1    3    3    0  502 -0.81791142091E+03 -0.41179799474E+03 -0.89817697583E+03  0.12826927344E+04  0.46999998093E+01 0.  1.
</event>
<event>
 5   0  0.1379425E-06  0.3622806E+04  0.7818609E-02  0.8085288E-01
       -2   -1    0    0    0  501  0.00000000000E+00  0.00000000000E+00  0.14642963485E+04  0.14642963485E+04  0.25500000920E-02 0.  1.
        2   -1    0    0  501    0  0.00000000000E+00  0.00000000000E+00 -0.22407897220E+04  0.22407897220E+04  0.25500000920E-02 0. -1.
    10030    2    1    2    0    0  0.00000000000E+00  0.00000000000E+00 -0.77649337356E+03  0.37050860705E+04  0.36228056573E+04 0.  0.
        4    1    3    3  502    0 -0.66726188594E+03  0.68014115626E+03  0.11873098491E+04  0.15223457911E+04  0.12699999809E+01 0.  1.
       -4    1    3    3    0  502  0.66726188594E+03 -0.68014115626E+03 -0.19638032227E+04  0.21827402794E+04  0.12699999809E+01 0. -1.
</event>
<event>
 5   0  0.1379425E-06  0.3711946E+04  0.7818609E-02  0.8065320E-01
        2   -1    0    0  501    0  0.00000000000E+00  0.00000000000E+00  0.18852480427E+04  0.18852480427E+04  0.25500000920E-02 0. -1.
       -2   -1    0    0    0  501  0.00000000000E+00  0.00000000000E+00 -0.18271526627E+04  0.18271526627E+04  0.25500000920E-02 0.  1.
    10030    2    1    2    0    0  0.00000000000E+00  0.00000000000E+00  0.58095380066E+02  0.37124007054E+04  0.37119461101E+04 0.  0.
        4    1    3    3  502    0  0.17339215412E+04 -0.37630808711E+03  0.57367170645E+03  0.18647231771E+04  0.12699999809E+01 0. -1.
       -4    1    3    3    0  502 -0.17339215412E+04  0.37630808711E+03 -0.51557632638E+03  0.18476775283E+04  0.12699999809E+01 0.  1.
</event>
<event>
 5   0  0.1505671E-06  0.3584679E+04  0.7818609E-02  0.8094010E-01
        2   -1    0    0  501    0  0.00000000000E+00  0.00000000000E+00  0.10533670471E+04  0.10533670471E+04  0.25500000920E-02 0. -1.
       -2   -1    0    0    0  501  0.00000000000E+00  0.00000000000E+00 -0.30497267408E+04  0.30497267408E+04  0.25500000920E-02 0.  1.
    10030    2    1    2    0    0  0.00000000000E+00  0.00000000000E+00 -0.19963596937E+04  0.41030937879E+04  0.35846794286E+04 0.  0.
        3    1    3    3  502    0 -0.27122658967E+03  0.61859502111E+03  0.90211527064E+03  0.11269585772E+04  0.10100000352E+00 0. -1.
       -3    1    3    3    0  502  0.27122658967E+03 -0.61859502111E+03 -0.28984749644E+04  0.29761352107E+04  0.10100000352E+00 0.  1.
</event>
<event>
 5   0  0.4811500E-07  0.3652484E+04  0.7818609E-02  0.8078574E-01
        1   -1    0    0  501    0  0.00000000000E+00  0.00000000000E+00  0.20314059772E+04  0.20314059772E+04  0.50400001928E-02 0. -1.
       -1   -1    0    0    0  501  0.00000000000E+00  0.00000000000E+00 -0.16417987706E+04  0.16417987706E+04  0.50400001928E-02 0.  1.
    10030    2    1    2    0    0  0.00000000000E+00  0.00000000000E+00  0.38960720660E+03  0.36732047478E+04  0.36524839964E+04 0.  0.
        2    1    3    3  502    0 -0.22226883119E+03  0.40452936880E+02  0.20172985030E+04  0.20299096344E+04  0.25500000920E-02 0. -1.
       -2    1    3    3    0  502  0.22226883119E+03 -0.40452936880E+02 -0.16276912964E+04  0.16432951135E+04  0.25500000920E-02 0.  1.
</event>
<event>
 5   0  0.4811500E-07  0.3319597E+04  0.7818609E-02  0.8157927E-01
        1   -1    0    0  501    0  0.00000000000E+00  0.00000000000E+00  0.18569736009E+04  0.18569736009E+04  0.50400001928E-02 0.  1.
       -1   -1    0    0    0  501  0.00000000000E+00  0.00000000000E+00 -0.14835594989E+04  0.14835594989E+04  0.50400001928E-02 0. -1.
    10030    2    1    2    0    0  0.00000000000E+00  0.00000000000E+00  0.37341410197E+03  0.33405330998E+04  0.33195968579E+04 0.  0.
        4    1    3    3  502    0  0.68163597257E+03 -0.86541863431E+03 -0.10626350573E+04  0.15306116064E+04  0.12699999809E+01 0. -1.
       -4    1    3    3    0  502 -0.68163597257E+03  0.86541863431E+03  0.14360491592E+04  0.18099214934E+04  0.12699999809E+01 0.  1.
</event>
<event>
 5   0  0.4811500E-07  0.3560524E+04  0.7818609E-02  0.8099594E-01
        1   -1    0    0  501    0  0.00000000000E+00  0.00000000000E+00  0.10221846066E+04  0.10221846066E+04  0.50400001928E-02 0.  1.
       -1   -1    0    0    0  501  0.00000000000E+00  0.00000000000E+00 -0.31005481193E+04  0.31005481193E+04  0.50400001928E-02 0. -1.
    10030    2    1    2    0    0  0.00000000000E+00  0.00000000000E+00 -0.20783635127E+04  0.41227327259E+04  0.35605238713E+04 0.  0.
        5    1    3    3  502    0 -0.12979397458E+04 -0.69663386238E+03  0.11835065795E+03  0.14778278960E+04  0.46999998093E+01 0.  1.
       -5    1    3    3    0  502  0.12979397458E+04  0.69663386238E+03 -0.21967141706E+04  0.26449048299E+04  0.46999998093E+01 0. -1.
</event>
<event>
 5   0  0.1444091E-06  0.3610889E+04  0.7818609E-02  0.8088002E-01
        2   -1    0    0  501    0  0.00000000000E+00  0.00000000000E+00  0.15269842938E+04  0.15269842938E+04  0.25500000920E-02 0.  1.
       -2   -1    0    0    0  501  0.00000000000E+00  0.00000000000E+00 -0.21346847477E+04  0.21346847477E+04  0.25500000920E-02 0. -1.
    10030    2    1    2    0    0  0.00000000000E+00  0.00000000000E+00 -0.60770045384E+03  0.36616690415E+04  0.36108891326E+04 0.  0.
        1    1    3    3  502    0  0.14965111566E+04  0.43979107674E+03  0.61814901220E+03  0.16778170444E+04  0.50400001928E-02 0.  1.
       -1    1    3    3    0  502 -0.14965111566E+04 -0.43979107674E+03 -0.12258494660E+04  0.19838519971E+04  0.50400001928E-02 0. -1.
</event>
<event>
 5   0  0.1491854E-06  0.2659330E+04  0.7818609E-02  0.8348323E-01
        2   -1    0    0  501    0  0.00000000000E+00  0.00000000000E+00  0.16210410433E+04  0.16210410433E+04  0.25500000920E-02 0.  1.
       -2   -1    0    0    0  501  0.00000000000E+00  0.00000000000E+00 -0.10906626200E+04  0.10906626200E+04  0.25500000920E-02 0. -1.
    10030    2    1    2    0    0  0.00000000000E+00  0.00000000000E+00  0.53037842325E+03  0.27117036633E+04  0.26593298941E+04 0.  0.
        5    1    3    3  502    0 -0.98694614610E+03 -0.80816978179E+03 -0.11741457938E+03  0.12810188777E+04  0.46999998093E+01 0. -1.
       -5    1    3    3    0  502  0.98694614610E+03  0.80816978179E+03  0.64779300263E+03  0.14306847856E+04  0.46999998093E+01 0.  1.
</event>
<event>
 5   0  0.1379425E-06  0.3611621E+04  0.7818609E-02  0.8087835E-01
       -2   -1    0    0    0  501  0.00000000000E+00  0.00000000000E+00  0.18559081360E+04  0.18559081360E+04  0.25500000920E-02 0.  1.
        2   -1    0    0  501    0  0.00000000000E+00  0.00000000000E+00 -0.17570647461E+04  0.17570647461E+04  0.25500000920E-02 0. -1.
    10030    2    1    2    0    0  0.00000000000E+00  0.00000000000E+00  0.98843389907E+02  0.36129728822E+04  0.36116205547E+04 0.  0.
        4    1    3    3  502    0 -0.55023250928E+03  0.85183876308E+03 -0.14453144953E+04  0.17655935817E+04  0.12699999809E+01 0. -1.
       -4    1    3    3    0  502  0.55023250928E+03 -0.85183876308E+03  0.15441578852E+04  0.18473793005E+04  0.12699999809E+01 0.  1.
</event>
<event>
 5   0  0.4811500E-07  0.3602632E+04  0.7818609E-02  0.8089889E-01
       -1   -1    0    0    0  501  0.00000000000E+00  0.00000000000E+00  0.34788675137E+04  0.34788675137E+04  0.50400001928E-02 0.  1.
        1   -1    0    0  501    0  0.00000000000E+00  0.00000000000E+00 -0.93269992817E+03  0.93269992819E+03  0.50400001928E-02 0. -1.
    10030    2    1    2    0    0  0.00000000000E+00  0.00000000000E+00  0.25461675856E+04  0.44115674419E+04  0.36026320824E+04 0.  0.
        5    1    3    3  502    0  0.11758678952E+04  0.87622102998E+03  0.25540538725E+04  0.29451047306E+04  0.46999998093E+01 0.  1.
       -5    1    3    3    0  502 -0.11758678952E+04 -0.87622102998E+03 -0.78862869640E+01  0.14664627114E+04  0.46999998093E+01 0. -1.
</event>
<event>
 5   0  0.5071661E-07  0.2812607E+04  0.7818609E-02  0.8299365E-01
       -1   -1    0    0    0  501  0.00000000000E+00  0.00000000000E+00  0.15717488358E+04  0.15717488358E+04  0.50400001928E-02 0.  1.
        1   -1    0    0  501    0  0.00000000000E+00  0.00000000000E+00 -0.12582736775E+04  0.12582736775E+04  0.50400001928E-02 0. -1.
    10030    2    1    2    0    0  0.00000000000E+00  0.00000000000E+00  0.31347515824E+03  0.28300225133E+04  0.28126074648E+04 0.  0.
        1    1    3    3  502    0  0.40732739722E+03  0.13396228939E+04  0.24834005357E+02  0.14004005977E+04  0.50400001928E-02 0. -1.
       -1    1    3    3    0  502 -0.40732739722E+03 -0.13396228939E+04  0.28864115288E+03  0.14296219156E+04  0.50400001928E-02 0.  1.
</event>
<event>
 5   0  0.4811500E-07  0.3721728E+04  0.7818609E-02  0.8063164E-01
       -1   -1    0    0    0  501  0.00000000000E+00  0.00000000000E+00  0.17819348153E+04  0.17819348153E+04  0.50400001928E-02 0.  1.
        1   -1    0    0  501    0  0.00000000000E+00  0.00000000000E+00 -0.19432889473E+04  0.19432889474E+04  0.50400001928E-02 0. -1.
    10030    2    1    2    0    0  0.00000000000E+00  0.00000000000E+00 -0.16135413202E+03  0.37252237627E+04  0.37217276803E+04 0.  0.
        2    1    3    3  502    0  0.13923080389E+04  0.95732486000E+02  0.11513845065E+04  0.18092464359E+04  0.25500000920E-02 0.  1.
       -2    1    3    3    0  502 -0.13923080389E+04 -0.95732486000E+02 -0.13127386385E+04  0.19159773268E+04  0.25500000920E-02 0. -1.
</event>
<event>
 5   0  0.4811500E-07  0.3657427E+04  0.7818609E-02  0.8077463E-01
       -1   -1    0    0    0  501  0.00000000000E+00  0.00000000000E+00  0.13669158733E+04  0.13669158733E+04  0.50400001928E-02 0. -1.
        1   -1    0    0  501    0  0.00000000000E+00  0.00000000000E+00 -0.24465242117E+04  0.24465242117E+04  0.50400001928E-02 0.  1.
    10030    2    1    2    0    0  0.00000000000E+00  0.00000000000E+00 -0.10796083384E+04  0.38134400850E+04  0.36574268437E+04 0.  0.
        2    1    3    3  502    0  0.15778951702E+04 -0.50100494374E+03  0.27014179217E+03  0.16774193601E+04  0.25500000920E-02 0. -1.
       -2    1    3    3    0  502 -0.15778951702E+04  0.50100494374E+03 -0.13497501306E+04  0.21360207248E+04  0.25500000920E-02 0.  1.
</event>
<event>
 5   0  0.4811500E-07  0.2273931E+04  0.7818609E-02  0.8488271E-01
        1   -1    0    0  501    0  0.00000000000E+00  0.00000000000E+00  0.23214091638E+04  0.23214091638E+04  0.50400001928E-02 0.  1.
       -1   -1    0    0    0  501  0.00000000000E+00  0.00000000000E+00 -0.55685582861E+03  0.55685582863E+03  0.50400001928E-02 0. -1.
    10030    2    1    2    0    0  0.00000000000E+00  0.00000000000E+00  0.17645533352E+04  0.28782649925E+04  0.22739307144E+04 0.  0.
        3    1    3    3  502    0  0.56647958229E+02  0.44381551279E+03 -0.44074227370E+03  0.62804057400E+03  0.10100000352E+00 0. -1.
       -3    1    3    3    0  502 -0.56647958229E+02 -0.44381551279E+03  0.22052956089E+04  0.22502244185E+04  0.10100000352E+00 0.  1.
</event>
<event>
 5   0  0.1444091E-06  0.3619371E+04  0.7818609E-02  0.8086069E-01
        2   -1    0    0  501    0  0.00000000000E+00  0.00000000000E+00  0.25218822275E+04  0.25218822275E+04  0.25500000920E-02 0. -1.
       -2   -1    0    0    0  501  0.00000000000E+00  0.00000000000E+00 -0.12986179287E+04  0.12986179287E+04  0.25500000920E-02 0.  1.
    10030    2    1    2    0    0  0.00000000000E+00  0.00000000000E+00  0.12232642988E+04  0.38205001562E+04  0.36193709258E+04 0.  0.
        1    1    3    3  502    0  0.39143894275E+03  0.14966070254E+04  0.16029156850E+04  0.22276435369E+04  0.50400001928E-02 0. -1.
       -1    1    3    3    0  502 -0.39143894275E+03 -0.14966070254E+04 -0.37965138626E+03  0.15928566192E+04  0.50400001928E-02 0.  1.
</event>
<event>
 5   0  0.4811500E-07  0.3743422E+04  0.7818609E-02  0.8058407E-01
       -1   -1    0    0    0  501  0.00000000000E+00  0.00000000000E+00  0.16278147517E+04  0.16278147517E+04  0.50400001928E-02 0. -1.
        1   -1    0    0  501    0  0.00000000000E+00  0.00000000000E+00 -0.21521504416E+04  0.21521504417E+04  0.50400001928E-02 0.  1.
    10030    2    1    2    0    0  0.00000000000E+00  0.00000000000E+00 -0.52433568997E+03  0.37799651933E+04  0.37434220904E+04 0.  0.
        2    1    3    3  502    0  0.14955191352E+04 -0.14155400914E+03 -0.13896190494E+04  0.20463763397E+04  0.25500000920E-02 0.  1.
       -2    1    3    3    0  502 -0.14955191352E+04  0.14155400914E+03  0.86528335939E+03  0.17335888536E+04  0.25500000920E-02 0. -1.
</event>
<event>
 5   0  0.4811500E-07  0.3597421E+04  0.7818609E-02  0.8091083E-01
       -1   -1    0    0    0  501  0.00000000000E+00  0.00000000000E+00  0.19306900845E+04  0.19306900845E+04  0.50400001928E-02 0. -1.
        1   -1    0    0  501    0  0.00000000000E+00  0.00000000000E+00 -0.16757530124E+04  0.16757530124E+04  0.50400001928E-02 0.  1.
    10030    2    1    2    0    0  0.00000000000E+00  0.00000000000E+00  0.25493707209E+03  0.36064430969E+04  0.35974211458E+04 0.  0.
        4    1    3    3  502    0  0.40190074735E+03 -0.16983279191E+04 -0.30895779877E+03  0.17723708601E+04  0.12699999809E+01 0.  1.
       -4    1    3    3    0  502 -0.40190074735E+03  0.16983279191E+04  0.56389487086E+03  0.18340722368E+04  0.12699999809E+01 0. -1.
</event>
<event>
 5   0  0.1379425E-06  0.3566095E+04  0.7818609E-02  0.8098302E-01
        2   -1    0    0  501    0  0.00000000000E+00  0.00000000000E+00  0.24152733099E+04  0.24152733099E+04  0.25500000920E-02 0.  1.
       -2   -1    0    0    0  501  0.00000000000E+00  0.00000000000E+00 -0.13163140777E+04  0.13163140777E+04  0.25500000920E-02 0. -1.
    10030    2    1    2    0    0  0.00000000000E+00  0.00000000000E+00  0.10989592323E+04  0.37315873876E+04  0.35660949282E+04 0.  0.
        4    1    3    3  502    0 -0.82740579553E+03 -0.28532927627E+02 -0.11029965290E+04  0.13791364814E+04  0.12699999809E+01 0. -1.
       -4    1    3    3    0  502  0.82740579553E+03  0.28532927627E+02  0.22019557613E+04  0.23524509062E+04  0.12699999809E+01 0.  1.
</event>
<event>
 5   0  0.4811500E-07  0.3482447E+04  0.7818609E-02  0.8117962E-01
        1   -1    0    0  501    0  0.00000000000E+00  0.00000000000E+00  0.16551589120E+04  0.16551589120E+04  0.50400001928E-02 0. -1.
       -1   -1    0    0    0  501  0.00000000000E+00  0.00000000000E+00 -0.18317635224E+04  0.18317635224E+04  0.50400001928E-02 0.  1.
    10030    2    1    2    0    0  0.00000000000E+00  0.00000000000E+00 -0.17660461043E+03  0.34869224344E+04  0.34824472538E+04 0.  0.
        5    1    3    3  502    0 -0.92299932192E+03 -0.14673204925E+04 -0.25246558888E+03  0.17517757104E+04  0.46999998093E+01 0.  1.
       -5    1    3    3    0  502  0.92299932192E+03  0.14673204925E+04  0.75860978447E+02  0.17351467240E+04  0.46999998093E+01 0. -1.
</event>
<event>
 5   0  0.4811500E-07  0.3569369E+04  0.7818609E-02  0.8097544E-01
        1   -1    0    0  501    0  0.00000000000E+00  0.00000000000E+00  0.23821378651E+04  0.23821378651E+04  0.50400001928E-02 0.  1.
       -1   -1    0    0    0  501  0.00000000000E+00  0.00000000000E+00 -0.13370759544E+04  0.13370759544E+04  0.50400001928E-02 0. -1.
    10030    2    1    2    0    0  0.00000000000E+00  0.00000000000E+00  0.10450619107E+04  0.37192138195E+04  0.35693692774E+04 0.  0.
        5    1    3    3  502    0  0.16728162001E+04 -0.28433480325E+03  0.10988478684E+04  0.20215462022E+04  0.46999998093E+01 0.  1.
       -5    1    3    3    0  502 -0.16728162001E+04  0.28433480325E+03 -0.53785957797E+02  0.16976676173E+04  0.46999998093E+01 0. -1.
</event>
<event>
 5   0  0.4811500E-07  0.3561578E+04  0.7818609E-02  0.8099350E-01
       -1   -1    0    0    0  501  0.00000000000E+00  0.00000000000E+00  0.14560529387E+04  0.14560529388E+04  0.50400001928E-02 0.  1.
        1   -1    0    0  501    0  0.00000000000E+00  0.00000000000E+00 -0.21779493863E+04  0.21779493863E+04  0.50400001928E-02 0. -1.
    10030    2    1    2    0    0  0.00000000000E+00  0.00000000000E+00 -0.72189644760E+03  0.36340023251E+04  0.35615780797E+04 0.  0.
        2    1    3    3  502    0 -0.17165964002E+04  0.95820684664E+02 -0.83441527005E+03  0.19110556370E+04  0.25500000920E-02 0.  1.
       -2    1    3    3    0  502  0.17165964002E+04 -0.95820684664E+02  0.11251882245E+03  0.17229466881E+04  0.25500000920E-02 0. -1.
</event>
<event>
 5   0  0.1444091E-06  0.3451711E+04  0.7818609E-02  0.8125330E-01
       -2   -1    0    0    0  501  0.00000000000E+00  0.00000000000E+00  0.19479952105E+04  0.19479952105E+04  0.25500000920E-02 0. -1.
        2   -1    0    0  501    0  0.00000000000E+00  0.00000000000E+00 -0.15290472410E+04  0.15290472410E+04  0.25500000920E-02 0.  1.
    10030    2    1    2    0    0  0.00000000000E+00  0.00000000000E+00  0.41894796952E+03  0.34770424516E+04  0.34517107076E+04 0.  0.
        1    1    3    3  502    0  0.12100733117E+03 -0.15376105349E+04 -0.57060431998E+03  0.16445297873E+04  0.50400001928E-02 0.  1.
       -1    1    3    3    0  502 -0.12100733117E+03  0.15376105349E+04  0.98955228951E+03  0.18325126643E+04  0.50400001928E-02 0. -1.
</event>
<event>
 5   0  0.4811500E-07  0.3660665E+04  0.7818609E-02  0.8076735E-01
        1   -1    0    0  501    0  0.00000000000E+00  0.00000000000E+00  0.20892432534E+04  0.20892432534E+04  0.50400001928E-02 0. -1.
       -1   -1    0    0    0  501  0.00000000000E+00  0.00000000000E+00 -0.16035070721E+04  0.16035070721E+04  0.50400001928E-02 0.  1.
    10030    2    1    2    0    0  0.00000000000E+00  0.00000000000E+00  0.48573618131E+03  0.36927503254E+04  0.36606646020E+04 0.  0.
        2    1    3    3  502    0 -0.41167859521E+03  0.70837805656E+03 -0.14081932098E+04  0.16291982240E+04  0.25500000920E-02 0.  1.
       -2    1    3    3    0  502  0.41167859521E+03 -0.70837805656E+03  0.18939293912E+04  0.20635521015E+04  0.25500000920E-02 0. -1.
</event>
<event>
 5   0  0.1444091E-06  0.3609045E+04  0.7818609E-02  0.8088423E-01
        2   -1    0    0  501    0  0.00000000000E+00  0.00000000000E+00  0.26251775311E+04  0.26251775311E+04  0.25500000920E-02 0. -1.
       -2   -1    0    0    0  501  0.00000000000E+00  0.00000000000E+00 -0.12404120821E+04  0.12404120821E+04  0.25500000920E-02 0.  1.
    10030    2    1    2    0    0  0.00000000000E+00  0.00000000000E+00  0.13847654490E+04  0.38655896132E+04  0.36090452628E+04 0.  0.
        1    1    3    3  502    0 -0.93098989827E+03  0.11280571056E+04 -0.43965036436E+03  0.15272679749E+04  0.50400001928E-02 0.  1.
       -1    1    3    3    0  502  0.93098989827E+03 -0.11280571056E+04  0.18244158133E+04  0.23383216383E+04  0.50400001928E-02 0. -1.
</event>
<event>
 5   0  0.1505671E-06  0.3728749E+04  0.7818609E-02  0.8061620E-01
        2   -1    0    0  501    0  0.00000000000E+00  0.00000000000E+00  0.28675870101E+04  0.28675870101E+04  0.25500000920E-02 0. -1.
       -2   -1    0    0    0  501  0.00000000000E+00  0.00000000000E+00 -0.12121316965E+04  0.12121316965E+04  0.25500000920E-02 0.  1.
    10030    2    1    2    0    0  0.00000000000E+00  0.00000000000E+00  0.16554553136E+04  0.40797187066E+04  0.37287494458E+04 0.  0.
        3    1    3    3  502    0 -0.31905979943E+03  0.27590936994E+03  0.28146927347E+04  0.28461237388E+04  0.10100000352E+00 0. -1.
       -3    1    3    3    0  502  0.31905979943E+03 -0.27590936994E+03 -0.11592374210E+04  0.12335949678E+04  0.10100000352E+00 0.  1.
</event>
<event>
 5   0  0.1505671E-06  0.3880431E+04  0.7818609E-02  0.8029111E-01
       -2   -1    0    0    0  501  0.00000000000E+00  0.00000000000E+00  0.29787411661E+04  0.29787411661E+04  0.25500000920E-02 0. -1.
        2   -1    0    0  501    0  0.00000000000E+00  0.00000000000E+00 -0.12637676509E+04  0.12637676509E+04  0.25500000920E-02 0.  1.
    10030    2    1    2    0    0  0.00000000000E+00  0.00000000000E+00  0.17149735152E+04  0.42425088169E+04  0.38804312781E+04 0.  0.
        3    1    3    3  502    0  0.74230723085E+03  0.16035767507E+04 -0.18497223926E+02  0.17671504118E+04  0.10100000352E+00 0.  1.
       -3    1    3    3    0  502 -0.74230723085E+03 -0.16035767507E+04  0.17334707391E+04  0.24753584051E+04  0.10100000352E+00 0. -1.
</event>
<event>
 5   0  0.5071661E-07  0.2522973E+04  0.7818609E-02  0.8394847E-01
       -1   -1    0    0    0  501  0.00000000000E+00  0.00000000000E+00  0.11415672613E+04  0.11415672613E+04  0.50400001928E-02 0.  1.
        1   -1    0    0  501    0  0.00000000000E+00  0.00000000000E+00 -0.13940034374E+04  0.13940034374E+04  0.50400001928E-02 0. -1.
    10030    2    1    2    0    0  0.00000000000E+00  0.00000000000E+00 -0.25243617612E+03  0.25355706986E+04  0.25229733936E+04 0.  0.
        1    1    3    3  502    0  0.18354311156E+03  0.99013099504E+03  0.63737905225E+03  0.11917631969E+04  0.50400001928E-02 0.  1.
       -1    1    3    3    0  502 -0.18354311156E+03 -0.99013099504E+03 -0.88981522837E+03  0.13438075018E+04  0.50400001928E-02 0. -1.
</event>
<event>
 5   0  0.4811500E-07  0.3622171E+04  0.7818609E-02  0.8085432E-01
       -1   -1    0    0    0  501  0.00000000000E+00  0.00000000000E+00  0.12618428438E+04  0.12618428438E+04  0.50400001928E-02 0.  1.
        1   -1    0    0  501    0  0.00000000000E+00  0.00000000000E+00 -0.25993976071E+04  0.25993976071E+04  0.50400001928E-02 0. -1.
    10030    2    1    2    0    0  0.00000000000E+00  0.00000000000E+00 -0.13375547633E+04  0.38612404509E+04  0.36221713204E+04 0.  0.
        3    1    3    3  502    0  0.19102120168E+03  0.21803121309E+03 -0.25745081863E+04  0.25907757759E+04  0.10100000352E+00 0. -1.
       -3    1    3    3    0  502 -0.19102120168E+03 -0.21803121309E+03  0.12369534230E+04  0.12704646750E+04  0.10100000352E+00 0.  1.
</event>
<event>
 5   0  0.1444091E-06  0.3624719E+04  0.7818609E-02  0.8084853E-01
        2   -1    0    0  501    0  0.00000000000E+00  0.00000000000E+00  0.21910261810E+04  0.21910261810E+04  0.25500000920E-02 0. -1.
       -2   -1    0    0    0  501  0.00000000000E+00  0.00000000000E+00 -0.14991359587E+04  0.14991359587E+04  0.25500000920E-02 0.  1.
    10030    2    1    2    0    0  0.00000000000E+00  0.00000000000E+00  0.69189022223E+03  0.36901621397E+04  0.36247185460E+04 0.  0.
        1    1    3    3  502    0 -0.73735540601E+02  0.11146140066E+04  0.17988933082E+04  0.21175028803E+04  0.50400001928E-02 0. -1.
       -1    1    3    3    0  502  0.73735540601E+02 -0.11146140066E+04 -0.11070030860E+04  0.15726592594E+04  0.50400001928E-02 0.  1.
</event>
<event>
 5   0  0.4811500E-07  0.3574175E+04  0.7818609E-02  0.8096433E-01
        1   -1    0    0  501    0  0.00000000000E+00  0.00000000000E+00  0.24949680019E+04  0.24949680019E+04  0.50400001928E-02 0. -1.
       -1   -1    0    0    0  501  0.00000000000E+00  0.00000000000E+00 -0.12800494208E+04  0.12800494208E+04  0.50400001928E-02 0.  1.
    10030    2    1    2    0    0  0.00000000000E+00  0.00000000000E+00  0.12149185811E+04  0.37750174228E+04  0.35741753431E+04 0.  0.
        5    1    3    3  502    0 -0.21342104840E+03  0.20835187557E+03  0.24684877357E+04  0.24864458247E+04  0.46999998093E+01 0. -1.
       -5    1    3    3    0  502  0.21342104840E+03 -0.20835187557E+03 -0.12535691546E+04  0.12885715981E+04  0.46999998093E+01 0.  1.
</event>
<event>
 5   0  0.1468942E-06  0.3581600E+04  0.7818609E-02  0.8094719E-01
       -2   -1    0    0    0  501  0.00000000000E+00  0.00000000000E+00  0.23145213168E+04  0.23145213168E+04  0.25500000920E-02 0.  1.
        2   -1    0    0  501    0  0.00000000000E+00  0.00000000000E+00 -0.13855843829E+04  0.13855843829E+04  0.25500000920E-02 0. -1.
    10030    2    1    2    0    0  0.00000000000E+00  0.00000000000E+00  0.92893693394E+03  0.37001056997E+04  0.35815999723E+04 0.  0.
        2    1    3    3  502    0  0.14510500826E+04  0.10476233169E+04  0.39992212883E+03  0.18338480486E+04  0.25500000920E-02 0. -1.
       -2    1    3    3    0  502 -0.14510500826E+04 -0.10476233169E+04  0.52901480511E+03  0.18662576511E+04  0.25500000920E-02 0.  1.
</event>
<event>
 5   0  0.5071661E-07  0.3649722E+04  0.7818609E-02  0.8079196E-01
       -1   -1    0    0    0  501  0.00000000000E+00  0.00000000000E+00  0.17912082048E+04  0.17912082048E+04  0.50400001928E-02 0.  1.
        1   -1    0    0  501    0  0.00000000000E+00  0.00000000000E+00 -0.18591465630E+04  0.18591465630E+04  0.50400001928E-02 0. -1.
    10030    2    1    2    0    0  0.00000000000E+00  0.00000000000E+00 -0.67938358247E+02  0.36503547678E+04  0.36497224977E+04 0.  0.
        1    1    3    3  502    0 -0.58202881472E+03  0.13045595657E+04 -0.11697209961E+04  0.18463153605E+04  0.50400001928E-02 0. -1.
       -1    1    3    3    0  502  0.58202881472E+03 -0.13045595657E+04  0.11017826379E+04  0.18040394072E+04  0.50400001928E-02 0.  1.
</event>
<event>
 5   0  0.5071661E-07  0.3597286E+04  0.7818609E-02  0.8091114E-01
        1   -1    0    0  501    0  0.00000000000E+00  0.00000000000E+00  0.20409983163E+04  0.20409983163E+04  0.50400001928E-02 0. -1.
       -1   -1    0    0    0  501  0.00000000000E+00  0.00000000000E+00 -0.15850655002E+04  0.15850655002E+04  0.50400001928E-02 0.  1.
    10030    2    1    2    0    0  0.00000000000E+00  0.00000000000E+00  0.45593281614E+03  0.36260638165E+04  0.35972856529E+04 0.  0.
        1    1    3    3  502    0  0.17883504207E+04 -0.15985023417E+03  0.33543401328E+03  0.18265446345E+04  0.50400001928E-02 0. -1.
       -1    1    3    3    0  502 -0.17883504207E+04  0.15985023417E+03  0.12049880286E+03  0.17995191819E+04  0.50400001928E-02 0.  1.
</event>
<event>
 5   0  0.4811500E-07  0.3546594E+04  0.7818609E-02  0.8102836E-01
        1   -1    0    0  501    0  0.00000000000E+00  0.00000000000E+00  0.36380759548E+04  0.36380759548E+04  0.50400001928E-02 0. -1.
       -1   -1    0    0    0  501  0.00000000000E+00  0.00000000000E+00 -0.86435299179E+03  0.86435299181E+03  0.50400001928E-02 0.  1.
    10030    2    1    2    0    0  0.00000000000E+00  0.00000000000E+00  0.27737229630E+04  0.45024289466E+04  0.35465937664E+04 0.  0.
        2    1    3    3  502    0  0.36965507846E+03  0.46518700314E+03 -0.73421922881E+03  0.94452194304E+03  0.25500000920E-02 0.  1.
       -2    1    3    3    0  502 -0.36965507846E+03 -0.46518700314E+03  0.35079421918E+04  0.35579070036E+04  0.25500000920E-02 0. -1.
</event>
<event>
 5   0  0.1379425E-06  0.3568869E+04  0.7818609E-02  0.8097660E-01
        2   -1    0    0  501    0  0.00000000000E+00  0.00000000000E+00  0.13881553142E+04  0.13881553142E+04  0.25500000920E-02 0. -1.
       -2   -1    0    0    0  501  0.00000000000E+00  0.00000000000E+00 -0.22938400418E+04  0.22938400418E+04  0.25500000920E-02 0.  1.
    10030    2    1    2    0    0  0.00000000000E+00  0.00000000000E+00 -0.90568472756E+03  0.36819953560E+04  0.35688688650E+04 0.  0.
        4    1    3    3  502    0 -0.60732832637E+03  0.13453546486E+04  0.58162618798E+03  0.15865426128E+04  0.12699999809E+01 0. -1.
       -4    1    3    3    0  502  0.60732832637E+03 -0.13453546486E+04 -0.14873109155E+04  0.20954527432E+04  0.12699999809E+01 0.  1.
</event>
<event>
 5   0  0.4811500E-07  0.3327560E+04  0.7818609E-02  0.8155918E-01
       -1   -1    0    0    0  501  0.00000000000E+00  0.00000000000E+00  0.12654798931E+04  0.12654798931E+04  0.50400001928E-02 0. -1.
        1   -1    0    0  501    0  0.00000000000E+00  0.00000000000E+00 -0.21874423065E+04  0.21874423065E+04  0.50400001928E-02 0.  1.
    10030    2    1    2    0    0  0.00000000000E+00  0.00000000000E+00 -0.92196241344E+03  0.34529221996E+04  0.33275602210E+04 0.  0.
        3    1    3    3  502    0  0.14484242188E+04 -0.58725535733E+01  0.38851632693E+03  0.14996373398E+04  0.10100000352E+00 0. -1.
       -3    1    3    3    0  502 -0.14484242188E+04  0.58725535733E+01 -0.13104787404E+04  0.19532848598E+04  0.10100000352E+00 0.  1.
</event>
<event>
 5   0  0.4811500E-07  0.3576689E+04  0.7818609E-02  0.8095852E-01
       -1   -1    0    0    0  501  0.00000000000E+00  0.00000000000E+00  0.12697604041E+04  0.12697604041E+04  0.50400001928E-02 0.  1.
        1   -1    0    0  501    0  0.00000000000E+00  0.00000000000E+00 -0.25187238963E+04  0.25187238963E+04  0.50400001928E-02 0. -1.
    10030    2    1    2    0    0  0.00000000000E+00  0.00000000000E+00 -0.12489634922E+04  0.37884843004E+04  0.35766889003E+04 0.  0.
        5    1    3    3  502    0 -0.55955068585E+03 -0.13586601018E+03 -0.24178425112E+04  0.24854659606E+04  0.46999998093E+01 0. -1.
       -5    1    3    3    0  502  0.55955068585E+03  0.13586601018E+03  0.11688790189E+04  0.13030183397E+04  0.46999998093E+01 0.  1.
</event>
<event>
 5   0  0.4811500E-07  0.3026671E+04  0.7818609E-02  0.8236156E-01
       -1   -1    0    0    0  501  0.00000000000E+00  0.00000000000E+00  0.11888954895E+04  0.11888954895E+04  0.50400001928E-02 0.  1.
        1   -1    0    0  501    0  0.00000000000E+00  0.00000000000E+00 -0.19263126048E+04  0.19263126048E+04  0.50400001928E-02 0. -1.
    10030    2    1    2    0    0  0.00000000000E+00  0.00000000000E+00 -0.73741711529E+03  0.31152080943E+04  0.30266710209E+04 0.  0.
        2    1    3    3  502    0  0.15961366870E+03  0.12530600272E+04  0.48906589122E+03  0.13545557947E+04  0.25500000920E-02 0.  1.
       -2    1    3    3    0  502 -0.15961366870E+03 -0.12530600272E+04 -0.12264830065E+04  0.17606522996E+04  0.25500000920E-02 0. -1.
</event>
<event>
 5   0  0.1468942E-06  0.3556843E+04  0.7818609E-02  0.8100450E-01
        2   -1    0    0  501    0  0.00000000000E+00  0.00000000000E+00  0.20607551485E+04  0.20607551485E+04  0.25500000920E-02 0.  1.
       -2   -1    0    0    0  501  0.00000000000E+00  0.00000000000E+00 -0.15347686054E+04  0.15347686054E+04  0.25500000920E-02 0. -1.
    10030    2    1    2    0    0  0.00000000000E+00  0.00000000000E+00  0.52598654313E+03  0.35955237539E+04  0.35568425916E+04 0.  0.
        2    1    3    3  502    0 -0.68133915828E+03 -0.93907581469E+03  0.16254999227E+04  0.19970819795E+04  0.25500000920E-02 0.  1.
       -2    1    3    3    0  502  0.68133915828E+03  0.93907581469E+03 -0.10995133795E+04  0.15984417744E+04  0.25500000920E-02 0. -1.
</event>
<event>
 5   0  0.4811500E-07  0.3631943E+04  0.7818609E-02  0.8083214E-01
        3   -1    0    0  501    0  0.00000000000E+00  0.00000000000E+00  0.29499667178E+04  0.29499667196E+04  0.10100000352E+00 0.  1.
       -3   -1    0    0    0  501  0.00000000000E+00  0.00000000000E+00 -0.11178946324E+04  0.11178946370E+04  0.10100000352E+00 0. -1.
    10030    2    1    2    0    0  0.00000000000E+00  0.00000000000E+00  0.18320720854E+04  0.40678613565E+04  0.36319427156E+04 0.  0.
        5    1    3    3  502    0  0.83317788497E+03  0.33228758056E+03 -0.85244157512E+03  0.12374486467E+04  0.46999998093E+01 0. -1.
       -5    1    3    3    0  502 -0.83317788497E+03 -0.33228758056E+03  0.26845136606E+04  0.28304127098E+04  0.46999998093E+01 0.  1.
</event>
<event>
 5   0  0.1379425E-06  0.3568454E+04  0.7818609E-02  0.8097756E-01
        2   -1    0    0  501    0  0.00000000000E+00  0.00000000000E+00  0.28345354958E+04  0.28345354958E+04  0.25500000920E-02 0.  1.
       -2   -1    0    0    0  501  0.00000000000E+00  0.00000000000E+00 -0.11230996107E+04  0.11230996107E+04  0.25500000920E-02 0. -1.
    10030    2    1    2    0    0  0.00000000000E+00  0.00000000000E+00  0.17114358851E+04  0.39576351064E+04  0.35684538454E+04 0.  0.
        4    1    3    3  502    0 -0.55811514835E+03  0.59681614482E+03 -0.90338872449E+03  0.12181111731E+04  0.12699999809E+01 0. -1.
       -4    1    3    3    0  502  0.55811514835E+03 -0.59681614482E+03  0.26148246096E+04  0.27395239333E+04  0.12699999809E+01 0.  1.
</event>
<event>
 5   0  0.1379425E-06  0.3585776E+04  0.7818609E-02  0.8093758E-01
       -2   -1    0    0    0  501  0.00000000000E+00  0.00000000000E+00  0.16234240408E+04  0.16234240408E+04  0.25500000920E-02 0. -1.
        2   -1    0    0  501    0  0.00000000000E+00  0.00000000000E+00 -0.19800412678E+04  0.19800412678E+04  0.25500000920E-02 0.  1.
    10030    2    1    2    0    0  0.00000000000E+00  0.00000000000E+00 -0.35661722706E+03  0.36034653086E+04  0.35857755624E+04 0.  0.
        4    1    3    3  502    0  0.68621336986E+03  0.15356369781E+04 -0.80215715018E+03  0.18634718737E+04  0.12699999809E+01 0. -1.
       -4    1    3    3    0  502 -0.68621336986E+03 -0.15356369781E+04  0.44553992312E+03  0.17399934349E+04  0.12699999809E+01 0.  1.
</event>
<event>
 5   0  0.4811500E-07  0.3473909E+04  0.7818609E-02  0.8120001E-01
       -1   -1    0    0    0  501  0.00000000000E+00  0.00000000000E+00  0.14836178113E+04  0.14836178113E+04  0.50400001928E-02 0.  1.
        1   -1    0    0  501    0  0.00000000000E+00  0.00000000000E+00 -0.20335499337E+04  0.20335499337E+04  0.50400001928E-02 0. -1.
    10030    2    1    2    0    0  0.00000000000E+00  0.00000000000E+00 -0.54993212241E+03  0.35171677449E+04  0.34739089808E+04 0.  0.
        4    1    3    3  502    0 -0.14150037074E+04  0.56292750197E+03  0.57083265473E+03  0.16263377254E+04  0.12699999809E+01 0.  1.
       -4    1    3    3    0  502  0.14150037074E+04 -0.56292750197E+03 -0.11207647771E+04  0.18908300196E+04  0.12699999809E+01 0. -1.
</event>
<event>
 5   0  0.1468942E-06  0.3565121E+04  0.7818609E-02  0.8098528E-01
        2   -1    0    0  501    0  0.00000000000E+00  0.00000000000E+00  0.12702630230E+04  0.12702630230E+04  0.25500000920E-02 0.  1.
       -2   -1    0    0    0  501  0.00000000000E+00  0.00000000000E+00 -0.25014676029E+04  0.25014676029E+04  0.25500000920E-02 0. -1.
    10030    2    1    2    0    0  0.00000000000E+00  0.00000000000E+00 -0.12312045800E+04  0.37717306259E+04  0.35651209232E+04 0.  0.
        2    1    3    3  502    0 -0.38320407988E+03 -0.97036082114E+03  0.91352470453E+03  0.13867129753E+04  0.25500000920E-02 0.  1.
       -2    1    3    3    0  502  0.38320407988E+03  0.97036082114E+03 -0.21447292845E+04  0.23850176506E+04  0.25500000920E-02 0. -1.
</event>
<event>
 5   0  0.1379425E-06  0.2511325E+04  0.7818609E-02  0.8398962E-01
       -2   -1    0    0    0  501  0.00000000000E+00  0.00000000000E+00  0.10840900069E+04  0.10840900069E+04  0.25500000920E-02 0.  1.
        2   -1    0    0  501    0  0.00000000000E+00  0.00000000000E+00 -0.14543890000E+04  0.14543890000E+04  0.25500000920E-02 0. -1.
    10030    2    1    2    0    0  0.00000000000E+00  0.00000000000E+00 -0.37029899315E+03  0.25384790069E+04  0.25113252128E+04 0.  0.
        4    1    3    3  502    0 -0.44296843099E+03  0.62499160052E+02  0.10008053642E+04  0.10962391006E+04  0.12699999809E+01 0.  1.
       -4    1    3    3    0  502  0.44296843099E+03 -0.62499160052E+02 -0.13711043573E+04  0.14422399063E+04  0.12699999809E+01 0. -1.
</event>
<event>
 5   0  0.1505671E-06  0.3214312E+04  0.7818609E-02  0.8185048E-01
       -2   -1    0    0    0  501  0.00000000000E+00  0.00000000000E+00  0.13746642344E+04  0.13746642344E+04  0.25500000920E-02 0. -1.
        2   -1    0    0  501    0  0.00000000000E+00  0.00000000000E+00 -0.18789682680E+04  0.18789682680E+04  0.25500000920E-02 0.  1.
    10030    2    1    2    0    0  0.00000000000E+00  0.00000000000E+00 -0.50430403364E+03  0.32536325024E+04  0.32143120418E+04 0.  0.
        3    1    3    3  502    0  0.13353375540E+04 -0.54420763784E+03  0.46622116525E+03  0.15154703960E+04  0.10100000352E+00 0. -1.
       -3    1    3    3    0  502 -0.13353375540E+04  0.54420763784E+03 -0.97052519889E+03  0.17381621064E+04  0.10100000352E+00 0.  1.
</event>
<event>
 5   0  0.1491854E-06  0.3411247E+04  0.7818609E-02  0.8135152E-01
       -2   -1    0    0    0  501  0.00000000000E+00  0.00000000000E+00  0.13436058616E+04  0.13436058616E+04  0.25500000920E-02 0.  1.
        2   -1    0    0  501    0  0.00000000000E+00  0.00000000000E+00 -0.21651818024E+04  0.21651818024E+04  0.25500000920E-02 0. -1.
    10030    2    1    2    0    0  0.00000000000E+00  0.00000000000E+00 -0.82157594072E+03  0.35087876640E+04  0.34112466702E+04 0.  0.
        5    1    3    3  502    0 -0.14584547141E+03 -0.73376461978E+03 -0.19874072418E+04  0.21235562280E+04  0.46999998093E+01 0. -1.
       -5    1    3    3    0  502  0.14584547141E+03  0.73376461978E+03  0.11658313011E+04  0.13852314360E+04  0.46999998093E+01 0.  1.
</event>
<event>
 5   0  0.1505671E-06  0.3648724E+04  0.7818609E-02  0.8079421E-01
        2   -1    0    0  501    0  0.00000000000E+00  0.00000000000E+00  0.19457889699E+04  0.19457889699E+04  0.25500000920E-02 0.  1.
       -2   -1    0    0    0  501  0.00000000000E+00  0.00000000000E+00 -0.17105123446E+04  0.17105123446E+04  0.25500000920E-02 0. -1.
    10030    2    1    2    0    0  0.00000000000E+00  0.00000000000E+00  0.23527662522E+03  0.36563013145E+04  0.36487236415E+04 0.  0.
        3    1    3    3  502    0  0.16553969355E+04  0.77339529410E+02  0.88209591841E+03  0.18773421735E+04  0.10100000352E+00 0.  1.
       -3    1    3    3    0  502 -0.16553969355E+04 -0.77339529410E+02 -0.64681929319E+03  0.17789591410E+04  0.10100000352E+00 0. -1.
</event>
<event>
 5   0  0.4811500E-07  0.3532102E+04  0.7818609E-02  0.8106224E-01
       -1   -1    0    0    0  501  0.00000000000E+00  0.00000000000E+00  0.23322917252E+04  0.23322917252E+04  0.50400001928E-02 0. -1.
        1   -1    0    0  501    0  0.00000000000E+00  0.00000000000E+00 -0.13372836489E+04  0.13372836489E+04  0.50400001928E-02 0.  1.
    10030    2    1    2    0    0  0.00000000000E+00  0.00000000000E+00  0.99500807631E+03  0.36695753741E+04  0.35321016908E+04 0.  0.
        5    1    3    3  502    0 -0.43456830961E+03  0.16805592222E+04  0.15959967139E+03  0.17431646681E+04  0.46999998093E+01 0.  1.
       -5    1    3    3    0  502  0.43456830961E+03 -0.16805592222E+04  0.83540840492E+03  0.19264107060E+04  0.46999998093E+01 0. -1.
</event>
<event>
 5   0  0.4811500E-07  0.3609521E+04  0.7818609E-02  0.8088314E-01
        1   -1    0    0  501    0  0.00000000000E+00  0.00000000000E+00  0.20380809307E+04  0.20380809307E+04  0.50400001928E-02 0. -1.
       -1   -1    0    0    0  501  0.00000000000E+00  0.00000000000E+00 -0.15981508358E+04  0.15981508358E+04  0.50400001928E-02 0.  1.
    10030    2    1    2    0    0  0.00000000000E+00  0.00000000000E+00  0.43993009486E+03  0.36362317665E+04  0.36095211554E+04 0.  0.
        2    1    3    3  502    0  0.16059335065E+04 -0.58351687316E+03  0.80533848315E+03  0.18889373841E+04  0.25500000920E-02 0. -1.
       -2    1    3    3    0  502 -0.16059335065E+04  0.58351687316E+03 -0.36540838830E+03  0.17472943824E+04  0.25500000920E-02 0.  1.
</event>
<event>
 5   0  0.1444091E-06  0.3578421E+04  0.7818609E-02  0.8095453E-01
       -2   -1    0    0    0  501  0.00000000000E+00  0.00000000000E+00  0.12896026897E+04  0.12896026897E+04  0.25500000920E-02 0.  1.
        2   -1    0    0  501    0  0.00000000000E+00  0.00000000000E+00 -0.24823727520E+04  0.24823727520E+04  0.25500000920E-02 0. -1.
    10030    2    1    2    0    0  0.00000000000E+00  0.00000000000E+00 -0.11927700623E+04  0.37719754416E+04  0.35784212037E+04 0.  0.
        1    1    3    3  502    0 -0.14337153299E+04  0.15602802566E+03 -0.17126203845E+04  0.22389624770E+04  0.50400001928E-02 0. -1.
       -1    1    3    3    0  502  0.14337153299E+04 -0.15602802566E+03  0.51985032224E+03  0.15330129646E+04  0.50400001928E-02 0.  1.
</event>
<event>
 5   0  0.4811500E-07  0.2275764E+04  0.7818609E-02  0.8487539E-01
        1   -1    0    0  501    0  0.00000000000E+00  0.00000000000E+00  0.16573143391E+04  0.16573143392E+04  0.50400001928E-02 0. -1.
       -1   -1    0    0    0  501  0.00000000000E+00  0.00000000000E+00 -0.78124937120E+03  0.78124937121E+03  0.50400001928E-02 0.  1.
    10030    2    1    2    0    0  0.00000000000E+00  0.00000000000E+00  0.87606496795E+03  0.24385637104E+04  0.22757642983E+04 0.  0.
        4    1    3    3  502    0 -0.60063218950E+03 -0.96416788266E+03  0.36699166214E+03  0.11937601208E+04  0.12699999809E+01 0.  1.
       -4    1    3    3    0  502  0.60063218950E+03  0.96416788266E+03  0.50907330581E+03  0.12448035896E+04  0.12699999809E+01 0. -1.
</event>
<event>
 5   0  0.1505671E-06  0.3086024E+04  0.7818609E-02  0.8219584E-01
       -2   -1    0    0    0  501  0.00000000000E+00  0.00000000000E+00  0.17275988196E+04  0.17275988196E+04  0.25500000920E-02 0. -1.
        2   -1    0    0  501    0  0.00000000000E+00  0.00000000000E+00 -0.13781475080E+04  0.13781475080E+04  0.25500000920E-02 0.  1.
    10030    2    1    2    0    0  0.00000000000E+00  0.00000000000E+00  0.34945131162E+03  0.31057463277E+04  0.30860239844E+04 0.  0.
        3    1    3    3  502    0 -0.11999776121E+04 -0.93281430791E+03  0.44250354280E+03  0.15830029053E+04  0.10100000352E+00 0. -1.
       -3    1    3    3    0  502  0.11999776121E+04  0.93281430791E+03 -0.93052231182E+02  0.15227434224E+04  0.10100000352E+00 0.  1.
</event>
<event>
 5   0  0.4811500E-07  0.2328688E+04  0.7818609E-02  0.8466695E-01
       -1   -1    0    0    0  501  0.00000000000E+00  0.00000000000E+00  0.10624726064E+04  0.10624726064E+04  0.50400001928E-02 0.  1.
        1   -1    0    0  501    0  0.00000000000E+00  0.00000000000E+00 -0.12759829127E+04  0.12759829127E+04  0.50400001928E-02 0. -1.
    10030    2    1    2    0    0  0.00000000000E+00  0.00000000000E+00 -0.21351030633E+03  0.23384555191E+04  0.23286879490E+04 0.  0.
        3    1    3    3  502    0  0.10805121061E+04 -0.19306182078E+03 -0.49686576718E+03  0.12048464130E+04  0.10100000352E+00 0. -1.
       -3    1    3    3    0  502 -0.10805121061E+04  0.19306182078E+03  0.28335546086E+03  0.11336091061E+04  0.10100000352E+00 0.  1.
</event>
<event>
 5   0  0.4811500E-07  0.3607213E+04  0.7818609E-02  0.8088842E-01
       -1   -1    0    0    0  501  0.00000000000E+00  0.00000000000E+00  0.19527348747E+04  0.19527348747E+04  0.50400001928E-02 0. -1.
        1   -1    0    0  501    0  0.00000000000E+00  0.00000000000E+00 -0.16658667344E+04  0.16658667344E+04  0.50400001928E-02 0.  1.
    10030    2    1    2    0    0  0.00000000000E+00  0.00000000000E+00  0.28686814032E+03  0.36186016091E+04  0.36072128126E+04 0.  0.
        3    1    3    3  502    0  0.55079916605E+03  0.22330781156E+03  0.18516756258E+04  0.19447233051E+04  0.10100000352E+00 0. -1.
       -3    1    3    3    0  502 -0.55079916605E+03 -0.22330781156E+03 -0.15648074854E+04  0.16738783040E+04  0.10100000352E+00 0.  1.
</event>
<event>
 5   0  0.4811500E-07  0.3502936E+04  0.7818609E-02  0.8113095E-01
        1   -1    0    0  501    0  0.00000000000E+00  0.00000000000E+00  0.16194656286E+04  0.16194656286E+04  0.50400001928E-02 0. -1.
       -1   -1    0    0    0  501  0.00000000000E+00  0.00000000000E+00 -0.18942298383E+04  0.18942298383E+04  0.50400001928E-02 0.  1.
    10030    2    1    2    0    0  0.00000000000E+00  0.00000000000E+00 -0.27476420975E+03  0.35136954669E+04  0.35029359776E+04 0.  0.
        5    1    3    3  502    0 -0.82543743126E+03  0.70093774347E+03 -0.15181848400E+04  0.18648238446E+04  0.46999998093E+01 0.  1.
       -5    1    3    3    0  502  0.82543743126E+03 -0.70093774347E+03  0.12434206302E+04  0.16488716223E+04  0.46999998093E+01 0. -1.
</event>
<event>
 5   0  0.1468942E-06  0.3453263E+04  0.7818609E-02  0.8124956E-01
        2   -1    0    0  501    0  0.00000000000E+00  0.00000000000E+00  0.23884420752E+04  0.23884420752E+04  0.25500000920E-02 0. -1.
       -2   -1    0    0    0  501  0.00000000000E+00  0.00000000000E+00 -0.12482015343E+04  0.12482015343E+04  0.25500000920E-02 0.  1.
    10030    2    1    2    0    0  0.00000000000E+00  0.00000000000E+00  0.11402405409E+04  0.36366436094E+04  0.34532634205E+04 0.  0.
        2    1    3    3  502    0 -0.16842008311E+04  0.20100708435E+03  0.91025927540E+03  0.19249696715E+04  0.25500000920E-02 0. -1.
       -2    1    3    3    0  502  0.16842008311E+04 -0.20100708435E+03  0.22998126547E+03  0.17116739380E+04  0.25500000920E-02 0.  1.
</event>
<event>
 5   0  0.1491854E-06  0.3618910E+04  0.7818609E-02  0.8086174E-01
       -2   -1    0    0    0  501  0.00000000000E+00  0.00000000000E+00  0.14715308022E+04  0.14715308022E+04  0.25500000920E-02 0.  1.
        2   -1    0    0  501    0  0.00000000000E+00  0.00000000000E+00 -0.22249802402E+04  0.22249802402E+04  0.25500000920E-02 0. -1.
    10030    2    1    2    0    0  0.00000000000E+00  0.00000000000E+00 -0.75344943800E+03  0.36965110424E+04  0.36189097572E+04 0.  0.
        5    1    3    3  502    0  0.73110372079E+03  0.15322491800E+04  0.26264057328E+03  0.17179354938E+04  0.46999998093E+01 0.  1.
       -5    1    3    3    0  502 -0.73110372079E+03 -0.15322491800E+04 -0.10160900113E+04  0.19785755486E+04  0.46999998093E+01 0. -1.
</event>
<event>
 5   0  0.4811500E-07  0.3560007E+04  0.7818609E-02  0.8099714E-01
       -1   -1    0    0    0  501  0.00000000000E+00  0.00000000000E+00  0.10935380242E+04  0.10935380242E+04  0.50400001928E-02 0. -1.
        1   -1    0    0  501    0  0.00000000000E+00  0.00000000000E+00 -0.28973963228E+04  0.28973963228E+04  0.50400001928E-02 0.  1.
    10030    2    1    2    0    0  0.00000000000E+00  0.00000000000E+00 -0.18038582986E+04  0.39909343470E+04  0.35600073315E+04 0.  0.
        4    1    3    3  502    0  0.69232007115E+02 -0.17146867831E+04 -0.14318743650E+04  0.22349965649E+04  0.12699999809E+01 0.  1.
       -4    1    3    3    0  502 -0.69232007115E+02  0.17146867831E+04 -0.37198393361E+03  0.17559377821E+04  0.12699999809E+01 0. -1.
</event>
<event>
 5   0  0.1379425E-06  0.2384971E+04  0.7818609E-02  0.8445152E-01
        2   -1    0    0  501    0  0.00000000000E+00  0.00000000000E+00  0.21394156893E+04  0.21394156893E+04  0.25500000920E-02 0.  1.
       -2   -1    0    0    0  501  0.00000000000E+00  0.00000000000E+00 -0.66467782566E+03  0.66467782566E+03  0.25500000920E-02 0. -1.
    10030    2    1    2    0    0  0.00000000000E+00  0.00000000000E+00  0.14747378637E+04  0.28040935150E+04  0.23849714200E+04 0.  0.
        4    1    3    3  502    0  0.33977517853E+03  0.44019378274E+03  0.19776451667E+04  0.20543368167E+04  0.12699999809E+01 0.  1.
       -4    1    3    3    0  502 -0.33977517853E+03 -0.44019378274E+03 -0.50290730300E+03  0.74975669828E+03  0.12699999809E+01 0. -1.
</event>
<event>
 5   0  0.4811500E-07  0.2926443E+04  0.7818609E-02  0.8265053E-01
       -1   -1    0    0    0  501  0.00000000000E+00  0.00000000000E+00  0.23774524756E+04  0.23774524756E+04  0.50400001928E-02 0.  1.
        1   -1    0    0  501    0  0.00000000000E+00  0.00000000000E+00 -0.90055101220E+03  0.90055101221E+03  0.50400001928E-02 0. -1.
    10030    2    1    2    0    0  0.00000000000E+00  0.00000000000E+00  0.14769014634E+04  0.32780034878E+04  0.29264430515E+04 0.  0.
        5    1    3    3  502    0  0.11541092050E+04 -0.87849108960E+03  0.52217382421E+03  0.15415583817E+04  0.46999998093E+01 0. -1.
       -5    1    3    3    0  502 -0.11541092050E+04  0.87849108960E+03  0.95472763921E+03  0.17364451061E+04  0.46999998093E+01 0.  1.
</event>
<event>
 5   0  0.1468942E-06  0.2447072E+04  0.7818609E-02  0.8422088E-01
       -2   -1    0    0    0  501  0.00000000000E+00  0.00000000000E+00  0.60456739068E+03  0.60456739068E+03  0.25500000920E-02 0. -1.
        2   -1    0    0  501    0  0.00000000000E+00  0.00000000000E+00 -0.24762178587E+04  0.24762178587E+04  0.25500000920E-02 0.  1.
    10030    2    1    2    0    0  0.00000000000E+00  0.00000000000E+00 -0.18716504680E+04  0.30807852494E+04  0.24470721850E+04 0.  0.
        2    1    3    3  502    0  0.95927470836E+03 -0.79100558602E+02  0.15154547178E+02  0.96264974148E+03  0.25500000920E-02 0. -1.
       -2    1    3    3    0  502 -0.95927470836E+03  0.79100558602E+02 -0.18868050152E+04  0.21181355079E+04  0.25500000920E-02 0.  1.
</event>
<event>
 5   0  0.1505671E-06  0.3591713E+04  0.7818609E-02  0.8092393E-01
       -2   -1    0    0    0  501  0.00000000000E+00  0.00000000000E+00  0.23263465031E+04  0.23263465031E+04  0.25500000920E-02 0.  1.
        2   -1    0    0  501    0  0.00000000000E+00  0.00000000000E+00 -0.13863372445E+04  0.13863372445E+04  0.25500000920E-02 0. -1.
    10030    2    1    2    0    0  0.00000000000E+00  0.00000000000E+00  0.94000925854E+03  0.37126837476E+04  0.35917131293E+04 0.  0.
        3    1    3    3  502    0  0.16851875153E+04 -0.56810405392E+03  0.21158117499E+03  0.17909119971E+04  0.10100000352E+00 0.  1.
       -3    1    3    3    0  502 -0.16851875153E+04  0.56810405392E+03  0.72842808355E+03  0.19217717504E+04  0.10100000352E+00 0. -1.
</event>
<event>
 5   0  0.4811500E-07  0.3475010E+04  0.7818609E-02  0.8119738E-01
       -1   -1    0    0    0  501  0.00000000000E+00  0.00000000000E+00  0.15937491960E+04  0.15937491960E+04  0.50400001928E-02 0. -1.
        1   -1    0    0  501    0  0.00000000000E+00  0.00000000000E+00 -0.18942270951E+04  0.18942270951E+04  0.50400001928E-02 0.  1.
    10030    2    1    2    0    0  0.00000000000E+00  0.00000000000E+00 -0.30047789904E+03  0.34879762911E+04  0.34750095884E+04 0.  0.
        2    1    3    3  502    0 -0.15575784003E+04  0.32707799803E+03 -0.84989980874E+03  0.18042616702E+04  0.25500000920E-02 0.  1.
       -2    1    3    3    0  502  0.15575784003E+04 -0.32707799803E+03  0.54942190970E+03  0.16837146209E+04  0.25500000920E-02 0. -1.
</event>
<event>
 5   0  0.4811500E-07  0.3587096E+04  0.7818609E-02  0.8093454E-01
        1   -1    0    0  501    0  0.00000000000E+00  0.00000000000E+00  0.24856717687E+04  0.24856717688E+04  0.50400001928E-02 0. -1.
       -1   -1    0    0    0  501  0.00000000000E+00  0.00000000000E+00 -0.12941429566E+04  0.12941429566E+04  0.50400001928E-02 0.  1.
    10030    2    1    2    0    0  0.00000000000E+00  0.00000000000E+00  0.11915288122E+04  0.37798147253E+04  0.35870961023E+04 0.  0.
        5    1    3    3  502    0  0.67420622643E+03 -0.29057547094E+03 -0.11285518576E+04  0.13463430192E+04  0.46999998093E+01 0.  1.
       -5    1    3    3    0  502 -0.67420622643E+03  0.29057547094E+03  0.23200806698E+04  0.24334717061E+04  0.46999998093E+01 0. -1.
</event>
<event>
 5   0  0.1505671E-06  0.3127386E+04  0.7818609E-02  0.8208262E-01
       -2   -1    0    0    0  501  0.00000000000E+00  0.00000000000E+00  0.13156550865E+04  0.13156550865E+04  0.25500000920E-02 0.  1.
        2   -1    0    0  501    0  0.00000000000E+00  0.00000000000E+00 -0.18584929238E+04  0.18584929238E+04  0.25500000920E-02 0. -1.
    10030    2    1    2    0    0  0.00000000000E+00  0.00000000000E+00 -0.54283783727E+03  0.31741480103E+04  0.31273859169E+04 0.  0.
        3    1    3    3  502    0  0.34193613561E+02  0.22122855410E+03  0.12993079304E+04  0.13184507516E+04  0.10100000352E+00 0.  1.
       -3    1    3    3    0  502 -0.34193613561E+02 -0.22122855410E+03 -0.18421457676E+04  0.18556972586E+04  0.10100000352E+00 0. -1.
</event>
<event>
 5   0  0.1505671E-06  0.3661464E+04  0.7818609E-02  0.8076556E-01
       -2   -1    0    0    0  501  0.00000000000E+00  0.00000000000E+00  0.13314593317E+04  0.13314593317E+04  0.25500000920E-02 0. -1.
        2   -1    0    0  501    0  0.00000000000E+00  0.00000000000E+00 -0.25172224096E+04  0.25172224096E+04  0.25500000920E-02 0.  1.
    10030    2    1    2    0    0  0.00000000000E+00  0.00000000000E+00 -0.11857630779E+04  0.38486817413E+04  0.36614637878E+04 0.  0.
        3    1    3    3  502    0  0.28456656369E+03 -0.72880161167E+03  0.11468766641E+04  0.13883284954E+04  0.10100000352E+00 0. -1.
       -3    1    3    3    0  502 -0.28456656369E+03  0.72880161167E+03 -0.23326397420E+04  0.24603532459E+04  0.10100000352E+00 0.  1.
</event>
<event>
 5   0  0.1468942E-06  0.3718857E+04  0.7818609E-02  0.8063796E-01
       -2   -1    0    0    0  501  0.00000000000E+00  0.00000000000E+00  0.24250000390E+04  0.24250000390E+04  0.25500000920E-02 0. -1.
        2   -1    0    0  501    0  0.00000000000E+00  0.00000000000E+00 -0.14257627855E+04  0.14257627855E+04  0.25500000920E-02 0.  1.
    10030    2    1    2    0    0  0.00000000000E+00  0.00000000000E+00  0.99923725351E+03  0.38507628246E+04  0.37188572495E+04 0.  0.
        2    1    3    3  502    0 -0.90275154640E+03 -0.41284783564E+03  0.21276686431E+04  0.23478452983E+04  0.25500000920E-02 0. -1.
       -2    1    3    3    0  502  0.90275154640E+03  0.41284783564E+03 -0.11284313896E+04  0.15029175263E+04  0.25500000920E-02 0.  1.
</event>
<event>
 5   0  0.5071661E-07  0.3513952E+04  0.7818609E-02  0.8110492E-01
       -1   -1    0    0    0  501  0.00000000000E+00  0.00000000000E+00  0.20563202623E+04  0.20563202624E+04  0.50400001928E-02 0.  1.
        1   -1    0    0  501    0  0.00000000000E+00  0.00000000000E+00 -0.15012077012E+04  0.15012077012E+04  0.50400001928E-02 0. -1.
    10030    2    1    2    0    0  0.00000000000E+00  0.00000000000E+00  0.55511256118E+03  0.35575279635E+04  0.35139515159E+04 0.  0.
        1    1    3    3  502    0 -0.53006840766E+02 -0.50997953251E+03 -0.14237819769E+04  0.15132891219E+04  0.50400001928E-02 0. -1.
       -1    1    3    3    0  502  0.53006840766E+02  0.50997953251E+03  0.19788945381E+04  0.20442388416E+04  0.50400001928E-02 0.  1.
</event>
<event>
 5   0  0.1379425E-06  0.3373849E+04  0.7818609E-02  0.8144355E-01
       -2   -1    0    0    0  501  0.00000000000E+00  0.00000000000E+00  0.17161809098E+04  0.17161809098E+04  0.25500000920E-02 0. -1.
        2   -1    0    0  501    0  0.00000000000E+00  0.00000000000E+00 -0.16581664694E+04  0.16581664694E+04  0.25500000920E-02 0.  1.
    10030    2    1    2    0    0  0.00000000000E+00  0.00000000000E+00  0.58014440332E+02  0.33743473792E+04  0.33738486273E+04 0.  0.
        4    1    3    3  502    0  0.83460190531E+03 -0.12085191771E+04 -0.80095464645E+03  0.16729043309E+04  0.12699999809E+01 0.  1.
       -4    1    3    3    0  502 -0.83460190531E+03  0.12085191771E+04  0.85896908679E+03  0.17014430483E+04  0.12699999809E+01 0. -1.
</event>
<event>
 5   0  0.1505671E-06  0.3648062E+04  0.7818609E-02  0.8079570E-01
       -2   -1    0    0    0  501  0.00000000000E+00  0.00000000000E+00  0.27785887507E+04  0.27785887507E+04  0.25500000920E-02 0. -1.
        2   -1    0    0  501    0  0.00000000000E+00  0.00000000000E+00 -0.11974026000E+04  0.11974026000E+04  0.25500000920E-02 0.  1.
    10030    2    1    2    0    0  0.00000000000E+00  0.00000000000E+00  0.15811861507E+04  0.39759913507E+04  0.36480621674E+04 0.  0.
        3    1    3    3  502    0 -0.22101426581E+02 -0.10413359479E+04 -0.84141515911E+03  0.13389729309E+04  0.10100000352E+00 0.  1.
       -3    1    3    3    0  502  0.22101426581E+02  0.10413359479E+04  0.24226013099E+04  0.26370184198E+04  0.10100000352E+00 0. -1.
</event>
<event>
 5   0  0.4811500E-07  0.3410934E+04  0.7818609E-02  0.8135228E-01
       -1   -1    0    0    0  501  0.00000000000E+00  0.00000000000E+00  0.12391394905E+04  0.12391394906E+04  0.50400001928E-02 0.  1.
        1   -1    0    0  501    0  0.00000000000E+00  0.00000000000E+00 -0.23472889881E+04  0.23472889881E+04  0.50400001928E-02 0. -1.
    10030    2    1    2    0    0  0.00000000000E+00  0.00000000000E+00 -0.11081494975E+04  0.35864284786E+04  0.34109344648E+04 0.  0.
        2    1    3    3  502    0  0.64198814570E+03  0.53395795536E+03  0.10094990595E+04  0.13100947403E+04  0.25500000920E-02 0.  1.
       -2    1    3    3    0  502 -0.64198814570E+03 -0.53395795536E+03 -0.21176485570E+04  0.22763337383E+04  0.25500000920E-02 0. -1.
</event>
<event>
 5   0  0.5071661E-07  0.3497720E+04  0.7818609E-02  0.8114330E-01
        1   -1    0    0  501    0  0.00000000000E+00  0.00000000000E+00  0.16137261301E+04  0.16137261301E+04  0.50400001928E-02 0. -1.
       -1   -1    0    0    0  501  0.00000000000E+00  0.00000000000E+00 -0.18953100103E+04  0.18953100103E+04  0.50400001928E-02 0.  1.
    10030    2    1    2    0    0  0.00000000000E+00  0.00000000000E+00 -0.28158388024E+03  0.35090361404E+04  0.34977199935E+04 0.  0.
        1    1    3    3  502    0 -0.13712886533E+04 -0.28115064733E+03  0.91094753389E+03  0.16701208539E+04  0.50400001928E-02 0. -1.
       -1    1    3    3    0  502  0.13712886533E+04  0.28115064733E+03 -0.11925314141E+04  0.18389152865E+04  0.50400001928E-02 0.  1.
</event>
<event>
 5   0  0.1444091E-06  0.3518360E+04  0.7818609E-02  0.8109453E-01
       -2   -1    0    0    0  501  0.00000000000E+00  0.00000000000E+00  0.16575426718E+04  0.16575426718E+04  0.25500000920E-02 0. -1.
        2   -1    0    0  501    0  0.00000000000E+00  0.00000000000E+00 -0.18670494090E+04  0.18670494090E+04  0.25500000920E-02 0.  1.
    10030    2    1    2    0    0  0.00000000000E+00  0.00000000000E+00 -0.20950673715E+03  0.35245920808E+04  0.35183598825E+04 0.  0.
        1    1    3    3  502    0  0.12089939794E+04  0.94074322552E+03  0.76167738428E+03  0.17107941713E+04  0.50400001928E-02 0. -1.
       -1    1    3    3    0  502 -0.12089939794E+04 -0.94074322552E+03 -0.97118412144E+03  0.18137979095E+04  0.50400001928E-02 0.  1.
</event>
<event>
 5   0  0.4811500E-07  0.3383586E+04  0.7818609E-02  0.8141947E-01
        1   -1    0    0  501    0  0.00000000000E+00  0.00000000000E+00  0.24143857749E+04  0.24143857749E+04  0.50400001928E-02 0.  1.
       -1   -1    0    0    0  501  0.00000000000E+00  0.00000000000E+00 -0.11854626671E+04  0.11854626671E+04  0.50400001928E-02 0. -1.
    10030    2    1    2    0    0  0.00000000000E+00  0.00000000000E+00  0.12289231078E+04  0.35998484421E+04  0.33835863815E+04 0.  0.
        5    1    3    3  502    0 -0.39203388217E+03 -0.16123449829E+04  0.96538454217E+03  0.19197229782E+04  0.46999998093E+01 0. -1.
       -5    1    3    3    0  502  0.39203388217E+03  0.16123449829E+04  0.26353856567E+03  0.16801254639E+04  0.46999998093E+01 0.  1.
</event>
<event>
 5   0  0.4811500E-07  0.3651517E+04  0.7818609E-02  0.8078792E-01
        1   -1    0    0  501    0  0.00000000000E+00  0.00000000000E+00  0.15216370604E+04  0.15216370604E+04  0.50400001928E-02 0. -1.
       -1   -1    0    0    0  501  0.00000000000E+00  0.00000000000E+00 -0.21906624971E+04  0.21906624971E+04  0.50400001928E-02 0.  1.
    10030    2    1    2    0    0  0.00000000000E+00  0.00000000000E+00 -0.66902543668E+03  0.37122995575E+04  0.36515165302E+04 0.  0.
        4    1    3    3  502    0 -0.13877200161E+04 -0.10354188275E+04  0.25438128020E+03  0.17500201256E+04  0.12699999809E+01 0. -1.
       -4    1    3    3    0  502  0.13877200161E+04  0.10354188275E+04 -0.92340671688E+03  0.19622794319E+04  0.12699999809E+01 0.  1.
</event>
<event>
 5   0  0.1444091E-06  0.3645401E+04  0.7818609E-02  0.8080171E-01
        2   -1    0    0  501    0  0.00000000000E+00  0.00000000000E+00  0.20483936178E+04  0.20483936178E+04  0.25500000920E-02 0. -1.
       -2   -1    0    0    0  501  0.00000000000E+00  0.00000000000E+00 -0.16218743462E+04  0.16218743462E+04  0.25500000920E-02 0.  1.
    10030    2    1    2    0    0  0.00000000000E+00  0.00000000000E+00  0.42651927158E+03  0.36702679640E+04  0.36454009709E+04 0.  0.
        1    1    3    3  502    0  0.15194836670E+04 -0.68598727639E+03  0.95505403418E+03  0.19213373899E+04  0.50400001928E-02 0. -1.
       -1    1    3    3    0  502 -0.15194836670E+04  0.68598727639E+03 -0.52853476261E+03  0.17489305741E+04  0.50400001928E-02 0.  1.
</event>
<event>
 5   0  0.4811500E-07  0.3380778E+04  0.7818609E-02  0.8142640E-01
       -1   -1    0    0    0  501  0.00000000000E+00  0.00000000000E+00  0.11906450939E+04  0.11906450939E+04  0.50400001928E-02 0.  1.
        1   -1    0    0  501    0  0.00000000000E+00  0.00000000000E+00 -0.23998875885E+04  0.23998875885E+04  0.50400001928E-02 0. -1.
    10030    2    1    2    0    0  0.00000000000E+00  0.00000000000E+00 -0.12092424946E+04  0.35905326825E+04  0.33807776521E+04 0.  0.
        4    1    3    3  502    0 -0.96236692942E+03  0.10000250504E+04  0.42024381501E+03  0.14501057497E+04  0.12699999809E+01 0.  1.
       -4    1    3    3    0  502  0.96236692942E+03 -0.10000250504E+04 -0.16294863097E+04  0.21404269328E+04  0.12699999809E+01 0. -1.
</event>
<event>
 5   0  0.5071661E-07  0.2684008E+04  0.7818609E-02  0.8340213E-01
       -1   -1    0    0    0  501  0.00000000000E+00  0.00000000000E+00  0.16708155735E+04  0.16708155735E+04  0.50400001928E-02 0.  1.
        1   -1    0    0  501    0  0.00000000000E+00  0.00000000000E+00 -0.10779015714E+04  0.10779015714E+04  0.50400001928E-02 0. -1.
    10030    2    1    2    0    0  0.00000000000E+00  0.00000000000E+00  0.59291400204E+03  0.27487171449E+04  0.26840079971E+04 0.  0.
        1    1    3    3  502    0  0.67029871847E+03  0.19859753677E+03 -0.87668824775E+03  0.11213044356E+04  0.50400001928E-02 0. -1.
       -1    1    3    3    0  502 -0.67029871847E+03 -0.19859753677E+03  0.14696022498E+04  0.16274127092E+04  0.50400001928E-02 0.  1.
</event>
<event>
 5   0  0.4811500E-07  0.3425767E+04  0.7818609E-02  0.8131611E-01
       -1   -1    0    0    0  501  0.00000000000E+00  0.00000000000E+00  0.15959727763E+04  0.15959727763E+04  0.50400001928E-02 0. -1.
        1   -1    0    0  501    0  0.00000000000E+00  0.00000000000E+00 -0.18383579039E+04  0.18383579039E+04  0.50400001928E-02 0.  1.
    10030    2    1    2    0    0  0.00000000000E+00  0.00000000000E+00 -0.24238512761E+03  0.34343306803E+04  0.34257665816E+04 0.  0.
        2    1    3    3  502    0  0.24864584196E+03 -0.91241874229E+03 -0.15529212401E+04  0.18182126097E+04  0.25500000920E-02 0.  1.
       -2    1    3    3    0  502 -0.24864584196E+03  0.91241874229E+03  0.13105361125E+04  0.16161180706E+04  0.25500000920E-02 0. -1.
</event>
<event>
 5   0  0.1444091E-06  0.3586558E+04  0.7818609E-02  0.8093578E-01
       -2   -1    0    0    0  501  0.00000000000E+00  0.00000000000E+00  0.17640376772E+04  0.17640376772E+04  0.25500000920E-02 0.  1.
        2   -1    0    0  501    0  0.00000000000E+00  0.00000000000E+00 -0.18230052952E+04  0.18230052952E+04  0.25500000920E-02 0. -1.
    10030    2    1    2    0    0  0.00000000000E+00  0.00000000000E+00 -0.58967617923E+02  0.35870429724E+04  0.35865582535E+04 0.  0.
        1    1    3    3  502    0  0.11488417556E+04  0.12700670462E+04  0.50251133083E+03  0.17847759857E+04  0.50400001928E-02 0.  1.
       -1    1    3    3    0  502 -0.11488417556E+04 -0.12700670462E+04 -0.56147894875E+03  0.18022669867E+04  0.50400001928E-02 0. -1.
</event>
<event>
 5   0  0.4811500E-07  0.3379765E+04  0.7818609E-02  0.8142891E-01
        1   -1    0    0  501    0  0.00000000000E+00  0.00000000000E+00  0.30069910341E+04  0.30069910341E+04  0.50400001928E-02 0. -1.
       -1   -1    0    0    0  501  0.00000000000E+00  0.00000000000E+00 -0.94968763557E+03  0.94968763558E+03  0.50400001928E-02 0.  1.
    10030    2    1    2    0    0  0.00000000000E+00  0.00000000000E+00  0.20573033985E+04  0.39566786697E+04  0.33797646104E+04 0.  0.
        5    1    3    3  502    0 -0.93049632021E+03 -0.12006134249E+04  0.16171625025E+03  0.15275700421E+04  0.46999998093E+01 0.  1.
       -5    1    3    3    0  502  0.93049632021E+03  0.12006134249E+04  0.18955871483E+04  0.24291086276E+04  0.46999998093E+01 0. -1.
</event>
<event>
 5   0  0.1444091E-06  0.3624351E+04  0.7818609E-02  0.8084937E-01
        2   -1    0    0  501    0  0.00000000000E+00  0.00000000000E+00  0.31803549619E+04  0.31803549619E+04  0.25500000920E-02 0.  1.
       -2   -1    0    0    0  501  0.00000000000E+00  0.00000000000E+00 -0.10325827951E+04  0.10325827951E+04  0.25500000920E-02 0. -1.
    10030    2    1    2    0    0  0.00000000000E+00  0.00000000000E+00  0.21477721668E+04  0.42129377570E+04  0.36243508749E+04 0.  0.
        1    1    3    3  502    0 -0.16975142103E+04 -0.33137157900E+03  0.17026758626E+04  0.24270283704E+04  0.50400001928E-02 0.  1.
       -1    1    3    3    0  502  0.16975142103E+04  0.33137157900E+03  0.44509630418E+03  0.17859093867E+04  0.50400001928E-02 0. -1.
</event>
<event>
 5   0  0.1468942E-06  0.3337859E+04  0.7818609E-02  0.8153328E-01
        2   -1    0    0  501    0  0.00000000000E+00  0.00000000000E+00  0.16659195958E+04  0.16659195958E+04  0.25500000920E-02 0.  1.
       -2   -1    0    0    0  501  0.00000000000E+00  0.00000000000E+00 -0.16719449591E+04  0.16719449591E+04  0.25500000920E-02 0. -1.
    10030    2    1    2    0    0  0.00000000000E+00  0.00000000000E+00 -0.60253633779E+01  0.33378645549E+04  0.33378591165E+04 0.  0.
        2    1    3    3  502    0  0.42069164934E+03  0.90465631352E+03 -0.13409017629E+04  0.16713473748E+04  0.25500000920E-02 0. -1.
       -2    1    3    3    0  502 -0.42069164934E+03 -0.90465631352E+03  0.13348763996E+04  0.16665171801E+04  0.25500000920E-02 0.  1.
</event>
<event>
 5   0  0.1379425E-06  0.3764150E+04  0.7818609E-02  0.8053892E-01
        2   -1    0    0  501    0  0.00000000000E+00  0.00000000000E+00  0.22063796686E+04  0.22063796686E+04  0.25500000920E-02 0.  1.
       -2   -1    0    0    0  501  0.00000000000E+00  0.00000000000E+00 -0.16054386146E+04  0.16054386146E+04  0.25500000920E-02 0. -1.
    10030    2    1    2    0    0  0.00000000000E+00  0.00000000000E+00  0.60094105397E+03  0.38118182832E+04  0.37641504319E+04 0.  0.
        4    1    3    3  502    0  0.16229027241E+04  0.73480437872E+03  0.91516217772E+03  0.20028165545E+04  0.12699999809E+01 0.  1.
       -4    1    3    3    0  502 -0.16229027241E+04 -0.73480437872E+03 -0.31422112374E+03  0.18090017287E+04  0.12699999809E+01 0. -1.
</event>
<event>
 5   0  0.1444091E-06  0.3513928E+04  0.7818609E-02  0.8110497E-01
        2   -1    0    0  501    0  0.00000000000E+00  0.00000000000E+00  0.13841223569E+04  0.13841223569E+04  0.25500000920E-02 0.  1.
       -2   -1    0    0    0  501  0.00000000000E+00  0.00000000000E+00 -0.22302383592E+04  0.22302383592E+04  0.25500000920E-02 0. -1.
    10030    2    1    2    0    0  0.00000000000E+00  0.00000000000E+00 -0.84611600235E+03  0.36143607161E+04  0.35139281576E+04 0.  0.
        1    1    3    3  502    0 -0.75711086274E+03 -0.83079080178E+03 -0.18120207969E+04  0.21323343038E+04  0.50400001928E-02 0. -1.
       -1    1    3    3    0  502  0.75711086274E+03  0.83079080178E+03  0.96590479453E+03  0.14820264124E+04  0.50400001928E-02 0.  1.
</event>
<event>
 5   0  0.5071661E-07  0.3329454E+04  0.7818609E-02  0.8155441E-01
        1   -1    0    0  501    0  0.00000000000E+00  0.00000000000E+00  0.11037336972E+04  0.11037336972E+04  0.50400001928E-02 0. -1.
       -1   -1    0    0    0  501  0.00000000000E+00  0.00000000000E+00 -0.25108555334E+04  0.25108555334E+04  0.50400001928E-02 0.  1.
    10030    2    1    2    0    0  0.00000000000E+00  0.00000000000E+00 -0.14071218362E+04  0.36145892306E+04  0.33294539258E+04 0.  0.
        1    1    3    3  502    0  0.31010733807E+03 -0.16337648843E+04 -0.61973709547E+03  0.17746628766E+04  0.50400001928E-02 0.  1.
       -1    1    3    3    0  502 -0.31010733807E+03  0.16337648843E+04 -0.78738474076E+03  0.18399263540E+04  0.50400001928E-02 0. -1.
</event>
<event>
 5   0  0.4811500E-07  0.2336273E+04  0.7818609E-02  0.8463755E-01
        1   -1    0    0  501    0  0.00000000000E+00  0.00000000000E+00  0.90259259154E+03  0.90259259155E+03  0.50400001928E-02 0. -1.
       -1   -1    0    0    0  501  0.00000000000E+00  0.00000000000E+00 -0.15118043378E+04  0.15118043378E+04  0.50400001928E-02 0.  1.
    10030    2    1    2    0    0  0.00000000000E+00  0.00000000000E+00 -0.60921174627E+03  0.24143969294E+04  0.23362734388E+04 0.  0.
        5    1    3    3  502    0 -0.41741458436E+03 -0.86381185356E+03 -0.99331040422E+03  0.13809755620E+04  0.46999998093E+01 0. -1.
       -5    1    3    3    0  502  0.41741458436E+03  0.86381185356E+03  0.38409865794E+03  0.10334213674E+04  0.46999998093E+01 0.  1.
</event>
<event>
 5   0  0.4811500E-07  0.3186176E+04  0.7818609E-02  0.8192478E-01
        3   -1    0    0  501    0  0.00000000000E+00  0.00000000000E+00  0.24975573734E+04  0.24975573754E+04  0.10100000352E+00 0.  1.
       -3   -1    0    0    0  501  0.00000000000E+00  0.00000000000E+00 -0.10161647254E+04  0.10161647304E+04  0.10100000352E+00 0. -1.
    10030    2    1    2    0    0  0.00000000000E+00  0.00000000000E+00  0.14813926480E+04  0.35137221058E+04  0.31861762129E+04 0.  0.
        2    1    3    3  502    0  0.32097349693E+03  0.12135860867E+03  0.24563169462E+04  0.24801703244E+04  0.25500000920E-02 0.  1.
       -2    1    3    3    0  502 -0.32097349693E+03 -0.12135860867E+03 -0.97492429822E+03  0.10335517814E+04  0.25500000920E-02 0. -1.
</event>
<event>
 5   0  0.1379425E-06  0.2203503E+04  0.7818609E-02  0.8516971E-01
       -2   -1    0    0    0  501  0.00000000000E+00  0.00000000000E+00  0.10976173748E+04  0.10976173748E+04  0.25500000920E-02 0. -1.
        2   -1    0    0  501    0  0.00000000000E+00  0.00000000000E+00 -0.11059015638E+04  0.11059015638E+04  0.25500000920E-02 0.  1.
    10030    2    1    2    0    0  0.00000000000E+00  0.00000000000E+00 -0.82841890064E+01  0.22035189386E+04  0.22035033662E+04 0.  0.
        4    1    3    3  502    0 -0.32440722742E+03  0.19450164440E+03 -0.10389364481E+04  0.11056498067E+04  0.12699999809E+01 0.  1.
       -4    1    3    3    0  502  0.32440722742E+03 -0.19450164440E+03  0.10306522591E+04  0.10978691320E+04  0.12699999809E+01 0. -1.
</event>
<event>
 5   0  0.1468942E-06  0.3600919E+04  0.7818609E-02  0.8090281E-01
        2   -1    0    0  501    0  0.00000000000E+00  0.00000000000E+00  0.23383411375E+04  0.23383411375E+04  0.25500000920E-02 0. -1.
       -2   -1    0    0    0  501  0.00000000000E+00  0.00000000000E+00 -0.13863050615E+04  0.13863050615E+04  0.25500000920E-02 0.  1.
    10030    2    1    2    0    0  0.00000000000E+00  0.00000000000E+00  0.95203607600E+03  0.37246461990E+04  0.36009188574E+04 0.  0.
        2    1    3    3  502    0  0.46655085414E+03  0.63225214124E+03 -0.11995945160E+04  0.14340291044E+04  0.25500000920E-02 0.  1.
       -2    1    3    3    0  502 -0.46655085414E+03 -0.63225214124E+03  0.21516305920E+04  0.22906170946E+04  0.25500000920E-02 0. -1.
</event>
<event>
 5   0  0.4811500E-07  0.3639840E+04  0.7818609E-02  0.8081426E-01
       -1   -1    0    0    0  501  0.00000000000E+00  0.00000000000E+00  0.14305759146E+04  0.14305759146E+04  0.50400001928E-02 0. -1.
        1   -1    0    0  501    0  0.00000000000E+00  0.00000000000E+00 -0.23152281089E+04  0.23152281089E+04  0.50400001928E-02 0.  1.
    10030    2    1    2    0    0  0.00000000000E+00  0.00000000000E+00 -0.88465219426E+03  0.37458040235E+04  0.36398404192E+04 0.  0.
        2    1    3    3  502    0 -0.73330669627E+03  0.16382934554E+04 -0.13296633448E+03  0.17998400493E+04  0.25500000920E-02 0. -1.
       -2    1    3    3    0  502  0.73330669627E+03 -0.16382934554E+04 -0.75168585979E+03  0.19459639742E+04  0.25500000920E-02 0.  1.
</event>
<event>
 5   0  0.1491854E-06  0.3615217E+04  0.7818609E-02  0.8087015E-01
        2   -1    0    0  501    0  0.00000000000E+00  0.00000000000E+00  0.23922748999E+04  0.23922748999E+04  0.25500000920E-02 0.  1.
       -2   -1    0    0    0  501  0.00000000000E+00  0.00000000000E+00 -0.13658333861E+04  0.13658333861E+04  0.25500000920E-02 0. -1.
    10030    2    1    2    0    0  0.00000000000E+00  0.00000000000E+00  0.10264415138E+04  0.37581082860E+04  0.36152172422E+04 0.  0.
        5    1    3    3  502    0 -0.16609621633E+03 -0.16595593672E+04  0.12376895005E+04  0.20769262471E+04  0.46999998093E+01 0.  1.
       -5    1    3    3    0  502  0.16609621633E+03  0.16595593672E+04 -0.21124798665E+03  0.16811820390E+04  0.46999998093E+01 0. -1.
</event>
<event>
 5   0  0.1444091E-06  0.3621416E+04  0.7818609E-02  0.8085604E-01
        2   -1    0    0  501    0  0.00000000000E+00  0.00000000000E+00  0.17989470700E+04  0.17989470700E+04  0.25500000920E-02 0. -1.
       -2   -1    0    0    0  501  0.00000000000E+00  0.00000000000E+00 -0.18225460388E+04  0.18225460388E+04  0.25500000920E-02 0.  1.
    10030    2    1    2    0    0  0.00000000000E+00  0.00000000000E+00 -0.23598968864E+02  0.36214931088E+04  0.36214162182E+04 0.  0.
        1    1    3    3  502    0 -0.18963245725E+03 -0.73571583305E+02 -0.18110849205E+04  0.18224713540E+04  0.50400001928E-02 0.  1.
       -1    1    3    3    0  502  0.18963245725E+03  0.73571583305E+02  0.17874859517E+04  0.17990217548E+04  0.50400001928E-02 0. -1.
</event>
<event>
 5   0  0.4811500E-07  0.3667107E+04  0.7818609E-02  0.8075291E-01
        1   -1    0    0  501    0  0.00000000000E+00  0.00000000000E+00  0.19019646878E+04  0.19019646878E+04  0.50400001928E-02 0.  1.
       -1   -1    0    0    0  501  0.00000000000E+00  0.00000000000E+00 -0.17676027055E+04  0.17676027055E+04  0.50400001928E-02 0. -1.
    10030    2    1    2    0    0  0.00000000000E+00  0.00000000000E+00  0.13436198228E+03  0.36695673933E+04  0.36671067222E+04 0.  0.
        4    1    3    3  502    0  0.27075927626E+02  0.84973130844E+03 -0.15584520818E+04  0.17752607996E+04  0.12699999809E+01 0. -1.
       -4    1    3    3    0  502 -0.27075927626E+02 -0.84973130844E+03  0.16928140641E+04  0.18943065937E+04  0.12699999809E+01 0.  1.
</event>
<event>
 5   0  0.4811500E-07  0.3408728E+04  0.7818609E-02  0.8135767E-01
       -1   -1    0    0    0  501  0.00000000000E+00  0.00000000000E+00  0.18080799337E+04  0.18080799337E+04  0.50400001928E-02 0.  1.
        1   -1    0    0  501    0  0.00000000000E+00  0.00000000000E+00 -0.16065974983E+04  0.16065974983E+04  0.50400001928E-02 0. -1.
    10030    2    1    2    0    0  0.00000000000E+00  0.00000000000E+00  0.20148243538E+03  0.34146774320E+04  0.34087280316E+04 0.  0.
        5    1    3    3  502    0  0.10260632572E+03 -0.21180020054E+03  0.17917179864E+04  0.18071144999E+04  0.46999998093E+01 0.  1.
       -5    1    3    3    0  502 -0.10260632572E+03  0.21180020054E+03 -0.15902355510E+04  0.16075629321E+04  0.46999998093E+01 0. -1.
</event>
<event>
 5   0  0.5071661E-07  0.3497889E+04  0.7818609E-02  0.8114290E-01
       -1   -1    0    0    0  501  0.00000000000E+00  0.00000000000E+00  0.18132188447E+04  0.18132188447E+04  0.50400001928E-02 0.  1.
        1   -1    0    0  501    0  0.00000000000E+00  0.00000000000E+00 -0.16869487810E+04  0.16869487810E+04  0.50400001928E-02 0. -1.
    10030    2    1    2    0    0  0.00000000000E+00  0.00000000000E+00  0.12627006374E+03  0.35001676257E+04  0.34978892605E+04 0.  0.
        1    1    3    3  502    0 -0.56144487247E+03  0.99091591115E+03 -0.12650096611E+04  0.17021704175E+04  0.50400001928E-02 0.  1.
       -1    1    3    3    0  502  0.56144487247E+03 -0.99091591115E+03  0.13912797248E+04  0.17979972081E+04  0.50400001928E-02 0. -1.
</event>
<event>
 5   0  0.4811500E-07  0.3306811E+04  0.7818609E-02  0.8161164E-01
        1   -1    0    0  501    0  0.00000000000E+00  0.00000000000E+00  0.28953960510E+04  0.28953960510E+04  0.50400001928E-02 0.  1.
       -1   -1    0    0    0  501  0.00000000000E+00  0.00000000000E+00 -0.94417124287E+03  0.94417124288E+03  0.50400001928E-02 0. -1.
    10030    2    1    2    0    0  0.00000000000E+00  0.00000000000E+00  0.19512248082E+04  0.38395672939E+04  0.33068109641E+04 0.  0.
        3    1    3    3  502    0  0.14480152941E+04  0.18214547706E+03  0.73359584394E+02  0.14612689368E+04  0.10100000352E+00 0. -1.
       -3    1    3    3    0  502 -0.14480152941E+04 -0.18214547706E+03  0.18778652238E+04  0.23782983571E+04  0.10100000352E+00 0.  1.
</event>
<event>
 5   0  0.1444091E-06  0.3677972E+04  0.7818609E-02  0.8072861E-01
        2   -1    0    0  501    0  0.00000000000E+00  0.00000000000E+00  0.29757066942E+04  0.29757066942E+04  0.25500000920E-02 0. -1.
       -2   -1    0    0    0  501  0.00000000000E+00  0.00000000000E+00 -0.11364926204E+04  0.11364926204E+04  0.25500000920E-02 0.  1.
    10030    2    1    2    0    0  0.00000000000E+00  0.00000000000E+00  0.18392140737E+04  0.41121993146E+04  0.36779715597E+04 0.  0.
        1    1    3    3  502    0 -0.82001193750E+03  0.14787106974E+04  0.17280698990E+04  0.24176911465E+04  0.50400001928E-02 0. -1.
       -1    1    3    3    0  502  0.82001193750E+03 -0.14787106974E+04  0.11114417478E+03  0.16945081681E+04  0.50400001928E-02 0.  1.
</event>
<event>
 5   0  0.1444091E-06  0.3586317E+04  0.7818609E-02  0.8093633E-01
       -2   -1    0    0    0  501  0.00000000000E+00  0.00000000000E+00  0.13795143901E+04  0.13795143901E+04  0.25500000920E-02 0.  1.
        2   -1    0    0  501    0  0.00000000000E+00  0.00000000000E+00 -0.23308333436E+04  0.23308333436E+04  0.25500000920E-02 0. -1.
    10030    2    1    2    0    0  0.00000000000E+00  0.00000000000E+00 -0.95131895349E+03  0.37103477337E+04  0.35863174084E+04 0.  0.
        1    1    3    3  502    0 -0.57841525120E+03 -0.16916871298E+04 -0.33286963553E+03  0.18185630982E+04  0.50400001928E-02 0.  1.
       -1    1    3    3    0  502  0.57841525120E+03  0.16916871298E+04 -0.61844931796E+03  0.18917846354E+04  0.50400001928E-02 0. -1.
</event>
<event>
 5   0  0.4811500E-07  0.3498078E+04  0.7818609E-02  0.8114246E-01
        1   -1    0    0  501    0  0.00000000000E+00  0.00000000000E+00  0.20115021138E+04  0.20115021138E+04  0.50400001928E-02 0.  1.
       -1   -1    0    0    0  501  0.00000000000E+00  0.00000000000E+00 -0.15208225136E+04  0.15208225136E+04  0.50400001928E-02 0. -1.
    10030    2    1    2    0    0  0.00000000000E+00  0.00000000000E+00  0.49067960018E+03  0.35323246274E+04  0.34980781585E+04 0.  0.
        5    1    3    3  502    0  0.11220539738E+04 -0.10139983521E+04  0.11325297988E+04  0.18894029780E+04  0.46999998093E+01 0.  1.
       -5    1    3    3    0  502 -0.11220539738E+04  0.10139983521E+04 -0.64185019860E+03  0.16429216493E+04  0.46999998093E+01 0. -1.
</event>
<event>
 5   0  0.1379425E-06  0.3590886E+04  0.7818609E-02  0.8092582E-01
       -2   -1    0    0    0  501  0.00000000000E+00  0.00000000000E+00  0.13394309410E+04  0.13394309410E+04  0.25500000920E-02 0. -1.
        2   -1    0    0  501    0  0.00000000000E+00  0.00000000000E+00 -0.24067057464E+04  0.24067057464E+04  0.25500000920E-02 0.  1.
    10030    2    1    2    0    0  0.00000000000E+00  0.00000000000E+00 -0.10672748054E+04  0.37461366875E+04  0.35908863211E+04 0.  0.
        4    1    3    3  502    0  0.14912948095E+04 -0.44042830682E+02 -0.15756791439E+04  0.21699461646E+04  0.12699999809E+01 0.  1.
       -4    1    3    3    0  502 -0.14912948095E+04  0.44042830682E+02  0.50840433857E+03  0.15761905228E+04  0.12699999809E+01 0. -1.
</event>
<event>
 5   0  0.4811500E-07  0.3517280E+04  0.7818609E-02  0.8109707E-01
        1   -1    0    0  501    0  0.00000000000E+00  0.00000000000E+00  0.17555620877E+04  0.17555620877E+04  0.50400001928E-02 0.  1.
       -1   -1    0    0    0  501  0.00000000000E+00  0.00000000000E+00 -0.17617236751E+04  0.17617236752E+04  0.50400001928E-02 0. -1.
    10030    2    1    2    0    0  0.00000000000E+00  0.00000000000E+00 -0.61615874944E+01  0.35172857628E+04  0.35172803659E+04 0.  0.
        2    1    3    3  502    0 -0.36813384054E+03 -0.13632227849E+04 -0.10513745405E+04  0.17604792843E+04  0.25500000920E-02 0. -1.
       -2    1    3    3    0  502  0.36813384054E+03  0.13632227849E+04  0.10452129530E+04  0.17568064785E+04  0.25500000920E-02 0.  1.
</event>
<event>
 5   0  0.1491854E-06  0.3614844E+04  0.7818609E-02  0.8087100E-01
        2   -1    0    0  501    0  0.00000000000E+00  0.00000000000E+00  0.95326534025E+03  0.95326534026E+03  0.25500000920E-02 0.  1.
       -2   -1    0    0    0  501  0.00000000000E+00  0.00000000000E+00 -0.34269301813E+04  0.34269301813E+04  0.25500000920E-02 0. -1.
    10030    2    1    2    0    0  0.00000000000E+00  0.00000000000E+00 -0.24736648411E+04  0.43801955216E+04  0.36148437119E+04 0.  0.
        5    1    3    3  502    0  0.43124434293E+03  0.29978262403E+03 -0.33324193009E+04  0.33735562529E+04  0.46999998093E+01 0. -1.
       -5    1    3    3    0  502 -0.43124434293E+03 -0.29978262403E+03  0.85875445979E+03  0.10066392686E+04  0.46999998093E+01 0.  1.
</event>
<event>
 5   0  0.1491854E-06  0.3509521E+04  0.7818609E-02  0.8111537E-01
        2   -1    0    0  501    0  0.00000000000E+00  0.00000000000E+00  0.26090701434E+04  0.26090701434E+04  0.25500000920E-02 0. -1.
       -2   -1    0    0    0  501  0.00000000000E+00  0.00000000000E+00 -0.11801844203E+04  0.11801844203E+04  0.25500000920E-02 0.  1.
    10030    2    1    2    0    0  0.00000000000E+00  0.00000000000E+00  0.14288857231E+04  0.37892545638E+04  0.35095207278E+04 0.  0.
        5    1    3    3  502    0  0.64907977061E+02 -0.10619480363E+04 -0.79220910379E+03  0.13264855942E+04  0.46999998093E+01 0.  1.
       -5    1    3    3    0  502 -0.64907977061E+02  0.10619480363E+04  0.22210948269E+04  0.24627689696E+04  0.46999998093E+01 0. -1.
</event>
<event>
 5   0  0.1505671E-06  0.3474967E+04  0.7818609E-02  0.8119748E-01
        2   -1    0    0  501    0  0.00000000000E+00  0.00000000000E+00  0.20469531465E+04  0.20469531465E+04  0.25500000920E-02 0. -1.
       -2   -1    0    0    0  501  0.00000000000E+00  0.00000000000E+00 -0.14748015889E+04  0.14748015889E+04  0.25500000920E-02 0.  1.
    10030    2    1    2    0    0  0.00000000000E+00  0.00000000000E+00  0.57215155758E+03  0.35217547353E+04  0.34749674834E+04 0.  0.
        3    1    3    3  502    0 -0.16027132157E+04  0.16008123307E+03 -0.37425972264E+03  0.16535978965E+04  0.10100000352E+00 0. -1.
       -3    1    3    3    0  502  0.16027132157E+04 -0.16008123307E+03  0.94641128023E+03  0.18681568389E+04  0.10100000352E+00 0.  1.
</event>
<event>
 5   0  0.1505671E-06  0.3556185E+04  0.7818609E-02  0.8100602E-01
       -2   -1    0    0    0  501  0.00000000000E+00  0.00000000000E+00  0.22392876473E+04  0.22392876473E+04  0.25500000920E-02 0.  1.
        2   -1    0    0  501    0  0.00000000000E+00  0.00000000000E+00 -0.14118833773E+04  0.14118833773E+04  0.25500000920E-02 0. -1.
    10030    2    1    2    0    0  0.00000000000E+00  0.00000000000E+00  0.82740427003E+03  0.36511710246E+04  0.35561850381E+04 0.  0.
        3    1    3    3  502    0 -0.13417260433E+04  0.79235706644E+03 -0.46565242215E+03  0.16263119887E+04  0.10100000352E+00 0. -1.
       -3    1    3    3    0  502  0.13417260433E+04 -0.79235706644E+03  0.12930566922E+04  0.20248590360E+04  0.10100000352E+00 0.  1.
</event>
<event>
 5   0  0.1468942E-06  0.3617542E+04  0.7818609E-02  0.8086485E-01
        2   -1    0    0  501    0  0.00000000000E+00  0.00000000000E+00  0.16693605798E+04  0.16693605798E+04  0.25500000920E-02 0.  1.
       -2   -1    0    0    0  501  0.00000000000E+00  0.00000000000E+00 -0.19598237245E+04  0.19598237245E+04  0.25500000920E-02 0. -1.
    10030    2    1    2    0    0  0.00000000000E+00  0.00000000000E+00 -0.29046314465E+03  0.36291843043E+04  0.36175419660E+04 0.  0.
        2    1    3    3  502    0  0.43987623104E+03 -0.16475521285E+04 -0.75027564365E+03  0.18630170843E+04  0.25500000920E-02 0. -1.
       -2    1    3    3    0  502 -0.43987623104E+03  0.16475521285E+04  0.45981249900E+03  0.17661672200E+04  0.25500000920E-02 0.  1.
</event>
<event>
 5   0  0.1491854E-06  0.3647761E+04  0.7818609E-02  0.8079638E-01
        2   -1    0    0  501    0  0.00000000000E+00  0.00000000000E+00  0.20774006233E+04  0.20774006233E+04  0.25500000920E-02 0. -1.
       -2   -1    0    0    0  501  0.00000000000E+00  0.00000000000E+00 -0.16012993933E+04  0.16012993933E+04  0.25500000920E-02 0.  1.
    10030    2    1    2    0    0  0.00000000000E+00  0.00000000000E+00  0.47610122999E+03  0.36787000167E+04  0.36477611533E+04 0.  0.
        5    1    3    3  502    0  0.58173338742E+03  0.13471593547E+04  0.13304118035E+04  0.19807245436E+04  0.46999998093E+01 0. -1.
       -5    1    3    3    0  502 -0.58173338742E+03 -0.13471593547E+04 -0.85431057348E+03  0.16979754730E+04  0.46999998093E+01 0.  1.
</event>
<event>
 5   0  0.1468942E-06  0.2426073E+04  0.7818609E-02  0.8429806E-01
       -2   -1    0    0    0  501  0.00000000000E+00  0.00000000000E+00  0.79640346186E+03  0.79640346187E+03  0.25500000920E-02 0. -1.
        2   -1    0    0  501    0  0.00000000000E+00  0.00000000000E+00 -0.18476283129E+04  0.18476283129E+04  0.25500000920E-02 0.  1.
    10030    2    1    2    0    0  0.00000000000E+00  0.00000000000E+00 -0.10512248510E+04  0.26440317748E+04  0.24260730283E+04 0.  0.
        2    1    3    3  502    0 -0.14149942902E+03 -0.58968074014E+03  0.61934860748E+03  0.86679764726E+03  0.25500000920E-02 0. -1.
       -2    1    3    3    0  502  0.14149942902E+03  0.58968074014E+03 -0.16705734585E+04  0.17772341275E+04  0.25500000920E-02 0.  1.
</event>
<event>
 5   0  0.1379425E-06  0.3503198E+04  0.7818609E-02  0.8113033E-01
        2   -1    0    0  501    0  0.00000000000E+00  0.00000000000E+00  0.28435910121E+04  0.28435910121E+04  0.25500000920E-02 0. -1.
       -2   -1    0    0    0  501  0.00000000000E+00  0.00000000000E+00 -0.10789520064E+04  0.10789520064E+04  0.25500000920E-02 0.  1.
    10030    2    1    2    0    0  0.00000000000E+00  0.00000000000E+00  0.17646390057E+04  0.39225430185E+04  0.35031975268E+04 0.  0.
        4    1    3    3  502    0 -0.15332547494E+04  0.69937505945E+03  0.34754991856E+03  0.17206940923E+04  0.12699999809E+01 0. -1.
       -4    1    3    3    0  502  0.15332547494E+04 -0.69937505945E+03  0.14170890871E+04  0.22018489263E+04  0.12699999809E+01 0.  1.
</event>
<event>
 5   0  0.1444091E-06  0.3678059E+04  0.7818609E-02  0.8072842E-01
       -2   -1    0    0    0  501  0.00000000000E+00  0.00000000000E+00  0.14978760532E+04  0.14978760532E+04  0.25500000920E-02 0. -1.
        2   -1    0    0  501    0  0.00000000000E+00  0.00000000000E+00 -0.22578831202E+04  0.22578831202E+04  0.25500000920E-02 0.  1.
    10030    2    1    2    0    0  0.00000000000E+00  0.00000000000E+00 -0.76000706697E+03  0.37557591734E+04  0.36780587579E+04 0.  0.
        1    1    3    3  502    0  0.10503146645E+04 -0.27396520217E+03 -0.18958885827E+04  0.21846307113E+04  0.50400001928E-02 0.  1.
       -1    1    3    3    0  502 -0.10503146645E+04  0.27396520217E+03  0.11358815157E+04  0.15711284621E+04  0.50400001928E-02 0. -1.
</event>
<event>
 5   0  0.5071661E-07  0.2398872E+04  0.7818609E-02  0.8439926E-01
       -1   -1    0    0    0  501  0.00000000000E+00  0.00000000000E+00  0.14623830209E+04  0.14623830209E+04  0.50400001928E-02 0. -1.
        1   -1    0    0  501    0  0.00000000000E+00  0.00000000000E+00 -0.98376894842E+03  0.98376894843E+03  0.50400001928E-02 0.  1.
    10030    2    1    2    0    0  0.00000000000E+00  0.00000000000E+00  0.47861407250E+03  0.24461519694E+04  0.23988722406E+04 0.  0.
        1    1    3    3  502    0 -0.93799231073E+03  0.30881397355E+03  0.93349710575E+03  0.13589012075E+04  0.50400001928E-02 0. -1.
       -1    1    3    3    0  502  0.93799231073E+03 -0.30881397355E+03 -0.45488303325E+03  0.10872507619E+04  0.50400001928E-02 0.  1.
</event>
<event>
 5   0  0.4811500E-07  0.3589056E+04  0.7818609E-02  0.8093003E-01
        1   -1    0    0  501    0  0.00000000000E+00  0.00000000000E+00  0.12538433970E+04  0.12538433970E+04  0.50400001928E-02 0.  1.
       -1   -1    0    0    0  501  0.00000000000E+00  0.00000000000E+00 -0.25683669607E+04  0.25683669607E+04  0.50400001928E-02 0. -1.
    10030    2    1    2    0    0  0.00000000000E+00  0.00000000000E+00 -0.13145235638E+04  0.38222103577E+04  0.35890555609E+04 0.  0.
        5    1    3    3  502    0  0.10042885851E+04  0.11763070428E+04  0.31180399132E+03  0.15778268727E+04  0.46999998093E+01 0. -1.
       -5    1    3    3    0  502 -0.10042885851E+04 -0.11763070428E+04 -0.16263275551E+04  0.22443834850E+04  0.46999998093E+01 0.  1.
</event>
<event>
 5   0  0.4811500E-07  0.3688079E+04  0.7818609E-02  0.8070609E-01
       -1   -1    0    0    0  501  0.00000000000E+00  0.00000000000E+00  0.15053916793E+04  0.15053916793E+04  0.50400001928E-02 0. -1.
        1   -1    0    0  501    0  0.00000000000E+00  0.00000000000E+00 -0.22588689974E+04  0.22588689974E+04  0.50400001928E-02 0.  1.
    10030    2    1    2    0    0  0.00000000000E+00  0.00000000000E+00 -0.75347731812E+03  0.37642606767E+04  0.36880794966E+04 0.  0.
        2    1    3    3  502    0 -0.17457085655E+04 -0.25092849210E+03  0.17291953861E+03  0.17721074095E+04  0.25500000920E-02 0. -1.
       -2    1    3    3    0  502  0.17457085655E+04  0.25092849210E+03 -0.92639685672E+03  0.19921532672E+04  0.25500000920E-02 0.  1.
</event>
<event>
 5   0  0.4811500E-07  0.2682135E+04  0.7818609E-02  0.8340825E-01
        1   -1    0    0  501    0  0.00000000000E+00  0.00000000000E+00  0.14595643312E+04  0.14595643312E+04  0.50400001928E-02 0.  1.
       -1   -1    0    0    0  501  0.00000000000E+00  0.00000000000E+00 -0.12321912830E+04  0.12321912830E+04  0.50400001928E-02 0. -1.
    10030    2    1    2    0    0  0.00000000000E+00  0.00000000000E+00  0.22737304817E+03  0.26917556142E+04  0.26821353030E+04 0.  0.
        5    1    3    3  502    0 -0.51202678370E+03  0.81700384040E+03 -0.82173695402E+03  0.12668624290E+04  0.46999998093E+01 0. -1.
       -5    1    3    3    0  502  0.51202678370E+03 -0.81700384040E+03  0.10491100022E+04  0.14248931852E+04  0.46999998093E+01 0.  1.
</event>
<event>
 5   0  0.1444091E-06  0.3821751E+04  0.7818609E-02  0.8041503E-01
       -2   -1    0    0    0  501  0.00000000000E+00  0.00000000000E+00  0.10460051652E+04  0.10460051652E+04  0.25500000920E-02 0. -1.
        2   -1    0    0  501    0  0.00000000000E+00  0.00000000000E+00 -0.34908487787E+04  0.34908487787E+04  0.25500000920E-02 0.  1.
    10030    2    1    2    0    0  0.00000000000E+00  0.00000000000E+00 -0.24448436136E+04  0.45368539439E+04  0.38217513542E+04 0.  0.
        1    1    3    3  502    0  0.86762089932E+03  0.22892115585E+03  0.78034688638E+03  0.11891644897E+04  0.50400001928E-02 0. -1.
       -1    1    3    3    0  502 -0.86762089932E+03 -0.22892115585E+03 -0.32251905000E+04  0.33476894542E+04  0.50400001928E-02 0.  1.
</event>
<event>
 5   0  0.1379425E-06  0.2576000E+04  0.7818609E-02  0.8376399E-01
       -2   -1    0    0    0  501  0.00000000000E+00  0.00000000000E+00  0.14331173220E+04  0.14331173220E+04  0.25500000920E-02 0. -1.
        2   -1    0    0  501    0  0.00000000000E+00  0.00000000000E+00 -0.11575775263E+04  0.11575775263E+04  0.25500000920E-02 0.  1.
    10030    2    1    2    0    0  0.00000000000E+00  0.00000000000E+00  0.27553979572E+03  0.25906948484E+04  0.25760003141E+04 0.  0.
        4    1    3    3  502    0  0.38227817366E+03  0.97105833379E+03 -0.62142162647E+03  0.12146017209E+04  0.12699999809E+01 0.  1.
       -4    1    3    3    0  502 -0.38227817366E+03 -0.97105833379E+03  0.89696142218E+03  0.13760931275E+04  0.12699999809E+01 0. -1.
</event>
<event>
 5   0  0.4811500E-07  0.3507903E+04  0.7818609E-02  0.8111920E-01
        1   -1    0    0  501    0  0.00000000000E+00  0.00000000000E+00  0.27461695759E+04  0.27461695759E+04  0.50400001928E-02 0.  1.
       -1   -1    0    0    0  501  0.00000000000E+00  0.00000000000E+00 -0.11202317082E+04  0.11202317082E+04  0.50400001928E-02 0. -1.
    10030    2    1    2    0    0  0.00000000000E+00  0.00000000000E+00  0.16259378677E+04  0.38664012841E+04  0.35079032113E+04 0.  0.
        4    1    3    3  502    0  0.11081191393E+04  0.89395267457E+03  0.19419897813E+04  0.24079878186E+04  0.12699999809E+01 0.  1.
       -4    1    3    3    0  502 -0.11081191393E+04 -0.89395267457E+03 -0.31605191353E+03  0.14584134655E+04  0.12699999809E+01 0. -1.
</event>
<event>
 5   0  0.4811500E-07  0.2612498E+04  0.7818609E-02  0.8363968E-01
        1   -1    0    0  501    0  0.00000000000E+00  0.00000000000E+00  0.18420422103E+04  0.18420422103E+04  0.50400001928E-02 0.  1.
       -1   -1    0    0    0  501  0.00000000000E+00  0.00000000000E+00 -0.92630140507E+03  0.92630140508E+03  0.50400001928E-02 0. -1.
    10030    2    1    2    0    0  0.00000000000E+00  0.00000000000E+00  0.91574080523E+03  0.27683436154E+04  0.26124978757E+04 0.  0.
        2    1    3    3  502    0  0.78814259467E+03 -0.96295485534E+03  0.36885643668E+02  0.12449141953E+04  0.25500000920E-02 0.  1.
       -2    1    3    3    0  502 -0.78814259467E+03  0.96295485534E+03  0.87885516156E+03  0.15234294201E+04  0.25500000920E-02 0. -1.
</event>
<event>
 5   0  0.4811500E-07  0.3485296E+04  0.7818609E-02  0.8117283E-01
        1   -1    0    0  501    0  0.00000000000E+00  0.00000000000E+00  0.16596475942E+04  0.16596475942E+04  0.50400001928E-02 0.  1.
       -1   -1    0    0    0  501  0.00000000000E+00  0.00000000000E+00 -0.18297995378E+04  0.18297995378E+04  0.50400001928E-02 0. -1.
    10030    2    1    2    0    0  0.00000000000E+00  0.00000000000E+00 -0.17015194362E+03  0.34894471319E+04  0.34852962001E+04 0.  0.
        2    1    3    3  502    0  0.12082850279E+04 -0.93153029158E+03  0.75802017766E+03  0.17036126269E+04  0.25500000920E-02 0.  1.
       -2    1    3    3    0  502 -0.12082850279E+04  0.93153029158E+03 -0.92817212127E+03  0.17858345051E+04  0.25500000920E-02 0. -1.
</event>
<event>
 5   0  0.1468942E-06  0.3558885E+04  0.7818609E-02  0.8099975E-01
        2   -1    0    0  501    0  0.00000000000E+00  0.00000000000E+00  0.99430232767E+03  0.99430232767E+03  0.25500000920E-02 0. -1.
       -2   -1    0    0    0  501  0.00000000000E+00  0.00000000000E+00 -0.31845594862E+04  0.31845594862E+04  0.25500000920E-02 0.  1.
    10030    2    1    2    0    0  0.00000000000E+00  0.00000000000E+00 -0.21902571585E+04  0.41788618139E+04  0.35588846060E+04 0.  0.
        2    1    3    3  502    0  0.15398224324E+04 -0.61766405773E+03 -0.33974575779E+03  0.16935138592E+04  0.25500000920E-02 0. -1.
       -2    1    3    3    0  502 -0.15398224324E+04  0.61766405773E+03 -0.18505114008E+04  0.24853479547E+04  0.25500000920E-02 0.  1.
</event>
<event>
 5   0  0.5071661E-07  0.3544404E+04  0.7818609E-02  0.8103347E-01
        1   -1    0    0  501    0  0.00000000000E+00  0.00000000000E+00  0.12199610380E+04  0.12199610380E+04  0.50400001928E-02 0.  1.
       -1   -1    0    0    0  501  0.00000000000E+00  0.00000000000E+00 -0.25744262926E+04  0.25744262926E+04  0.50400001928E-02 0. -1.
    10030    2    1    2    0    0  0.00000000000E+00  0.00000000000E+00 -0.13544652546E+04  0.37943873307E+04  0.35444039117E+04 0.  0.
        1    1    3    3  502    0 -0.89299014689E+03  0.11236470373E+03 -0.23115495935E+04  0.24805883883E+04  0.50400001928E-02 0. -1.
       -1    1    3    3    0  502  0.89299014689E+03 -0.11236470373E+03  0.95708433889E+03  0.13137989423E+04  0.50400001928E-02 0.  1.
</event>
<event>
 5   0  0.4811500E-07  0.3626536E+04  0.7818609E-02  0.8084440E-01
       -1   -1    0    0    0  501  0.00000000000E+00  0.00000000000E+00  0.19149512443E+04  0.19149512443E+04  0.50400001928E-02 0.  1.
        1   -1    0    0  501    0  0.00000000000E+00  0.00000000000E+00 -0.17169841870E+04  0.17169841870E+04  0.50400001928E-02 0. -1.
    10030    2    1    2    0    0  0.00000000000E+00  0.00000000000E+00  0.19796705735E+03  0.36319354313E+04  0.36265360913E+04 0.  0.
        2    1    3    3  502    0  0.39254830368E+03  0.12487276882E+04  0.13556529073E+04  0.18844653924E+04  0.25500000920E-02 0.  1.
       -2    1    3    3    0  502 -0.39254830368E+03 -0.12487276882E+04 -0.11576858500E+04  0.17474700390E+04  0.25500000920E-02 0. -1.
</event>
<event>
 5   0  0.4811500E-07  0.3138121E+04  0.7818609E-02  0.8205353E-01
        1   -1    0    0  501    0  0.00000000000E+00  0.00000000000E+00  0.19309739285E+04  0.19309739285E+04  0.50400001928E-02 0.  1.
       -1   -1    0    0    0  501  0.00000000000E+00  0.00000000000E+00 -0.12749787091E+04  0.12749787091E+04  0.50400001928E-02 0. -1.
    10030    2    1    2    0    0  0.00000000000E+00  0.00000000000E+00  0.65599521942E+03  0.32059526376E+04  0.31381208687E+04 0.  0.
        3    1    3    3  502    0  0.79243593558E+03  0.97993898766E+03  0.12829296309E+04  0.17983724807E+04  0.10100000352E+00 0.  1.
       -3    1    3    3    0  502 -0.79243593558E+03 -0.97993898766E+03 -0.62693441143E+03  0.14075801569E+04  0.10100000352E+00 0. -1.
</event>
<event>
 5   0  0.4811500E-07  0.3440297E+04  0.7818609E-02  0.8128086E-01
       -1   -1    0    0    0  501  0.00000000000E+00  0.00000000000E+00  0.23646100737E+04  0.23646100737E+04  0.50400001928E-02 0.  1.
        1   -1    0    0  501    0  0.00000000000E+00  0.00000000000E+00 -0.12513313095E+04  0.12513313095E+04  0.50400001928E-02 0. -1.
    10030    2    1    2    0    0  0.00000000000E+00  0.00000000000E+00  0.11132787641E+04  0.36159413832E+04  0.34402968593E+04 0.  0.
        4    1    3    3  502    0  0.14257163782E+04  0.82146527936E+03  0.29604063520E+02  0.16457066597E+04  0.12699999809E+01 0. -1.
       -4    1    3    3    0  502 -0.14257163782E+04 -0.82146527936E+03  0.10836747006E+04  0.19702347235E+04  0.12699999809E+01 0.  1.
</event>
<event>
 5   0  0.1379425E-06  0.3029207E+04  0.7818609E-02  0.8235440E-01
        2   -1    0    0  501    0  0.00000000000E+00  0.00000000000E+00  0.19746879472E+04  0.19746879472E+04  0.25500000920E-02 0.  1.
       -2   -1    0    0    0  501  0.00000000000E+00  0.00000000000E+00 -0.11617142489E+04  0.11617142489E+04  0.25500000920E-02 0. -1.
    10030    2    1    2    0    0  0.00000000000E+00  0.00000000000E+00  0.81297369823E+03  0.31364021961E+04  0.30292065796E+04 0.  0.
        4    1    3    3  502    0 -0.63929502490E+03  0.93086386943E+02 -0.10119024977E+04  0.12005463265E+04  0.12699999809E+01 0. -1.
       -4    1    3    3    0  502  0.63929502490E+03 -0.93086386943E+02  0.18248761960E+04  0.19358558696E+04  0.12699999809E+01 0.  1.
</event>
<event>
 5   0  0.1468942E-06  0.3646755E+04  0.7818609E-02  0.8079865E-01
       -2   -1    0    0    0  501  0.00000000000E+00  0.00000000000E+00  0.26312870200E+04  0.26312870200E+04  0.25500000920E-02 0.  1.
        2   -1    0    0  501    0  0.00000000000E+00  0.00000000000E+00 -0.12635281688E+04  0.12635281688E+04  0.25500000920E-02 0. -1.
    10030    2    1    2    0    0  0.00000000000E+00  0.00000000000E+00  0.13677588512E+04  0.38948151889E+04  0.36467548698E+04 0.  0.
        2    1    3    3  502    0  0.17975247482E+04  0.19545710477E+03  0.43248194832E+03  0.18591232708E+04  0.25500000920E-02 0. -1.
       -2    1    3    3    0  502 -0.17975247482E+04 -0.19545710477E+03  0.93527690292E+03  0.20356919181E+04  0.25500000920E-02 0.  1.
</event>
<event>
 5   0  0.1491854E-06  0.3576629E+04  0.7818609E-02  0.8095866E-01
        2   -1    0    0  501    0  0.00000000000E+00  0.00000000000E+00  0.17417244274E+04  0.17417244274E+04  0.25500000920E-02 0. -1.
       -2   -1    0    0    0  501  0.00000000000E+00  0.00000000000E+00 -0.18361509578E+04  0.18361509578E+04  0.25500000920E-02 0.  1.
    10030    2    1    2    0    0  0.00000000000E+00  0.00000000000E+00 -0.94426530426E+02  0.35778753851E+04  0.35766291256E+04 0.  0.
        5    1    3    3  502    0 -0.23339009943E+03 -0.11388979260E+04 -0.14065419543E+04  0.18248128078E+04  0.46999998093E+01 0.  1.
       -5    1    3    3    0  502  0.23339009943E+03  0.11388979260E+04  0.13121154239E+04  0.17530625773E+04  0.46999998093E+01 0. -1.
</event>
<event>
 5   0  0.1505671E-06  0.3608540E+04  0.7818609E-02  0.8088538E-01
        2   -1    0    0  501    0  0.00000000000E+00  0.00000000000E+00  0.14292681324E+04  0.14292681324E+04  0.25500000920E-02 0.  1.
       -2   -1    0    0    0  501  0.00000000000E+00  0.00000000000E+00 -0.22776623418E+04  0.22776623418E+04  0.25500000920E-02 0. -1.
    10030    2    1    2    0    0  0.00000000000E+00  0.00000000000E+00 -0.84839420948E+03  0.37069304742E+04  0.36085399826E+04 0.  0.
        3    1    3    3  502    0 -0.15493766258E+04  0.92407763985E+03 -0.45506261573E+03  0.18605293353E+04  0.10100000352E+00 0.  1.
       -3    1    3    3    0  502  0.15493766258E+04 -0.92407763985E+03 -0.39333159375E+03  0.18464011389E+04  0.10100000352E+00 0. -1.
</event>
<event>
 5   0  0.1444091E-06  0.3526488E+04  0.7818609E-02  0.8107541E-01
       -2   -1    0    0    0  501  0.00000000000E+00  0.00000000000E+00  0.12795698318E+04  0.12795698318E+04  0.25500000920E-02 0.  1.
        2   -1    0    0  501    0  0.00000000000E+00  0.00000000000E+00 -0.24297461840E+04  0.24297461840E+04  0.25500000920E-02 0. -1.
    10030    2    1    2    0    0  0.00000000000E+00  0.00000000000E+00 -0.11501763522E+04  0.37093160157E+04  0.35264882906E+04 0.  0.
        1    1    3    3  502    0 -0.79466491660E+03  0.11380724531E+04 -0.17188102429E+04  0.22093007693E+04  0.50400001928E-02 0. -1.
       -1    1    3    3    0  502  0.79466491660E+03 -0.11380724531E+04  0.56863389064E+03  0.15000152465E+04  0.50400001928E-02 0.  1.
</event>
<event>
 5   0  0.4811500E-07  0.3400794E+04  0.7818609E-02  0.8137711E-01
        1   -1    0    0  501    0  0.00000000000E+00  0.00000000000E+00  0.20408352495E+04  0.20408352495E+04  0.50400001928E-02 0. -1.
       -1   -1    0    0    0  501  0.00000000000E+00  0.00000000000E+00 -0.14167485953E+04  0.14167485954E+04  0.50400001928E-02 0.  1.
    10030    2    1    2    0    0  0.00000000000E+00  0.00000000000E+00  0.62408665412E+03  0.34575838448E+04  0.34007943031E+04 0.  0.
        3    1    3    3  502    0 -0.14297142826E+04  0.14048701337E+03 -0.61283472601E+03  0.15618533678E+04  0.10100000352E+00 0.  1.
       -3    1    3    3    0  502  0.14297142826E+04 -0.14048701337E+03  0.12369213801E+04  0.18957304771E+04  0.10100000352E+00 0. -1.
</event>
<event>
 5   0  0.4811500E-07  0.3606215E+04  0.7818609E-02  0.8089070E-01
       -1   -1    0    0    0  501  0.00000000000E+00  0.00000000000E+00  0.17630527361E+04  0.17630527361E+04  0.50400001928E-02 0.  1.
        1   -1    0    0  501    0  0.00000000000E+00  0.00000000000E+00 -0.18440722994E+04  0.18440722994E+04  0.50400001928E-02 0. -1.
    10030    2    1    2    0    0  0.00000000000E+00  0.00000000000E+00 -0.81019563282E+02  0.36071250356E+04  0.36062150314E+04 0.  0.
        3    1    3    3  502    0 -0.25865859920E+03 -0.17445342594E+04 -0.41596119705E+03  0.18119955245E+04  0.10100000352E+00 0. -1.
       -3    1    3    3    0  502  0.25865859920E+03  0.17445342594E+04  0.33494163377E+03  0.17951295110E+04  0.10100000352E+00 0.  1.
</event>
<event>
 5   0  0.1505671E-06  0.3652908E+04  0.7818609E-02  0.8078479E-01
       -2   -1    0    0    0  501  0.00000000000E+00  0.00000000000E+00  0.20459906101E+04  0.20459906101E+04  0.25500000920E-02 0.  1.
        2   -1    0    0  501    0  0.00000000000E+00  0.00000000000E+00 -0.16304734494E+04  0.16304734494E+04  0.25500000920E-02 0. -1.
    10030    2    1    2    0    0  0.00000000000E+00  0.00000000000E+00  0.41551716070E+03  0.36764640596E+04  0.36529075365E+04 0.  0.
        3    1    3    3  502    0  0.98977376877E+03  0.90555971069E+03 -0.10396869272E+04  0.16972446552E+04  0.10100000352E+00 0. -1.
       -3    1    3    3    0  502 -0.98977376877E+03 -0.90555971069E+03  0.14552040879E+04  0.19792194043E+04  0.10100000352E+00 0.  1.
</event>
<event>
 5   0  0.4811500E-07  0.3734304E+04  0.7818609E-02  0.8060402E-01
        1   -1    0    0  501    0  0.00000000000E+00  0.00000000000E+00  0.23407359899E+04  0.23407359899E+04  0.50400001928E-02 0.  1.
       -1   -1    0    0    0  501  0.00000000000E+00  0.00000000000E+00 -0.14893849905E+04  0.14893849905E+04  0.50400001928E-02 0. -1.
    10030    2    1    2    0    0  0.00000000000E+00  0.00000000000E+00  0.85135099941E+03  0.38301209804E+04  0.37343042458E+04 0.  0.
        4    1    3    3  502    0 -0.14502534592E+04 -0.50494667870E+03 -0.66367293369E+03  0.16729224788E+04  0.12699999809E+01 0. -1.
       -4    1    3    3    0  502  0.14502534592E+04  0.50494667870E+03  0.15150239331E+04  0.21571985016E+04  0.12699999809E+01 0.  1.
</event>
<event>
 5   0  0.1444091E-06  0.3624586E+04  0.7818609E-02  0.8084883E-01
        2   -1    0    0  501    0  0.00000000000E+00  0.00000000000E+00  0.26574098431E+04  0.26574098431E+04  0.25500000920E-02 0. -1.
       -2   -1    0    0    0  501  0.00000000000E+00  0.00000000000E+00 -0.12359427564E+04  0.12359427564E+04  0.25500000920E-02 0.  1.
    10030    2    1    2    0    0  0.00000000000E+00  0.00000000000E+00  0.14214670867E+04  0.38933525995E+04  0.36245862916E+04 0.  0.
        1    1    3    3  502    0  0.63017504912E+03 -0.57072592798E+03  0.24298977912E+04  0.25743449561E+04  0.50400001928E-02 0. -1.
       -1    1    3    3    0  502 -0.63017504912E+03  0.57072592798E+03 -0.10084307045E+04  0.13190076433E+04  0.50400001928E-02 0.  1.
</event>
<event>
 5   0  0.1505671E-06  0.3632914E+04  0.7818609E-02  0.8082994E-01
       -2   -1    0    0    0  501  0.00000000000E+00  0.00000000000E+00  0.12928742314E+04  0.12928742314E+04  0.25500000920E-02 0. -1.
        2   -1    0    0  501    0  0.00000000000E+00  0.00000000000E+00 -0.25520783118E+04  0.25520783118E+04  0.25500000920E-02 0.  1.
    10030    2    1    2    0    0  0.00000000000E+00  0.00000000000E+00 -0.12592040804E+04  0.38449525432E+04  0.36329141393E+04 0.  0.
        3    1    3    3  502    0  0.38147449503E+03  0.16291433563E+04  0.11868992263E+03  0.16774141330E+04  0.10100000352E+00 0. -1.
       -3    1    3    3    0  502 -0.38147449503E+03 -0.16291433563E+04 -0.13778940030E+04  0.21675384102E+04  0.10100000352E+00 0.  1.
</event>
<event>
 5   0  0.5071661E-07  0.3592783E+04  0.7818609E-02  0.8092147E-01
        1   -1    0    0  501    0  0.00000000000E+00  0.00000000000E+00  0.17289340927E+04  0.17289340927E+04  0.50400001928E-02 0.  1.
       -1   -1    0    0    0  501  0.00000000000E+00  0.00000000000E+00 -0.18664805098E+04  0.18664805098E+04  0.50400001928E-02 0. -1.
    10030    2    1    2    0    0  0.00000000000E+00  0.00000000000E+00 -0.13754641711E+03  0.35954146024E+04  0.35927826467E+04 0.  0.
        1    1    3    3  502    0  0.17892898986E+03  0.17377244094E+04  0.35024593410E+03  0.17816772774E+04  0.50400001928E-02 0.  1.
       -1    1    3    3    0  502 -0.17892898986E+03 -0.17377244094E+04 -0.48779235121E+03  0.18137373250E+04  0.50400001928E-02 0. -1.
</event>
<event>
 5   0  0.1505671E-06  0.2921496E+04  0.7818609E-02  0.8266510E-01
       -2   -1    0    0    0  501  0.00000000000E+00  0.00000000000E+00  0.15728786968E+04  0.15728786968E+04  0.25500000920E-02 0.  1.
        2   -1    0    0  501    0  0.00000000000E+00  0.00000000000E+00 -0.13566109029E+04  0.13566109029E+04  0.25500000920E-02 0. -1.
    10030    2    1    2    0    0  0.00000000000E+00  0.00000000000E+00  0.21626779392E+03  0.29294895996E+04  0.29214957737E+04 0.  0.
        3    1    3    3  502    0  0.12002876887E+04  0.29497630685E+03  0.88877728470E+03  0.15223753247E+04  0.10100000352E+00 0.  1.
       -3    1    3    3    0  502 -0.12002876887E+04 -0.29497630685E+03 -0.67250949078E+03  0.14071142749E+04  0.10100000352E+00 0. -1.
</event>
<event>
 5   0  0.1444091E-06  0.3004566E+04  0.7818609E-02  0.8242428E-01
       -2   -1    0    0    0  501  0.00000000000E+00  0.00000000000E+00  0.92552131817E+03  0.92552131817E+03  0.25500000920E-02 0. -1.
        2   -1    0    0  501    0  0.00000000000E+00  0.00000000000E+00 -0.24384676270E+04  0.24384676270E+04  0.25500000920E-02 0.  1.
    10030    2    1    2    0    0  0.00000000000E+00  0.00000000000E+00 -0.15129463088E+04  0.33639889451E+04  0.30045657073E+04 0.  0.
        1    1    3    3  502    0 -0.86838845018E+03  0.15760545577E+03  0.60465086751E+03  0.10698320671E+04  0.50400001928E-02 0. -1.
       -1    1    3    3    0  502  0.86838845018E+03 -0.15760545577E+03 -0.21175971763E+04  0.22941568781E+04  0.50400001928E-02 0.  1.
</event>
<event>
 5   0  0.4811500E-07  0.3543129E+04  0.7818609E-02  0.8103644E-01
        1   -1    0    0  501    0  0.00000000000E+00  0.00000000000E+00  0.18157557447E+04  0.18157557447E+04  0.50400001928E-02 0.  1.
       -1   -1    0    0    0  501  0.00000000000E+00  0.00000000000E+00 -0.17284483414E+04  0.17284483414E+04  0.50400001928E-02 0. -1.
    10030    2    1    2    0    0  0.00000000000E+00  0.00000000000E+00  0.87307403260E+02  0.35442040861E+04  0.35431285640E+04 0.  0.
        2    1    3    3  502    0 -0.12238970120E+04  0.11994428268E+04  0.49307063370E+03  0.17831729138E+04  0.25500000920E-02 0.  1.
       -2    1    3    3    0  502  0.12238970120E+04 -0.11994428268E+04 -0.40576323044E+03  0.17610311723E+04  0.25500000920E-02 0. -1.
</event>
<event>
 5   0  0.1379425E-06  0.3475992E+04  0.7818609E-02  0.8119503E-01
       -2   -1    0    0    0  501  0.00000000000E+00  0.00000000000E+00  0.13434873290E+04  0.13434873290E+04  0.25500000920E-02 0. -1.
        2   -1    0    0  501    0  0.00000000000E+00  0.00000000000E+00 -0.22483506900E+04  0.22483506900E+04  0.25500000920E-02 0.  1.
    10030    2    1    2    0    0  0.00000000000E+00  0.00000000000E+00 -0.90486336099E+03  0.35918380190E+04  0.34759923263E+04 0.  0.
        4    1    3    3  502    0  0.12650135103E+04 -0.83360484623E+02 -0.16809275150E+04  0.21054042546E+04  0.12699999809E+01 0.  1.
       -4    1    3    3    0  502 -0.12650135103E+04  0.83360484623E+02  0.77606415405E+03  0.14864337644E+04  0.12699999809E+01 0. -1.
</event>
<event>
 5   0  0.1468942E-06  0.2668462E+04  0.7818609E-02  0.8345311E-01
       -2   -1    0    0    0  501  0.00000000000E+00  0.00000000000E+00  0.11499184224E+04  0.11499184224E+04  0.25500000920E-02 0.  1.
        2   -1    0    0  501    0  0.00000000000E+00  0.00000000000E+00 -0.15480855794E+04  0.15480855794E+04  0.25500000920E-02 0. -1.
    10030    2    1    2    0    0  0.00000000000E+00  0.00000000000E+00 -0.39816715709E+03  0.26980040018E+04  0.26684618245E+04 0.  0.
        2    1    3    3  502    0 -0.52526231901E+03 -0.85727480336E+03 -0.10859209942E+04  0.14798800620E+04  0.25500000920E-02 0. -1.
       -2    1    3    3    0  502  0.52526231901E+03  0.85727480336E+03  0.68775383712E+03  0.12181239398E+04  0.25500000920E-02 0.  1.
</event>
<event>
 5   0  0.4811500E-07  0.3634652E+04  0.7818609E-02  0.8082600E-01
        1   -1    0    0  501    0  0.00000000000E+00  0.00000000000E+00  0.30425267599E+04  0.30425267599E+04  0.50400001928E-02 0. -1.
       -1   -1    0    0    0  501  0.00000000000E+00  0.00000000000E+00 -0.10855034359E+04  0.10855034360E+04  0.50400001928E-02 0.  1.
    10030    2    1    2    0    0  0.00000000000E+00  0.00000000000E+00  0.19570233239E+04  0.41280301958E+04  0.36346517037E+04 0.  0.
        3    1    3    3  502    0 -0.74800859780E+02 -0.16840009430E+03  0.30318895969E+04  0.30374838762E+04  0.10100000352E+00 0. -1.
       -3    1    3    3    0  502  0.74800859780E+02  0.16840009430E+03 -0.10748662729E+04  0.10905463196E+04  0.10100000352E+00 0.  1.
</event>
<event>
 5   0  0.4811500E-07  0.3610585E+04  0.7818609E-02  0.8088071E-01
       -1   -1    0    0    0  501  0.00000000000E+00  0.00000000000E+00  0.18480332013E+04  0.18480332013E+04  0.50400001928E-02 0.  1.
        1   -1    0    0  501    0  0.00000000000E+00  0.00000000000E+00 -0.17635405442E+04  0.17635405442E+04  0.50400001928E-02 0. -1.
    10030    2    1    2    0    0  0.00000000000E+00  0.00000000000E+00  0.84492657042E+02  0.36115737455E+04  0.36105852587E+04 0.  0.
        4    1    3    3  502    0  0.14537381182E+04 -0.71851671795E+03  0.83584810609E+03  0.18243531620E+04  0.12699999809E+01 0.  1.
       -4    1    3    3    0  502 -0.14537381182E+04  0.71851671795E+03 -0.75135544905E+03  0.17872205835E+04  0.12699999809E+01 0. -1.
</event>
<event>
 5   0  0.4811500E-07  0.3434920E+04  0.7818609E-02  0.8129389E-01
        1   -1    0    0  501    0  0.00000000000E+00  0.00000000000E+00  0.10754009913E+04  0.10754009913E+04  0.50400001928E-02 0. -1.
       -1   -1    0    0    0  501  0.00000000000E+00  0.00000000000E+00 -0.27428547777E+04  0.27428547777E+04  0.50400001928E-02 0.  1.
    10030    2    1    2    0    0  0.00000000000E+00  0.00000000000E+00 -0.16674537864E+04  0.38182557690E+04  0.34349199391E+04 0.  0.
        5    1    3    3  502    0  0.16409131671E+04 -0.48235644282E+03 -0.66015034437E+03  0.18333260286E+04  0.46999998093E+01 0.  1.
       -5    1    3    3    0  502 -0.16409131671E+04  0.48235644282E+03 -0.10073034420E+04  0.19849297404E+04  0.46999998093E+01 0. -1.
</event>
<event>
 5   0  0.4811500E-07  0.3625390E+04  0.7818609E-02  0.8084700E-01
       -1   -1    0    0    0  501  0.00000000000E+00  0.00000000000E+00  0.17877464605E+04  0.17877464605E+04  0.50400001928E-02 0. -1.
        1   -1    0    0  501    0  0.00000000000E+00  0.00000000000E+00 -0.18379915533E+04  0.18379915533E+04  0.50400001928E-02 0.  1.
    10030    2    1    2    0    0  0.00000000000E+00  0.00000000000E+00 -0.50245092822E+02  0.36257380138E+04  0.36253898515E+04 0.  0.
        4    1    3    3  502    0 -0.13407642136E+03  0.17768160755E+04 -0.35803501586E+03  0.18174824726E+04  0.12699999809E+01 0.  1.
       -4    1    3    3    0  502  0.13407642136E+03 -0.17768160755E+04  0.30778992304E+03  0.18082555412E+04  0.12699999809E+01 0. -1.
</event>
<event>
 5   0  0.5071661E-07  0.3562773E+04  0.7818609E-02  0.8099073E-01
        1   -1    0    0  501    0  0.00000000000E+00  0.00000000000E+00  0.13836172318E+04  0.13836172318E+04  0.50400001928E-02 0. -1.
       -1   -1    0    0    0  501  0.00000000000E+00  0.00000000000E+00 -0.22935086286E+04  0.22935086286E+04  0.50400001928E-02 0.  1.
    10030    2    1    2    0    0  0.00000000000E+00  0.00000000000E+00 -0.90989139674E+03  0.36771258604E+04  0.35627731109E+04 0.  0.
        1    1    3    3  502    0 -0.40533540660E+03  0.99761009166E+03  0.10096918208E+04  0.14761437124E+04  0.50400001928E-02 0. -1.
       -1    1    3    3    0  502  0.40533540660E+03 -0.99761009166E+03 -0.19195832175E+04  0.22009821480E+04  0.50400001928E-02 0.  1.
</event>
<event>
 5   0  0.1491854E-06  0.2758888E+04  0.7818609E-02  0.8316147E-01
       -2   -1    0    0    0  501  0.00000000000E+00  0.00000000000E+00  0.58528943096E+03  0.58528943097E+03  0.25500000920E-02 0.  1.
        2   -1    0    0  501    0  0.00000000000E+00  0.00000000000E+00 -0.32511544419E+04  0.32511544419E+04  0.25500000920E-02 0. -1.
    10030    2    1    2    0    0  0.00000000000E+00  0.00000000000E+00 -0.26658650110E+04  0.38364438729E+04  0.27588884235E+04 0.  0.
        5    1    3    3  502    0 -0.43171737605E+03  0.11054579266E+04 -0.35514191063E+03  0.12387755999E+04  0.46999998093E+01 0.  1.
       -5    1    3    3    0  502  0.43171737605E+03 -0.11054579266E+04 -0.23107231003E+04  0.25976682730E+04  0.46999998093E+01 0. -1.
</event>
<event>
 5   0  0.4811500E-07  0.3592344E+04  0.7818609E-02  0.8092248E-01
       -1   -1    0    0    0  501  0.00000000000E+00  0.00000000000E+00  0.24815666868E+04  0.24815666868E+04  0.50400001928E-02 0. -1.
        1   -1    0    0  501    0  0.00000000000E+00  0.00000000000E+00 -0.13000797985E+04  0.13000797985E+04  0.50400001928E-02 0.  1.
    10030    2    1    2    0    0  0.00000000000E+00  0.00000000000E+00  0.11814868884E+04  0.37816464853E+04  0.35923444813E+04 0.  0.
        4    1    3    3  502    0  0.17341453963E+04 -0.15151977925E+03  0.10568091729E+04  0.20364345656E+04  0.12699999809E+01 0. -1.
       -4    1    3    3    0  502 -0.17341453963E+04  0.15151977925E+03  0.12467771551E+03  0.17452119197E+04  0.12699999809E+01 0.  1.
</event>
<event>
 5   0  0.1491854E-06  0.3181040E+04  0.7818609E-02  0.8193842E-01
       -2   -1    0    0    0  501  0.00000000000E+00  0.00000000000E+00  0.77585203308E+03  0.77585203308E+03  0.25500000920E-02 0.  1.
        2   -1    0    0  501    0  0.00000000000E+00  0.00000000000E+00 -0.32606142329E+04  0.32606142329E+04  0.25500000920E-02 0. -1.
    10030    2    1    2    0    0  0.00000000000E+00  0.00000000000E+00 -0.24847621998E+04  0.40364662660E+04  0.31810401957E+04 0.  0.
        5    1    3    3  502    0  0.14868797571E+04  0.54556473249E+03 -0.10572770320E+04  0.19042870325E+04  0.46999998093E+01 0.  1.
       -5    1    3    3    0  502 -0.14868797571E+04 -0.54556473249E+03 -0.14274851678E+04  0.21321792335E+04  0.46999998093E+01 0. -1.
</event>
<event>
 5   0  0.1505671E-06  0.3554414E+04  0.7818609E-02  0.8101014E-01
        2   -1    0    0  501    0  0.00000000000E+00  0.00000000000E+00  0.20811499115E+04  0.20811499115E+04  0.25500000920E-02 0.  1.
       -2   -1    0    0    0  501  0.00000000000E+00  0.00000000000E+00 -0.15176538316E+04  0.15176538316E+04  0.25500000920E-02 0. -1.
    10030    2    1    2    0    0  0.00000000000E+00  0.00000000000E+00  0.56349607987E+03  0.35988037431E+04  0.35544142344E+04 0.  0.
        3    1    3    3  502    0  0.80956227254E+03 -0.14705363674E+04 -0.30914712357E+03  0.17068802638E+04  0.10100000352E+00 0. -1.
       -3    1    3    3    0  502 -0.80956227254E+03  0.14705363674E+04  0.87264320344E+03  0.18919234793E+04  0.10100000352E+00 0.  1.
</event>
<event>
 5   0  0.1505671E-06  0.2895136E+04  0.7818609E-02  0.8274326E-01
       -2   -1    0    0    0  501  0.00000000000E+00  0.00000000000E+00  0.92251569737E+03  0.92251569737E+03  0.25500000920E-02 0.  1.
        2   -1    0    0  501    0  0.00000000000E+00  0.00000000000E+00 -0.22714552048E+04  0.22714552048E+04  0.25500000920E-02 0. -1.
    10030    2    1    2    0    0  0.00000000000E+00  0.00000000000E+00 -0.13489395075E+04  0.31939709022E+04  0.28951359777E+04 0.  0.
        3    1    3    3  502    0 -0.26742269997E+03  0.54555870346E+03 -0.21239777363E+04  0.22091696706E+04  0.10100000352E+00 0. -1.
       -3    1    3    3    0  502  0.26742269997E+03 -0.54555870346E+03  0.77503822880E+03  0.98480123156E+03  0.10100000352E+00 0.  1.
</event>
<event>
 5   0  0.4811500E-07  0.3656545E+04  0.7818609E-02  0.8077661E-01
        1   -1    0    0  501    0  0.00000000000E+00  0.00000000000E+00  0.17931994397E+04  0.17931994397E+04  0.50400001928E-02 0. -1.
       -1   -1    0    0    0  501  0.00000000000E+00  0.00000000000E+00 -0.18640313417E+04  0.18640313417E+04  0.50400001928E-02 0.  1.
    10030    2    1    2    0    0  0.00000000000E+00  0.00000000000E+00 -0.70831901985E+02  0.36572307813E+04  0.36565447939E+04 0.  0.
        5    1    3    3  502    0 -0.21845909647E+02  0.64923594693E+03  0.16738731533E+04  0.17955105073E+04  0.46999998093E+01 0. -1.
       -5    1    3    3    0  502  0.21845909647E+02 -0.64923594693E+03 -0.17447050553E+04  0.18617202740E+04  0.46999998093E+01 0.  1.
</event>
<event>
 5   0  0.1491854E-06  0.2238153E+04  0.7818609E-02  0.8502714E-01
        2   -1    0    0  501    0  0.00000000000E+00  0.00000000000E+00  0.12308817784E+04  0.12308817784E+04  0.25500000920E-02 0.  1.
       -2   -1    0    0    0  501  0.00000000000E+00  0.00000000000E+00 -0.10174272192E+04  0.10174272192E+04  0.25500000920E-02 0. -1.
    10030    2    1    2    0    0  0.00000000000E+00  0.00000000000E+00  0.21345455923E+03  0.22483089976E+04  0.22381533683E+04 0.  0.
        5    1    3    3  502    0  0.26241237103E+03 -0.68927661852E+03  0.95218033773E+03  0.12044218509E+04  0.46999998093E+01 0.  1.
       -5    1    3    3    0  502 -0.26241237103E+03  0.68927661852E+03 -0.73872577850E+03  0.10438871467E+04  0.46999998093E+01 0. -1.
</event>
<event>
 5   0  0.1505671E-06  0.2392332E+04  0.7818609E-02  0.8442380E-01
        2   -1    0    0  501    0  0.00000000000E+00  0.00000000000E+00  0.10558722759E+04  0.10558722759E+04  0.25500000920E-02 0.  1.
       -2   -1    0    0    0  501  0.00000000000E+00  0.00000000000E+00 -0.13551001489E+04  0.13551001490E+04  0.25500000920E-02 0. -1.
    10030    2    1    2    0    0  0.00000000000E+00  0.00000000000E+00 -0.29922787301E+03  0.24109724249E+04  0.23923316479E+04 0.  0.
        3    1    3    3  502    0 -0.51206240193E+03 -0.92066560995E+03 -0.72057904969E+03  0.12763491865E+04  0.10100000352E+00 0. -1.
       -3    1    3    3    0  502  0.51206240193E+03  0.92066560995E+03  0.42135117668E+03  0.11346232384E+04  0.10100000352E+00 0.  1.
</event>
<event>
 5   0  0.4811500E-07  0.2657192E+04  0.7818609E-02  0.8349030E-01
        1   -1    0    0  501    0  0.00000000000E+00  0.00000000000E+00  0.20360020907E+04  0.20360020907E+04  0.50400001928E-02 0.  1.
       -1   -1    0    0    0  501  0.00000000000E+00  0.00000000000E+00 -0.86697726994E+03  0.86697726996E+03  0.50400001928E-02 0. -1.
    10030    2    1    2    0    0  0.00000000000E+00  0.00000000000E+00  0.11690248207E+04  0.29029793607E+04  0.26571921528E+04 0.  0.
        3    1    3    3  502    0 -0.10977979187E+04  0.70391460502E+03  0.86199740216E+03  0.15632324117E+04  0.10100000352E+00 0. -1.
       -3    1    3    3    0  502  0.10977979187E+04 -0.70391460502E+03  0.30702741858E+03  0.13397469490E+04  0.10100000352E+00 0.  1.
</event>
<event>
 5   0  0.4811500E-07  0.3504001E+04  0.7818609E-02  0.8112842E-01
        1   -1    0    0  501    0  0.00000000000E+00  0.00000000000E+00  0.13990073247E+04  0.13990073247E+04  0.50400001928E-02 0. -1.
       -1   -1    0    0    0  501  0.00000000000E+00  0.00000000000E+00 -0.21940603643E+04  0.21940603643E+04  0.50400001928E-02 0.  1.
    10030    2    1    2    0    0  0.00000000000E+00  0.00000000000E+00 -0.79505303967E+03  0.35930676890E+04  0.35040014386E+04 0.  0.
        3    1    3    3  502    0  0.15496235406E+04 -0.24951115281E+03  0.40066645066E+03  0.16199143643E+04  0.10100000352E+00 0. -1.
       -3    1    3    3    0  502 -0.15496235406E+04  0.24951115281E+03 -0.11957194903E+04  0.19731533247E+04  0.10100000352E+00 0.  1.
</event>
<event>
 5   0  0.4811500E-07  0.3604289E+04  0.7818609E-02  0.8089510E-01
        1   -1    0    0  501    0  0.00000000000E+00  0.00000000000E+00  0.24524473258E+04  0.24524473258E+04  0.50400001928E-02 0. -1.
       -1   -1    0    0    0  501  0.00000000000E+00  0.00000000000E+00 -0.13242793551E+04  0.13242793552E+04  0.50400001928E-02 0.  1.
    10030    2    1    2    0    0  0.00000000000E+00  0.00000000000E+00  0.11281679706E+04  0.37767266809E+04  0.36042893131E+04 0.  0.
        4    1    3    3  502    0 -0.10108410211E+04  0.11782668585E+04 -0.39491290641E+03  0.16018958069E+04  0.12699999809E+01 0.  1.
       -4    1    3    3    0  502  0.10108410211E+04 -0.11782668585E+04  0.15230808770E+04  0.21748308740E+04  0.12699999809E+01 0. -1.
</event>
<event>
 5   0  0.1444091E-06  0.3051574E+04  0.7818609E-02  0.8229155E-01
        2   -1    0    0  501    0  0.00000000000E+00  0.00000000000E+00  0.20090591765E+04  0.20090591765E+04  0.25500000920E-02 0. -1.
       -2   -1    0    0    0  501  0.00000000000E+00  0.00000000000E+00 -0.11587645087E+04  0.11587645087E+04  0.25500000920E-02 0.  1.
    10030    2    1    2    0    0  0.00000000000E+00  0.00000000000E+00  0.85029466780E+03  0.31678236852E+04  0.30515743278E+04 0.  0.
        1    1    3    3  502    0  0.26861108812E+03  0.14985119450E+04  0.53068898386E+03  0.16122409136E+04  0.50400001928E-02 0. -1.
       -1    1    3    3    0  502 -0.26861108812E+03 -0.14985119450E+04  0.31960568395E+03  0.15555827716E+04  0.50400001928E-02 0.  1.
</event>
<event>
 5   0  0.1491854E-06  0.3647651E+04  0.7818609E-02  0.8079663E-01
        2   -1    0    0  501    0  0.00000000000E+00  0.00000000000E+00  0.19449342127E+04  0.19449342127E+04  0.25500000920E-02 0.  1.
       -2   -1    0    0    0  501  0.00000000000E+00  0.00000000000E+00 -0.17102576129E+04  0.17102576129E+04  0.25500000920E-02 0. -1.
    10030    2    1    2    0    0  0.00000000000E+00  0.00000000000E+00  0.23467659982E+03  0.36551918256E+04  0.36476505007E+04 0.  0.
        5    1    3    3  502    0 -0.17702608755E+03 -0.84043893584E+03 -0.14949133658E+04  0.17240834962E+04  0.46999998093E+01 0. -1.
       -5    1    3    3    0  502  0.17702608755E+03  0.84043893584E+03  0.17295899656E+04  0.19311083294E+04  0.46999998093E+01 0.  1.
</event>
<event>
 5   0  0.1468942E-06  0.3584992E+04  0.7818609E-02  0.8093938E-01
       -2   -1    0    0    0  501  0.00000000000E+00  0.00000000000E+00  0.11943188392E+04  0.11943188392E+04  0.25500000920E-02 0. -1.
        2   -1    0    0  501    0  0.00000000000E+00  0.00000000000E+00 -0.26902715859E+04  0.26902715859E+04  0.25500000920E-02 0.  1.
    10030    2    1    2    0    0  0.00000000000E+00  0.00000000000E+00 -0.14959527467E+04  0.38845904251E+04  0.35849920711E+04 0.  0.
        2    1    3    3  502    0 -0.91663231304E+03  0.11053070911E+04 -0.19105433732E+04  0.23899988586E+04  0.25500000920E-02 0.  1.
       -2    1    3    3    0  502  0.91663231304E+03 -0.11053070911E+04  0.41459062649E+03  0.14945915665E+04  0.25500000920E-02 0. -1.
</event>
<event>
 5   0  0.1505671E-06  0.3573209E+04  0.7818609E-02  0.8096656E-01
        2   -1    0    0  501    0  0.00000000000E+00  0.00000000000E+00  0.25365674122E+04  0.25365674122E+04  0.25500000920E-02 0. -1.
       -2   -1    0    0    0  501  0.00000000000E+00  0.00000000000E+00 -0.12583760950E+04  0.12583760950E+04  0.25500000920E-02 0.  1.
    10030    2    1    2    0    0  0.00000000000E+00  0.00000000000E+00  0.12781913172E+04  0.37949435072E+04  0.35732090871E+04 0.  0.
        3    1    3    3  502    0 -0.10247279603E+04  0.78228386864E+03  0.19527505730E+04  0.23399295405E+04  0.10100000352E+00 0. -1.
       -3    1    3    3    0  502  0.10247279603E+04 -0.78228386864E+03 -0.67455925584E+03  0.14550139668E+04  0.10100000352E+00 0.  1.
</event>
<event>
 5   0  0.4811500E-07  0.3571565E+04  0.7818609E-02  0.8097036E-01
        1   -1    0    0  501    0  0.00000000000E+00  0.00000000000E+00  0.17868793616E+04  0.17868793616E+04  0.50400001928E-02 0.  1.
       -1   -1    0    0    0  501  0.00000000000E+00  0.00000000000E+00 -0.17846859577E+04  0.17846859577E+04  0.50400001928E-02 0. -1.
    10030    2    1    2    0    0  0.00000000000E+00  0.00000000000E+00  0.21934038963E+01  0.35715653193E+04  0.35715646458E+04 0.  0.
        2    1    3    3  502    0  0.18624532945E+02  0.17620501814E+04 -0.28847336079E+03  0.17856048261E+04  0.25500000920E-02 0.  1.
       -2    1    3    3    0  502 -0.18624532945E+02 -0.17620501814E+04  0.29066676468E+03  0.17859604932E+04  0.25500000920E-02 0. -1.
</event>
<event>
 5   0  0.5071661E-07  0.3633117E+04  0.7818609E-02  0.8082948E-01
       -1   -1    0    0    0  501  0.00000000000E+00  0.00000000000E+00  0.14522306970E+04  0.14522306970E+04  0.50400001928E-02 0. -1.
        1   -1    0    0  501    0  0.00000000000E+00  0.00000000000E+00 -0.22722870574E+04  0.22722870574E+04  0.50400001928E-02 0.  1.
    10030    2    1    2    0    0  0.00000000000E+00  0.00000000000E+00 -0.82005636036E+03  0.37245177544E+04  0.36331171284E+04 0.  0.
        1    1    3    3  502    0 -0.80527278382E+03 -0.16156739660E+04 -0.61765334433E+03  0.19079733422E+04  0.50400001928E-02 0. -1.
       -1    1    3    3    0  502  0.80527278382E+03  0.16156739660E+04 -0.20240301603E+03  0.18165444122E+04  0.50400001928E-02 0.  1.
</event>
<event>
 5   0  0.1505671E-06  0.3556653E+04  0.7818609E-02  0.8100494E-01
        2   -1    0    0  501    0  0.00000000000E+00  0.00000000000E+00  0.17106478986E+04  0.17106478986E+04  0.25500000920E-02 0. -1.
       -2   -1    0    0    0  501  0.00000000000E+00  0.00000000000E+00 -0.18486830511E+04  0.18486830511E+04  0.25500000920E-02 0.  1.
    10030    2    1    2    0    0  0.00000000000E+00  0.00000000000E+00 -0.13803515243E+03  0.35593309497E+04  0.35566533576E+04 0.  0.
        3    1    3    3  502    0  0.16548223672E+04 -0.39405116013E+03  0.44976673334E+03  0.17595463928E+04  0.10100000352E+00 0. -1.
       -3    1    3    3    0  502 -0.16548223672E+04  0.39405116013E+03 -0.58780188578E+03  0.17997845568E+04  0.10100000352E+00 0.  1.
</event>
<event>
 5   0  0.1491854E-06  0.3495664E+04  0.7818609E-02  0.8114818E-01
        2   -1    0    0  501    0  0.00000000000E+00  0.00000000000E+00  0.21072101811E+04  0.21072101811E+04  0.25500000920E-02 0.  1.
       -2   -1    0    0    0  501  0.00000000000E+00  0.00000000000E+00 -0.14497449200E+04  0.14497449200E+04  0.25500000920E-02 0. -1.
    10030    2    1    2    0    0  0.00000000000E+00  0.00000000000E+00  0.65746526113E+03  0.35569551011E+04  0.34956643176E+04 0.  0.
        5    1    3    3  502    0  0.68172682369E+03 -0.84771020197E+03  0.17207581204E+04  0.20357786342E+04  0.46999998093E+01 0.  1.
       -5    1    3    3    0  502 -0.68172682369E+03  0.84771020197E+03 -0.10632928593E+04  0.15211764668E+04  0.46999998093E+01 0. -1.
</event>
<event>
 5   0  0.4811500E-07  0.3681394E+04  0.7818609E-02  0.8072098E-01
       -1   -1    0    0    0  501  0.00000000000E+00  0.00000000000E+00  0.21502239799E+04  0.21502239799E+04  0.50400001928E-02 0. -1.
        1   -1    0    0  501    0  0.00000000000E+00  0.00000000000E+00 -0.15757268655E+04  0.15757268655E+04  0.50400001928E-02 0.  1.
    10030    2    1    2    0    0  0.00000000000E+00  0.00000000000E+00  0.57449711437E+03  0.37259508454E+04  0.36813941337E+04 0.  0.
        3    1    3    3  502    0  0.65384598826E+03 -0.11588585779E+04 -0.10000329086E+04  0.16644919971E+04  0.10100000352E+00 0.  1.
       -3    1    3    3    0  502 -0.65384598826E+03  0.11588585779E+04  0.15745300229E+04  0.20614588483E+04  0.10100000352E+00 0. -1.
</event>
<event>
 5   0  0.4811500E-07  0.3579317E+04  0.7818609E-02  0.8095246E-01
       -1   -1    0    0    0  501  0.00000000000E+00  0.00000000000E+00  0.29429950836E+04  0.29429950836E+04  0.50400001928E-02 0.  1.
        1   -1    0    0  501    0  0.00000000000E+00  0.00000000000E+00 -0.10883056195E+04  0.10883056195E+04  0.50400001928E-02 0. -1.
    10030    2    1    2    0    0  0.00000000000E+00  0.00000000000E+00  0.18546894641E+04  0.40313007031E+04  0.35793173023E+04 0.  0.
        2    1    3    3  502    0  0.96926821032E+03  0.37159243940E+03  0.25692828276E+04  0.27710604563E+04  0.25500000920E-02 0.  1.
       -2    1    3    3    0  502 -0.96926821032E+03 -0.37159243940E+03 -0.71459336343E+03  0.12602402468E+04  0.25500000920E-02 0. -1.
</event>
<event>
 5   0  0.4811500E-07  0.3634917E+04  0.7818609E-02  0.8082540E-01
        1   -1    0    0  501    0  0.00000000000E+00  0.00000000000E+00  0.21035421565E+04  0.21035421565E+04  0.50400001928E-02 0. -1.
       -1   -1    0    0    0  501  0.00000000000E+00  0.00000000000E+00 -0.15702823309E+04  0.15702823309E+04  0.50400001928E-02 0.  1.
    10030    2    1    2    0    0  0.00000000000E+00  0.00000000000E+00  0.53325982562E+03  0.36738244875E+04  0.36349168248E+04 0.  0.
        2    1    3    3  502    0  0.15102964911E+04  0.10103801812E+04  0.23030808825E+03  0.18316400894E+04  0.25500000920E-02 0.  1.
       -2    1    3    3    0  502 -0.15102964911E+04 -0.10103801812E+04  0.30295173736E+03  0.18421843981E+04  0.25500000920E-02 0. -1.
</event>
<event>
 5   0  0.1379425E-06  0.3591894E+04  0.7818609E-02  0.8092351E-01
        2   -1    0    0  501    0  0.00000000000E+00  0.00000000000E+00  0.11553940167E+04  0.11553940167E+04  0.25500000920E-02 0.  1.
       -2   -1    0    0    0  501  0.00000000000E+00  0.00000000000E+00 -0.27916242528E+04  0.27916242528E+04  0.25500000920E-02 0. -1.
    10030    2    1    2    0    0  0.00000000000E+00  0.00000000000E+00 -0.16362302361E+04  0.39470182695E+04  0.35918941847E+04 0.  0.
        4    1    3    3  502    0 -0.10788659692E+03 -0.17923308033E+04 -0.85826697776E+03  0.19901540252E+04  0.12699999809E+01 0. -1.
       -4    1    3    3    0  502  0.10788659692E+03  0.17923308033E+04 -0.77796325837E+03  0.19568642443E+04  0.12699999809E+01 0.  1.
</event>
<event>
 5   0  0.4811500E-07  0.3637662E+04  0.7818609E-02  0.8081919E-01
       -1   -1    0    0    0  501  0.00000000000E+00  0.00000000000E+00  0.31701552613E+04  0.31701552613E+04  0.50400001928E-02 0.  1.
        1   -1    0    0  501    0  0.00000000000E+00  0.00000000000E+00 -0.10435281344E+04  0.10435281345E+04  0.50400001928E-02 0. -1.
    10030    2    1    2    0    0  0.00000000000E+00  0.00000000000E+00  0.21266271269E+04  0.42136833958E+04  0.36376619996E+04 0.  0.
        5    1    3    3  502    0  0.46709014076E+03 -0.15490590121E+04  0.20257667145E+04  0.25925874901E+04  0.46999998093E+01 0.  1.
       -5    1    3    3    0  502 -0.46709014076E+03  0.15490590121E+04  0.10086041241E+03  0.16210959057E+04  0.46999998093E+01 0. -1.
</event>
<event>
 5   0  0.1491854E-06  0.3577289E+04  0.7818609E-02  0.8095714E-01
       -2   -1    0    0    0  501  0.00000000000E+00  0.00000000000E+00  0.15006697610E+04  0.15006697610E+04  0.25500000920E-02 0. -1.
        2   -1    0    0  501    0  0.00000000000E+00  0.00000000000E+00 -0.21318804481E+04  0.21318804482E+04  0.25500000920E-02 0.  1.
    10030    2    1    2    0    0  0.00000000000E+00  0.00000000000E+00 -0.63121068710E+03  0.36325502092E+04  0.35772886508E+04 0.  0.
        5    1    3    3  502    0  0.12092785174E+04  0.34685267857E+03 -0.16066885824E+04  0.20406203968E+04  0.46999998093E+01 0.  1.
       -5    1    3    3    0  502 -0.12092785174E+04 -0.34685267857E+03  0.97547789527E+03  0.15919298124E+04  0.46999998093E+01 0. -1.
</event>
<event>
 5   0  0.4811500E-07  0.2811683E+04  0.7818609E-02  0.8299650E-01
        1   -1    0    0  501    0  0.00000000000E+00  0.00000000000E+00  0.20528219193E+04  0.20528219193E+04  0.50400001928E-02 0.  1.
       -1   -1    0    0    0  501  0.00000000000E+00  0.00000000000E+00 -0.96276754729E+03  0.96276754730E+03  0.50400001928E-02 0. -1.
    10030    2    1    2    0    0  0.00000000000E+00  0.00000000000E+00  0.10900543720E+04  0.30155894666E+04  0.28116830009E+04 0.  0.
        2    1    3    3  502    0 -0.30728127354E+03  0.13678329637E+04  0.65752195825E+03  0.15484585636E+04  0.25500000920E-02 0.  1.
       -2    1    3    3    0  502  0.30728127354E+03 -0.13678329637E+04  0.43253241380E+03  0.14671309030E+04  0.25500000920E-02 0. -1.
</event>
<event>
 5   0  0.1444091E-06  0.3552095E+04  0.7818609E-02  0.8101554E-01
       -2   -1    0    0    0  501  0.00000000000E+00  0.00000000000E+00  0.15441687729E+04  0.15441687729E+04  0.25500000920E-02 0. -1.
        2   -1    0    0  501    0  0.00000000000E+00  0.00000000000E+00 -0.20427458390E+04  0.20427458390E+04  0.25500000920E-02 0.  1.
    10030    2    1    2    0    0  0.00000000000E+00  0.00000000000E+00 -0.49857706614E+03  0.35869146119E+04  0.35520947822E+04 0.  0.
        1    1    3    3  502    0 -0.96794722226E+03 -0.14890254236E+04 -0.23411464678E+03  0.17913481529E+04  0.50400001928E-02 0.  1.
       -1    1    3    3    0  502  0.96794722226E+03  0.14890254236E+04 -0.26446241936E+03  0.17955664589E+04  0.50400001928E-02 0. -1.
</event>
<event>
 5   0  0.4811500E-07  0.3078526E+04  0.7818609E-02  0.8221656E-01
        1   -1    0    0  501    0  0.00000000000E+00  0.00000000000E+00  0.94482862782E+03  0.94482862783E+03  0.50400001928E-02 0.  1.
       -1   -1    0    0    0  501  0.00000000000E+00  0.00000000000E+00 -0.25076835950E+04  0.25076835950E+04  0.50400001928E-02 0. -1.
    10030    2    1    2    0    0  0.00000000000E+00  0.00000000000E+00 -0.15628549672E+04  0.34525122229E+04  0.30785264333E+04 0.  0.
        5    1    3    3  502    0 -0.11934228833E+04  0.72163452728E+03 -0.50917618131E+02  0.13955748862E+04  0.46999998093E+01 0.  1.
       -5    1    3    3    0  502  0.11934228833E+04 -0.72163452728E+03 -0.15119373491E+04  0.20569373366E+04  0.46999998093E+01 0. -1.
</event>
<event>
 5   0  0.1491854E-06  0.3566235E+04  0.7818609E-02  0.8098270E-01
       -2   -1    0    0    0  501  0.00000000000E+00  0.00000000000E+00  0.14161499199E+04  0.14161499199E+04  0.25500000920E-02 0.  1.
        2   -1    0    0  501    0  0.00000000000E+00  0.00000000000E+00 -0.22451771427E+04  0.22451771427E+04  0.25500000920E-02 0. -1.
    10030    2    1    2    0    0  0.00000000000E+00  0.00000000000E+00 -0.82902722279E+03  0.36613270626E+04  0.35662346702E+04 0.  0.
        5    1    3    3  502    0  0.91637338403E+03 -0.30569344926E+03 -0.19532427046E+04  0.21790749911E+04  0.46999998093E+01 0. -1.
       -5    1    3    3    0  502 -0.91637338403E+03  0.30569344926E+03  0.11242154818E+04  0.14822520715E+04  0.46999998093E+01 0.  1.
</event>
<event>
 5   0  0.1468942E-06  0.3271247E+04  0.7818609E-02  0.8170250E-01
        2   -1    0    0  501    0  0.00000000000E+00  0.00000000000E+00  0.12731040164E+04  0.12731040164E+04  0.25500000920E-02 0.  1.
       -2   -1    0    0    0  501  0.00000000000E+00  0.00000000000E+00 -0.21013709053E+04  0.21013709053E+04  0.25500000920E-02 0. -1.
    10030    2    1    2    0    0  0.00000000000E+00  0.00000000000E+00 -0.82826688898E+03  0.33744749217E+04  0.32712466978E+04 0.  0.
        2    1    3    3  502    0  0.66779987519E+03 -0.13685087012E+04  0.20177646729E+03  0.15360620044E+04  0.25500000920E-02 0.  1.
       -2    1    3    3    0  502 -0.66779987519E+03  0.13685087012E+04 -0.10300433563E+04  0.18384129173E+04  0.25500000920E-02 0. -1.
</event>
<event>
 5   0  0.1468942E-06  0.3607853E+04  0.7818609E-02  0.8088695E-01
       -2   -1    0    0    0  501  0.00000000000E+00  0.00000000000E+00  0.12059913909E+04  0.12059913909E+04  0.25500000920E-02 0. -1.
        2   -1    0    0  501    0  0.00000000000E+00  0.00000000000E+00 -0.26983196470E+04  0.26983196470E+04  0.25500000920E-02 0.  1.
    10030    2    1    2    0    0  0.00000000000E+00  0.00000000000E+00 -0.14923282561E+04  0.39043110379E+04  0.36078526933E+04 0.  0.
        2    1    3    3  502    0 -0.24821968495E+03  0.82397736946E+03  0.96954463574E+03  0.12963674317E+04  0.25500000920E-02 0. -1.
       -2    1    3    3    0  502  0.24821968495E+03 -0.82397736946E+03 -0.24618728918E+04  0.26079436062E+04  0.25500000920E-02 0.  1.
</event>
<event>
 5   0  0.1379425E-06  0.2356050E+04  0.7818609E-02  0.8456143E-01
       -2   -1    0    0    0  501  0.00000000000E+00  0.00000000000E+00  0.10548762210E+04  0.10548762210E+04  0.25500000920E-02 0.  1.
        2   -1    0    0  501    0  0.00000000000E+00  0.00000000000E+00 -0.13155505939E+04  0.13155505939E+04  0.25500000920E-02 0. -1.
    10030    2    1    2    0    0  0.00000000000E+00  0.00000000000E+00 -0.26067437284E+03  0.23704268149E+04  0.23560501175E+04 0.  0.
        4    1    3    3  502    0 -0.24681018042E+03  0.11498570696E+04 -0.61694181206E+02  0.11776647785E+04  0.12699999809E+01 0. -1.
       -4    1    3    3    0  502  0.24681018042E+03 -0.11498570696E+04 -0.19898019163E+03  0.11927620363E+04  0.12699999809E+01 0.  1.
</event>
<event>
 5   0  0.1468942E-06  0.3572071E+04  0.7818609E-02  0.8096919E-01
       -2   -1    0    0    0  501  0.00000000000E+00  0.00000000000E+00  0.18531896185E+04  0.18531896185E+04  0.25500000920E-02 0.  1.
        2   -1    0    0  501    0  0.00000000000E+00  0.00000000000E+00 -0.17213146849E+04  0.17213146849E+04  0.25500000920E-02 0. -1.
    10030    2    1    2    0    0  0.00000000000E+00  0.00000000000E+00  0.13187493357E+03  0.35745043034E+04  0.35720708303E+04 0.  0.
        2    1    3    3  502    0 -0.52987251244E+03 -0.41408617818E+03  0.17216613674E+04  0.18483371193E+04  0.25500000920E-02 0.  1.
       -2    1    3    3    0  502  0.52987251244E+03  0.41408617818E+03 -0.15897864338E+04  0.17261671841E+04  0.25500000920E-02 0. -1.
</event>
<event>
 5   0  0.1468942E-06  0.3531580E+04  0.7818609E-02  0.8106347E-01
        2   -1    0    0  501    0  0.00000000000E+00  0.00000000000E+00  0.21132409945E+04  0.21132409945E+04  0.25500000920E-02 0.  1.
       -2   -1    0    0    0  501  0.00000000000E+00  0.00000000000E+00 -0.14754652286E+04  0.14754652286E+04  0.25500000920E-02 0. -1.
    10030    2    1    2    0    0  0.00000000000E+00  0.00000000000E+00  0.63777576592E+03  0.35887062232E+04  0.35315795940E+04 0.  0.
        2    1    3    3  502    0 -0.12812752564E+04 -0.49086132428E+03 -0.81057807105E+03  0.15936272875E+04  0.25500000920E-02 0. -1.
       -2    1    3    3    0  502  0.12812752564E+04  0.49086132428E+03  0.14483538370E+04  0.19950789356E+04  0.25500000920E-02 0.  1.
</event>
<event>
 5   0  0.1505671E-06  0.2414013E+04  0.7818609E-02  0.8434276E-01
       -2   -1    0    0    0  501  0.00000000000E+00  0.00000000000E+00  0.11966785483E+04  0.11966785483E+04  0.25500000920E-02 0. -1.
        2   -1    0    0  501    0  0.00000000000E+00  0.00000000000E+00 -0.12174234230E+04  0.12174234230E+04  0.25500000920E-02 0.  1.
    10030    2    1    2    0    0  0.00000000000E+00  0.00000000000E+00 -0.20744874726E+02  0.24141019714E+04  0.24140128372E+04 0.  0.
        3    1    3    3  502    0 -0.58687623329E+03 -0.13238927335E+03 -0.10567923862E+04  0.12160430875E+04  0.10100000352E+00 0.  1.
       -3    1    3    3    0  502  0.58687623329E+03  0.13238927335E+03  0.10360475115E+04  0.11980588839E+04  0.10100000352E+00 0. -1.
</event>
<event>
 5   0  0.4811500E-07  0.3377749E+04  0.7818609E-02  0.8143389E-01
       -1   -1    0    0    0  501  0.00000000000E+00  0.00000000000E+00  0.16940136398E+04  0.16940136398E+04  0.50400001928E-02 0.  1.
        1   -1    0    0  501    0  0.00000000000E+00  0.00000000000E+00 -0.16837508888E+04  0.16837508888E+04  0.50400001928E-02 0. -1.
    10030    2    1    2    0    0  0.00000000000E+00  0.00000000000E+00  0.10262751031E+02  0.33777645286E+04  0.33777489378E+04 0.  0.
        4    1    3    3  502    0  0.23768673151E+03  0.38449900875E+03 -0.16221317665E+04  0.16839381078E+04  0.12699999809E+01 0. -1.
       -4    1    3    3    0  502 -0.23768673151E+03 -0.38449900875E+03  0.16323945175E+04  0.16938264208E+04  0.12699999809E+01 0.  1.
</event>
<event>
 5   0  0.5071661E-07  0.2788691E+04  0.7818609E-02  0.8306788E-01
        1   -1    0    0  501    0  0.00000000000E+00  0.00000000000E+00  0.20112451175E+04  0.20112451175E+04  0.50400001928E-02 0.  1.
       -1   -1    0    0    0  501  0.00000000000E+00  0.00000000000E+00 -0.96666460788E+03  0.96666460789E+03  0.50400001928E-02 0. -1.
    10030    2    1    2    0    0  0.00000000000E+00  0.00000000000E+00  0.10445805097E+04  0.29779097254E+04  0.27886910714E+04 0.  0.
        1    1    3    3  502    0 -0.97884321254E+03  0.24572396072E+03 -0.50511734932E+03  0.11285645025E+04  0.50400001928E-02 0. -1.
       -1    1    3    3    0  502  0.97884321254E+03 -0.24572396072E+03  0.15496978590E+04  0.18493452230E+04  0.50400001928E-02 0.  1.
</event>
<event>
 5   0  0.4811500E-07  0.2602169E+04  0.7818609E-02  0.8367465E-01
       -1   -1    0    0    0  501  0.00000000000E+00  0.00000000000E+00  0.11256949223E+04  0.11256949223E+04  0.50400001928E-02 0. -1.
        1   -1    0    0  501    0  0.00000000000E+00  0.00000000000E+00 -0.15038007362E+04  0.15038007362E+04  0.50400001928E-02 0.  1.
    10030    2    1    2    0    0  0.00000000000E+00  0.00000000000E+00 -0.37810581389E+03  0.26294956585E+04  0.26021689822E+04 0.  0.
        3    1    3    3  502    0 -0.77607298399E+03  0.24539731242E+03  0.83664928466E+03  0.11672579634E+04  0.10100000352E+00 0. -1.
       -3    1    3    3    0  502  0.77607298399E+03 -0.24539731242E+03 -0.12147550986E+04  0.14622376951E+04  0.10100000352E+00 0.  1.
</event>
<event>
 5   0  0.4811500E-07  0.3597064E+04  0.7818609E-02  0.8091165E-01
        1   -1    0    0  501    0  0.00000000000E+00  0.00000000000E+00  0.12593910373E+04  0.12593910373E+04  0.50400001928E-02 0. -1.
       -1   -1    0    0    0  501  0.00000000000E+00  0.00000000000E+00 -0.25684776378E+04  0.25684776378E+04  0.50400001928E-02 0.  1.
    10030    2    1    2    0    0  0.00000000000E+00  0.00000000000E+00 -0.13090866004E+04  0.38278686751E+04  0.35970642011E+04 0.  0.
        2    1    3    3  502    0  0.76738871525E+03 -0.82262094820E+03  0.83875203967E+03  0.14032446860E+04  0.25500000920E-02 0. -1.
       -2    1    3    3    0  502 -0.76738871525E+03  0.82262094820E+03 -0.21478386401E+04  0.24246239891E+04  0.25500000920E-02 0.  1.
</event>
<event>
 5   0  0.5071661E-07  0.3665420E+04  0.7818609E-02  0.8075669E-01
       -1   -1    0    0    0  501  0.00000000000E+00  0.00000000000E+00  0.27830157272E+04  0.27830157272E+04  0.50400001928E-02 0.  1.
        1   -1    0    0  501    0  0.00000000000E+00  0.00000000000E+00 -0.12069018068E+04  0.12069018068E+04  0.50400001928E-02 0. -1.
    10030    2    1    2    0    0  0.00000000000E+00  0.00000000000E+00  0.15761139203E+04  0.39899175340E+04  0.36654204177E+04 0.  0.
        1    1    3    3  502    0  0.24958334830E+03  0.93976382458E+03  0.24790930368E+04  0.26629589142E+04  0.50400001928E-02 0.  1.
       -1    1    3    3    0  502 -0.24958334830E+03 -0.93976382458E+03 -0.90297911648E+03  0.13269586198E+04  0.50400001928E-02 0. -1.
</event>
<event>
 5   0  0.1379425E-06  0.3621420E+04  0.7818609E-02  0.8085603E-01
       -2   -1    0    0    0  501  0.00000000000E+00  0.00000000000E+00  0.10850489286E+04  0.10850489286E+04  0.25500000920E-02 0.  1.
        2   -1    0    0  501    0  0.00000000000E+00  0.00000000000E+00 -0.30216807915E+04  0.30216807915E+04  0.25500000920E-02 0. -1.
    10030    2    1    2    0    0  0.00000000000E+00  0.00000000000E+00 -0.19366318629E+04  0.41067297201E+04  0.36214204425E+04 0.  0.
        4    1    3    3  502    0 -0.54043808832E+03 -0.16829438750E+04 -0.52286981196E+03  0.18433035200E+04  0.12699999809E+01 0. -1.
       -4    1    3    3    0  502  0.54043808832E+03  0.16829438750E+04 -0.14137620509E+04  0.22634262001E+04  0.12699999809E+01 0.  1.
</event>
<event>
 5   0  0.1379425E-06  0.3286629E+04  0.7818609E-02  0.8166306E-01
       -2   -1    0    0    0  501  0.00000000000E+00  0.00000000000E+00  0.12941391286E+04  0.12941391286E+04  0.25500000920E-02 0.  1.
        2   -1    0    0  501    0  0.00000000000E+00  0.00000000000E+00 -0.20867015567E+04  0.20867015567E+04  0.25500000920E-02 0. -1.
    10030    2    1    2    0    0  0.00000000000E+00  0.00000000000E+00 -0.79256242805E+03  0.33808406853E+04  0.32866287495E+04 0.  0.
        4    1    3    3  502    0  0.17929139774E+03 -0.73879065600E+03 -0.18949315248E+04  0.20417453650E+04  0.12699999809E+01 0. -1.
       -4    1    3    3    0  502 -0.17929139774E+03  0.73879065600E+03  0.11023690968E+04  0.13390953204E+04  0.12699999809E+01 0.  1.
</event>
<event>
 5   0  0.1468942E-06  0.2917110E+04  0.7818609E-02  0.8267805E-01
       -2   -1    0    0    0  501  0.00000000000E+00  0.00000000000E+00  0.15220963232E+04  0.15220963232E+04  0.25500000920E-02 0. -1.
        2   -1    0    0  501    0  0.00000000000E+00  0.00000000000E+00 -0.13976666113E+04  0.13976666113E+04  0.25500000920E-02 0.  1.
    10030    2    1    2    0    0  0.00000000000E+00  0.00000000000E+00  0.12442971187E+03  0.29197629345E+04  0.29171103579E+04 0.  0.
        2    1    3    3  502    0  0.63781886168E+03 -0.45565829478E+03 -0.11689222495E+04  0.14074148668E+04  0.25500000920E-02 0.  1.
       -2    1    3    3    0  502 -0.63781886168E+03  0.45565829478E+03  0.12933519613E+04  0.15123480677E+04  0.25500000920E-02 0. -1.
</event>
<event>
 5   0  0.4811500E-07  0.2600628E+04  0.7818609E-02  0.8367988E-01
        1   -1    0    0  501    0  0.00000000000E+00  0.00000000000E+00  0.17404609567E+04  0.17404609567E+04  0.50400001928E-02 0. -1.
       -1   -1    0    0    0  501  0.00000000000E+00  0.00000000000E+00 -0.97147601408E+03  0.97147601409E+03  0.50400001928E-02 0.  1.
    10030    2    1    2    0    0  0.00000000000E+00  0.00000000000E+00  0.76898494263E+03  0.27119369708E+04  0.26006276726E+04 0.  0.
        5    1    3    3  502    0  0.75716490612E+03 -0.10539853366E+04  0.29970949632E+03  0.13319277972E+04  0.46999998093E+01 0. -1.
       -5    1    3    3    0  502 -0.75716490612E+03  0.10539853366E+04  0.46927544631E+03  0.13800091736E+04  0.46999998093E+01 0.  1.
</event>
<event>
 5   0  0.4811500E-07  0.3653069E+04  0.7818609E-02  0.8078443E-01
        1   -1    0    0  501    0  0.00000000000E+00  0.00000000000E+00  0.22244076355E+04  0.22244076355E+04  0.50400001928E-02 0.  1.
       -1   -1    0    0    0  501  0.00000000000E+00  0.00000000000E+00 -0.14998280009E+04  0.14998280009E+04  0.50400001928E-02 0. -1.
    10030    2    1    2    0    0  0.00000000000E+00  0.00000000000E+00  0.72457963468E+03  0.37242356364E+04  0.36530693161E+04 0.  0.
        4    1    3    3  502    0  0.10550948023E+03 -0.17975272483E+04  0.67484152653E+03  0.19229272367E+04  0.12699999809E+01 0.  1.
       -4    1    3    3    0  502 -0.10550948023E+03  0.17975272483E+04  0.49738108143E+02  0.18013083997E+04  0.12699999809E+01 0. -1.
</event>
<event>
 5   0  0.4811500E-07  0.2278730E+04  0.7818609E-02  0.8486355E-01
       -1   -1    0    0    0  501  0.00000000000E+00  0.00000000000E+00  0.15402782145E+04  0.15402782145E+04  0.50400001928E-02 0. -1.
        1   -1    0    0  501    0  0.00000000000E+00  0.00000000000E+00 -0.84280401955E+03  0.84280401957E+03  0.50400001928E-02 0.  1.
    10030    2    1    2    0    0  0.00000000000E+00  0.00000000000E+00  0.69747419496E+03  0.23830822341E+04  0.22787300590E+04 0.  0.
        3    1    3    3  502    0 -0.39298594102E+03 -0.57664286016E+03 -0.59317312234E+03  0.91586532923E+03  0.10100000352E+00 0.  1.
       -3    1    3    3    0  502  0.39298594102E+03  0.57664286016E+03  0.12906473173E+04  0.14672169049E+04  0.10100000352E+00 0. -1.
</event>
<event>
 5   0  0.4811500E-07  0.3720340E+04  0.7818609E-02  0.8063469E-01
        1   -1    0    0  501    0  0.00000000000E+00  0.00000000000E+00  0.21697169877E+04  0.21697169878E+04  0.50400001928E-02 0.  1.
       -1   -1    0    0    0  501  0.00000000000E+00  0.00000000000E+00 -0.15947848430E+04  0.15947848430E+04  0.50400001928E-02 0. -1.
    10030    2    1    2    0    0  0.00000000000E+00  0.00000000000E+00  0.57493214476E+03  0.37645018307E+04  0.37203396434E+04 0.  0.
        4    1    3    3  502    0  0.17005978532E+04 -0.20946777043E+03 -0.44522901325E+03  0.17703503304E+04  0.12699999809E+01 0. -1.
       -4    1    3    3    0  502 -0.17005978532E+04  0.20946777043E+03  0.10201611580E+04  0.19941515004E+04  0.12699999809E+01 0.  1.
</event>
<event>
 5   0  0.4811500E-07  0.3369875E+04  0.7818609E-02  0.8145340E-01
        1   -1    0    0  501    0  0.00000000000E+00  0.00000000000E+00  0.18180714148E+04  0.18180714148E+04  0.50400001928E-02 0.  1.
       -1   -1    0    0    0  501  0.00000000000E+00  0.00000000000E+00 -0.15615523012E+04  0.15615523013E+04  0.50400001928E-02 0. -1.
    10030    2    1    2    0    0  0.00000000000E+00  0.00000000000E+00  0.25651911353E+03  0.33796237160E+04  0.33698745387E+04 0.  0.
        2    1    3    3  502    0 -0.15823033823E+04  0.55259026494E+03 -0.45370186157E+02  0.16766330691E+04  0.25500000920E-02 0. -1.
       -2    1    3    3    0  502  0.15823033823E+04 -0.55259026494E+03  0.30188929969E+03  0.17029906470E+04  0.25500000920E-02 0.  1.
</event>
<event>
 5   0  0.1444091E-06  0.3427366E+04  0.7818609E-02  0.8131222E-01
       -2   -1    0    0    0  501  0.00000000000E+00  0.00000000000E+00  0.26476982428E+04  0.26476982428E+04  0.25500000920E-02 0. -1.
        2   -1    0    0  501    0  0.00000000000E+00  0.00000000000E+00 -0.11091556658E+04  0.11091556658E+04  0.25500000920E-02 0.  1.
    10030    2    1    2    0    0  0.00000000000E+00  0.00000000000E+00  0.15385425771E+04  0.37568539086E+04  0.34273660483E+04 0.  0.
        1    1    3    3  502    0 -0.10513071900E+04 -0.10979722012E+04 -0.97936446112E+02  0.15232797872E+04  0.50400001928E-02 0. -1.
       -1    1    3    3    0  502  0.10513071900E+04  0.10979722012E+04  0.16364790232E+04  0.22335741214E+04  0.50400001928E-02 0.  1.
</event>
<event>
 5   0  0.1468942E-06  0.3564254E+04  0.7818609E-02  0.8098729E-01
       -2   -1    0    0    0  501  0.00000000000E+00  0.00000000000E+00  0.14763080296E+04  0.14763080296E+04  0.25500000920E-02 0. -1.
        2   -1    0    0  501    0  0.00000000000E+00  0.00000000000E+00 -0.21512970483E+04  0.21512970483E+04  0.25500000920E-02 0.  1.
    10030    2    1    2    0    0  0.00000000000E+00  0.00000000000E+00 -0.67498901861E+03  0.36276050779E+04  0.35642542594E+04 0.  0.
        2    1    3    3  502    0 -0.14965265666E+04 -0.96391885069E+03 -0.25085933833E+03  0.17976823198E+04  0.25500000920E-02 0.  1.
       -2    1    3    3    0  502  0.14965265666E+04  0.96391885069E+03 -0.42412968027E+03  0.18299227582E+04  0.25500000920E-02 0. -1.
</event>
<event>
 5   0  0.1505671E-06  0.2519025E+04  0.7818609E-02  0.8396239E-01
        2   -1    0    0  501    0  0.00000000000E+00  0.00000000000E+00  0.10819886029E+04  0.10819886029E+04  0.25500000920E-02 0.  1.
       -2   -1    0    0    0  501  0.00000000000E+00  0.00000000000E+00 -0.14661630373E+04  0.14661630373E+04  0.25500000920E-02 0. -1.
    10030    2    1    2    0    0  0.00000000000E+00  0.00000000000E+00 -0.38417443437E+03  0.25481516402E+04  0.25190249672E+04 0.  0.
        3    1    3    3  502    0 -0.47129277144E+03  0.91004273720E+03  0.54855147248E+03  0.11624127443E+04  0.10100000352E+00 0.  1.
       -3    1    3    3    0  502  0.47129277144E+03 -0.91004273720E+03 -0.93272590686E+03  0.13857388959E+04  0.10100000352E+00 0. -1.
</event>
<event>
 5   0  0.1491854E-06  0.3574833E+04  0.7818609E-02  0.8096281E-01
       -2   -1    0    0    0  501  0.00000000000E+00  0.00000000000E+00  0.16100428829E+04  0.16100428829E+04  0.25500000920E-02 0.  1.
        2   -1    0    0  501    0  0.00000000000E+00  0.00000000000E+00 -0.19843305302E+04  0.19843305302E+04  0.25500000920E-02 0. -1.
    10030    2    1    2    0    0  0.00000000000E+00  0.00000000000E+00 -0.37428764733E+03  0.35943734131E+04  0.35748327219E+04 0.  0.
        5    1    3    3  502    0 -0.10066899204E+04 -0.11792997228E+04  0.70690883964E+03  0.17040876237E+04  0.46999998093E+01 0.  1.
       -5    1    3    3    0  502  0.10066899204E+04  0.11792997228E+04 -0.10811964870E+04  0.18902857893E+04  0.46999998093E+01 0. -1.
</event>
<event>
 5   0  0.4811500E-07  0.3291237E+04  0.7818609E-02  0.8165129E-01
       -1   -1    0    0    0  501  0.00000000000E+00  0.00000000000E+00  0.13059378331E+04  0.13059378331E+04  0.50400001928E-02 0. -1.
        1   -1    0    0  501    0  0.00000000000E+00  0.00000000000E+00 -0.20736521857E+04  0.20736521858E+04  0.50400001928E-02 0.  1.
    10030    2    1    2    0    0  0.00000000000E+00  0.00000000000E+00 -0.76771435266E+03  0.33795900189E+04  0.32912373613E+04 0.  0.
        5    1    3    3  502    0  0.10960861186E+04 -0.74870249485E+03 -0.13826338979E+04  0.19166791048E+04  0.46999998093E+01 0.  1.
       -5    1    3    3    0  502 -0.10960861186E+04  0.74870249485E+03  0.61491954527E+03  0.14629109140E+04  0.46999998093E+01 0. -1.
</event>
<event>
 5   0  0.4811500E-07  0.3541655E+04  0.7818609E-02  0.8103989E-01
       -1   -1    0    0    0  501  0.00000000000E+00  0.00000000000E+00  0.13443286470E+04  0.13443286470E+04  0.50400001928E-02 0.  1.
        1   -1    0    0  501    0  0.00000000000E+00  0.00000000000E+00 -0.23326361643E+04  0.23326361643E+04  0.50400001928E-02 0. -1.
    10030    2    1    2    0    0  0.00000000000E+00  0.00000000000E+00 -0.98830751724E+03  0.36769648113E+04  0.35416547651E+04 0.  0.
        2    1    3    3  502    0 -0.32627155938E+03 -0.22531376118E+02 -0.23010095070E+04  0.23241354402E+04  0.25500000920E-02 0. -1.
       -2    1    3    3    0  502  0.32627155938E+03  0.22531376118E+02  0.13127019897E+04  0.13528293711E+04  0.25500000920E-02 0.  1.
</event>
<event>
 5   0  0.4811500E-07  0.3552108E+04  0.7818609E-02  0.8101551E-01
       -1   -1    0    0    0  501  0.00000000000E+00  0.00000000000E+00  0.17520310541E+04  0.17520310541E+04  0.50400001928E-02 0. -1.
        1   -1    0    0  501    0  0.00000000000E+00  0.00000000000E+00 -0.18004065692E+04  0.18004065692E+04  0.50400001928E-02 0.  1.
    10030    2    1    2    0    0  0.00000000000E+00  0.00000000000E+00 -0.48375515071E+02  0.35524376233E+04  0.35521082299E+04 0.  0.
        3    1    3    3  502    0 -0.13823921028E+04  0.29466075400E+03  0.10513352911E+04  0.17615728173E+04  0.10100000352E+00 0. -1.
       -3    1    3    3    0  502  0.13823921028E+04 -0.29466075400E+03 -0.10997108062E+04  0.17908648060E+04  0.10100000352E+00 0.  1.
</event>
<event>
 5   0  0.1468942E-06  0.3301917E+04  0.7818609E-02  0.8162408E-01
       -2   -1    0    0    0  501  0.00000000000E+00  0.00000000000E+00  0.10415524739E+04  0.10415524739E+04  0.25500000920E-02 0.  1.
        2   -1    0    0  501    0  0.00000000000E+00  0.00000000000E+00 -0.26169244941E+04  0.26169244941E+04  0.25500000920E-02 0. -1.
    10030    2    1    2    0    0  0.00000000000E+00  0.00000000000E+00 -0.15753720201E+04  0.36584769680E+04  0.33019171285E+04 0.  0.
        2    1    3    3  502    0  0.50208109792E+03 -0.52443895246E+03  0.85517791217E+03  0.11218069822E+04  0.25500000920E-02 0.  1.
       -2    1    3    3    0  502 -0.50208109792E+03  0.52443895246E+03 -0.24305499323E+04  0.25366699859E+04  0.25500000920E-02 0. -1.
</event>
<event>
 5   0  0.1444091E-06  0.3483745E+04  0.7818609E-02  0.8117653E-01
        2   -1    0    0  501    0  0.00000000000E+00  0.00000000000E+00  0.32051590928E+04  0.32051590928E+04  0.25500000920E-02 0.  1.
       -2   -1    0    0    0  501  0.00000000000E+00  0.00000000000E+00 -0.94663627129E+03  0.94663627129E+03  0.25500000920E-02 0. -1.
    10030    2    1    2    0    0  0.00000000000E+00  0.00000000000E+00  0.22585228215E+04  0.41517953641E+04  0.34837450266E+04 0.  0.
        1    1    3    3  502    0 -0.93321957301E+03  0.90732272693E+03 -0.25029606049E+03  0.13254363131E+04  0.50400001928E-02 0. -1.
       -1    1    3    3    0  502  0.93321957301E+03 -0.90732272693E+03  0.25088188820E+04  0.28263590510E+04  0.50400001928E-02 0.  1.
</event>
<event>
 5   0  0.1444091E-06  0.3420850E+04  0.7818609E-02  0.8132808E-01
       -2   -1    0    0    0  501  0.00000000000E+00  0.00000000000E+00  0.21159085224E+04  0.21159085224E+04  0.25500000920E-02 0. -1.
        2   -1    0    0  501    0  0.00000000000E+00  0.00000000000E+00 -0.13826466699E+04  0.13826466699E+04  0.25500000920E-02 0.  1.
    10030    2    1    2    0    0  0.00000000000E+00  0.00000000000E+00  0.73326185245E+03  0.34985551923E+04  0.34208501120E+04 0.  0.
        1    1    3    3  502    0 -0.18789666221E+03  0.11873127733E+04  0.16110433280E+04  0.20100938739E+04  0.50400001928E-02 0. -1.
       -1    1    3    3    0  502  0.18789666221E+03 -0.11873127733E+04 -0.87778147557E+03  0.14884613183E+04  0.50400001928E-02 0.  1.
</event>
<event>
 5   0  0.1505671E-06  0.3378828E+04  0.7818609E-02  0.8143122E-01
        2   -1    0    0  501    0  0.00000000000E+00  0.00000000000E+00  0.22178419404E+04  0.22178419404E+04  0.25500000920E-02 0.  1.
       -2   -1    0    0    0  501  0.00000000000E+00  0.00000000000E+00 -0.12868906964E+04  0.12868906964E+04  0.25500000920E-02 0. -1.
    10030    2    1    2    0    0  0.00000000000E+00  0.00000000000E+00  0.93095124394E+03  0.35047326368E+04  0.33788282935E+04 0.  0.
        3    1    3    3  502    0 -0.16481459305E+04  0.37110994397E+03  0.46180095956E+03  0.17513902293E+04  0.10100000352E+00 0. -1.
       -3    1    3    3    0  502  0.16481459305E+04 -0.37110994397E+03  0.46915028439E+03  0.17533424076E+04  0.10100000352E+00 0.  1.
</event>
<event>
 5   0  0.4811500E-07  0.3489260E+04  0.7818609E-02  0.8116340E-01
       -1   -1    0    0    0  501  0.00000000000E+00  0.00000000000E+00  0.18589887960E+04  0.18589887960E+04  0.50400001928E-02 0.  1.
        1   -1    0    0  501    0  0.00000000000E+00  0.00000000000E+00 -0.16373064529E+04  0.16373064529E+04  0.50400001928E-02 0. -1.
    10030    2    1    2    0    0  0.00000000000E+00  0.00000000000E+00  0.22168234309E+03  0.34962952489E+04  0.34892602950E+04 0.  0.
        4    1    3    3  502    0  0.26784734824E+03 -0.10155974673E+04 -0.12850045181E+04  0.16596441311E+04  0.12699999809E+01 0. -1.
       -4    1    3    3    0  502 -0.26784734824E+03  0.10155974673E+04  0.15066868612E+04  0.18366511177E+04  0.12699999809E+01 0.  1.
</event>
<event>
 5   0  0.1444091E-06  0.2471147E+04  0.7818609E-02  0.8413337E-01
        2   -1    0    0  501    0  0.00000000000E+00  0.00000000000E+00  0.15130531459E+04  0.15130531459E+04  0.25500000920E-02 0. -1.
       -2   -1    0    0    0  501  0.00000000000E+00  0.00000000000E+00 -0.10089809581E+04  0.10089809581E+04  0.25500000920E-02 0.  1.
    10030    2    1    2    0    0  0.00000000000E+00  0.00000000000E+00  0.50407218781E+03  0.25220341040E+04  0.24711469505E+04 0.  0.
        1    1    3    3  502    0  0.36824856883E+03 -0.34466196532E+03  0.14032006426E+04  0.14910972209E+04  0.50400001928E-02 0. -1.
       -1    1    3    3    0  502 -0.36824856883E+03  0.34466196532E+03 -0.89912845474E+03  0.10309368831E+04  0.50400001928E-02 0.  1.
</event>
<event>
 5   0  0.4811500E-07  0.3596559E+04  0.7818609E-02  0.8091280E-01
        1   -1    0    0  501    0  0.00000000000E+00  0.00000000000E+00  0.23171221798E+04  0.23171221798E+04  0.50400001928E-02 0. -1.
       -1   -1    0    0    0  501  0.00000000000E+00  0.00000000000E+00 -0.13956145753E+04  0.13956145753E+04  0.50400001928E-02 0.  1.
    10030    2    1    2    0    0  0.00000000000E+00  0.00000000000E+00  0.92150760450E+03  0.37127367551E+04  0.35965591817E+04 0.  0.
        2    1    3    3  502    0  0.17053688318E+04 -0.40493842188E+03  0.45835630426E+02  0.17533849786E+04  0.25500000920E-02 0.  1.
       -2    1    3    3    0  502 -0.17053688318E+04  0.40493842188E+03  0.87567197407E+03  0.19593517765E+04  0.25500000920E-02 0. -1.
</event>
<event>
 5   0  0.1491854E-06  0.3518238E+04  0.7818609E-02  0.8109481E-01
       -2   -1    0    0    0  501  0.00000000000E+00  0.00000000000E+00  0.98781587489E+03  0.98781587489E+03  0.25500000920E-02 0.  1.
        2   -1    0    0  501    0  0.00000000000E+00  0.00000000000E+00 -0.31326680889E+04  0.31326680889E+04  0.25500000920E-02 0. -1.
    10030    2    1    2    0    0  0.00000000000E+00  0.00000000000E+00 -0.21448522140E+04  0.41204839638E+04  0.35182377799E+04 0.  0.
        5    1    3    3  502    0 -0.17059929657E+02 -0.12597761344E+04 -0.25102354864E+04  0.28086707242E+04  0.46999998093E+01 0. -1.
       -5    1    3    3    0  502  0.17059929657E+02  0.12597761344E+04  0.36538327236E+03  0.13118132396E+04  0.46999998093E+01 0.  1.
</event>
<event>
 5   0  0.1505671E-06  0.3668502E+04  0.7818609E-02  0.8074978E-01
        2   -1    0    0  501    0  0.00000000000E+00  0.00000000000E+00  0.99550990480E+03  0.99550990480E+03  0.25500000920E-02 0. -1.
       -2   -1    0    0    0  501  0.00000000000E+00  0.00000000000E+00 -0.33796520191E+04  0.33796520191E+04  0.25500000920E-02 0.  1.
    10030    2    1    2    0    0  0.00000000000E+00  0.00000000000E+00 -0.23841421143E+04  0.43751619239E+04  0.36685021792E+04 0.  0.
        3    1    3    3  502    0  0.14791393823E+04  0.33834295766E+03 -0.24212010671E+04  0.28573666000E+04  0.10100000352E+00 0.  1.
       -3    1    3    3    0  502 -0.14791393823E+04 -0.33834295766E+03  0.37058952801E+02  0.15177953239E+04  0.10100000352E+00 0. -1.
</event>
<event>
 5   0  0.4811500E-07  0.3386162E+04  0.7818609E-02  0.8141311E-01
        1   -1    0    0  501    0  0.00000000000E+00  0.00000000000E+00  0.17046448545E+04  0.17046448545E+04  0.50400001928E-02 0. -1.
       -1   -1    0    0    0  501  0.00000000000E+00  0.00000000000E+00 -0.16815954450E+04  0.16815954450E+04  0.50400001928E-02 0.  1.
    10030    2    1    2    0    0  0.00000000000E+00  0.00000000000E+00  0.23049409479E+02  0.33862402996E+04  0.33861618525E+04 0.  0.
        2    1    3    3  502    0  0.71371032693E+03  0.15166796214E+04  0.24990706748E+03  0.16947427673E+04  0.25500000920E-02 0. -1.
       -2    1    3    3    0  502 -0.71371032693E+03 -0.15166796214E+04 -0.22685765800E+03  0.16914975323E+04  0.25500000920E-02 0.  1.
</event>
<event>
 5   0  0.4811500E-07  0.3600237E+04  0.7818609E-02  0.8090437E-01
       -1   -1    0    0    0  501  0.00000000000E+00  0.00000000000E+00  0.25395428721E+04  0.25395428721E+04  0.50400001928E-02 0.  1.
        1   -1    0    0  501    0  0.00000000000E+00  0.00000000000E+00 -0.12759882909E+04  0.12759882909E+04  0.50400001928E-02 0. -1.
    10030    2    1    2    0    0  0.00000000000E+00  0.00000000000E+00  0.12635545812E+04  0.38155311631E+04  0.36002371973E+04 0.  0.
        2    1    3    3  502    0 -0.28795853113E+03 -0.73555475321E+03  0.23460560456E+04  0.24754676083E+04  0.25500000920E-02 0.  1.
       -2    1    3    3    0  502  0.28795853113E+03  0.73555475321E+03 -0.10825014644E+04  0.13400635548E+04  0.25500000920E-02 0. -1.
</event>
<event>
 5   0  0.4811500E-07  0.3627271E+04  0.7818609E-02  0.8084273E-01
        1   -1    0    0  501    0  0.00000000000E+00  0.00000000000E+00  0.25027833589E+04  0.25027833589E+04  0.50400001928E-02 0. -1.
       -1   -1    0    0    0  501  0.00000000000E+00  0.00000000000E+00 -0.13142464683E+04  0.13142464683E+04  0.50400001928E-02 0.  1.
    10030    2    1    2    0    0  0.00000000000E+00  0.00000000000E+00  0.11885368906E+04  0.38170298273E+04  0.36272712556E+04 0.  0.
        5    1    3    3  502    0  0.50856488989E+03  0.39832014859E+03 -0.11890722826E+04  0.13532228830E+04  0.46999998093E+01 0.  1.
       -5    1    3    3    0  502 -0.50856488989E+03 -0.39832014859E+03  0.23776091732E+04  0.24638069442E+04  0.46999998093E+01 0. -1.
</event>
<event>
 5   0  0.1468942E-06  0.3512534E+04  0.7818609E-02  0.8110826E-01
       -2   -1    0    0    0  501  0.00000000000E+00  0.00000000000E+00  0.19742263114E+04  0.19742263114E+04  0.25500000920E-02 0.  1.
        2   -1    0    0  501    0  0.00000000000E+00  0.00000000000E+00 -0.15623712359E+04  0.15623712359E+04  0.25500000920E-02 0. -1.
    10030    2    1    2    0    0  0.00000000000E+00  0.00000000000E+00  0.41185507545E+03  0.35365975473E+04  0.35125343569E+04 0.  0.
        2    1    3    3  502    0 -0.17437715137E+04 -0.20907723217E+03  0.20120271733E+03  0.17677485439E+04  0.25500000920E-02 0.  1.
       -2    1    3    3    0  502  0.17437715137E+04  0.20907723217E+03  0.21065235811E+03  0.17688490034E+04  0.25500000920E-02 0. -1.
</event>
<event>
 5   0  0.1468942E-06  0.3602112E+04  0.7818609E-02  0.8090008E-01
        2   -1    0    0  501    0  0.00000000000E+00  0.00000000000E+00  0.29825860921E+04  0.29825860921E+04  0.25500000920E-02 0.  1.
       -2   -1    0    0    0  501  0.00000000000E+00  0.00000000000E+00 -0.10875806836E+04  0.10875806836E+04  0.25500000920E-02 0. -1.
    10030    2    1    2    0    0  0.00000000000E+00  0.00000000000E+00  0.18950054086E+04  0.40701667757E+04  0.36021121698E+04 0.  0.
        2    1    3    3  502    0 -0.10415694810E+04 -0.10036864720E+03 -0.70887452917E+03  0.12639002917E+04  0.25500000920E-02 0. -1.
       -2    1    3    3    0  502  0.10415694810E+04  0.10036864720E+03  0.26038799377E+04  0.28062664840E+04  0.25500000920E-02 0.  1.
</event>
<event>
 5   0  0.4811500E-07  0.3619772E+04  0.7818609E-02  0.8085978E-01
        1   -1    0    0  501    0  0.00000000000E+00  0.00000000000E+00  0.19626881541E+04  0.19626881541E+04  0.50400001928E-02 0.  1.
       -1   -1    0    0    0  501  0.00000000000E+00  0.00000000000E+00 -0.16689797670E+04  0.16689797670E+04  0.50400001928E-02 0. -1.
    10030    2    1    2    0    0  0.00000000000E+00  0.00000000000E+00  0.29370838710E+03  0.36316679211E+04  0.36197717155E+04 0.  0.
        3    1    3    3  502    0  0.13592886193E+04 -0.10301287234E+04 -0.46082281152E+03  0.17666885439E+04  0.10100000352E+00 0. -1.
       -3    1    3    3    0  502 -0.13592886193E+04  0.10301287234E+04  0.75453119862E+03  0.18649793772E+04  0.10100000352E+00 0.  1.
</event>
<event>
 5   0  0.1379425E-06  0.3558524E+04  0.7818609E-02  0.8100059E-01
       -2   -1    0    0    0  501  0.00000000000E+00  0.00000000000E+00  0.17561374657E+04  0.17561374657E+04  0.25500000920E-02 0. -1.
        2   -1    0    0  501    0  0.00000000000E+00  0.00000000000E+00 -0.18026910800E+04  0.18026910800E+04  0.25500000920E-02 0.  1.
    10030    2    1    2    0    0  0.00000000000E+00  0.00000000000E+00 -0.46553614277E+02  0.35588285458E+04  0.35585240450E+04 0.  0.
        4    1    3    3  502    0 -0.16465288181E+04 -0.61075842848E+03 -0.30911365877E+03  0.17831533512E+04  0.12699999809E+01 0. -1.
       -4    1    3    3    0  502  0.16465288181E+04  0.61075842848E+03  0.26256004449E+03  0.17756751946E+04  0.12699999809E+01 0.  1.
</event>
<event>
 5   0  0.5071661E-07  0.3272311E+04  0.7818609E-02  0.8169977E-01
        1   -1    0    0  501    0  0.00000000000E+00  0.00000000000E+00  0.14505748105E+04  0.14505748105E+04  0.50400001928E-02 0. -1.
       -1   -1    0    0    0  501  0.00000000000E+00  0.00000000000E+00 -0.18454787767E+04  0.18454787767E+04  0.50400001928E-02 0.  1.
    10030    2    1    2    0    0  0.00000000000E+00  0.00000000000E+00 -0.39490396625E+03  0.32960535872E+04  0.32723111263E+04 0.  0.
        1    1    3    3  502    0 -0.14296247339E+04  0.55956491986E+01  0.60402655099E+03  0.15520007298E+04  0.50400001928E-02 0.  1.
       -1    1    3    3    0  502  0.14296247339E+04 -0.55956491986E+01 -0.99893051724E+03  0.17440528574E+04  0.50400001928E-02 0. -1.
</event>
<event>
 5   0  0.1468942E-06  0.3581678E+04  0.7818609E-02  0.8094702E-01
       -2   -1    0    0    0  501  0.00000000000E+00  0.00000000000E+00  0.15132903659E+04  0.15132903659E+04  0.25500000920E-02 0.  1.
        2   -1    0    0  501    0  0.00000000000E+00  0.00000000000E+00 -0.21192919801E+04  0.21192919801E+04  0.25500000920E-02 0. -1.
    10030    2    1    2    0    0  0.00000000000E+00  0.00000000000E+00 -0.60600161420E+03  0.36325823459E+04  0.35816778950E+04 0.  0.
        2    1    3    3  502    0 -0.55892142050E+03 -0.16981996522E+04 -0.40854189655E+03  0.18338979509E+04  0.25500000920E-02 0.  1.
       -2    1    3    3    0  502  0.55892142050E+03  0.16981996522E+04 -0.19745971765E+03  0.17986843951E+04  0.25500000920E-02 0. -1.
</event>
<event>
 5   0  0.4811500E-07  0.3553815E+04  0.7818609E-02  0.8101154E-01
       -1   -1    0    0    0  501  0.00000000000E+00  0.00000000000E+00  0.14747860977E+04  0.14747860977E+04  0.50400001928E-02 0. -1.
        1   -1    0    0  501    0  0.00000000000E+00  0.00000000000E+00 -0.21409202239E+04  0.21409202239E+04  0.50400001928E-02 0.  1.
    10030    2    1    2    0    0  0.00000000000E+00  0.00000000000E+00 -0.66613412626E+03  0.36157063216E+04  0.35538145041E+04 0.  0.
        3    1    3    3  502    0 -0.99998850202E+03  0.14101571389E+04  0.85039023281E+02  0.17308240252E+04  0.10100000352E+00 0. -1.
       -3    1    3    3    0  502  0.99998850202E+03 -0.14101571389E+04 -0.75117314954E+03  0.18848822964E+04  0.10100000352E+00 0.  1.
</event>
<event>
 5   0  0.1444091E-06  0.3416857E+04  0.7818609E-02  0.8133782E-01
        2   -1    0    0  501    0  0.00000000000E+00  0.00000000000E+00  0.17571238919E+04  0.17571238919E+04  0.25500000920E-02 0.  1.
       -2   -1    0    0    0  501  0.00000000000E+00  0.00000000000E+00 -0.16610822610E+04  0.16610822610E+04  0.25500000920E-02 0. -1.
    10030    2    1    2    0    0  0.00000000000E+00  0.00000000000E+00  0.96041630978E+02  0.34182061529E+04  0.34168566415E+04 0.  0.
        1    1    3    3  502    0 -0.12813140838E+04  0.88322239885E+03  0.75319619067E+03  0.17289164493E+04  0.50400001928E-02 0.  1.
       -1    1    3    3    0  502  0.12813140838E+04 -0.88322239885E+03 -0.65715455969E+03  0.16892897035E+04  0.50400001928E-02 0. -1.
</event>
<event>
 5   0  0.1491854E-06  0.3616047E+04  0.7818609E-02  0.8086826E-01
        2   -1    0    0  501    0  0.00000000000E+00  0.00000000000E+00  0.19323333106E+04  0.19323333106E+04  0.25500000920E-02 0. -1.
       -2   -1    0    0    0  501  0.00000000000E+00  0.00000000000E+00 -0.16917106778E+04  0.16917106778E+04  0.25500000920E-02 0.  1.
    10030    2    1    2    0    0  0.00000000000E+00  0.00000000000E+00  0.24062263282E+03  0.36240439885E+04  0.36160469547E+04 0.  0.
        5    1    3    3  502    0  0.11155261350E+04 -0.47325742628E+03  0.14651267181E+04  0.19013125833E+04  0.46999998093E+01 0. -1.
       -5    1    3    3    0  502 -0.11155261350E+04  0.47325742628E+03 -0.12245040853E+04  0.17227314051E+04  0.46999998093E+01 0.  1.
</event>
<event>
 5   0  0.5071661E-07  0.3209856E+04  0.7818609E-02  0.8186219E-01
       -1   -1    0    0    0  501  0.00000000000E+00  0.00000000000E+00  0.18067566530E+04  0.18067566530E+04  0.50400001928E-02 0.  1.
        1   -1    0    0  501    0  0.00000000000E+00  0.00000000000E+00 -0.14256451426E+04  0.14256451427E+04  0.50400001928E-02 0. -1.
    10030    2    1    2    0    0  0.00000000000E+00  0.00000000000E+00  0.38111151032E+03  0.32324017956E+04  0.32098559758E+04 0.  0.
        1    1    3    3  502    0 -0.38086715354E+02  0.12150476370E+03  0.18016618238E+04  0.18061559547E+04  0.50400001928E-02 0.  1.
       -1    1    3    3    0  502  0.38086715354E+02 -0.12150476370E+03 -0.14205503135E+04  0.14262458409E+04  0.50400001928E-02 0. -1.
</event>
<event>
 5   0  0.4811500E-07  0.3519919E+04  0.7818609E-02  0.8109086E-01
       -1   -1    0    0    0  501  0.00000000000E+00  0.00000000000E+00  0.14939267047E+04  0.14939267047E+04  0.50400001928E-02 0. -1.
        1   -1    0    0  501    0  0.00000000000E+00  0.00000000000E+00 -0.20733665174E+04  0.20733665174E+04  0.50400001928E-02 0.  1.
    10030    2    1    2    0    0  0.00000000000E+00  0.00000000000E+00 -0.57943981272E+03  0.35672932221E+04  0.35199190951E+04 0.  0.
        2    1    3    3  502    0 -0.69398401254E+03 -0.13426412155E+04 -0.12036094209E+04  0.19320908056E+04  0.25500000920E-02 0.  1.
       -2    1    3    3    0  502  0.69398401254E+03  0.13426412155E+04  0.62416960816E+03  0.16352024165E+04  0.25500000920E-02 0. -1.
</event>
<event>
 5   0  0.4811500E-07  0.3232672E+04  0.7818609E-02  0.8180242E-01
       -1   -1    0    0    0  501  0.00000000000E+00  0.00000000000E+00  0.16600910091E+04  0.16600910091E+04  0.50400001928E-02 0.  1.
        1   -1    0    0  501    0  0.00000000000E+00  0.00000000000E+00 -0.15737342125E+04  0.15737342125E+04  0.50400001928E-02 0. -1.
    10030    2    1    2    0    0  0.00000000000E+00  0.00000000000E+00  0.86356796556E+02  0.32338252216E+04  0.32326719703E+04 0.  0.
        4    1    3    3  502    0  0.11120795469E+03 -0.19926113573E+01  0.16562576799E+04  0.16599886430E+04  0.12699999809E+01 0.  1.
       -4    1    3    3    0  502 -0.11120795469E+03  0.19926113573E+01 -0.15699008834E+04  0.15738365786E+04  0.12699999809E+01 0. -1.
</event>
<event>
 5   0  0.1468942E-06  0.3454374E+04  0.7818609E-02  0.8124689E-01
        2   -1    0    0  501    0  0.00000000000E+00  0.00000000000E+00  0.17093856036E+04  0.17093856036E+04  0.25500000920E-02 0. -1.
       -2   -1    0    0    0  501  0.00000000000E+00  0.00000000000E+00 -0.17451734985E+04  0.17451734985E+04  0.25500000920E-02 0.  1.
    10030    2    1    2    0    0  0.00000000000E+00  0.00000000000E+00 -0.35787894879E+02  0.34545591020E+04  0.34543737227E+04 0.  0.
        2    1    3    3  502    0  0.44110920912E+03  0.15846451205E+04 -0.54470202102E+03  0.17327370787E+04  0.25500000920E-02 0.  1.
       -2    1    3    3    0  502 -0.44110920912E+03 -0.15846451205E+04  0.50891412614E+03  0.17218220233E+04  0.25500000920E-02 0. -1.
</event>
<event>
 5   0  0.1468942E-06  0.2565376E+04  0.7818609E-02  0.8380058E-01
       -2   -1    0    0    0  501  0.00000000000E+00  0.00000000000E+00  0.11012283045E+04  0.11012283046E+04  0.25500000920E-02 0. -1.
        2   -1    0    0  501    0  0.00000000000E+00  0.00000000000E+00 -0.14940481304E+04  0.14940481304E+04  0.25500000920E-02 0.  1.
    10030    2    1    2    0    0  0.00000000000E+00  0.00000000000E+00 -0.39281982587E+03  0.25952764350E+04  0.25653756759E+04 0.  0.
        2    1    3    3  502    0 -0.17281434723E+03 -0.86255706442E+03 -0.11407883536E+04  0.14405788960E+04  0.25500000920E-02 0.  1.
       -2    1    3    3    0  502  0.17281434723E+03  0.86255706442E+03  0.74796852772E+03  0.11546975389E+04  0.25500000920E-02 0. -1.
</event>
<event>
 5   0  0.1379425E-06  0.2990938E+04  0.7818609E-02  0.8246323E-01
        2   -1    0    0  501    0  0.00000000000E+00  0.00000000000E+00  0.20843392233E+04  0.20843392233E+04  0.25500000920E-02 0.  1.
       -2   -1    0    0    0  501  0.00000000000E+00  0.00000000000E+00 -0.10729674636E+04  0.10729674636E+04  0.25500000920E-02 0. -1.
    10030    2    1    2    0    0  0.00000000000E+00  0.00000000000E+00  0.10113717597E+04  0.31573066869E+04  0.29909384278E+04 0.  0.
        4    1    3    3  502    0  0.11841874981E+04  0.79246464957E+03  0.26420557756E+02  0.14251315414E+04  0.12699999809E+01 0. -1.
       -4    1    3    3    0  502 -0.11841874981E+04 -0.79246464957E+03  0.98495120191E+03  0.17321751455E+04  0.12699999809E+01 0.  1.
</event>
<event>
 5   0  0.1491854E-06  0.3608151E+04  0.7818609E-02  0.8088627E-01
       -2   -1    0    0    0  501  0.00000000000E+00  0.00000000000E+00  0.20767178830E+04  0.20767178830E+04  0.25500000920E-02 0.  1.
        2   -1    0    0  501    0  0.00000000000E+00  0.00000000000E+00 -0.15672271354E+04  0.15672271354E+04  0.25500000920E-02 0. -1.
    10030    2    1    2    0    0  0.00000000000E+00  0.00000000000E+00  0.50949074762E+03  0.36439450185E+04  0.36081511160E+04 0.  0.
        5    1    3    3  502    0  0.28554089181E+03  0.73329520103E+03  0.18942448440E+04  0.20512047854E+04  0.46999998093E+01 0.  1.
       -5    1    3    3    0  502 -0.28554089181E+03 -0.73329520103E+03 -0.13847540963E+04  0.15927402331E+04  0.46999998093E+01 0. -1.
</event>
<event>
 5   0  0.1468942E-06  0.3018657E+04  0.7818609E-02  0.8238423E-01
        2   -1    0    0  501    0  0.00000000000E+00  0.00000000000E+00  0.13991375204E+04  0.13991375204E+04  0.25500000920E-02 0. -1.
       -2   -1    0    0    0  501  0.00000000000E+00  0.00000000000E+00 -0.16281980403E+04  0.16281980403E+04  0.25500000920E-02 0.  1.
    10030    2    1    2    0    0  0.00000000000E+00  0.00000000000E+00 -0.22906051989E+03  0.30273355606E+04  0.30186572967E+04 0.  0.
        2    1    3    3  502    0  0.12631362576E+04 -0.75694035263E+03  0.21748201487E+03  0.14885463814E+04  0.25500000920E-02 0. -1.
       -2    1    3    3    0  502 -0.12631362576E+04  0.75694035263E+03 -0.44654253476E+03  0.15387891792E+04  0.25500000920E-02 0.  1.
</event>
<event>
 5   0  0.1379425E-06  0.3185239E+04  0.7818609E-02  0.8192726E-01
       -2   -1    0    0    0  501  0.00000000000E+00  0.00000000000E+00  0.13548591968E+04  0.13548591968E+04  0.25500000920E-02 0.  1.
        2   -1    0    0  501    0  0.00000000000E+00  0.00000000000E+00 -0.18721042439E+04  0.18721042439E+04  0.25500000920E-02 0. -1.
    10030    2    1    2    0    0  0.00000000000E+00  0.00000000000E+00 -0.51724504707E+03  0.32269634407E+04  0.31852394900E+04 0.  0.
        4    1    3    3  502    0 -0.62262591175E+03  0.65676859508E+03  0.10690507920E+04  0.14006709900E+04  0.12699999809E+01 0.  1.
       -4    1    3    3    0  502  0.62262591175E+03 -0.65676859508E+03 -0.15862958391E+04  0.18262924507E+04  0.12699999809E+01 0. -1.
</event>
<event>
 5   0  0.1379425E-06  0.2519069E+04  0.7818609E-02  0.8396223E-01
       -2   -1    0    0    0  501  0.00000000000E+00  0.00000000000E+00  0.21184175788E+04  0.21184175788E+04  0.25500000920E-02 0. -1.
        2   -1    0    0  501    0  0.00000000000E+00  0.00000000000E+00 -0.74887371073E+03  0.74887371073E+03  0.25500000920E-02 0.  1.
    10030    2    1    2    0    0  0.00000000000E+00  0.00000000000E+00  0.13695438681E+04  0.28672912896E+04  0.25190690607E+04 0.  0.
        4    1    3    3  502    0 -0.66591243447E+03 -0.74330239344E+03 -0.18988391894E+03  0.10158717114E+04  0.12699999809E+01 0.  1.
       -4    1    3    3    0  502  0.66591243447E+03  0.74330239344E+03  0.15594277870E+04  0.18514195782E+04  0.12699999809E+01 0. -1.
</event>
<event>
 5   0  0.1379425E-06  0.3628169E+04  0.7818609E-02  0.8084069E-01
       -2   -1    0    0    0  501  0.00000000000E+00  0.00000000000E+00  0.15712100567E+04  0.15712100567E+04  0.25500000920E-02 0.  1.
        2   -1    0    0  501    0  0.00000000000E+00  0.00000000000E+00 -0.20945024666E+04  0.20945024666E+04  0.25500000920E-02 0. -1.
    10030    2    1    2    0    0  0.00000000000E+00  0.00000000000E+00 -0.52329240990E+03  0.36657125234E+04  0.36281694224E+04 0.  0.
        4    1    3    3  502    0 -0.17047603243E+03 -0.78403597871E+03  0.13821889060E+04  0.15981934421E+04  0.12699999809E+01 0.  1.
       -4    1    3    3    0  502  0.17047603243E+03  0.78403597871E+03 -0.19054813159E+04  0.20675190813E+04  0.12699999809E+01 0. -1.
</event>
<event>
 5   0  0.1491854E-06  0.2386365E+04  0.7818609E-02  0.8444626E-01
       -2   -1    0    0    0  501  0.00000000000E+00  0.00000000000E+00  0.86873911195E+03  0.86873911195E+03  0.25500000920E-02 0. -1.
        2   -1    0    0  501    0  0.00000000000E+00  0.00000000000E+00 -0.16387935685E+04  0.16387935685E+04  0.25500000920E-02 0.  1.
    10030    2    1    2    0    0  0.00000000000E+00  0.00000000000E+00 -0.77005445658E+03  0.25075326805E+04  0.23863646573E+04 0.  0.
        5    1    3    3  502    0 -0.68334971730E+03 -0.14680661864E+03 -0.14011561152E+04  0.15658159434E+04  0.46999998093E+01 0.  1.
       -5    1    3    3    0  502  0.68334971730E+03  0.14680661864E+03  0.63110165862E+03  0.94171673709E+03  0.46999998093E+01 0. -1.
</event>
<event>
 5   0  0.4811500E-07  0.3496394E+04  0.7818609E-02  0.8114645E-01
       -1   -1    0    0    0  501  0.00000000000E+00  0.00000000000E+00  0.24555010044E+04  0.24555010044E+04  0.50400001928E-02 0. -1.
        1   -1    0    0  501    0  0.00000000000E+00  0.00000000000E+00 -0.12446309196E+04  0.12446309196E+04  0.50400001928E-02 0.  1.
    10030    2    1    2    0    0  0.00000000000E+00  0.00000000000E+00  0.12108700848E+04  0.37001319241E+04  0.34963938413E+04 0.  0.
        2    1    3    3  502    0  0.22305558262E+03  0.43121940781E+03  0.23827280364E+04  0.24316860130E+04  0.25500000920E-02 0. -1.
       -2    1    3    3    0  502 -0.22305558262E+03 -0.43121940781E+03 -0.11718579516E+04  0.12684459110E+04  0.25500000920E-02 0.  1.
</event>
<event>
 5   0  0.1491854E-06  0.3589972E+04  0.7818609E-02  0.8092793E-01
       -2   -1    0    0    0  501  0.00000000000E+00  0.00000000000E+00  0.19362832105E+04  0.19362832105E+04  0.25500000920E-02 0. -1.
        2   -1    0    0  501    0  0.00000000000E+00  0.00000000000E+00 -0.16639994629E+04  0.16639994629E+04  0.25500000920E-02 0.  1.
    10030    2    1    2    0    0  0.00000000000E+00  0.00000000000E+00  0.27228374760E+03  0.36002826734E+04  0.35899717115E+04 0.  0.
        5    1    3    3  502    0  0.11216585218E+04 -0.11709528581E+04  0.90822558829E+03  0.18585328205E+04  0.46999998093E+01 0. -1.
       -5    1    3    3    0  502 -0.11216585218E+04  0.11709528581E+04 -0.63594184069E+03  0.17417498530E+04  0.46999998093E+01 0.  1.
</event>
<event>
 5   0  0.1505671E-06  0.3416870E+04  0.7818609E-02  0.8133778E-01
        2   -1    0    0  501    0  0.00000000000E+00  0.00000000000E+00  0.20494012264E+04  0.20494012264E+04  0.25500000920E-02 0.  1.
       -2   -1    0    0    0  501  0.00000000000E+00  0.00000000000E+00 -0.14241967424E+04  0.14241967424E+04  0.25500000920E-02 0. -1.
    10030    2    1    2    0    0  0.00000000000E+00  0.00000000000E+00  0.62520448409E+03  0.34735979688E+04  0.34168702349E+04 0.  0.
        3    1    3    3  502    0 -0.14952533713E+04  0.61627271973E+03  0.87235772300E+03  0.18375480175E+04  0.10100000352E+00 0.  1.
       -3    1    3    3    0  502  0.14952533713E+04 -0.61627271973E+03 -0.24715323891E+03  0.16360499513E+04  0.10100000352E+00 0. -1.
</event>
<event>
 5   0  0.1491854E-06  0.2217254E+04  0.7818609E-02  0.8511281E-01
        2   -1    0    0  501    0  0.00000000000E+00  0.00000000000E+00  0.16552182050E+04  0.16552182050E+04  0.25500000920E-02 0. -1.
       -2   -1    0    0    0  501  0.00000000000E+00  0.00000000000E+00 -0.74253289302E+03  0.74253289303E+03  0.25500000920E-02 0.  1.
    10030    2    1    2    0    0  0.00000000000E+00  0.00000000000E+00  0.91268531201E+03  0.23977510981E+04  0.22172541238E+04 0.  0.
        5    1    3    3  502    0  0.50891942490E+03  0.53211736567E+03  0.13525950475E+04  0.15400270531E+04  0.46999998093E+01 0. -1.
       -5    1    3    3    0  502 -0.50891942490E+03 -0.53211736567E+03 -0.43990973548E+03  0.85772404493E+03  0.46999998093E+01 0.  1.
</event>
<event>
 5   0  0.5071661E-07  0.3305569E+04  0.7818609E-02  0.8161480E-01
       -1   -1    0    0    0  501  0.00000000000E+00  0.00000000000E+00  0.13317678429E+04  0.13317678430E+04  0.50400001928E-02 0.  1.
        1   -1    0    0  501    0  0.00000000000E+00  0.00000000000E+00 -0.20511813707E+04  0.20511813707E+04  0.50400001928E-02 0. -1.
    10030    2    1    2    0    0  0.00000000000E+00  0.00000000000E+00 -0.71941352778E+03  0.33829492137E+04  0.33055694757E+04 0.  0.
        1    1    3    3  502    0 -0.82526927880E+03 -0.12056777884E+04  0.43101757421E+03  0.15233202097E+04  0.50400001928E-02 0.  1.
       -1    1    3    3    0  502  0.82526927880E+03  0.12056777884E+04 -0.11504311020E+04  0.18596290040E+04  0.50400001928E-02 0. -1.
</event>
<event>
 5   0  0.4811500E-07  0.3489964E+04  0.7818609E-02  0.8116173E-01
        1   -1    0    0  501    0  0.00000000000E+00  0.00000000000E+00  0.18777240988E+04  0.18777240988E+04  0.50400001928E-02 0. -1.
       -1   -1    0    0    0  501  0.00000000000E+00  0.00000000000E+00 -0.16216235732E+04  0.16216235732E+04  0.50400001928E-02 0.  1.
    10030    2    1    2    0    0  0.00000000000E+00  0.00000000000E+00  0.25610052560E+03  0.34993476720E+04  0.34899637033E+04 0.  0.
        5    1    3    3  502    0 -0.94208094483E+03 -0.36277416170E+03  0.15551896526E+04  0.18541193448E+04  0.46999998093E+01 0. -1.
       -5    1    3    3    0  502  0.94208094483E+03  0.36277416170E+03 -0.12990891270E+04  0.16452283273E+04  0.46999998093E+01 0.  1.
</event>
<event>
 5   0  0.4811500E-07  0.3136865E+04  0.7818609E-02  0.8205693E-01
        1   -1    0    0  501    0  0.00000000000E+00  0.00000000000E+00  0.20953335961E+04  0.20953335962E+04  0.50400001928E-02 0. -1.
       -1   -1    0    0    0  501  0.00000000000E+00  0.00000000000E+00 -0.11740284321E+04  0.11740284321E+04  0.50400001928E-02 0.  1.
    10030    2    1    2    0    0  0.00000000000E+00  0.00000000000E+00  0.92130516405E+03  0.32693620283E+04  0.31368654524E+04 0.  0.
        5    1    3    3  502    0 -0.12800668099E+04 -0.49038925633E+02  0.14038544211E+04  0.19004749879E+04  0.46999998093E+01 0.  1.
       -5    1    3    3    0  502  0.12800668099E+04  0.49038925633E+02 -0.48254925702E+03  0.13688870404E+04  0.46999998093E+01 0. -1.
</event>
<event>
 5   0  0.1444091E-06  0.3609923E+04  0.7818609E-02  0.8088223E-01
        2   -1    0    0  501    0  0.00000000000E+00  0.00000000000E+00  0.14315164698E+04  0.14315164698E+04  0.25500000920E-02 0. -1.
       -2   -1    0    0    0  501  0.00000000000E+00  0.00000000000E+00 -0.22758284325E+04  0.22758284325E+04  0.25500000920E-02 0.  1.
    10030    2    1    2    0    0  0.00000000000E+00  0.00000000000E+00 -0.84431196269E+03  0.37073449022E+04  0.36099229263E+04 0.  0.
        1    1    3    3  502    0  0.16066600902E+04 -0.76939965688E+03 -0.12352792028E+03  0.17856627970E+04  0.50400001928E-02 0. -1.
       -1    1    3    3    0  502 -0.16066600902E+04  0.76939965688E+03 -0.72078404241E+03  0.19216821052E+04  0.50400001928E-02 0.  1.
</event>
<event>
 5   0  0.1444091E-06  0.3594719E+04  0.7818609E-02  0.8091702E-01
       -2   -1    0    0    0  501  0.00000000000E+00  0.00000000000E+00  0.18411798294E+04  0.18411798294E+04  0.25500000920E-02 0.  1.
        2   -1    0    0  501    0  0.00000000000E+00  0.00000000000E+00 -0.17545825000E+04  0.17545825000E+04  0.25500000920E-02 0. -1.
    10030    2    1    2    0    0  0.00000000000E+00  0.00000000000E+00  0.86597329408E+02  0.35957623294E+04  0.35947194094E+04 0.  0.
        1    1    3    3  502    0  0.99739614297E+03 -0.95974522401E+03  0.11901878708E+04  0.18255018841E+04  0.50400001928E-02 0.  1.
       -1    1    3    3    0  502 -0.99739614297E+03  0.95974522401E+03 -0.11035905414E+04  0.17702604453E+04  0.50400001928E-02 0. -1.
</event>
<event>
 5   0  0.4811500E-07  0.3710908E+04  0.7818609E-02  0.8065549E-01
        1   -1    0    0  501    0  0.00000000000E+00  0.00000000000E+00  0.20748136881E+04  0.20748136881E+04  0.50400001928E-02 0.  1.
       -1   -1    0    0    0  501  0.00000000000E+00  0.00000000000E+00 -0.16592861092E+04  0.16592861092E+04  0.50400001928E-02 0. -1.
    10030    2    1    2    0    0  0.00000000000E+00  0.00000000000E+00  0.41552757893E+03  0.37340997972E+04  0.37109079923E+04 0.  0.
        4    1    3    3  502    0  0.89501709050E+03 -0.11769753466E+03  0.18389436717E+04  0.20485662651E+04  0.12699999809E+01 0.  1.
       -4    1    3    3    0  502 -0.89501709050E+03  0.11769753466E+03 -0.14234160928E+04  0.16855335321E+04  0.12699999809E+01 0. -1.
</event>
<event>
 5   0  0.1468942E-06  0.3486173E+04  0.7818609E-02  0.8117074E-01
       -2   -1    0    0    0  501  0.00000000000E+00  0.00000000000E+00  0.12568597086E+04  0.12568597086E+04  0.25500000920E-02 0.  1.
        2   -1    0    0  501    0  0.00000000000E+00  0.00000000000E+00 -0.24174147843E+04  0.24174147843E+04  0.25500000920E-02 0. -1.
    10030    2    1    2    0    0  0.00000000000E+00  0.00000000000E+00 -0.11605550756E+04  0.36742744929E+04  0.34861733986E+04 0.  0.
        2    1    3    3  502    0 -0.11245380119E+04 -0.12628881580E+04 -0.10260387691E+04  0.19779352354E+04  0.25500000920E-02 0. -1.
       -2    1    3    3    0  502  0.11245380119E+04  0.12628881580E+04 -0.13451630651E+03  0.16963392575E+04  0.25500000920E-02 0.  1.
</event>
<event>
 5   0  0.4811500E-07  0.3579829E+04  0.7818609E-02  0.8095128E-01
        1   -1    0    0  501    0  0.00000000000E+00  0.00000000000E+00  0.13934506810E+04  0.13934506810E+04  0.50400001928E-02 0.  1.
       -1   -1    0    0    0  501  0.00000000000E+00  0.00000000000E+00 -0.22991802310E+04  0.22991802310E+04  0.50400001928E-02 0. -1.
    10030    2    1    2    0    0  0.00000000000E+00  0.00000000000E+00 -0.90572954992E+03  0.36926309120E+04  0.35798291907E+04 0.  0.
        5    1    3    3  502    0  0.77965644402E+02  0.14289431989E+04  0.65609995290E+03  0.15743082753E+04  0.46999998093E+01 0.  1.
       -5    1    3    3    0  502 -0.77965644402E+02 -0.14289431989E+04 -0.15618295028E+04  0.21183226367E+04  0.46999998093E+01 0. -1.
</event>
<event>
 5   0  0.1491854E-06  0.3529863E+04  0.7818609E-02  0.8106749E-01
       -2   -1    0    0    0  501  0.00000000000E+00  0.00000000000E+00  0.11742789757E+04  0.11742789757E+04  0.25500000920E-02 0.  1.
        2   -1    0    0  501    0  0.00000000000E+00  0.00000000000E+00 -0.26526769519E+04  0.26526769519E+04  0.25500000920E-02 0. -1.
    10030    2    1    2    0    0  0.00000000000E+00  0.00000000000E+00 -0.14783979762E+04  0.38269559275E+04  0.35298627587E+04 0.  0.
        5    1    3    3  502    0 -0.50137787559E+03 -0.68082821592E+03  0.94040204662E+03  0.12646283774E+04  0.46999998093E+01 0.  1.
       -5    1    3    3    0  502  0.50137787559E+03  0.68082821592E+03 -0.24188000228E+04  0.25623275501E+04  0.46999998093E+01 0. -1.
</event>
<event>
 5   0  0.1491854E-06  0.3472860E+04  0.7818609E-02  0.8120252E-01
        2   -1    0    0  501    0  0.00000000000E+00  0.00000000000E+00  0.13901522980E+04  0.13901522980E+04  0.25500000920E-02 0.  1.
       -2   -1    0    0    0  501  0.00000000000E+00  0.00000000000E+00 -0.21689634034E+04  0.21689634034E+04  0.25500000920E-02 0. -1.
    10030    2    1    2    0    0  0.00000000000E+00  0.00000000000E+00 -0.77881110542E+03  0.35591157015E+04  0.34728601812E+04 0.  0.
        5    1    3    3  502    0 -0.23372775388E+03  0.17135031253E+04 -0.54964021035E+03  0.18146206420E+04  0.46999998093E+01 0.  1.
       -5    1    3    3    0  502  0.23372775388E+03 -0.17135031253E+04 -0.22917089507E+03  0.17444950595E+04  0.46999998093E+01 0. -1.
</event>
<event>
 5   0  0.5071661E-07  0.3583152E+04  0.7818609E-02  0.8094362E-01
        1   -1    0    0  501    0  0.00000000000E+00  0.00000000000E+00  0.18603002062E+04  0.18603002062E+04  0.50400001928E-02 0. -1.
       -1   -1    0    0    0  501  0.00000000000E+00  0.00000000000E+00 -0.17253907323E+04  0.17253907323E+04  0.50400001928E-02 0.  1.
    10030    2    1    2    0    0  0.00000000000E+00  0.00000000000E+00  0.13490947386E+03  0.35856909385E+04  0.35831520956E+04 0.  0.
        1    1    3    3  502    0  0.88295536686E+02 -0.10576796053E+04 -0.13769190802E+04  0.17385017695E+04  0.50400001928E-02 0.  1.
       -1    1    3    3    0  502 -0.88295536686E+02  0.10576796053E+04  0.15118285540E+04  0.18471891690E+04  0.50400001928E-02 0. -1.
</event>
<event>
 5   0  0.4811500E-07  0.3523971E+04  0.7818609E-02  0.8108133E-01
        1   -1    0    0  501    0  0.00000000000E+00  0.00000000000E+00  0.25312375832E+04  0.25312375832E+04  0.50400001928E-02 0.  1.
       -1   -1    0    0    0  501  0.00000000000E+00  0.00000000000E+00 -0.12265115929E+04  0.12265115929E+04  0.50400001928E-02 0. -1.
    10030    2    1    2    0    0  0.00000000000E+00  0.00000000000E+00  0.13047259903E+04  0.37577491762E+04  0.35239706243E+04 0.  0.
        4    1    3    3  502    0 -0.23169064217E+03 -0.12704101699E+04 -0.62589662050E+03  0.14350507817E+04  0.12699999809E+01 0. -1.
       -4    1    3    3    0  502  0.23169064217E+03  0.12704101699E+04  0.19306226108E+04  0.23226983945E+04  0.12699999809E+01 0.  1.
</event>
<event>
 5   0  0.1505671E-06  0.3559912E+04  0.7818609E-02  0.8099737E-01
       -2   -1    0    0    0  501  0.00000000000E+00  0.00000000000E+00  0.13259731002E+04  0.13259731002E+04  0.25500000920E-02 0.  1.
        2   -1    0    0  501    0  0.00000000000E+00  0.00000000000E+00 -0.23893719225E+04  0.23893719225E+04  0.25500000920E-02 0. -1.
    10030    2    1    2    0    0  0.00000000000E+00  0.00000000000E+00 -0.10633988223E+04  0.37153450228E+04  0.35599117381E+04 0.  0.
        3    1    3    3  502    0 -0.85793764087E+03 -0.45894615978E+03 -0.20872652153E+04  0.23029035287E+04  0.10100000352E+00 0. -1.
       -3    1    3    3    0  502  0.85793764087E+03  0.45894615978E+03  0.10238663930E+04  0.14124414941E+04  0.10100000352E+00 0.  1.
</event>
<event>
 5   0  0.1444091E-06  0.3601654E+04  0.7818609E-02  0.8090113E-01
       -2   -1    0    0    0  501  0.00000000000E+00  0.00000000000E+00  0.21163528237E+04  0.21163528237E+04  0.25500000920E-02 0.  1.
        2   -1    0    0  501    0  0.00000000000E+00  0.00000000000E+00 -0.15323429190E+04  0.15323429190E+04  0.25500000920E-02 0. -1.
    10030    2    1    2    0    0  0.00000000000E+00  0.00000000000E+00  0.58400990473E+03  0.36486957426E+04  0.36016542107E+04 0.  0.
        1    1    3    3  502    0  0.50006320488E+03  0.90463463028E+03 -0.12018913703E+04  0.15852349634E+04  0.50400001928E-02 0. -1.
       -1    1    3    3    0  502 -0.50006320488E+03 -0.90463463028E+03  0.17859012750E+04  0.20634607792E+04  0.50400001928E-02 0.  1.
</event>
<event>
 5   0  0.1491854E-06  0.3573503E+04  0.7818609E-02  0.8096588E-01
       -2   -1    0    0    0  501  0.00000000000E+00  0.00000000000E+00  0.12620632701E+04  0.12620632701E+04  0.25500000920E-02 0.  1.
        2   -1    0    0  501    0  0.00000000000E+00  0.00000000000E+00 -0.25295727963E+04  0.25295727963E+04  0.25500000920E-02 0. -1.
    10030    2    1    2    0    0  0.00000000000E+00  0.00000000000E+00 -0.12675095263E+04  0.37916360664E+04  0.35735029958E+04 0.  0.
        5    1    3    3  502    0  0.45069757370E+03  0.17277493500E+04 -0.70262206516E+03  0.19188397473E+04  0.46999998093E+01 0. -1.
       -5    1    3    3    0  502 -0.45069757370E+03 -0.17277493500E+04 -0.56488746111E+03  0.18727963191E+04  0.46999998093E+01 0.  1.
</event>
<event>
 5   0  0.1491854E-06  0.3532433E+04  0.7818609E-02  0.8106146E-01
        2   -1    0    0  501    0  0.00000000000E+00  0.00000000000E+00  0.15937657883E+04  0.15937657883E+04  0.25500000920E-02 0.  1.
       -2   -1    0    0    0  501  0.00000000000E+00  0.00000000000E+00 -0.19573274649E+04  0.19573274649E+04  0.25500000920E-02 0. -1.
    10030    2    1    2    0    0  0.00000000000E+00  0.00000000000E+00 -0.36356167662E+03  0.35510932532E+04  0.35324334672E+04 0.  0.
        5    1    3    3  502    0  0.15935210817E+04  0.17426093434E+03  0.56363668319E+03  0.16992306235E+04  0.46999998093E+01 0.  1.
       -5    1    3    3    0  502 -0.15935210817E+04 -0.17426093434E+03 -0.92719835981E+03  0.18518626298E+04  0.46999998093E+01 0. -1.
</event>
<event>
 5   0  0.1505671E-06  0.3432029E+04  0.7818609E-02  0.8130090E-01
       -2   -1    0    0    0  501  0.00000000000E+00  0.00000000000E+00  0.11065121768E+04  0.11065121768E+04  0.25500000920E-02 0.  1.
        2   -1    0    0  501    0  0.00000000000E+00  0.00000000000E+00 -0.26612503476E+04  0.26612503476E+04  0.25500000920E-02 0. -1.
    10030    2    1    2    0    0  0.00000000000E+00  0.00000000000E+00 -0.15547381708E+04  0.37677625244E+04  0.34320290879E+04 0.  0.
        3    1    3    3  502    0 -0.15288164422E+03 -0.51310040169E+03  0.10124743401E+04  0.11453161654E+04  0.10100000352E+00 0.  1.
       -3    1    3    3    0  502  0.15288164422E+03  0.51310040169E+03 -0.25672125108E+04  0.26224463589E+04  0.10100000352E+00 0. -1.
</event>
<event>
 5   0  0.1379425E-06  0.3611228E+04  0.7818609E-02  0.8087925E-01
        2   -1    0    0  501    0  0.00000000000E+00  0.00000000000E+00  0.17025945122E+04  0.17025945122E+04  0.25500000920E-02 0.  1.
       -2   -1    0    0    0  501  0.00000000000E+00  0.00000000000E+00 -0.19148670277E+04  0.19148670278E+04  0.25500000920E-02 0. -1.
    10030    2    1    2    0    0  0.00000000000E+00  0.00000000000E+00 -0.21227251552E+03  0.36174615400E+04  0.36112280975E+04 0.  0.
        4    1    3    3  502    0 -0.10835582188E+04  0.14149457997E+04 -0.39658579500E+03  0.18257743386E+04  0.12699999809E+01 0.  1.
       -4    1    3    3    0  502  0.10835582188E+04 -0.14149457997E+04  0.18431327948E+03  0.17916872014E+04  0.12699999809E+01 0. -1.
</event>
<event>
 5   0  0.4811500E-07  0.3696986E+04  0.7818609E-02  0.8068630E-01
       -1   -1    0    0    0  501  0.00000000000E+00  0.00000000000E+00  0.28057484722E+04  0.28057484722E+04  0.50400001928E-02 0. -1.
        1   -1    0    0  501    0  0.00000000000E+00  0.00000000000E+00 -0.12178305164E+04  0.12178305164E+04  0.50400001928E-02 0.  1.
    10030    2    1    2    0    0  0.00000000000E+00  0.00000000000E+00  0.15879179559E+04  0.40235789886E+04  0.36969858592E+04 0.  0.
        5    1    3    3  502    0  0.75320029175E+03  0.14948808825E+04  0.16474041706E+04  0.23486042927E+04  0.46999998093E+01 0. -1.
       -5    1    3    3    0  502 -0.75320029175E+03 -0.14948808825E+04 -0.59486214680E+02  0.16749746960E+04  0.46999998093E+01 0.  1.
</event>
<event>
 5   0  0.1505671E-06  0.3619352E+04  0.7818609E-02  0.8086073E-01
        2   -1    0    0  501    0  0.00000000000E+00  0.00000000000E+00  0.21042949624E+04  0.21042949624E+04  0.25500000920E-02 0.  1.
       -2   -1    0    0    0  501  0.00000000000E+00  0.00000000000E+00 -0.15563057421E+04  0.15563057421E+04  0.25500000920E-02 0. -1.
    10030    2    1    2    0    0  0.00000000000E+00  0.00000000000E+00  0.54798922032E+03  0.36606007045E+04  0.36193515071E+04 0.  0.
        3    1    3    3  502    0  0.49794984430E+03 -0.17190469181E+04  0.28912581637E+01  0.17897163808E+04  0.10100000352E+00 0.  1.
       -3    1    3    3    0  502 -0.49794984430E+03  0.17190469181E+04  0.54509796216E+03  0.18708843237E+04  0.10100000352E+00 0. -1.
</event>
<event>
 5   0  0.1379425E-06  0.3496002E+04  0.7818609E-02  0.8114738E-01
        2   -1    0    0  501    0  0.00000000000E+00  0.00000000000E+00  0.16177386824E+04  0.16177386824E+04  0.25500000920E-02 0. -1.
       -2   -1    0    0    0  501  0.00000000000E+00  0.00000000000E+00 -0.18887518611E+04  0.18887518611E+04  0.25500000920E-02 0.  1.
    10030    2    1    2    0    0  0.00000000000E+00  0.00000000000E+00 -0.27101317869E+03  0.35064905434E+04  0.34960016860E+04 0.  0.
        4    1    3    3  502    0  0.37959807553E+03  0.15063193218E+04 -0.93941784592E+03  0.18153787760E+04  0.12699999809E+01 0.  1.
       -4    1    3    3    0  502 -0.37959807553E+03 -0.15063193218E+04  0.66840466723E+03  0.16911117675E+04  0.12699999809E+01 0. -1.
</event>
<event>
 5   0  0.1444091E-06  0.3582339E+04  0.7818609E-02  0.8094549E-01
        2   -1    0    0  501    0  0.00000000000E+00  0.00000000000E+00  0.14481024460E+04  0.14481024460E+04  0.25500000920E-02 0. -1.
       -2   -1    0    0    0  501  0.00000000000E+00  0.00000000000E+00 -0.22155117167E+04  0.22155117167E+04  0.25500000920E-02 0.  1.
    10030    2    1    2    0    0  0.00000000000E+00  0.00000000000E+00 -0.76740927071E+03  0.36636141627E+04  0.35823388651E+04 0.  0.
        1    1    3    3  502    0  0.22754316987E+03 -0.17669587755E+04 -0.19411054722E+03  0.17920932211E+04  0.50400001928E-02 0.  1.
       -1    1    3    3    0  502 -0.22754316987E+03  0.17669587755E+04 -0.57329872349E+03  0.18715209416E+04  0.50400001928E-02 0. -1.
</event>
<event>
 5   0  0.4811500E-07  0.3572046E+04  0.7818609E-02  0.8096925E-01
       -1   -1    0    0    0  501  0.00000000000E+00  0.00000000000E+00  0.33692863678E+04  0.33692863678E+04  0.50400001928E-02 0.  1.
        1   -1    0    0  501    0  0.00000000000E+00  0.00000000000E+00 -0.94675174729E+03  0.94675174731E+03  0.50400001928E-02 0. -1.
    10030    2    1    2    0    0  0.00000000000E+00  0.00000000000E+00  0.24225346205E+04  0.43160381151E+04  0.35720457757E+04 0.  0.
        4    1    3    3  502    0  0.71829501531E+03  0.81613870026E+02 -0.76207100999E+03  0.10504105816E+04  0.12699999809E+01 0. -1.
       -4    1    3    3    0  502 -0.71829501531E+03 -0.81613870026E+02  0.31846056305E+04  0.32656275335E+04  0.12699999809E+01 0.  1.
</event>
<event>
 5   0  0.1505671E-06  0.3554689E+04  0.7818609E-02  0.8100950E-01
        2   -1    0    0  501    0  0.00000000000E+00  0.00000000000E+00  0.20803867279E+04  0.20803867279E+04  0.25500000920E-02 0. -1.
       -2   -1    0    0    0  501  0.00000000000E+00  0.00000000000E+00 -0.15184454878E+04  0.15184454878E+04  0.25500000920E-02 0.  1.
    10030    2    1    2    0    0  0.00000000000E+00  0.00000000000E+00  0.56194124010E+03  0.35988322156E+04  0.35546892071E+04 0.  0.
        3    1    3    3  502    0 -0.37280547857E+03 -0.25883694097E+03  0.20207321651E+04  0.20710719399E+04  0.10100000352E+00 0. -1.
       -3    1    3    3    0  502  0.37280547857E+03  0.25883694097E+03 -0.14587909250E+04  0.15277602757E+04  0.10100000352E+00 0.  1.
</event>
<event>
 5   0  0.1491854E-06  0.3583952E+04  0.7818609E-02  0.8094178E-01
       -2   -1    0    0    0  501  0.00000000000E+00  0.00000000000E+00  0.12683914620E+04  0.12683914620E+04  0.25500000920E-02 0.  1.
        2   -1    0    0  501    0  0.00000000000E+00  0.00000000000E+00 -0.25316925124E+04  0.25316925124E+04  0.25500000920E-02 0. -1.
    10030    2    1    2    0    0  0.00000000000E+00  0.00000000000E+00 -0.12633010504E+04  0.38000839744E+04  0.35839515438E+04 0.  0.
        5    1    3    3  502    0 -0.22170620698E+03 -0.15381516040E+04 -0.15776969371E+04  0.22145459387E+04  0.46999998093E+01 0. -1.
       -5    1    3    3    0  502  0.22170620698E+03  0.15381516040E+04  0.31439588671E+03  0.15855380357E+04  0.46999998093E+01 0.  1.
</event>
<event>
 5   0  0.4811500E-07  0.3674145E+04  0.7818609E-02  0.8073716E-01
       -1   -1    0    0    0  501  0.00000000000E+00  0.00000000000E+00  0.12858246596E+04  0.12858246596E+04  0.50400001928E-02 0. -1.
        1   -1    0    0  501    0  0.00000000000E+00  0.00000000000E+00 -0.26246468365E+04  0.26246468365E+04  0.50400001928E-02 0.  1.
    10030    2    1    2    0    0  0.00000000000E+00  0.00000000000E+00 -0.13388221769E+04  0.39104714961E+04  0.36741451387E+04 0.  0.
        3    1    3    3  502    0  0.13841869203E+04  0.23196914980E+03 -0.19310035701E+04  0.23871652466E+04  0.10100000352E+00 0.  1.
       -3    1    3    3    0  502 -0.13841869203E+04 -0.23196914980E+03  0.59218139321E+03  0.15233062494E+04  0.10100000352E+00 0. -1.
</event>
<event>
 5   0  0.4811500E-07  0.3567990E+04  0.7818609E-02  0.8097864E-01
        3   -1    0    0  501    0  0.00000000000E+00  0.00000000000E+00  0.22163308859E+04  0.22163308882E+04  0.10100000352E+00 0. -1.
       -3   -1    0    0    0  501  0.00000000000E+00  0.00000000000E+00 -0.14359937758E+04  0.14359937794E+04  0.10100000352E+00 0.  1.
    10030    2    1    2    0    0  0.00000000000E+00  0.00000000000E+00  0.78033711013E+03  0.36523246676E+04  0.35679895560E+04 0.  0.
        3    1    3    3  502    0 -0.12041482287E+04  0.79000179901E+03 -0.68760049836E+03  0.15958916801E+04  0.10100000352E+00 0.  1.
       -3    1    3    3    0  502  0.12041482287E+04 -0.79000179901E+03  0.14679376085E+04  0.20564329874E+04  0.10100000352E+00 0. -1.
</event>
<event>
 5   0  0.4811500E-07  0.3924626E+04  0.7818609E-02  0.8019927E-01
        1   -1    0    0  501    0  0.00000000000E+00  0.00000000000E+00  0.16322815300E+04  0.16322815300E+04  0.50400001928E-02 0.  1.
       -1   -1    0    0    0  501  0.00000000000E+00  0.00000000000E+00 -0.23590740619E+04  0.23590740619E+04  0.50400001928E-02 0. -1.
    10030    2    1    2    0    0  0.00000000000E+00  0.00000000000E+00 -0.72679253190E+03  0.39913555919E+04  0.39246263614E+04 0.  0.
        4    1    3    3  502    0 -0.12691356469E+04  0.45503861508E+03  0.10866462980E+04  0.17316371506E+04  0.12699999809E+01 0.  1.
       -4    1    3    3    0  502  0.12691356469E+04 -0.45503861508E+03 -0.18134388299E+04  0.22597184413E+04  0.12699999809E+01 0. -1.
</event>
<event>
 5   0  0.1379425E-06  0.3665641E+04  0.7818609E-02  0.8075619E-01
       -2   -1    0    0    0  501  0.00000000000E+00  0.00000000000E+00  0.15847382950E+04  0.15847382950E+04  0.25500000920E-02 0.  1.
        2   -1    0    0  501    0  0.00000000000E+00  0.00000000000E+00 -0.21197388773E+04  0.21197388773E+04  0.25500000920E-02 0. -1.
    10030    2    1    2    0    0  0.00000000000E+00  0.00000000000E+00 -0.53500058236E+03  0.37044771723E+04  0.36656412123E+04 0.  0.
        4    1    3    3  502    0  0.92715870139E+03 -0.14543228261E+04  0.35919191222E+03  0.17617317000E+04  0.12699999809E+01 0.  1.
       -4    1    3    3    0  502 -0.92715870139E+03  0.14543228261E+04 -0.89419249458E+03  0.19427454723E+04  0.12699999809E+01 0. -1.
</event>
<event>
 5   0  0.4811500E-07  0.3600770E+04  0.7818609E-02  0.8090315E-01
        1   -1    0    0  501    0  0.00000000000E+00  0.00000000000E+00  0.19556206782E+04  0.19556206782E+04  0.50400001928E-02 0.  1.
       -1   -1    0    0    0  501  0.00000000000E+00  0.00000000000E+00 -0.16574716237E+04  0.16574716237E+04  0.50400001928E-02 0. -1.
    10030    2    1    2    0    0  0.00000000000E+00  0.00000000000E+00  0.29814905443E+03  0.36130923019E+04  0.36007697959E+04 0.  0.
        3    1    3    3  502    0  0.17070268150E+04  0.31666258314E+03 -0.32918014220E+03  0.17670810154E+04  0.10100000352E+00 0.  1.
       -3    1    3    3    0  502 -0.17070268150E+04 -0.31666258314E+03  0.62732919664E+03  0.18460112865E+04  0.10100000352E+00 0. -1.
</event>
<event>
 5   0  0.1491854E-06  0.3579215E+04  0.7818609E-02  0.8095269E-01
       -2   -1    0    0    0  501  0.00000000000E+00  0.00000000000E+00  0.13795791019E+04  0.13795791019E+04  0.25500000920E-02 0.  1.
        2   -1    0    0  501    0  0.00000000000E+00  0.00000000000E+00 -0.23215012818E+04  0.23215012818E+04  0.25500000920E-02 0. -1.
    10030    2    1    2    0    0  0.00000000000E+00  0.00000000000E+00 -0.94192217990E+03  0.37010803838E+04  0.35792148041E+04 0.  0.
        5    1    3    3  502    0  0.62264524479E+03  0.86958067962E+03 -0.19546723970E+04  0.22281436059E+04  0.46999998093E+01 0. -1.
       -5    1    3    3    0  502 -0.62264524479E+03 -0.86958067962E+03  0.10127502171E+04  0.14729367778E+04  0.46999998093E+01 0.  1.
</event>
<event>
 5   0  0.1468942E-06  0.3011601E+04  0.7818609E-02  0.8240426E-01
       -2   -1    0    0    0  501  0.00000000000E+00  0.00000000000E+00  0.78294779875E+03  0.78294779875E+03  0.25500000920E-02 0.  1.
        2   -1    0    0  501    0  0.00000000000E+00  0.00000000000E+00 -0.28960234430E+04  0.28960234430E+04  0.25500000920E-02 0. -1.
    10030    2    1    2    0    0  0.00000000000E+00  0.00000000000E+00 -0.21130756442E+04  0.36789712417E+04  0.30116010226E+04 0.  0.
        2    1    3    3  502    0  0.13026526471E+04  0.45590077187E+03 -0.32084892551E+03  0.14169310025E+04  0.25500000920E-02 0.  1.
       -2    1    3    3    0  502 -0.13026526471E+04 -0.45590077187E+03 -0.17922267187E+04  0.22620402393E+04  0.25500000920E-02 0. -1.
</event>
<event>
 5   0  0.1491854E-06  0.3498248E+04  0.7818609E-02  0.8114205E-01
       -2   -1    0    0    0  501  0.00000000000E+00  0.00000000000E+00  0.15902231156E+04  0.15902231156E+04  0.25500000920E-02 0. -1.
        2   -1    0    0  501    0  0.00000000000E+00  0.00000000000E+00 -0.19239026380E+04  0.19239026380E+04  0.25500000920E-02 0.  1.
    10030    2    1    2    0    0  0.00000000000E+00  0.00000000000E+00 -0.33367952240E+03  0.35141257536E+04  0.34982478169E+04 0.  0.
        5    1    3    3  502    0  0.92871161151E+03 -0.43634570467E+03  0.12561027026E+04  0.16219491116E+04  0.46999998093E+01 0. -1.
       -5    1    3    3    0  502 -0.92871161151E+03  0.43634570467E+03 -0.15897822250E+04  0.18921766419E+04  0.46999998093E+01 0.  1.
</event>
<event>
 5   0  0.4811500E-07  0.3603925E+04  0.7818609E-02  0.8089593E-01
        1   -1    0    0  501    0  0.00000000000E+00  0.00000000000E+00  0.25031260874E+04  0.25031260874E+04  0.50400001928E-02 0. -1.
       -1   -1    0    0    0  501  0.00000000000E+00  0.00000000000E+00 -0.12972053820E+04  0.12972053820E+04  0.50400001928E-02 0.  1.
    10030    2    1    2    0    0  0.00000000000E+00  0.00000000000E+00  0.12059207054E+04  0.38003314694E+04  0.36039248785E+04 0.  0.
        3    1    3    3  502    0  0.14201139660E+04  0.59127135325E+03  0.15925847215E+04  0.22141932153E+04  0.10100000352E+00 0. -1.
       -3    1    3    3    0  502 -0.14201139660E+04 -0.59127135325E+03 -0.38666401611E+03  0.15861382541E+04  0.10100000352E+00 0.  1.
</event>
<event>
 5   0  0.4811500E-07  0.3640635E+04  0.7818609E-02  0.8081247E-01
        1   -1    0    0  501    0  0.00000000000E+00  0.00000000000E+00  0.19842147162E+04  0.19842147162E+04  0.50400001928E-02 0.  1.
       -1   -1    0    0    0  501  0.00000000000E+00  0.00000000000E+00 -0.16699584154E+04  0.16699584154E+04  0.50400001928E-02 0. -1.
    10030    2    1    2    0    0  0.00000000000E+00  0.00000000000E+00  0.31425630078E+03  0.36541731316E+04  0.36406351442E+04 0.  0.
        2    1    3    3  502    0 -0.34089838478E+02 -0.17390437706E+04  0.69589293490E+03  0.18734199556E+04  0.25500000920E-02 0.  1.
       -2    1    3    3    0  502  0.34089838478E+02  0.17390437706E+04 -0.38163663412E+03  0.17807531760E+04  0.25500000920E-02 0. -1.
</event>
<event>
 5   0  0.1505671E-06  0.3551868E+04  0.7818609E-02  0.8101607E-01
       -2   -1    0    0    0  501  0.00000000000E+00  0.00000000000E+00  0.15442826345E+04  0.15442826345E+04  0.25500000920E-02 0. -1.
        2   -1    0    0  501    0  0.00000000000E+00  0.00000000000E+00 -0.20423344787E+04  0.20423344787E+04  0.25500000920E-02 0.  1.
    10030    2    1    2    0    0  0.00000000000E+00  0.00000000000E+00 -0.49805184419E+03  0.35866171132E+04  0.35518680546E+04 0.  0.
        3    1    3    3  502    0  0.11661701748E+04  0.97645408620E+03 -0.11747974500E+04  0.19218648542E+04  0.10100000352E+00 0.  1.
       -3    1    3    3    0  502 -0.11661701748E+04 -0.97645408620E+03  0.67674560580E+03  0.16647522591E+04  0.10100000352E+00 0. -1.
</event>
<event>
 5   0  0.4811500E-07  0.2542362E+04  0.7818609E-02  0.8388047E-01
        1   -1    0    0  501    0  0.00000000000E+00  0.00000000000E+00  0.11230275499E+04  0.11230275499E+04  0.50400001928E-02 0.  1.
       -1   -1    0    0    0  501  0.00000000000E+00  0.00000000000E+00 -0.14388791898E+04  0.14388791898E+04  0.50400001928E-02 0. -1.
    10030    2    1    2    0    0  0.00000000000E+00  0.00000000000E+00 -0.31585163986E+03  0.25619067397E+04  0.25423618713E+04 0.  0.
        2    1    3    3  502    0 -0.63375511360E+03  0.20166999472E+03 -0.12495751637E+04  0.14155403281E+04  0.25500000920E-02 0. -1.
       -2    1    3    3    0  502  0.63375511360E+03 -0.20166999472E+03  0.93372352381E+03  0.11463664116E+04  0.25500000920E-02 0.  1.
</event>
<event>
 5   0  0.1379425E-06  0.3577570E+04  0.7818609E-02  0.8095649E-01
        2   -1    0    0  501    0  0.00000000000E+00  0.00000000000E+00  0.17903615920E+04  0.17903615920E+04  0.25500000920E-02 0.  1.
       -2   -1    0    0    0  501  0.00000000000E+00  0.00000000000E+00 -0.17872095056E+04  0.17872095056E+04  0.25500000920E-02 0. -1.
    10030    2    1    2    0    0  0.00000000000E+00  0.00000000000E+00  0.31520863289E+01  0.35775710976E+04  0.35775697090E+04 0.  0.
        4    1    3    3  502    0  0.21373225746E+03  0.17544603633E+04  0.27714283622E+03  0.17890283421E+04  0.12699999809E+01 0.  1.
       -4    1    3    3    0  502 -0.21373225746E+03 -0.17544603633E+04 -0.27399074989E+03  0.17885427555E+04  0.12699999809E+01 0. -1.
</event>
<event>
 5   0  0.4811500E-07  0.3597630E+04  0.7818609E-02  0.8091035E-01
        1   -1    0    0  501    0  0.00000000000E+00  0.00000000000E+00  0.21349592108E+04  0.21349592108E+04  0.50400001928E-02 0.  1.
       -1   -1    0    0    0  501  0.00000000000E+00  0.00000000000E+00 -0.15155960085E+04  0.15155960085E+04  0.50400001928E-02 0. -1.
    10030    2    1    2    0    0  0.00000000000E+00  0.00000000000E+00  0.61936320235E+03  0.36505552193E+04  0.35976301412E+04 0.  0.
        4    1    3    3  502    0  0.14272527393E+04 -0.10742296479E+04  0.52424999862E+03  0.18616818720E+04  0.12699999809E+01 0.  1.
       -4    1    3    3    0  502 -0.14272527393E+04  0.10742296479E+04  0.95113203725E+02  0.17888733473E+04  0.12699999809E+01 0. -1.
</event>
<event>
 5   0  0.5071661E-07  0.3618151E+04  0.7818609E-02  0.8086347E-01
        1   -1    0    0  501    0  0.00000000000E+00  0.00000000000E+00  0.15206067819E+04  0.15206067819E+04  0.50400001928E-02 0. -1.
       -1   -1    0    0    0  501  0.00000000000E+00  0.00000000000E+00 -0.21522687936E+04  0.21522687936E+04  0.50400001928E-02 0.  1.
    10030    2    1    2    0    0  0.00000000000E+00  0.00000000000E+00 -0.63166201170E+03  0.36728755755E+04  0.36181511987E+04 0.  0.
        1    1    3    3  502    0 -0.15955420428E+04  0.79303332343E+03  0.21126474535E+01  0.17817577629E+04  0.50400001928E-02 0.  1.
       -1    1    3    3    0  502  0.15955420428E+04 -0.79303332343E+03 -0.63377465915E+03  0.18911178126E+04  0.50400001928E-02 0. -1.
</event>
<event>
 5   0  0.4811500E-07  0.3549484E+04  0.7818609E-02  0.8102162E-01
        1   -1    0    0  501    0  0.00000000000E+00  0.00000000000E+00  0.26800624323E+04  0.26800624323E+04  0.50400001928E-02 0.  1.
       -1   -1    0    0    0  501  0.00000000000E+00  0.00000000000E+00 -0.11752373413E+04  0.11752373413E+04  0.50400001928E-02 0. -1.
    10030    2    1    2    0    0  0.00000000000E+00  0.00000000000E+00  0.15048250910E+04  0.38552997736E+04  0.35494841582E+04 0.  0.
        5    1    3    3  502    0  0.60928493141E+02 -0.68364211365E+02 -0.11726627257E+04  0.11762422816E+04  0.46999998093E+01 0. -1.
       -5    1    3    3    0  502 -0.60928493141E+02  0.68364211365E+02  0.26774878167E+04  0.26790574920E+04  0.46999998093E+01 0.  1.
</event>
<event>
 5   0  0.4811500E-07  0.3597923E+04  0.7818609E-02  0.8090968E-01
       -1   -1    0    0    0  501  0.00000000000E+00  0.00000000000E+00  0.17367081901E+04  0.17367081901E+04  0.50400001928E-02 0.  1.
        1   -1    0    0  501    0  0.00000000000E+00  0.00000000000E+00 -0.18634464131E+04  0.18634464131E+04  0.50400001928E-02 0. -1.
    10030    2    1    2    0    0  0.00000000000E+00  0.00000000000E+00 -0.12673822301E+03  0.36001546032E+04  0.35979230939E+04 0.  0.
        3    1    3    3  502    0 -0.57616170290E+03  0.10032167577E+04 -0.14418506599E+04  0.18486047459E+04  0.10100000352E+00 0. -1.
       -3    1    3    3    0  502  0.57616170290E+03 -0.10032167577E+04  0.13151124369E+04  0.17515498573E+04  0.10100000352E+00 0.  1.
</event>
<event>
 5   0  0.1468942E-06  0.3621205E+04  0.7818609E-02  0.8085652E-01
       -2   -1    0    0    0  501  0.00000000000E+00  0.00000000000E+00  0.10951759293E+04  0.10951759293E+04  0.25500000920E-02 0. -1.
        2   -1    0    0  501    0  0.00000000000E+00  0.00000000000E+00 -0.29933840785E+04  0.29933840785E+04  0.25500000920E-02 0.  1.
    10030    2    1    2    0    0  0.00000000000E+00  0.00000000000E+00 -0.18982081492E+04  0.40885600078E+04  0.36212054290E+04 0.  0.
        2    1    3    3  502    0  0.55162534603E+03 -0.76918521823E+03  0.79358380427E+03  0.12351970194E+04  0.25500000920E-02 0. -1.
       -2    1    3    3    0  502 -0.55162534603E+03  0.76918521823E+03 -0.26917919535E+04  0.28533629884E+04  0.25500000920E-02 0.  1.
</event>
<event>
 5   0  0.4811500E-07  0.3612515E+04  0.7818609E-02  0.8087631E-01
       -1   -1    0    0    0  501  0.00000000000E+00  0.00000000000E+00  0.16434587684E+04  0.16434587684E+04  0.50400001928E-02 0.  1.
        1   -1    0    0  501    0  0.00000000000E+00  0.00000000000E+00 -0.19851825198E+04  0.19851825198E+04  0.50400001928E-02 0. -1.
    10030    2    1    2    0    0  0.00000000000E+00  0.00000000000E+00 -0.34172375142E+03  0.36286412882E+04  0.36125147025E+04 0.  0.
        4    1    3    3  502    0  0.21269757776E+03 -0.62416943658E+03 -0.18599560539E+04  0.19733894396E+04  0.12699999809E+01 0. -1.
       -4    1    3    3    0  502 -0.21269757776E+03  0.62416943658E+03  0.15182323024E+04  0.16552518486E+04  0.12699999809E+01 0.  1.
</event>
<event>
 5   0  0.1505671E-06  0.3648721E+04  0.7818609E-02  0.8079422E-01
        2   -1    0    0  501    0  0.00000000000E+00  0.00000000000E+00  0.23455267862E+04  0.23455267862E+04  0.25500000920E-02 0. -1.
       -2   -1    0    0    0  501  0.00000000000E+00  0.00000000000E+00 -0.14189955333E+04  0.14189955333E+04  0.25500000920E-02 0.  1.
    10030    2    1    2    0    0  0.00000000000E+00  0.00000000000E+00  0.92653125291E+03  0.37645223195E+04  0.36487214379E+04 0.  0.
        3    1    3    3  502    0  0.92638989223E+02  0.17724864566E+04  0.89855830936E+03  0.19893962065E+04  0.10100000352E+00 0. -1.
       -3    1    3    3    0  502 -0.92638989223E+02 -0.17724864566E+04  0.27972943548E+02  0.17751261129E+04  0.10100000352E+00 0.  1.
</event>
<event>
 5   0  0.4811500E-07  0.3529298E+04  0.7818609E-02  0.8106882E-01
       -3   -1    0    0    0  501  0.00000000000E+00  0.00000000000E+00  0.14592715701E+04  0.14592715736E+04  0.10100000352E+00 0.  1.
        3   -1    0    0  501    0  0.00000000000E+00  0.00000000000E+00 -0.21339315075E+04  0.21339315098E+04  0.10100000352E+00 0. -1.
    10030    2    1    2    0    0  0.00000000000E+00  0.00000000000E+00 -0.67465993735E+03  0.35932030835E+04  0.35292977160E+04 0.  0.
        3    1    3    3  502    0  0.16342936164E+04  0.53438890550E+03 -0.74137671815E+03  0.18724653736E+04  0.10100000352E+00 0. -1.
       -3    1    3    3    0  502 -0.16342936164E+04 -0.53438890550E+03  0.66716780805E+02  0.17207377098E+04  0.10100000352E+00 0.  1.
</event>
<event>
 5   0  0.1379425E-06  0.2229601E+04  0.7818609E-02  0.8506207E-01
       -2   -1    0    0    0  501  0.00000000000E+00  0.00000000000E+00  0.37719265150E+03  0.37719265151E+03  0.25500000920E-02 0.  1.
        2   -1    0    0  501    0  0.00000000000E+00  0.00000000000E+00 -0.32948161264E+04  0.32948161264E+04  0.25500000920E-02 0. -1.
    10030    2    1    2    0    0  0.00000000000E+00  0.00000000000E+00 -0.29176234749E+04  0.36720087779E+04  0.22296012477E+04 0.  0.
        4    1    3    3  502    0  0.47315529119E+03  0.10030432280E+04 -0.16451933733E+04  0.19840953846E+04  0.12699999809E+01 0. -1.
       -4    1    3    3    0  502 -0.47315529119E+03 -0.10030432280E+04 -0.12724301016E+04  0.16879133933E+04  0.12699999809E+01 0.  1.
</event>
<event>
 5   0  0.5071661E-07  0.2620677E+04  0.7818609E-02  0.8361211E-01
       -1   -1    0    0    0  501  0.00000000000E+00  0.00000000000E+00  0.15919912856E+04  0.15919912856E+04  0.50400001928E-02 0. -1.
        1   -1    0    0  501    0  0.00000000000E+00  0.00000000000E+00 -0.10785152608E+04  0.10785152608E+04  0.50400001928E-02 0.  1.
    10030    2    1    2    0    0  0.00000000000E+00  0.00000000000E+00  0.51347602475E+03  0.26705065464E+04  0.26206769328E+04 0.  0.
        1    1    3    3  502    0  0.43932786391E+03  0.87377776146E+03 -0.63190435309E+03  0.11643881054E+04  0.50400001928E-02 0.  1.
       -1    1    3    3    0  502 -0.43932786391E+03 -0.87377776146E+03  0.11453803778E+04  0.15061184410E+04  0.50400001928E-02 0. -1.
</event>
<event>
 5   0  0.1491854E-06  0.3522568E+04  0.7818609E-02  0.8108462E-01
       -2   -1    0    0    0  501  0.00000000000E+00  0.00000000000E+00  0.19155258484E+04  0.19155258484E+04  0.25500000920E-02 0. -1.
        2   -1    0    0  501    0  0.00000000000E+00  0.00000000000E+00 -0.16194622907E+04  0.16194622907E+04  0.25500000920E-02 0.  1.
    10030    2    1    2    0    0  0.00000000000E+00  0.00000000000E+00  0.29606355766E+03  0.35349881392E+04  0.35225683122E+04 0.  0.
        5    1    3    3  502    0  0.15295378630E+04 -0.19521626685E+03  0.10022110494E+04  0.18390335893E+04  0.46999998093E+01 0. -1.
       -5    1    3    3    0  502 -0.15295378630E+04  0.19521626685E+03 -0.70614749170E+03  0.16959545499E+04  0.46999998093E+01 0.  1.
</event>
<event>
 5   0  0.4811500E-07  0.3611746E+04  0.7818609E-02  0.8087806E-01
        3   -1    0    0  501    0  0.00000000000E+00  0.00000000000E+00  0.20224713953E+04  0.20224713978E+04  0.10100000352E+00 0. -1.
       -3   -1    0    0    0  501  0.00000000000E+00  0.00000000000E+00 -0.16124712215E+04  0.16124712247E+04  0.10100000352E+00 0.  1.
    10030    2    1    2    0    0  0.00000000000E+00  0.00000000000E+00  0.41000017378E+03  0.36349426225E+04  0.36117458003E+04 0.  0.
        1    1    3    3  502    0  0.14248422330E+04 -0.16766806290E+02 -0.91150340611E+03  0.16915362763E+04  0.50400001928E-02 0.  1.
       -1    1    3    3    0  502 -0.14248422330E+04  0.16766806290E+02  0.13215035799E+04  0.19434063462E+04  0.50400001928E-02 0. -1.
</event>
<event>
 5   0  0.1444091E-06  0.3703855E+04  0.7818609E-02  0.8067108E-01
        2   -1    0    0  501    0  0.00000000000E+00  0.00000000000E+00  0.22045258714E+04  0.22045258714E+04  0.25500000920E-02 0. -1.
       -2   -1    0    0    0  501  0.00000000000E+00  0.00000000000E+00 -0.15557247820E+04  0.15557247820E+04  0.25500000920E-02 0.  1.
    10030    2    1    2    0    0  0.00000000000E+00  0.00000000000E+00  0.64880108936E+03  0.37602506535E+04  0.37038550354E+04 0.  0.
        1    1    3    3  502    0 -0.12031579818E+04  0.11500506176E+04 -0.50001687225E+03  0.17378787141E+04  0.50400001928E-02 0. -1.
       -1    1    3    3    0  502  0.12031579818E+04 -0.11500506176E+04  0.11488179616E+04  0.20223719394E+04  0.50400001928E-02 0.  1.
</event>
<event>
 5   0  0.1505671E-06  0.3627001E+04  0.7818609E-02  0.8084335E-01
        2   -1    0    0  501    0  0.00000000000E+00  0.00000000000E+00  0.18114090550E+04  0.18114090550E+04  0.25500000920E-02 0.  1.
       -2   -1    0    0    0  501  0.00000000000E+00  0.00000000000E+00 -0.18155944384E+04  0.18155944384E+04  0.25500000920E-02 0. -1.
    10030    2    1    2    0    0  0.00000000000E+00  0.00000000000E+00 -0.41853834098E+01  0.36270034934E+04  0.36270010786E+04 0.  0.
        3    1    3    3  502    0  0.58657051319E+03 -0.87061408145E+03 -0.14808601724E+04  0.18152081716E+04  0.10100000352E+00 0. -1.
       -3    1    3    3    0  502 -0.58657051319E+03  0.87061408145E+03  0.14766747890E+04  0.18117953219E+04  0.10100000352E+00 0.  1.
</event>
<event>
 5   0  0.5071661E-07  0.3942671E+04  0.7818609E-02  0.8016213E-01
       -1   -1    0    0    0  501  0.00000000000E+00  0.00000000000E+00  0.18360687271E+04  0.18360687271E+04  0.50400001928E-02 0.  1.
        1   -1    0    0  501    0  0.00000000000E+00  0.00000000000E+00 -0.21165672618E+04  0.21165672618E+04  0.50400001928E-02 0. -1.
    10030    2    1    2    0    0  0.00000000000E+00  0.00000000000E+00 -0.28049853466E+03  0.39526359889E+04  0.39426706473E+04 0.  0.
        1    1    3    3  502    0  0.10785012491E+04 -0.52985809671E+03  0.14264701967E+04  0.18651358580E+04  0.50400001928E-02 0.  1.
       -1    1    3    3    0  502 -0.10785012491E+04  0.52985809671E+03 -0.17069687313E+04  0.20875001309E+04  0.50400001928E-02 0. -1.
</event>
<event>
 5   0  0.4811500E-07  0.3615471E+04  0.7818609E-02  0.8086957E-01
       -1   -1    0    0    0  501  0.00000000000E+00  0.00000000000E+00  0.13126573177E+04  0.13126573177E+04  0.50400001928E-02 0.  1.
        1   -1    0    0  501    0  0.00000000000E+00  0.00000000000E+00 -0.24895365566E+04  0.24895365566E+04  0.50400001928E-02 0. -1.
    10030    2    1    2    0    0  0.00000000000E+00  0.00000000000E+00 -0.11768792389E+04  0.38021938744E+04  0.36154714098E+04 0.  0.
        2    1    3    3  502    0  0.82542374813E+03 -0.88675481981E+03  0.82258868156E+03  0.14643464800E+04  0.25500000920E-02 0.  1.
       -2    1    3    3    0  502 -0.82542374813E+03  0.88675481981E+03 -0.19994679204E+04  0.23378473944E+04  0.25500000920E-02 0. -1.
</event>
<event>
 5   0  0.1444091E-06  0.3575298E+04  0.7818609E-02  0.8096174E-01
       -2   -1    0    0    0  501  0.00000000000E+00  0.00000000000E+00  0.14313020780E+04  0.14313020780E+04  0.25500000920E-02 0.  1.
        2   -1    0    0  501    0  0.00000000000E+00  0.00000000000E+00 -0.22327140960E+04  0.22327140960E+04  0.25500000920E-02 0. -1.
    10030    2    1    2    0    0  0.00000000000E+00  0.00000000000E+00 -0.80141201795E+03  0.36640161740E+04  0.35752976521E+04 0.  0.
        1    1    3    3  502    0 -0.83865790939E+03 -0.18379606763E+02 -0.20184861351E+04  0.21858570805E+04  0.50400001928E-02 0. -1.
       -1    1    3    3    0  502  0.83865790939E+03  0.18379606763E+02  0.12170741172E+04  0.14781590935E+04  0.50400001928E-02 0.  1.
</event>
<event>
 5   0  0.1505671E-06  0.3489345E+04  0.7818609E-02  0.8116320E-01
       -2   -1    0    0    0  501  0.00000000000E+00  0.00000000000E+00  0.19371967399E+04  0.19371967399E+04  0.25500000920E-02 0.  1.
        2   -1    0    0  501    0  0.00000000000E+00  0.00000000000E+00 -0.15712821362E+04  0.15712821362E+04  0.25500000920E-02 0. -1.
    10030    2    1    2    0    0  0.00000000000E+00  0.00000000000E+00  0.36591460371E+03  0.35084788760E+04  0.34893452862E+04 0.  0.
        3    1    3    3  502    0  0.54184817613E+03  0.51151667047E+02 -0.14837408081E+04  0.15804122041E+04  0.10100000352E+00 0. -1.
       -3    1    3    3    0  502 -0.54184817613E+03 -0.51151667047E+02  0.18496554118E+04  0.19280666720E+04  0.10100000352E+00 0.  1.
</event>
<event>
 5   0  0.4811500E-07  0.2446101E+04  0.7818609E-02  0.8422443E-01
        1   -1    0    0  501    0  0.00000000000E+00  0.00000000000E+00  0.17824235043E+04  0.17824235043E+04  0.50400001928E-02 0.  1.
       -1   -1    0    0    0  501  0.00000000000E+00  0.00000000000E+00 -0.83922419398E+03  0.83922419400E+03  0.50400001928E-02 0. -1.
    10030    2    1    2    0    0  0.00000000000E+00  0.00000000000E+00  0.94319931030E+03  0.26216476983E+04  0.24461013297E+04 0.  0.
        5    1    3    3  502    0  0.18485339647E+03  0.48957331160E+01 -0.82414526702E+03  0.84464919199E+03  0.46999998093E+01 0. -1.
       -5    1    3    3    0  502 -0.18485339647E+03 -0.48957331160E+01  0.17673445773E+04  0.17769985063E+04  0.46999998093E+01 0.  1.
</event>
<event>
 5   0  0.1505671E-06  0.3320098E+04  0.7818609E-02  0.8157800E-01
        2   -1    0    0  501    0  0.00000000000E+00  0.00000000000E+00  0.14269292516E+04  0.14269292516E+04  0.25500000920E-02 0. -1.
       -2   -1    0    0    0  501  0.00000000000E+00  0.00000000000E+00 -0.19312544334E+04  0.19312544334E+04  0.25500000920E-02 0.  1.
    10030    2    1    2    0    0  0.00000000000E+00  0.00000000000E+00 -0.50432518179E+03  0.33581836849E+04  0.33200984583E+04 0.  0.
        3    1    3    3  502    0 -0.22153932074E+03 -0.59293942531E+03  0.13000770463E+04  0.14459796572E+04  0.10100000352E+00 0. -1.
       -3    1    3    3    0  502  0.22153932074E+03  0.59293942531E+03 -0.18044022280E+04  0.19122040277E+04  0.10100000352E+00 0.  1.
</event>
<event>
 5   0  0.4811500E-07  0.3617424E+04  0.7818609E-02  0.8086512E-01
       -1   -1    0    0    0  501  0.00000000000E+00  0.00000000000E+00  0.27416751797E+04  0.27416751797E+04  0.50400001928E-02 0. -1.
        1   -1    0    0  501    0  0.00000000000E+00  0.00000000000E+00 -0.11932260818E+04  0.11932260818E+04  0.50400001928E-02 0.  1.
    10030    2    1    2    0    0  0.00000000000E+00  0.00000000000E+00  0.15484490979E+04  0.39349012614E+04  0.36174235761E+04 0.  0.
        2    1    3    3  502    0 -0.20617465786E+03  0.14726885089E+04 -0.34575930729E+03  0.15267183540E+04  0.25500000920E-02 0.  1.
       -2    1    3    3    0  502  0.20617465786E+03 -0.14726885089E+04  0.18942084052E+04  0.24081829075E+04  0.25500000920E-02 0. -1.
</event>
<event>
 5   0  0.4811500E-07  0.3594819E+04  0.7818609E-02  0.8091679E-01
        1   -1    0    0  501    0  0.00000000000E+00  0.00000000000E+00  0.17975431208E+04  0.17975431208E+04  0.50400001928E-02 0. -1.
       -1   -1    0    0    0  501  0.00000000000E+00  0.00000000000E+00 -0.17972760620E+04  0.17972760620E+04  0.50400001928E-02 0.  1.
    10030    2    1    2    0    0  0.00000000000E+00  0.00000000000E+00  0.26705881598E+00  0.35948191829E+04  0.35948191730E+04 0.  0.
        4    1    3    3  502    0 -0.25490375887E+03  0.15486443140E+03 -0.17723564445E+04  0.17972779133E+04  0.12699999809E+01 0.  1.
       -4    1    3    3    0  502  0.25490375887E+03 -0.15486443140E+03  0.17726235033E+04  0.17975412696E+04  0.12699999809E+01 0. -1.
</event>
<event>
 5   0  0.1505671E-06  0.3601461E+04  0.7818609E-02  0.8090157E-01
       -2   -1    0    0    0  501  0.00000000000E+00  0.00000000000E+00  0.15204460202E+04  0.15204460202E+04  0.25500000920E-02 0. -1.
        2   -1    0    0  501    0  0.00000000000E+00  0.00000000000E+00 -0.21326837145E+04  0.21326837145E+04  0.25500000920E-02 0.  1.
    10030    2    1    2    0    0  0.00000000000E+00  0.00000000000E+00 -0.61223769424E+03  0.36531297347E+04  0.36014610735E+04 0.  0.
        3    1    3    3  502    0 -0.11912237502E+04  0.81652318195E+03 -0.13971457723E+04  0.20094129613E+04  0.10100000352E+00 0.  1.
       -3    1    3    3    0  502  0.11912237502E+04 -0.81652318195E+03  0.78490807810E+03  0.16437167734E+04  0.10100000352E+00 0. -1.
</event>
<event>
 5   0  0.4811500E-07  0.3607707E+04  0.7818609E-02  0.8088729E-01
        1   -1    0    0  501    0  0.00000000000E+00  0.00000000000E+00  0.18830720231E+04  0.18830720231E+04  0.50400001928E-02 0.  1.
       -1   -1    0    0    0  501  0.00000000000E+00  0.00000000000E+00 -0.17279671301E+04  0.17279671301E+04  0.50400001928E-02 0. -1.
    10030    2    1    2    0    0  0.00000000000E+00  0.00000000000E+00  0.15510489303E+03  0.36110391532E+04  0.36077065067E+04 0.  0.
        3    1    3    3  502    0  0.99593765669E+03 -0.10484511827E+04 -0.10017501209E+04  0.17591603149E+04  0.10100000352E+00 0. -1.
       -3    1    3    3    0  502 -0.99593765669E+03  0.10484511827E+04  0.11568550139E+04  0.18518788383E+04  0.10100000352E+00 0.  1.
</event>
<event>
 5   0  0.5071661E-07  0.3560371E+04  0.7818609E-02  0.8099630E-01
        1   -1    0    0  501    0  0.00000000000E+00  0.00000000000E+00  0.21877514976E+04  0.21877514976E+04  0.50400001928E-02 0. -1.
       -1   -1    0    0    0  501  0.00000000000E+00  0.00000000000E+00 -0.14485465780E+04  0.14485465780E+04  0.50400001928E-02 0.  1.
    10030    2    1    2    0    0  0.00000000000E+00  0.00000000000E+00  0.73920491962E+03  0.36362980756E+04  0.35603707365E+04 0.  0.
        1    1    3    3  502    0 -0.69797926825E+01 -0.21311589959E+03  0.21746617130E+04  0.21850905405E+04  0.50400001928E-02 0. -1.
       -1    1    3    3    0  502  0.69797926825E+01  0.21311589959E+03 -0.14354567934E+04  0.14512075351E+04  0.50400001928E-02 0.  1.
</event>
<event>
 5   0  0.4811500E-07  0.3554545E+04  0.7818609E-02  0.8100984E-01
        1   -1    0    0  501    0  0.00000000000E+00  0.00000000000E+00  0.19233282104E+04  0.19233282104E+04  0.50400001928E-02 0.  1.
       -1   -1    0    0    0  501  0.00000000000E+00  0.00000000000E+00 -0.16423078431E+04  0.16423078431E+04  0.50400001928E-02 0. -1.
    10030    2    1    2    0    0  0.00000000000E+00  0.00000000000E+00  0.28102036735E+03  0.35656360535E+04  0.35545446993E+04 0.  0.
        4    1    3    3  502    0 -0.16593507528E+03  0.14634569317E+03  0.19094593113E+04  0.19222351535E+04  0.12699999809E+01 0.  1.
       -4    1    3    3    0  502  0.16593507528E+03 -0.14634569317E+03 -0.16284389439E+04  0.16434009000E+04  0.12699999809E+01 0. -1.
</event>
<event>
 5   0  0.1468942E-06  0.3356966E+04  0.7818609E-02  0.8148550E-01
        2   -1    0    0  501    0  0.00000000000E+00  0.00000000000E+00  0.29282377438E+04  0.29282377438E+04  0.25500000920E-02 0.  1.
       -2   -1    0    0    0  501  0.00000000000E+00  0.00000000000E+00 -0.96211641483E+03  0.96211641483E+03  0.25500000920E-02 0. -1.
    10030    2    1    2    0    0  0.00000000000E+00  0.00000000000E+00  0.19661213289E+04  0.38903541586E+04  0.33569662493E+04 0.  0.
        2    1    3    3  502    0  0.14380526125E+04  0.86403709537E+03  0.10438353645E+04  0.19758916182E+04  0.25500000920E-02 0. -1.
       -2    1    3    3    0  502 -0.14380526125E+04 -0.86403709537E+03  0.92228596444E+03  0.19144625404E+04  0.25500000920E-02 0.  1.
</event>
<event>
 5   0  0.1468942E-06  0.3746842E+04  0.7818609E-02  0.8057660E-01
        2   -1    0    0  501    0  0.00000000000E+00  0.00000000000E+00  0.23128794393E+04  0.23128794393E+04  0.25500000920E-02 0. -1.
       -2   -1    0    0    0  501  0.00000000000E+00  0.00000000000E+00 -0.15174618326E+04  0.15174618326E+04  0.25500000920E-02 0.  1.
    10030    2    1    2    0    0  0.00000000000E+00  0.00000000000E+00  0.79541760672E+03  0.38303412720E+04  0.37468420157E+04 0.  0.
        2    1    3    3  502    0  0.57191735349E+03 -0.13085524991E+04  0.16372932718E+04  0.21725856393E+04  0.25500000920E-02 0. -1.
       -2    1    3    3    0  502 -0.57191735349E+03  0.13085524991E+04 -0.84187566507E+03  0.16577556327E+04  0.25500000920E-02 0.  1.
</event>
<event>
 5   0  0.1468942E-06  0.3613368E+04  0.7818609E-02  0.8087436E-01
       -2   -1    0    0    0  501  0.00000000000E+00  0.00000000000E+00  0.16804487856E+04  0.16804487856E+04  0.25500000920E-02 0. -1.
        2   -1    0    0  501    0  0.00000000000E+00  0.00000000000E+00 -0.19424020182E+04  0.19424020182E+04  0.25500000920E-02 0.  1.
    10030    2    1    2    0    0  0.00000000000E+00  0.00000000000E+00 -0.26195323265E+03  0.36228508038E+04  0.36133680204E+04 0.  0.
        2    1    3    3  502    0 -0.62177146854E+03  0.74344692034E+03  0.13977523462E+04  0.17008893861E+04  0.25500000920E-02 0. -1.
       -2    1    3    3    0  502  0.62177146854E+03 -0.74344692034E+03 -0.16597055789E+04  0.19219614177E+04  0.25500000920E-02 0.  1.
</event>
<event>
 5   0  0.4811500E-07  0.2875556E+04  0.7818609E-02  0.8280188E-01
       -1   -1    0    0    0  501  0.00000000000E+00  0.00000000000E+00  0.69473831262E+03  0.69473831263E+03  0.50400001928E-02 0.  1.
        1   -1    0    0  501    0  0.00000000000E+00  0.00000000000E+00 -0.29755173683E+04  0.29755173683E+04  0.50400001928E-02 0. -1.
    10030    2    1    2    0    0  0.00000000000E+00  0.00000000000E+00 -0.22807790557E+04  0.36702556809E+04  0.28755562353E+04 0.  0.
        2    1    3    3  502    0 -0.11128125319E+03 -0.49506116019E+03  0.57665741513E+03  0.76811642611E+03  0.25500000920E-02 0.  1.
       -2    1    3    3    0  502  0.11128125319E+03  0.49506116019E+03 -0.28574364708E+04  0.29021392548E+04  0.25500000920E-02 0. -1.
</event>
<event>
 5   0  0.4811500E-07  0.3609059E+04  0.7818609E-02  0.8088420E-01
       -1   -1    0    0    0  501  0.00000000000E+00  0.00000000000E+00  0.12146314002E+04  0.12146314002E+04  0.50400001928E-02 0. -1.
        1   -1    0    0  501    0  0.00000000000E+00  0.00000000000E+00 -0.26809171919E+04  0.26809171919E+04  0.50400001928E-02 0.  1.
    10030    2    1    2    0    0  0.00000000000E+00  0.00000000000E+00 -0.14662857917E+04  0.38955485921E+04  0.36090587153E+04 0.  0.
        4    1    3    3  502    0  0.14627848715E+04 -0.45590585342E+03 -0.17620905304E+04  0.23350705295E+04  0.12699999809E+01 0.  1.
       -4    1    3    3    0  502 -0.14627848715E+04  0.45590585342E+03  0.29580473868E+03  0.15604780626E+04  0.12699999809E+01 0. -1.
</event>
<event>
 5   0  0.4811500E-07  0.2562289E+04  0.7818609E-02  0.8381125E-01
        1   -1    0    0  501    0  0.00000000000E+00  0.00000000000E+00  0.68498915160E+03  0.68498915161E+03  0.50400001928E-02 0.  1.
       -1   -1    0    0    0  501  0.00000000000E+00  0.00000000000E+00 -0.23961410200E+04  0.23961410200E+04  0.50400001928E-02 0. -1.
    10030    2    1    2    0    0  0.00000000000E+00  0.00000000000E+00 -0.17111518684E+04  0.30811301716E+04  0.25622885118E+04 0.  0.
        3    1    3    3  502    0 -0.79460443522E+03 -0.98081603028E+03 -0.59230360580E+03  0.13943528482E+04  0.10100000352E+00 0. -1.
       -3    1    3    3    0  502  0.79460443522E+03  0.98081603028E+03 -0.11188482626E+04  0.16867773234E+04  0.10100000352E+00 0.  1.
</event>
<event>
 5   0  0.1491854E-06  0.3565719E+04  0.7818609E-02  0.8098390E-01
       -2   -1    0    0    0  501  0.00000000000E+00  0.00000000000E+00  0.11335445281E+04  0.11335445281E+04  0.25500000920E-02 0.  1.
        2   -1    0    0  501    0  0.00000000000E+00  0.00000000000E+00 -0.28041132304E+04  0.28041132304E+04  0.25500000920E-02 0. -1.
    10030    2    1    2    0    0  0.00000000000E+00  0.00000000000E+00 -0.16705687022E+04  0.39376577585E+04  0.35657185579E+04 0.  0.
        5    1    3    3  502    0 -0.12492418297E+04 -0.72533788864E+03 -0.19891928808E+04  0.24583796714E+04  0.46999998093E+01 0.  1.
       -5    1    3    3    0  502  0.12492418297E+04  0.72533788864E+03  0.31862417858E+03  0.14792780871E+04  0.46999998093E+01 0. -1.
</event>
<event>
 5   0  0.4811500E-07  0.3231529E+04  0.7818609E-02  0.8180540E-01
       -1   -1    0    0    0  501  0.00000000000E+00  0.00000000000E+00  0.11500028939E+04  0.11500028939E+04  0.50400001928E-02 0.  1.
        1   -1    0    0  501    0  0.00000000000E+00  0.00000000000E+00 -0.22701637325E+04  0.22701637325E+04  0.50400001928E-02 0. -1.
    10030    2    1    2    0    0  0.00000000000E+00  0.00000000000E+00 -0.11201608386E+04  0.34201666264E+04  0.32315289644E+04 0.  0.
        4    1    3    3  502    0 -0.12260137475E+02  0.14744083404E+04  0.13929828002E+03  0.14810252830E+04  0.12699999809E+01 0.  1.
       -4    1    3    3    0  502  0.12260137475E+02 -0.14744083404E+04 -0.12594591187E+04  0.19391413434E+04  0.12699999809E+01 0. -1.
</event>
<event>
 5   0  0.1505671E-06  0.2421111E+04  0.7818609E-02  0.8431642E-01
        2   -1    0    0  501    0  0.00000000000E+00  0.00000000000E+00  0.18599799849E+04  0.18599799849E+04  0.25500000920E-02 0.  1.
       -2   -1    0    0    0  501  0.00000000000E+00  0.00000000000E+00 -0.78788184997E+03  0.78788184997E+03  0.25500000920E-02 0. -1.
    10030    2    1    2    0    0  0.00000000000E+00  0.00000000000E+00  0.10720981349E+04  0.26478618348E+04  0.24211108784E+04 0.  0.
        3    1    3    3  502    0  0.87137753708E+03 -0.71782579064E+03  0.10138549655E+04  0.15173907141E+04  0.10100000352E+00 0. -1.
       -3    1    3    3    0  502 -0.87137753708E+03  0.71782579064E+03  0.58243169337E+02  0.11304711207E+04  0.10100000352E+00 0.  1.
</event>
<event>
 5   0  0.4811500E-07  0.3236537E+04  0.7818609E-02  0.8179234E-01
        1   -1    0    0  501    0  0.00000000000E+00  0.00000000000E+00  0.21137774535E+04  0.21137774535E+04  0.50400001928E-02 0.  1.
       -1   -1    0    0    0  501  0.00000000000E+00  0.00000000000E+00 -0.12389159135E+04  0.12389159135E+04  0.50400001928E-02 0. -1.
    10030    2    1    2    0    0  0.00000000000E+00  0.00000000000E+00  0.87486153999E+03  0.33526933670E+04  0.32365367445E+04 0.  0.
        4    1    3    3  502    0 -0.57490204533E+03  0.14272874153E+04  0.95654374764E+03  0.18118055308E+04  0.12699999809E+01 0.  1.
       -4    1    3    3    0  502  0.57490204533E+03 -0.14272874153E+04 -0.81682207647E+02  0.15408878361E+04  0.12699999809E+01 0. -1.
</event>
<event>
 5   0  0.4811500E-07  0.3613350E+04  0.7818609E-02  0.8087441E-01
       -1   -1    0    0    0  501  0.00000000000E+00  0.00000000000E+00  0.15838415127E+04  0.15838415127E+04  0.50400001928E-02 0. -1.
        1   -1    0    0  501    0  0.00000000000E+00  0.00000000000E+00 -0.20608592444E+04  0.20608592444E+04  0.50400001928E-02 0.  1.
    10030    2    1    2    0    0  0.00000000000E+00  0.00000000000E+00 -0.47701773174E+03  0.36447007571E+04  0.36133499267E+04 0.  0.
        5    1    3    3  502    0 -0.10979000329E+04  0.13493617847E+04 -0.73048101606E+03  0.18867395986E+04  0.46999998093E+01 0.  1.
       -5    1    3    3    0  502  0.10979000329E+04 -0.13493617847E+04  0.25346328433E+03  0.17579611585E+04  0.46999998093E+01 0. -1.
</event>
<event>
 5   0  0.4811500E-07  0.3508391E+04  0.7818609E-02  0.8111804E-01
       -1   -1    0    0    0  501  0.00000000000E+00  0.00000000000E+00  0.16208499648E+04  0.16208499648E+04  0.50400001928E-02 0.  1.
        1   -1    0    0  501    0  0.00000000000E+00  0.00000000000E+00 -0.18985117226E+04  0.18985117226E+04  0.50400001928E-02 0. -1.
    10030    2    1    2    0    0  0.00000000000E+00  0.00000000000E+00 -0.27766175778E+03  0.35193616874E+04  0.35083914597E+04 0.  0.
        3    1    3    3  502    0 -0.43313353802E+03  0.11136491654E+03  0.15627028749E+04  0.16254375078E+04  0.10100000352E+00 0.  1.
       -3    1    3    3    0  502  0.43313353802E+03 -0.11136491654E+03 -0.18403646327E+04  0.18939241795E+04  0.10100000352E+00 0. -1.
</event>
<event>
 5   0  0.5071661E-07  0.3584802E+04  0.7818609E-02  0.8093982E-01
        1   -1    0    0  501    0  0.00000000000E+00  0.00000000000E+00  0.15761660802E+04  0.15761660802E+04  0.50400001928E-02 0.  1.
       -1   -1    0    0    0  501  0.00000000000E+00  0.00000000000E+00 -0.20383012225E+04  0.20383012225E+04  0.50400001928E-02 0. -1.
    10030    2    1    2    0    0  0.00000000000E+00  0.00000000000E+00 -0.46213514234E+03  0.36144673027E+04  0.35848019461E+04 0.  0.
        1    1    3    3  502    0 -0.65190769204E+03  0.13199615551E+04 -0.12619861097E+04  0.19390438589E+04  0.50400001928E-02 0. -1.
       -1    1    3    3    0  502  0.65190769204E+03 -0.13199615551E+04  0.79985096737E+03  0.16754234437E+04  0.50400001928E-02 0.  1.
</event>
<event>
 5   0  0.1379425E-06  0.3656639E+04  0.7818609E-02  0.8077640E-01
       -2   -1    0    0    0  501  0.00000000000E+00  0.00000000000E+00  0.15067140677E+04  0.15067140677E+04  0.25500000920E-02 0.  1.
        2   -1    0    0  501    0  0.00000000000E+00  0.00000000000E+00 -0.22185713284E+04  0.22185713284E+04  0.25500000920E-02 0. -1.
    10030    2    1    2    0    0  0.00000000000E+00  0.00000000000E+00 -0.71185726061E+03  0.37252853961E+04  0.36566392388E+04 0.  0.
        4    1    3    3  502    0 -0.16082756341E+02 -0.11653546614E+04 -0.17910760572E+04  0.21368821206E+04  0.12699999809E+01 0. -1.
       -4    1    3    3    0  502  0.16082756341E+02  0.11653546614E+04  0.10792187966E+04  0.15884032755E+04  0.12699999809E+01 0.  1.
</event>
<event>
 5   0  0.1468942E-06  0.2239951E+04  0.7818609E-02  0.8501981E-01
        2   -1    0    0  501    0  0.00000000000E+00  0.00000000000E+00  0.15861668086E+04  0.15861668086E+04  0.25500000920E-02 0. -1.
       -2   -1    0    0    0  501  0.00000000000E+00  0.00000000000E+00 -0.79080270288E+03  0.79080270288E+03  0.25500000920E-02 0.  1.
    10030    2    1    2    0    0  0.00000000000E+00  0.00000000000E+00  0.79536410568E+03  0.23769695114E+04  0.22399508918E+04 0.  0.
        2    1    3    3  502    0  0.88610107346E+03  0.60733879804E+03  0.61591670193E+02  0.10760246567E+04  0.25500000920E-02 0. -1.
       -2    1    3    3    0  502 -0.88610107346E+03 -0.60733879804E+03  0.73377243549E+03  0.13009448547E+04  0.25500000920E-02 0.  1.
</event>
<event>
 5   0  0.4811500E-07  0.3491004E+04  0.7818609E-02  0.8115925E-01
       -1   -1    0    0    0  501  0.00000000000E+00  0.00000000000E+00  0.12753387631E+04  0.12753387631E+04  0.50400001928E-02 0. -1.
        1   -1    0    0  501    0  0.00000000000E+00  0.00000000000E+00 -0.23889949281E+04  0.23889949281E+04  0.50400001928E-02 0.  1.
    10030    2    1    2    0    0  0.00000000000E+00  0.00000000000E+00 -0.11136561651E+04  0.36643336912E+04  0.34910043464E+04 0.  0.
        3    1    3    3  502    0 -0.82812126052E+03  0.15339941640E+04 -0.64985640873E+03  0.18604398081E+04  0.10100000352E+00 0.  1.
       -3    1    3    3    0  502  0.82812126052E+03 -0.15339941640E+04 -0.46379975634E+03  0.18038938831E+04  0.10100000352E+00 0. -1.
</event>
<event>
 5   0  0.1505671E-06  0.3583750E+04  0.7818609E-02  0.8094224E-01
        2   -1    0    0  501    0  0.00000000000E+00  0.00000000000E+00  0.24250049030E+04  0.24250049030E+04  0.25500000920E-02 0.  1.
       -2   -1    0    0    0  501  0.00000000000E+00  0.00000000000E+00 -0.13240448721E+04  0.13240448721E+04  0.25500000920E-02 0. -1.
    10030    2    1    2    0    0  0.00000000000E+00  0.00000000000E+00  0.11009600309E+04  0.37490497751E+04  0.35837496044E+04 0.  0.
        3    1    3    3  502    0  0.35369722387E+03 -0.10367625713E+04 -0.93296678429E+03  0.14388903315E+04  0.10100000352E+00 0. -1.
       -3    1    3    3    0  502 -0.35369722387E+03  0.10367625713E+04  0.20339268152E+04  0.23101594436E+04  0.10100000352E+00 0.  1.
</event>
<event>
 5   0  0.5071661E-07  0.2536417E+04  0.7818609E-02  0.8390125E-01
       -1   -1    0    0    0  501  0.00000000000E+00  0.00000000000E+00  0.46749322111E+03  0.46749322114E+03  0.50400001928E-02 0.  1.
        1   -1    0    0  501    0  0.00000000000E+00  0.00000000000E+00 -0.34403768789E+04  0.34403768789E+04  0.50400001928E-02 0. -1.
    10030    2    1    2    0    0  0.00000000000E+00  0.00000000000E+00 -0.29728836578E+04  0.39078701000E+04  0.25364170548E+04 0.  0.
        1    1    3    3  502    0 -0.13200600590E+03  0.68598126287E+03 -0.31172304350E+04  0.31945455801E+04  0.50400001928E-02 0. -1.
       -1    1    3    3    0  502  0.13200600590E+03 -0.68598126287E+03  0.14434677720E+03  0.71332451991E+03  0.50400001928E-02 0.  1.
</event>
<event>
 5   0  0.4811500E-07  0.3540460E+04  0.7818609E-02  0.8104268E-01
        1   -1    0    0  501    0  0.00000000000E+00  0.00000000000E+00  0.14568226844E+04  0.14568226844E+04  0.50400001928E-02 0.  1.
       -1   -1    0    0    0  501  0.00000000000E+00  0.00000000000E+00 -0.21510610791E+04  0.21510610791E+04  0.50400001928E-02 0. -1.
    10030    2    1    2    0    0  0.00000000000E+00  0.00000000000E+00 -0.69423839471E+03  0.36078837636E+04  0.35404601823E+04 0.  0.
        4    1    3    3  502    0 -0.52330827345E+03 -0.16603262505E+04 -0.67444986997E+03  0.18669277027E+04  0.12699999809E+01 0. -1.
       -4    1    3    3    0  502  0.52330827345E+03  0.16603262505E+04 -0.19788524736E+02  0.17409560608E+04  0.12699999809E+01 0.  1.
</event>
<event>
 5   0  0.4811500E-07  0.3576826E+04  0.7818609E-02  0.8095821E-01
       -1   -1    0    0    0  501  0.00000000000E+00  0.00000000000E+00  0.12588710498E+04  0.12588710498E+04  0.50400001928E-02 0.  1.
        1   -1    0    0  501    0  0.00000000000E+00  0.00000000000E+00 -0.25407063720E+04  0.25407063720E+04  0.50400001928E-02 0. -1.
    10030    2    1    2    0    0  0.00000000000E+00  0.00000000000E+00 -0.12818353222E+04  0.37995774218E+04  0.35768263573E+04 0.  0.
        5    1    3    3  502    0  0.44619438398E+03 -0.10478113238E+04  0.82386897717E+03  0.14056244805E+04  0.46999998093E+01 0.  1.
       -5    1    3    3    0  502 -0.44619438398E+03  0.10478113238E+04 -0.21057042994E+04  0.23939529413E+04  0.46999998093E+01 0. -1.
</event>
<event>
 5   0  0.1505671E-06  0.3515757E+04  0.7818609E-02  0.8110066E-01
        2   -1    0    0  501    0  0.00000000000E+00  0.00000000000E+00  0.17713162409E+04  0.17713162409E+04  0.25500000920E-02 0. -1.
       -2   -1    0    0    0  501  0.00000000000E+00  0.00000000000E+00 -0.17445422076E+04  0.17445422076E+04  0.25500000920E-02 0.  1.
    10030    2    1    2    0    0  0.00000000000E+00  0.00000000000E+00  0.26774033237E+02  0.35158584485E+04  0.35157565019E+04 0.  0.
        3    1    3    3  502    0  0.86753220481E+03  0.41171750541E+03  0.14858469441E+04  0.17691423296E+04  0.10100000352E+00 0. -1.
       -3    1    3    3    0  502 -0.86753220481E+03 -0.41171750541E+03 -0.14590729109E+04  0.17467161189E+04  0.10100000352E+00 0.  1.
</event>
<event>
 5   0  0.5071661E-07  0.3226159E+04  0.7818609E-02  0.8181943E-01
        1   -1    0    0  501    0  0.00000000000E+00  0.00000000000E+00  0.13077169757E+04  0.13077169757E+04  0.50400001928E-02 0. -1.
       -1   -1    0    0    0  501  0.00000000000E+00  0.00000000000E+00 -0.19897464477E+04  0.19897464477E+04  0.50400001928E-02 0.  1.
    10030    2    1    2    0    0  0.00000000000E+00  0.00000000000E+00 -0.68202947197E+03  0.32974634234E+04  0.32261588349E+04 0.  0.
        1    1    3    3  502    0  0.27153574683E+03 -0.30918980366E+03  0.12531679629E+04  0.13189995981E+04  0.50400001928E-02 0. -1.
       -1    1    3    3    0  502 -0.27153574683E+03  0.30918980366E+03 -0.19351974348E+04  0.19784638254E+04  0.50400001928E-02 0.  1.
</event>
<event>
 5   0  0.1444091E-06  0.3430015E+04  0.7818609E-02  0.8130579E-01
       -2   -1    0    0    0  501  0.00000000000E+00  0.00000000000E+00  0.13341282891E+04  0.13341282891E+04  0.25500000920E-02 0.  1.
        2   -1    0    0  501    0  0.00000000000E+00  0.00000000000E+00 -0.22046232987E+04  0.22046232987E+04  0.25500000920E-02 0. -1.
    10030    2    1    2    0    0  0.00000000000E+00  0.00000000000E+00 -0.87049500957E+03  0.35387515878E+04  0.34300147577E+04 0.  0.
        1    1    3    3  502    0  0.56028036701E+03  0.81937979327E+01  0.12370223696E+04  0.13580153058E+04  0.50400001928E-02 0.  1.
       -1    1    3    3    0  502 -0.56028036701E+03 -0.81937979327E+01 -0.21075173792E+04  0.21807362820E+04  0.50400001928E-02 0. -1.
</event>
<event>
 5   0  0.4811500E-07  0.3591722E+04  0.7818609E-02  0.8092390E-01
       -1   -1    0    0    0  501  0.00000000000E+00  0.00000000000E+00  0.15013425033E+04  0.15013425033E+04  0.50400001928E-02 0.  1.
        1   -1    0    0  501    0  0.00000000000E+00  0.00000000000E+00 -0.21481557083E+04  0.21481557083E+04  0.50400001928E-02 0. -1.
    10030    2    1    2    0    0  0.00000000000E+00  0.00000000000E+00 -0.64681320499E+03  0.36494982116E+04  0.35917224105E+04 0.  0.
        4    1    3    3  502    0  0.57134965488E+03  0.17025496831E+04 -0.32347204672E+03  0.18247607047E+04  0.12699999809E+01 0.  1.
       -4    1    3    3    0  502 -0.57134965488E+03 -0.17025496831E+04 -0.32334115827E+03  0.18247375069E+04  0.12699999809E+01 0. -1.
</event>
<event>
 5   0  0.4811500E-07  0.2640037E+04  0.7818609E-02  0.8354727E-01
       -1   -1    0    0    0  501  0.00000000000E+00  0.00000000000E+00  0.13878867082E+04  0.13878867083E+04  0.50400001928E-02 0.  1.
        1   -1    0    0  501    0  0.00000000000E+00  0.00000000000E+00 -0.12554692255E+04  0.12554692255E+04  0.50400001928E-02 0. -1.
    10030    2    1    2    0    0  0.00000000000E+00  0.00000000000E+00  0.13241748274E+03  0.26433559338E+04  0.26400371594E+04 0.  0.
        5    1    3    3  502    0 -0.60156105486E+03  0.29527206531E+03 -0.10724832597E+04  0.12646358083E+04  0.46999998093E+01 0. -1.
       -5    1    3    3    0  502  0.60156105486E+03 -0.29527206531E+03  0.12049007424E+04  0.13787201255E+04  0.46999998093E+01 0.  1.
</event>
<event>
 5   0  0.4811500E-07  0.3821070E+04  0.7818609E-02  0.8041648E-01
        1   -1    0    0  501    0  0.00000000000E+00  0.00000000000E+00  0.13926055916E+04  0.13926055916E+04  0.50400001928E-02 0. -1.
       -1   -1    0    0    0  501  0.00000000000E+00  0.00000000000E+00 -0.26210899623E+04  0.26210899623E+04  0.50400001928E-02 0.  1.
    10030    2    1    2    0    0  0.00000000000E+00  0.00000000000E+00 -0.12284843707E+04  0.40136955539E+04  0.38210702886E+04 0.  0.
        2    1    3    3  502    0 -0.84612534316E+02  0.38279120224E+03  0.13499023540E+04  0.14056759053E+04  0.25500000920E-02 0. -1.
       -2    1    3    3    0  502  0.84612534316E+02 -0.38279120224E+03 -0.25783867247E+04  0.26080196486E+04  0.25500000920E-02 0.  1.
</event>
<event>
 5   0  0.4811500E-07  0.3603302E+04  0.7818609E-02  0.8089736E-01
        1   -1    0    0  501    0  0.00000000000E+00  0.00000000000E+00  0.17813977744E+04  0.17813977745E+04  0.50400001928E-02 0. -1.
       -1   -1    0    0    0  501  0.00000000000E+00  0.00000000000E+00 -0.18221347690E+04  0.18221347690E+04  0.50400001928E-02 0.  1.
    10030    2    1    2    0    0  0.00000000000E+00  0.00000000000E+00 -0.40736994570E+02  0.36035325435E+04  0.36033022756E+04 0.  0.
        2    1    3    3  502    0 -0.15223750496E+04 -0.30485579531E+02 -0.98344180352E+03  0.18126535640E+04  0.25500000920E-02 0.  1.
       -2    1    3    3    0  502  0.15223750496E+04  0.30485579531E+02  0.94270480895E+03  0.17908789795E+04  0.25500000920E-02 0. -1.
</event>
<event>
 5   0  0.4811500E-07  0.3212489E+04  0.7818609E-02  0.8185527E-01
        1   -1    0    0  501    0  0.00000000000E+00  0.00000000000E+00  0.17087390410E+04  0.17087390411E+04  0.50400001928E-02 0.  1.
       -1   -1    0    0    0  501  0.00000000000E+00  0.00000000000E+00 -0.15098978001E+04  0.15098978001E+04  0.50400001928E-02 0. -1.
    10030    2    1    2    0    0  0.00000000000E+00  0.00000000000E+00  0.19884124099E+03  0.32186368411E+04  0.32124889534E+04 0.  0.
        5    1    3    3  502    0 -0.90518250541E+03  0.16156987975E+02  0.14287539537E+04  0.16914420967E+04  0.46999998093E+01 0.  1.
       -5    1    3    3    0  502  0.90518250541E+03 -0.16156987975E+02 -0.12299127127E+04  0.15271947444E+04  0.46999998093E+01 0. -1.
</event>
<event>
 5   0  0.1468942E-06  0.3695179E+04  0.7818609E-02  0.8069031E-01
       -2   -1    0    0    0  501  0.00000000000E+00  0.00000000000E+00  0.16344526741E+04  0.16344526741E+04  0.25500000920E-02 0. -1.
        2   -1    0    0  501    0  0.00000000000E+00  0.00000000000E+00 -0.20885200715E+04  0.20885200715E+04  0.25500000920E-02 0.  1.
    10030    2    1    2    0    0  0.00000000000E+00  0.00000000000E+00 -0.45406739741E+03  0.37229727456E+04  0.36951791381E+04 0.  0.
        2    1    3    3  502    0 -0.13470543726E+04 -0.11194975180E+04  0.36540016570E+03  0.17892309679E+04  0.25500000920E-02 0.  1.
       -2    1    3    3    0  502  0.13470543726E+04  0.11194975180E+04 -0.81946756311E+03  0.19337417776E+04  0.25500000920E-02 0. -1.
</event>
<event>
 5   0  0.4811500E-07  0.3602567E+04  0.7818609E-02  0.8089904E-01
       -1   -1    0    0    0  501  0.00000000000E+00  0.00000000000E+00  0.16779902724E+04  0.16779902724E+04  0.50400001928E-02 0. -1.
        1   -1    0    0  501    0  0.00000000000E+00  0.00000000000E+00 -0.19336356851E+04  0.19336356851E+04  0.50400001928E-02 0.  1.
    10030    2    1    2    0    0  0.00000000000E+00  0.00000000000E+00 -0.25564541263E+03  0.36116259575E+04  0.36025667905E+04 0.  0.
        4    1    3    3  502    0 -0.13127419742E+04  0.29498769405E+03 -0.13284615591E+04  0.18907990262E+04  0.12699999809E+01 0.  1.
       -4    1    3    3    0  502  0.13127419742E+04 -0.29498769405E+03  0.10728161464E+04  0.17208269313E+04  0.12699999809E+01 0. -1.
</event>
<event>
 5   0  0.5071661E-07  0.3596969E+04  0.7818609E-02  0.8091186E-01
       -1   -1    0    0    0  501  0.00000000000E+00  0.00000000000E+00  0.17563909010E+04  0.17563909010E+04  0.50400001928E-02 0. -1.
        1   -1    0    0  501    0  0.00000000000E+00  0.00000000000E+00 -0.18415869926E+04  0.18415869926E+04  0.50400001928E-02 0.  1.
    10030    2    1    2    0    0  0.00000000000E+00  0.00000000000E+00 -0.85196091644E+02  0.35979778936E+04  0.35969690781E+04 0.  0.
        1    1    3    3  502    0  0.45930710054E+03  0.11004133264E+04 -0.13893315210E+04  0.18308780890E+04  0.50400001928E-02 0.  1.
       -1    1    3    3    0  502 -0.45930710054E+03 -0.11004133264E+04  0.13041354293E+04  0.17670998047E+04  0.50400001928E-02 0. -1.
</event>
<event>
 5   0  0.5071661E-07  0.2203410E+04  0.7818609E-02  0.8517010E-01
       -1   -1    0    0    0  501  0.00000000000E+00  0.00000000000E+00  0.13405314242E+04  0.13405314242E+04  0.50400001928E-02 0.  1.
        1   -1    0    0  501    0  0.00000000000E+00  0.00000000000E+00 -0.90542766394E+03  0.90542766395E+03  0.50400001928E-02 0. -1.
    10030    2    1    2    0    0  0.00000000000E+00  0.00000000000E+00  0.43510376021E+03  0.22459590881E+04  0.22034102985E+04 0.  0.
        1    1    3    3  502    0  0.23968238496E+03  0.21681561502E+03  0.12911222056E+04  0.13309595059E+04  0.50400001928E-02 0.  1.
       -1    1    3    3    0  502 -0.23968238496E+03 -0.21681561502E+03 -0.85601844538E+03  0.91499958220E+03  0.50400001928E-02 0. -1.
</event>
<event>
 5   0  0.4811500E-07  0.3689164E+04  0.7818609E-02  0.8070368E-01
       -3   -1    0    0    0  501  0.00000000000E+00  0.00000000000E+00  0.10840032184E+04  0.10840032231E+04  0.10100000352E+00 0. -1.
        3   -1    0    0  501    0  0.00000000000E+00  0.00000000000E+00 -0.31388116172E+04  0.31388116188E+04  0.10100000352E+00 0.  1.
    10030    2    1    2    0    0  0.00000000000E+00  0.00000000000E+00 -0.20548083988E+04  0.42228148419E+04  0.36891635411E+04 0.  0.
        5    1    3    3  502    0  0.12070490985E+04 -0.79023034389E+03  0.28821496561E+03  0.14712312799E+04  0.46999998093E+01 0. -1.
       -5    1    3    3    0  502 -0.12070490985E+04  0.79023034389E+03 -0.23430233644E+04  0.27515835620E+04  0.46999998093E+01 0.  1.
</event>
<event>
 5   0  0.1379425E-06  0.2296091E+04  0.7818609E-02  0.8479464E-01
        2   -1    0    0  501    0  0.00000000000E+00  0.00000000000E+00  0.22881106563E+04  0.22881106563E+04  0.25500000920E-02 0. -1.
       -2   -1    0    0    0  501  0.00000000000E+00  0.00000000000E+00 -0.57602499768E+03  0.57602499769E+03  0.25500000920E-02 0.  1.
    10030    2    1    2    0    0  0.00000000000E+00  0.00000000000E+00  0.17120856586E+04  0.28641356540E+04  0.22960914054E+04 0.  0.
        4    1    3    3  502    0  0.93035319737E+03 -0.30958579750E+03  0.16009450559E+04  0.18773457653E+04  0.12699999809E+01 0. -1.
       -4    1    3    3    0  502 -0.93035319737E+03  0.30958579750E+03  0.11114060276E+03  0.98678988865E+03  0.12699999809E+01 0.  1.
</event>
<event>
 5   0  0.5071661E-07  0.3578988E+04  0.7818609E-02  0.8095322E-01
       -1   -1    0    0    0  501  0.00000000000E+00  0.00000000000E+00  0.25240734742E+04  0.25240734742E+04  0.50400001928E-02 0. -1.
        1   -1    0    0  501    0  0.00000000000E+00  0.00000000000E+00 -0.12686985710E+04  0.12686985710E+04  0.50400001928E-02 0.  1.
    10030    2    1    2    0    0  0.00000000000E+00  0.00000000000E+00  0.12553749032E+04  0.37927720452E+04  0.35789877954E+04 0.  0.
        1    1    3    3  502    0 -0.13452079625E+04 -0.10565590800E+04  0.70559153282E+02  0.17119813510E+04  0.50400001928E-02 0.  1.
       -1    1    3    3    0  502  0.13452079625E+04  0.10565590800E+04  0.11848157499E+04  0.20807906942E+04  0.50400001928E-02 0. -1.
</event>
<event>
 5   0  0.1379425E-06  0.3421949E+04  0.7818609E-02  0.8132540E-01
       -2   -1    0    0    0  501  0.00000000000E+00  0.00000000000E+00  0.15409461337E+04  0.15409461337E+04  0.25500000920E-02 0.  1.
        2   -1    0    0  501    0  0.00000000000E+00  0.00000000000E+00 -0.18997633083E+04  0.18997633083E+04  0.25500000920E-02 0. -1.
    10030    2    1    2    0    0  0.00000000000E+00  0.00000000000E+00 -0.35881717453E+03  0.34407094420E+04  0.34219485238E+04 0.  0.
        4    1    3    3  502    0 -0.10477352520E+04  0.45687785305E+03 -0.14595520339E+04  0.18538555185E+04  0.12699999809E+01 0. -1.
       -4    1    3    3    0  502  0.10477352520E+04 -0.45687785305E+03  0.11007348594E+04  0.15868539235E+04  0.12699999809E+01 0.  1.
</event>
<event>
 5   0  0.1505671E-06  0.3058413E+04  0.7818609E-02  0.8227245E-01
       -2   -1    0    0    0  501  0.00000000000E+00  0.00000000000E+00  0.11230888112E+04  0.11230888112E+04  0.25500000920E-02 0. -1.
        2   -1    0    0  501    0  0.00000000000E+00  0.00000000000E+00 -0.20821800366E+04  0.20821800366E+04  0.25500000920E-02 0.  1.
    10030    2    1    2    0    0  0.00000000000E+00  0.00000000000E+00 -0.95909122539E+03  0.32052688479E+04  0.30584133809E+04 0.  0.
        3    1    3    3  502    0  0.11225790974E+03 -0.10698128346E+04 -0.16186448700E+04  0.19434794995E+04  0.10100000352E+00 0.  1.
       -3    1    3    3    0  502 -0.11225790974E+03  0.10698128346E+04  0.65955364461E+03  0.12617893484E+04  0.10100000352E+00 0. -1.
</event>
<event>
 5   0  0.1444091E-06  0.3557399E+04  0.7818609E-02  0.8100320E-01
        2   -1    0    0  501    0  0.00000000000E+00  0.00000000000E+00  0.17901517083E+04  0.17901517083E+04  0.25500000920E-02 0.  1.
       -2   -1    0    0    0  501  0.00000000000E+00  0.00000000000E+00 -0.17673202926E+04  0.17673202926E+04  0.25500000920E-02 0. -1.
    10030    2    1    2    0    0  0.00000000000E+00  0.00000000000E+00  0.22831415698E+02  0.35574720008E+04  0.35573987355E+04 0.  0.
        1    1    3    3  502    0 -0.13806630863E+04  0.65803039422E+03  0.91947454209E+03  0.17845638098E+04  0.50400001928E-02 0.  1.
       -1    1    3    3    0  502  0.13806630863E+04 -0.65803039422E+03 -0.89664312639E+03  0.17729081910E+04  0.50400001928E-02 0. -1.
</event>
<event>
 5   0  0.1379425E-06  0.3320571E+04  0.7818609E-02  0.8157681E-01
        2   -1    0    0  501    0  0.00000000000E+00  0.00000000000E+00  0.15720831088E+04  0.15720831088E+04  0.25500000920E-02 0.  1.
       -2   -1    0    0    0  501  0.00000000000E+00  0.00000000000E+00 -0.17534369764E+04  0.17534369764E+04  0.25500000920E-02 0. -1.
    10030    2    1    2    0    0  0.00000000000E+00  0.00000000000E+00 -0.18135386756E+03  0.33255200852E+04  0.33205714285E+04 0.  0.
        4    1    3    3  502    0  0.82503594778E+03  0.12472269403E+04  0.63170773668E+03  0.16233655267E+04  0.12699999809E+01 0.  1.
       -4    1    3    3    0  502 -0.82503594778E+03 -0.12472269403E+04 -0.81306160424E+03  0.17021545585E+04  0.12699999809E+01 0. -1.
</event>
<event>
 5   0  0.5071661E-07  0.3565895E+04  0.7818609E-02  0.8098349E-01
        1   -1    0    0  501    0  0.00000000000E+00  0.00000000000E+00  0.94452414260E+03  0.94452414261E+03  0.50400001928E-02 0. -1.
       -1   -1    0    0    0  501  0.00000000000E+00  0.00000000000E+00 -0.33656126430E+04  0.33656126430E+04  0.50400001928E-02 0.  1.
    10030    2    1    2    0    0  0.00000000000E+00  0.00000000000E+00 -0.24210885004E+04  0.43101367856E+04  0.35658953411E+04 0.  0.
        1    1    3    3  502    0  0.14605161408E+04  0.10211119956E+04 -0.11429721093E+04  0.21171117939E+04  0.50400001928E-02 0.  1.
       -1    1    3    3    0  502 -0.14605161408E+04 -0.10211119956E+04 -0.12781163910E+04  0.21930249917E+04  0.50400001928E-02 0. -1.
</event>
<event>
 5   0  0.1505671E-06  0.3590106E+04  0.7818609E-02  0.8092762E-01
        2   -1    0    0  501    0  0.00000000000E+00  0.00000000000E+00  0.19971332479E+04  0.19971332479E+04  0.25500000920E-02 0.  1.
       -2   -1    0    0    0  501  0.00000000000E+00  0.00000000000E+00 -0.16134200422E+04  0.16134200422E+04  0.25500000920E-02 0. -1.
    10030    2    1    2    0    0  0.00000000000E+00  0.00000000000E+00  0.38371320565E+03  0.36105532901E+04  0.35901057416E+04 0.  0.
        3    1    3    3  502    0  0.14650002963E+04  0.22074319916E+02 -0.85111398312E+03  0.16944344680E+04  0.10100000352E+00 0. -1.
       -3    1    3    3    0  502 -0.14650002963E+04 -0.22074319916E+02  0.12348271888E+04  0.19161188221E+04  0.10100000352E+00 0.  1.
</event>
<event>
 5   0  0.5071661E-07  0.3610795E+04  0.7818609E-02  0.8088023E-01
       -1   -1    0    0    0  501  0.00000000000E+00  0.00000000000E+00  0.10718338117E+04  0.10718338117E+04  0.50400001928E-02 0.  1.
        1   -1    0    0  501    0  0.00000000000E+00  0.00000000000E+00 -0.30410123757E+04  0.30410123757E+04  0.50400001928E-02 0. -1.
    10030    2    1    2    0    0  0.00000000000E+00  0.00000000000E+00 -0.19691785640E+04  0.41128461874E+04  0.36107948632E+04 0.  0.
        1    1    3    3  502    0  0.39449932161E+03  0.51923626260E+03  0.93300500933E+03  0.11383032806E+04  0.50400001928E-02 0.  1.
       -1    1    3    3    0  502 -0.39449932161E+03 -0.51923626260E+03 -0.29021835733E+04  0.29745429068E+04  0.50400001928E-02 0. -1.
</event>
<event>
 5   0  0.1379425E-06  0.2201496E+04  0.7818609E-02  0.8517806E-01
        2   -1    0    0  501    0  0.00000000000E+00  0.00000000000E+00  0.10096974563E+04  0.10096974563E+04  0.25500000920E-02 0. -1.
       -2   -1    0    0    0  501  0.00000000000E+00  0.00000000000E+00 -0.12000093755E+04  0.12000093755E+04  0.25500000920E-02 0.  1.
    10030    2    1    2    0    0  0.00000000000E+00  0.00000000000E+00 -0.19031191918E+03  0.22097068318E+04  0.22014962312E+04 0.  0.
        4    1    3    3  502    0 -0.41852457874E+03  0.10109292329E+04  0.25726021373E+02  0.10944424050E+04  0.12699999809E+01 0. -1.
       -4    1    3    3    0  502  0.41852457874E+03 -0.10109292329E+04 -0.21603794056E+03  0.11152644267E+04  0.12699999809E+01 0.  1.
</event>
<event>
 5   0  0.1468942E-06  0.3489864E+04  0.7818609E-02  0.8116196E-01
        2   -1    0    0  501    0  0.00000000000E+00  0.00000000000E+00  0.20566858937E+04  0.20566858937E+04  0.25500000920E-02 0. -1.
       -2   -1    0    0    0  501  0.00000000000E+00  0.00000000000E+00 -0.14804335575E+04  0.14804335575E+04  0.25500000920E-02 0.  1.
    10030    2    1    2    0    0  0.00000000000E+00  0.00000000000E+00  0.57625233619E+03  0.35371194512E+04  0.34898635012E+04 0.  0.
        2    1    3    3  502    0 -0.21826066969E+03  0.13625343820E+04 -0.79434746543E+03  0.15922077621E+04  0.25500000920E-02 0.  1.
       -2    1    3    3    0  502  0.21826066969E+03 -0.13625343820E+04  0.13705998016E+04  0.19449116890E+04  0.25500000920E-02 0. -1.
</event>
<event>
 5   0  0.1444091E-06  0.3700102E+04  0.7818609E-02  0.8067939E-01
        2   -1    0    0  501    0  0.00000000000E+00  0.00000000000E+00  0.26042576194E+04  0.26042576194E+04  0.25500000920E-02 0.  1.
       -2   -1    0    0    0  501  0.00000000000E+00  0.00000000000E+00 -0.13142667875E+04  0.13142667875E+04  0.25500000920E-02 0. -1.
    10030    2    1    2    0    0  0.00000000000E+00  0.00000000000E+00  0.12899908318E+04  0.39185244069E+04  0.37001023204E+04 0.  0.
        1    1    3    3  502    0 -0.17231361306E+03 -0.31819965110E+03  0.25664140579E+04  0.25917993973E+04  0.50400001928E-02 0.  1.
       -1    1    3    3    0  502  0.17231361306E+03  0.31819965110E+03 -0.12764232260E+04  0.13267250096E+04  0.50400001928E-02 0. -1.
</event>
<event>
 5   0  0.1444091E-06  0.3684292E+04  0.7818609E-02  0.8071452E-01
       -2   -1    0    0    0  501  0.00000000000E+00  0.00000000000E+00  0.18600419760E+04  0.18600419760E+04  0.25500000920E-02 0. -1.
        2   -1    0    0  501    0  0.00000000000E+00  0.00000000000E+00 -0.18244226783E+04  0.18244226783E+04  0.25500000920E-02 0.  1.
    10030    2    1    2    0    0  0.00000000000E+00  0.00000000000E+00  0.35619297747E+02  0.36844646543E+04  0.36842924767E+04 0.  0.
        1    1    3    3  502    0 -0.12922353061E+04 -0.12384675166E+04  0.45352358086E+03  0.18464445603E+04  0.50400001928E-02 0.  1.
       -1    1    3    3    0  502  0.12922353061E+04  0.12384675166E+04 -0.41790428311E+03  0.18380200940E+04  0.50400001928E-02 0. -1.
</event>
<event>
 5   0  0.1468942E-06  0.3547247E+04  0.7818609E-02  0.8102683E-01
       -2   -1    0    0    0  501  0.00000000000E+00  0.00000000000E+00  0.15091856152E+04  0.15091856153E+04  0.25500000920E-02 0. -1.
        2   -1    0    0  501    0  0.00000000000E+00  0.00000000000E+00 -0.20843960529E+04  0.20843960529E+04  0.25500000920E-02 0.  1.
    10030    2    1    2    0    0  0.00000000000E+00  0.00000000000E+00 -0.57521043763E+03  0.35935816681E+04  0.35472471239E+04 0.  0.
        2    1    3    3  502    0  0.11432082476E+04  0.82022741682E+03  0.80633414532E+03  0.16216882766E+04  0.25500000920E-02 0. -1.
       -2    1    3    3    0  502 -0.11432082476E+04 -0.82022741682E+03 -0.13815445830E+04  0.19718933915E+04  0.25500000920E-02 0.  1.
</event>
<event>
 5   0  0.4811500E-07  0.3454825E+04  0.7818609E-02  0.8124580E-01
       -1   -1    0    0    0  501  0.00000000000E+00  0.00000000000E+00  0.17451215615E+04  0.17451215616E+04  0.50400001928E-02 0. -1.
        1   -1    0    0  501    0  0.00000000000E+00  0.00000000000E+00 -0.17098835022E+04  0.17098835022E+04  0.50400001928E-02 0.  1.
    10030    2    1    2    0    0  0.00000000000E+00  0.00000000000E+00  0.35238059331E+02  0.34550050638E+04  0.34548253603E+04 0.  0.
        2    1    3    3  502    0 -0.29703132786E+03  0.11853727735E+04 -0.12033532957E+04  0.17150496716E+04  0.25500000920E-02 0.  1.
       -2    1    3    3    0  502  0.29703132786E+03 -0.11853727735E+04  0.12385913551E+04  0.17399553921E+04  0.25500000920E-02 0. -1.
</event>
<event>
 5   0  0.4811500E-07  0.3661183E+04  0.7818609E-02  0.8076619E-01
        1   -1    0    0  501    0  0.00000000000E+00  0.00000000000E+00  0.19510557677E+04  0.19510557678E+04  0.50400001928E-02 0. -1.
       -1   -1    0    0    0  501  0.00000000000E+00  0.00000000000E+00 -0.17175653904E+04  0.17175653904E+04  0.50400001928E-02 0.  1.
    10030    2    1    2    0    0  0.00000000000E+00  0.00000000000E+00  0.23349037732E+03  0.36686211582E+04  0.36611833396E+04 0.  0.
        2    1    3    3  502    0 -0.62190801240E+03  0.10872838859E+04 -0.12209237638E+04  0.17491742799E+04  0.25500000920E-02 0.  1.
       -2    1    3    3    0  502  0.62190801240E+03 -0.10872838859E+04  0.14544141411E+04  0.19194468783E+04  0.25500000920E-02 0. -1.
</event>
<event>
 5   0  0.4811500E-07  0.3349927E+04  0.7818609E-02  0.8150306E-01
       -1   -1    0    0    0  501  0.00000000000E+00  0.00000000000E+00  0.15035844964E+04  0.15035844964E+04  0.50400001928E-02 0.  1.
        1   -1    0    0  501    0  0.00000000000E+00  0.00000000000E+00 -0.18658759645E+04  0.18658759645E+04  0.50400001928E-02 0. -1.
    10030    2    1    2    0    0  0.00000000000E+00  0.00000000000E+00 -0.36229146813E+03  0.33694604608E+04  0.33499266692E+04 0.  0.
        4    1    3    3  502    0 -0.20023628343E+03 -0.78064126732E+03  0.12957504431E+04  0.15259312504E+04  0.12699999809E+01 0.  1.
       -4    1    3    3    0  502  0.20023628343E+03  0.78064126732E+03 -0.16580419112E+04  0.18435292104E+04  0.12699999809E+01 0. -1.
</event>
<event>
 5   0  0.4811500E-07  0.3575710E+04  0.7818609E-02  0.8096078E-01
        1   -1    0    0  501    0  0.00000000000E+00  0.00000000000E+00  0.19610175153E+04  0.19610175153E+04  0.50400001928E-02 0.  1.
       -1   -1    0    0    0  501  0.00000000000E+00  0.00000000000E+00 -0.16299828692E+04  0.16299828692E+04  0.50400001928E-02 0. -1.
    10030    2    1    2    0    0  0.00000000000E+00  0.00000000000E+00  0.33103464611E+03  0.35910003845E+04  0.35757096952E+04 0.  0.
        5    1    3    3  502    0 -0.78762448295E+03 -0.12739745350E+04 -0.81489470969E+03  0.17051213798E+04  0.46999998093E+01 0. -1.
       -5    1    3    3    0  502  0.78762448295E+03  0.12739745350E+04  0.11459293558E+04  0.18858790047E+04  0.46999998093E+01 0.  1.
</event>
<event>
 5   0  0.4811500E-07  0.3536219E+04  0.7818609E-02  0.8105260E-01
       -1   -1    0    0    0  501  0.00000000000E+00  0.00000000000E+00  0.27225975399E+04  0.27225975399E+04  0.50400001928E-02 0.  1.
        1   -1    0    0  501    0  0.00000000000E+00  0.00000000000E+00 -0.11482458841E+04  0.11482458841E+04  0.50400001928E-02 0. -1.
    10030    2    1    2    0    0  0.00000000000E+00  0.00000000000E+00  0.15743516558E+04  0.38708434240E+04  0.35362191217E+04 0.  0.
        5    1    3    3  502    0  0.58632143679E+03 -0.10890305546E+04 -0.59588485007E+03  0.13729024804E+04  0.46999998093E+01 0. -1.
       -5    1    3    3    0  502 -0.58632143679E+03  0.10890305546E+04  0.21702365059E+04  0.24979409436E+04  0.46999998093E+01 0.  1.
</event>
<event>
 5   0  0.1505671E-06  0.3749465E+04  0.7818609E-02  0.8057087E-01
        2   -1    0    0  501    0  0.00000000000E+00  0.00000000000E+00  0.20913188703E+04  0.20913188703E+04  0.25500000920E-02 0.  1.
       -2   -1    0    0    0  501  0.00000000000E+00  0.00000000000E+00 -0.16805767813E+04  0.16805767813E+04  0.25500000920E-02 0. -1.
    10030    2    1    2    0    0  0.00000000000E+00  0.00000000000E+00  0.41074208903E+03  0.37718956515E+04  0.37494649942E+04 0.  0.
        3    1    3    3  502    0  0.45450962090E+03  0.10547220773E+04  0.16959926085E+04  0.20482696585E+04  0.10100000352E+00 0.  1.
       -3    1    3    3    0  502 -0.45450962090E+03 -0.10547220773E+04 -0.12852505195E+04  0.17236259930E+04  0.10100000352E+00 0. -1.
</event>
<event>
 5   0  0.1505671E-06  0.2766788E+04  0.7818609E-02  0.8313654E-01
       -2   -1    0    0    0  501  0.00000000000E+00  0.00000000000E+00  0.79836089614E+03  0.79836089614E+03  0.25500000920E-02 0.  1.
        2   -1    0    0  501    0  0.00000000000E+00  0.00000000000E+00 -0.23971355281E+04  0.23971355281E+04  0.25500000920E-02 0. -1.
    10030    2    1    2    0    0  0.00000000000E+00  0.00000000000E+00 -0.15987746319E+04  0.31954964242E+04  0.27667882235E+04 0.  0.
        3    1    3    3  502    0 -0.90204667844E+02  0.87271726683E+03 -0.20346995671E+04  0.22158011302E+04  0.10100000352E+00 0. -1.
       -3    1    3    3    0  502  0.90204667844E+02 -0.87271726683E+03  0.43592493515E+03  0.97969529406E+03  0.10100000352E+00 0.  1.
</event>
<event>
 5   0  0.4811500E-07  0.3611463E+04  0.7818609E-02  0.8087871E-01
       -1   -1    0    0    0  501  0.00000000000E+00  0.00000000000E+00  0.25730337174E+04  0.25730337174E+04  0.50400001928E-02 0. -1.
        1   -1    0    0  501    0  0.00000000000E+00  0.00000000000E+00 -0.12672459492E+04  0.12672459492E+04  0.50400001928E-02 0.  1.
    10030    2    1    2    0    0  0.00000000000E+00  0.00000000000E+00  0.13057877682E+04  0.38402796666E+04  0.36114631692E+04 0.  0.
        5    1    3    3  502    0  0.15867031200E+04  0.26351151463E+03  0.15256121122E+04  0.22168850931E+04  0.46999998093E+01 0. -1.
       -5    1    3    3    0  502 -0.15867031200E+04 -0.26351151463E+03 -0.21982434395E+03  0.16233945735E+04  0.46999998093E+01 0.  1.
</event>
<event>
 5   0  0.1444091E-06  0.3593144E+04  0.7818609E-02  0.8092064E-01
       -2   -1    0    0    0  501  0.00000000000E+00  0.00000000000E+00  0.19436807790E+04  0.19436807790E+04  0.25500000920E-02 0.  1.
        2   -1    0    0  501    0  0.00000000000E+00  0.00000000000E+00 -0.16605976031E+04  0.16605976031E+04  0.25500000920E-02 0. -1.
    10030    2    1    2    0    0  0.00000000000E+00  0.00000000000E+00  0.28308317591E+03  0.36042783821E+04  0.35931443850E+04 0.  0.
        1    1    3    3  502    0 -0.14106463067E+03 -0.30080748846E+03 -0.16295135037E+04  0.16630389754E+04  0.50400001928E-02 0. -1.
       -1    1    3    3    0  502  0.14106463067E+03  0.30080748846E+03  0.19125966796E+04  0.19412394066E+04  0.50400001928E-02 0.  1.
</event>
<event>
 5   0  0.4811500E-07  0.3679253E+04  0.7818609E-02  0.8072575E-01
        1   -1    0    0  501    0  0.00000000000E+00  0.00000000000E+00  0.19380938183E+04  0.19380938183E+04  0.50400001928E-02 0.  1.
       -1   -1    0    0    0  501  0.00000000000E+00  0.00000000000E+00 -0.17461620671E+04  0.17461620671E+04  0.50400001928E-02 0. -1.
    10030    2    1    2    0    0  0.00000000000E+00  0.00000000000E+00  0.19193175112E+03  0.36842558854E+04  0.36792531351E+04 0.  0.
        2    1    3    3  502    0 -0.12045050508E+04  0.93612370887E+03  0.11255009511E+04  0.18957616956E+04  0.25500000920E-02 0.  1.
       -2    1    3    3    0  502  0.12045050508E+04 -0.93612370887E+03 -0.93356919999E+03  0.17884941898E+04  0.25500000920E-02 0. -1.
</event>
<event>
 5   0  0.1505671E-06  0.3682346E+04  0.7818609E-02  0.8071886E-01
       -2   -1    0    0    0  501  0.00000000000E+00  0.00000000000E+00  0.12641323029E+04  0.12641323029E+04  0.25500000920E-02 0.  1.
        2   -1    0    0  501    0  0.00000000000E+00  0.00000000000E+00 -0.26816159783E+04  0.26816159783E+04  0.25500000920E-02 0. -1.
    10030    2    1    2    0    0  0.00000000000E+00  0.00000000000E+00 -0.14174836754E+04  0.39457482811E+04  0.36823456557E+04 0.  0.
        3    1    3    3  502    0  0.10207572198E+04 -0.15159235656E+04 -0.94821842632E+03  0.20589045031E+04  0.10100000352E+00 0.  1.
       -3    1    3    3    0  502 -0.10207572198E+04  0.15159235656E+04 -0.46926524905E+03  0.18868437781E+04  0.10100000352E+00 0. -1.
</event>
<event>
 5   0  0.1379425E-06  0.3580729E+04  0.7818609E-02  0.8094920E-01
       -2   -1    0    0    0  501  0.00000000000E+00  0.00000000000E+00  0.13997577140E+04  0.13997577140E+04  0.25500000920E-02 0. -1.
        2   -1    0    0  501    0  0.00000000000E+00  0.00000000000E+00 -0.22899715526E+04  0.22899715526E+04  0.25500000920E-02 0.  1.
    10030    2    1    2    0    0  0.00000000000E+00  0.00000000000E+00 -0.89021383855E+03  0.36897292666E+04  0.35807291691E+04 0.  0.
        4    1    3    3  502    0  0.64648707255E+02  0.63989483150E+03 -0.21668247619E+04  0.22602601648E+04  0.12699999809E+01 0.  1.
       -4    1    3    3    0  502 -0.64648707255E+02 -0.63989483150E+03  0.12766109233E+04  0.14294691019E+04  0.12699999809E+01 0. -1.
</event>
<event>
 5   0  0.1491854E-06  0.3627601E+04  0.7818609E-02  0.8084198E-01
       -2   -1    0    0    0  501  0.00000000000E+00  0.00000000000E+00  0.11143177728E+04  0.11143177728E+04  0.25500000920E-02 0.  1.
        2   -1    0    0  501    0  0.00000000000E+00  0.00000000000E+00 -0.29523649730E+04  0.29523649730E+04  0.25500000920E-02 0. -1.
    10030    2    1    2    0    0  0.00000000000E+00  0.00000000000E+00 -0.18380472003E+04  0.40666827458E+04  0.36276012797E+04 0.  0.
        5    1    3    3  502    0 -0.11462901156E+04  0.99427162649E+03 -0.20329176959E+04  0.25367959210E+04  0.46999998093E+01 0. -1.
       -5    1    3    3    0  502  0.11462901156E+04 -0.99427162649E+03  0.19487049567E+03  0.15298868248E+04  0.46999998093E+01 0.  1.
</event>
<event>
 5   0  0.5071661E-07  0.2290189E+04  0.7818609E-02  0.8481799E-01
       -1   -1    0    0    0  501  0.00000000000E+00  0.00000000000E+00  0.59170404590E+03  0.59170404592E+03  0.50400001928E-02 0. -1.
        1   -1    0    0  501    0  0.00000000000E+00  0.00000000000E+00 -0.22160430762E+04  0.22160430762E+04  0.50400001928E-02 0.  1.
    10030    2    1    2    0    0  0.00000000000E+00  0.00000000000E+00 -0.16243390303E+04  0.28077471221E+04  0.22901892097E+04 0.  0.
        1    1    3    3  502    0  0.95080462924E+03 -0.44618351381E+02 -0.31741554951E+02  0.95238005366E+03  0.50400001928E-02 0. -1.
       -1    1    3    3    0  502 -0.95080462924E+03  0.44618351381E+02 -0.15925974753E+04  0.18553670685E+04  0.50400001928E-02 0.  1.
</event>
<event>
 5   0  0.4811500E-07  0.3630862E+04  0.7818609E-02  0.8083459E-01
        1   -1    0    0  501    0  0.00000000000E+00  0.00000000000E+00  0.17082403762E+04  0.17082403762E+04  0.50400001928E-02 0. -1.
       -1   -1    0    0    0  501  0.00000000000E+00  0.00000000000E+00 -0.19293478275E+04  0.19293478275E+04  0.50400001928E-02 0.  1.
    10030    2    1    2    0    0  0.00000000000E+00  0.00000000000E+00 -0.22110745126E+03  0.36375882037E+04  0.36308620787E+04 0.  0.
        3    1    3    3  502    0  0.43469135360E+03 -0.13602460740E+04  0.10124884564E+04  0.17505310163E+04  0.10100000352E+00 0. -1.
       -3    1    3    3    0  502 -0.43469135360E+03  0.13602460740E+04 -0.12335959076E+04  0.18870571873E+04  0.10100000352E+00 0.  1.
</event>
<event>
 5   0  0.4811500E-07  0.3106249E+04  0.7818609E-02  0.8214025E-01
        1   -1    0    0  501    0  0.00000000000E+00  0.00000000000E+00  0.12037371508E+04  0.12037371508E+04  0.50400001928E-02 0. -1.
       -1   -1    0    0    0  501  0.00000000000E+00  0.00000000000E+00 -0.20039221824E+04  0.20039221824E+04  0.50400001928E-02 0.  1.
    10030    2    1    2    0    0  0.00000000000E+00  0.00000000000E+00 -0.80018503155E+03  0.32076593332E+04  0.31062489136E+04 0.  0.
        4    1    3    3  502    0 -0.15278818825E+04 -0.94050163480E+02 -0.67120024515E+03  0.16714603981E+04  0.12699999809E+01 0.  1.
       -4    1    3    3    0  502  0.15278818825E+04  0.94050163480E+02 -0.12898478640E+03  0.15361989351E+04  0.12699999809E+01 0. -1.
</event>
<event>
 5   0  0.4811500E-07  0.3194907E+04  0.7818609E-02  0.8190163E-01
        1   -1    0    0  501    0  0.00000000000E+00  0.00000000000E+00  0.21401485572E+04  0.21401485572E+04  0.50400001928E-02 0. -1.
       -1   -1    0    0    0  501  0.00000000000E+00  0.00000000000E+00 -0.11923743379E+04  0.11923743379E+04  0.50400001928E-02 0.  1.
    10030    2    1    2    0    0  0.00000000000E+00  0.00000000000E+00  0.94777421929E+03  0.33325228951E+04  0.31949073345E+04 0.  0.
        5    1    3    3  502    0  0.70062422887E-01  0.89038120368E+03 -0.90953555200E+03  0.12728140882E+04  0.46999998093E+01 0.  1.
       -5    1    3    3    0  502 -0.70062422887E-01 -0.89038120368E+03  0.18573097713E+04  0.20597088069E+04  0.46999998093E+01 0. -1.
</event>
<event>
 5   0  0.1505671E-06  0.3588159E+04  0.7818609E-02  0.8093209E-01
        2   -1    0    0  501    0  0.00000000000E+00  0.00000000000E+00  0.22071416323E+04  0.22071416323E+04  0.25500000920E-02 0.  1.
       -2   -1    0    0    0  501  0.00000000000E+00  0.00000000000E+00 -0.14583207918E+04  0.14583207918E+04  0.25500000920E-02 0. -1.
    10030    2    1    2    0    0  0.00000000000E+00  0.00000000000E+00  0.74882084045E+03  0.36654624241E+04  0.35881585990E+04 0.  0.
        3    1    3    3  502    0 -0.17041901395E+03  0.16636204106E+04  0.10380564898E+04  0.19683081053E+04  0.10100000352E+00 0. -1.
       -3    1    3    3    0  502  0.17041901395E+03 -0.16636204106E+04 -0.28923564938E+03  0.16971543188E+04  0.10100000352E+00 0.  1.
</event>
<event>
 5   0  0.4811500E-07  0.2613853E+04  0.7818609E-02  0.8363511E-01
        1   -1    0    0  501    0  0.00000000000E+00  0.00000000000E+00  0.19938106075E+04  0.19938106075E+04  0.50400001928E-02 0. -1.
       -1   -1    0    0    0  501  0.00000000000E+00  0.00000000000E+00 -0.85667946111E+03  0.85667946112E+03  0.50400001928E-02 0.  1.
    10030    2    1    2    0    0  0.00000000000E+00  0.00000000000E+00  0.11371311464E+04  0.28504900686E+04  0.26138527861E+04 0.  0.
        2    1    3    3  502    0 -0.10203899919E+04 -0.75992274313E+03  0.89459321172E+03  0.15553055409E+04  0.25500000920E-02 0. -1.
       -2    1    3    3    0  502  0.10203899919E+04  0.75992274313E+03  0.24253793466E+03  0.12951845277E+04  0.25500000920E-02 0.  1.
</event>
<event>
 5   0  0.4811500E-07  0.3231026E+04  0.7818609E-02  0.8180671E-01
        1   -1    0    0  501    0  0.00000000000E+00  0.00000000000E+00  0.18711203515E+04  0.18711203515E+04  0.50400001928E-02 0. -1.
       -1   -1    0    0    0  501  0.00000000000E+00  0.00000000000E+00 -0.13948233950E+04  0.13948233951E+04  0.50400001928E-02 0.  1.
    10030    2    1    2    0    0  0.00000000000E+00  0.00000000000E+00  0.47629695645E+03  0.32659437466E+04  0.32310261164E+04 0.  0.
        4    1    3    3  502    0 -0.38572242106E+03 -0.12511615975E+04 -0.71849032159E+03  0.14934580959E+04  0.12699999809E+01 0.  1.
       -4    1    3    3    0  502  0.38572242106E+03  0.12511615975E+04  0.11947872780E+04  0.17724856507E+04  0.12699999809E+01 0. -1.
</event>
<event>
 5   0  0.4811500E-07  0.3552808E+04  0.7818609E-02  0.8101388E-01
       -1   -1    0    0    0  501  0.00000000000E+00  0.00000000000E+00  0.17168902144E+04  0.17168902144E+04  0.50400001928E-02 0.  1.
        1   -1    0    0  501    0  0.00000000000E+00  0.00000000000E+00 -0.18379812567E+04  0.18379812567E+04  0.50400001928E-02 0. -1.
    10030    2    1    2    0    0  0.00000000000E+00  0.00000000000E+00 -0.12109104227E+03  0.35548714712E+04  0.35528084857E+04 0.  0.
        3    1    3    3  502    0 -0.14693143970E+04 -0.31691865307E+03 -0.10078210783E+04  0.18097031707E+04  0.10100000352E+00 0. -1.
       -3    1    3    3    0  502  0.14693143970E+04  0.31691865307E+03  0.88673003605E+03  0.17451683005E+04  0.10100000352E+00 0.  1.
</event>
<event>
 5   0  0.4811500E-07  0.3589254E+04  0.7818609E-02  0.8092958E-01
       -1   -1    0    0    0  501  0.00000000000E+00  0.00000000000E+00  0.11720353690E+04  0.11720353690E+04  0.50400001928E-02 0. -1.
        1   -1    0    0  501    0  0.00000000000E+00  0.00000000000E+00 -0.27479421666E+04  0.27479421666E+04  0.50400001928E-02 0.  1.
    10030    2    1    2    0    0  0.00000000000E+00  0.00000000000E+00 -0.15759067977E+04  0.39199775356E+04  0.35892536334E+04 0.  0.
        4    1    3    3  502    0  0.22508757277E+02  0.27702816389E+03  0.11483860907E+04  0.11815428363E+04  0.12699999809E+01 0. -1.
       -4    1    3    3    0  502 -0.22508757277E+02 -0.27702816389E+03 -0.27242928884E+04  0.27384346993E+04  0.12699999809E+01 0.  1.
</event>
<event>
 5   0  0.1468942E-06  0.3567564E+04  0.7818609E-02  0.8097962E-01
        2   -1    0    0  501    0  0.00000000000E+00  0.00000000000E+00  0.19773207268E+04  0.19773207268E+04  0.25500000920E-02 0.  1.
       -2   -1    0    0    0  501  0.00000000000E+00  0.00000000000E+00 -0.16091867348E+04  0.16091867348E+04  0.25500000920E-02 0. -1.
    10030    2    1    2    0    0  0.00000000000E+00  0.00000000000E+00  0.36813399207E+03  0.35865074616E+04  0.35675640339E+04 0.  0.
        2    1    3    3  502    0 -0.45401756344E+02 -0.63480557030E+03  0.18593003079E+04  0.19652066218E+04  0.25500000920E-02 0.  1.
       -2    1    3    3    0  502  0.45401756344E+02  0.63480557030E+03 -0.14911663158E+04  0.16213008398E+04  0.25500000920E-02 0. -1.
</event>
<event>
 5   0  0.1491854E-06  0.3559858E+04  0.7818609E-02  0.8099749E-01
        2   -1    0    0  501    0  0.00000000000E+00  0.00000000000E+00  0.15155717686E+04  0.15155717686E+04  0.25500000920E-02 0. -1.
       -2   -1    0    0    0  501  0.00000000000E+00  0.00000000000E+00 -0.20903974039E+04  0.20903974039E+04  0.25500000920E-02 0.  1.
    10030    2    1    2    0    0  0.00000000000E+00  0.00000000000E+00 -0.57482563528E+03  0.36059691724E+04  0.35598580255E+04 0.  0.
        5    1    3    3  502    0 -0.11131837695E+04 -0.30387149018E+03  0.10853569656E+04  0.15841520824E+04  0.46999998093E+01 0. -1.
       -5    1    3    3    0  502  0.11131837695E+04  0.30387149018E+03 -0.16601826009E+04  0.20218170901E+04  0.46999998093E+01 0.  1.
</event>
<event>
 5   0  0.1505671E-06  0.3543404E+04  0.7818609E-02  0.8103580E-01
       -2   -1    0    0    0  501  0.00000000000E+00  0.00000000000E+00  0.18803723511E+04  0.18803723511E+04  0.25500000920E-02 0. -1.
        2   -1    0    0  501    0  0.00000000000E+00  0.00000000000E+00 -0.16693123200E+04  0.16693123200E+04  0.25500000920E-02 0.  1.
    10030    2    1    2    0    0  0.00000000000E+00  0.00000000000E+00  0.21106003104E+03  0.35496846711E+04  0.35434044262E+04 0.  0.
        3    1    3    3  502    0  0.34897590740E+03 -0.74694844952E+03  0.16764970983E+04  0.18682501709E+04  0.10100000352E+00 0. -1.
       -3    1    3    3    0  502 -0.34897590740E+03  0.74694844952E+03 -0.14654370673E+04  0.16814345002E+04  0.10100000352E+00 0.  1.
</event>
<event>
 5   0  0.1491854E-06  0.3874779E+04  0.7818609E-02  0.8030295E-01
        2   -1    0    0  501    0  0.00000000000E+00  0.00000000000E+00  0.22023568232E+04  0.22023568232E+04  0.25500000920E-02 0. -1.
       -2   -1    0    0    0  501  0.00000000000E+00  0.00000000000E+00 -0.17043005089E+04  0.17043005089E+04  0.25500000920E-02 0.  1.
    10030    2    1    2    0    0  0.00000000000E+00  0.00000000000E+00  0.49805631428E+03  0.39066573322E+04  0.38747788864E+04 0.  0.
        5    1    3    3  502    0 -0.13945045370E+04  0.19679036525E+01  0.16050127294E+04  0.21262019490E+04  0.46999998093E+01 0. -1.
       -5    1    3    3    0  502  0.13945045370E+04 -0.19679036525E+01 -0.11069564151E+04  0.17804553832E+04  0.46999998093E+01 0.  1.
</event>
<event>
 5   0  0.4811500E-07  0.3528261E+04  0.7818609E-02  0.8107125E-01
        1   -1    0    0  501    0  0.00000000000E+00  0.00000000000E+00  0.21148384043E+04  0.21148384043E+04  0.50400001928E-02 0. -1.
       -1   -1    0    0    0  501  0.00000000000E+00  0.00000000000E+00 -0.14715809319E+04  0.14715809319E+04  0.50400001928E-02 0.  1.
    10030    2    1    2    0    0  0.00000000000E+00  0.00000000000E+00  0.64325747243E+03  0.35864193363E+04  0.35282606876E+04 0.  0.
        4    1    3    3  502    0 -0.13344026221E+04 -0.80991614819E+03  0.11571014662E+04  0.19430594281E+04  0.12699999809E+01 0. -1.
       -4    1    3    3    0  502  0.13344026221E+04  0.80991614819E+03 -0.51384399375E+03  0.16433599082E+04  0.12699999809E+01 0.  1.
</event>
<event>
 5   0  0.4811500E-07  0.3641271E+04  0.7818609E-02  0.8081103E-01
       -1   -1    0    0    0  501  0.00000000000E+00  0.00000000000E+00  0.22261785756E+04  0.22261785756E+04  0.50400001928E-02 0. -1.
        1   -1    0    0  501    0  0.00000000000E+00  0.00000000000E+00 -0.14889702134E+04  0.14889702134E+04  0.50400001928E-02 0.  1.
    10030    2    1    2    0    0  0.00000000000E+00  0.00000000000E+00  0.73720836224E+03  0.37151487890E+04  0.36412709807E+04 0.  0.
        3    1    3    3  502    0 -0.57237143902E+03  0.16257867262E+04  0.96695131179E+03  0.19763062498E+04  0.10100000352E+00 0. -1.
       -3    1    3    3    0  502  0.57237143902E+03 -0.16257867262E+04 -0.22974294955E+03  0.17388425393E+04  0.10100000352E+00 0.  1.
</event>
<event>
 5   0  0.4811500E-07  0.3625588E+04  0.7818609E-02  0.8084656E-01
        1   -1    0    0  501    0  0.00000000000E+00  0.00000000000E+00  0.14658518515E+04  0.14658518515E+04  0.50400001928E-02 0. -1.
       -1   -1    0    0    0  501  0.00000000000E+00  0.00000000000E+00 -0.22418513288E+04  0.22418513288E+04  0.50400001928E-02 0.  1.
    10030    2    1    2    0    0  0.00000000000E+00  0.00000000000E+00 -0.77599947724E+03  0.37077031803E+04  0.36255879088E+04 0.  0.
        3    1    3    3  502    0 -0.95123495526E+03 -0.34349114862E+03  0.11505303892E+04  0.15318466947E+04  0.10100000352E+00 0. -1.
       -3    1    3    3    0  502  0.95123495526E+03  0.34349114862E+03 -0.19265298665E+04  0.21758564856E+04  0.10100000352E+00 0.  1.
</event>
<event>
 5   0  0.4811500E-07  0.3636279E+04  0.7818609E-02  0.8082232E-01
        1   -1    0    0  501    0  0.00000000000E+00  0.00000000000E+00  0.12859732897E+04  0.12859732897E+04  0.50400001928E-02 0. -1.
       -1   -1    0    0    0  501  0.00000000000E+00  0.00000000000E+00 -0.25705281948E+04  0.25705281948E+04  0.50400001928E-02 0.  1.
    10030    2    1    2    0    0  0.00000000000E+00  0.00000000000E+00 -0.12845549051E+04  0.38565014845E+04  0.36362786466E+04 0.  0.
        5    1    3    3  502    0  0.15128487060E+04 -0.84275147719E+03 -0.54963867932E+02  0.17326235530E+04  0.46999998093E+01 0. -1.
       -5    1    3    3    0  502 -0.15128487060E+04  0.84275147719E+03 -0.12295910372E+04  0.21238779316E+04  0.46999998093E+01 0.  1.
</event>
<event>
 5   0  0.1468942E-06  0.3578861E+04  0.7818609E-02  0.8095351E-01
        2   -1    0    0  501    0  0.00000000000E+00  0.00000000000E+00  0.11492959988E+04  0.11492959988E+04  0.25500000920E-02 0. -1.
       -2   -1    0    0    0  501  0.00000000000E+00  0.00000000000E+00 -0.27861068388E+04  0.27861068388E+04  0.25500000920E-02 0.  1.
    10030    2    1    2    0    0  0.00000000000E+00  0.00000000000E+00 -0.16368108400E+04  0.39354028375E+04  0.35788609595E+04 0.  0.
        2    1    3    3  502    0 -0.46730925864E+03 -0.16964969814E+04 -0.46110110296E+03  0.18190915805E+04  0.25500000920E-02 0. -1.
       -2    1    3    3    0  502  0.46730925864E+03  0.16964969814E+04 -0.11757097370E+04  0.21163112571E+04  0.25500000920E-02 0.  1.
</event>
<event>
 5   0  0.1505671E-06  0.3617456E+04  0.7818609E-02  0.8086505E-01
        2   -1    0    0  501    0  0.00000000000E+00  0.00000000000E+00  0.14525775964E+04  0.14525775964E+04  0.25500000920E-02 0. -1.
       -2   -1    0    0    0  501  0.00000000000E+00  0.00000000000E+00 -0.22522011886E+04  0.22522011886E+04  0.25500000920E-02 0.  1.
    10030    2    1    2    0    0  0.00000000000E+00  0.00000000000E+00 -0.79962359227E+03  0.37047787850E+04  0.36174560062E+04 0.  0.
        3    1    3    3  502    0  0.12698491906E+03  0.39469403132E+03  0.14032517729E+04  0.14632238709E+04  0.10100000352E+00 0. -1.
       -3    1    3    3    0  502 -0.12698491906E+03 -0.39469403132E+03 -0.22028753652E+04  0.22415549141E+04  0.10100000352E+00 0.  1.
</event>
<event>
 5   0  0.1505671E-06  0.3589645E+04  0.7818609E-02  0.8092868E-01
       -2   -1    0    0    0  501  0.00000000000E+00  0.00000000000E+00  0.13442468852E+04  0.13442468852E+04  0.25500000920E-02 0. -1.
        2   -1    0    0  501    0  0.00000000000E+00  0.00000000000E+00 -0.23964255554E+04  0.23964255554E+04  0.25500000920E-02 0.  1.
    10030    2    1    2    0    0  0.00000000000E+00  0.00000000000E+00 -0.10521786702E+04  0.37406724405E+04  0.35896448784E+04 0.  0.
        3    1    3    3  502    0 -0.14713499218E+04 -0.83194512886E+03 -0.11551289764E+04  0.20472728817E+04  0.10100000352E+00 0. -1.
       -3    1    3    3    0  502  0.14713499218E+04  0.83194512886E+03  0.10295030624E+03  0.16933995588E+04  0.10100000352E+00 0.  1.
</event>
<event>
 5   0  0.4811500E-07  0.3603711E+04  0.7818609E-02  0.8089642E-01
        1   -1    0    0  501    0  0.00000000000E+00  0.00000000000E+00  0.23731824143E+04  0.23731824143E+04  0.50400001928E-02 0. -1.
       -1   -1    0    0    0  501  0.00000000000E+00  0.00000000000E+00 -0.13680713702E+04  0.13680713703E+04  0.50400001928E-02 0.  1.
    10030    2    1    2    0    0  0.00000000000E+00  0.00000000000E+00  0.10051110441E+04  0.37412537846E+04  0.36037108194E+04 0.  0.
        2    1    3    3  502    0  0.10437418857E+04  0.92606222648E+03 -0.68099795000E+03  0.15526579080E+04  0.25500000920E-02 0.  1.
       -2    1    3    3    0  502 -0.10437418857E+04 -0.92606222648E+03  0.16861089941E+04  0.21885958766E+04  0.25500000920E-02 0. -1.
</event>
<event>
 5   0  0.1379425E-06  0.3537891E+04  0.7818609E-02  0.8104868E-01
        2   -1    0    0  501    0  0.00000000000E+00  0.00000000000E+00  0.35586207522E+04  0.35586207522E+04  0.25500000920E-02 0.  1.
       -2   -1    0    0    0  501  0.00000000000E+00  0.00000000000E+00 -0.87932062627E+03  0.87932062628E+03  0.25500000920E-02 0. -1.
    10030    2    1    2    0    0  0.00000000000E+00  0.00000000000E+00  0.26793001259E+04  0.44379413785E+04  0.35378912524E+04 0.  0.
        4    1    3    3  502    0 -0.15421385669E+04  0.21152442058E+02  0.25292271111E+03  0.15628852473E+04  0.12699999809E+01 0. -1.
       -4    1    3    3    0  502  0.15421385669E+04 -0.21152442058E+02  0.24263774148E+04  0.28750561312E+04  0.12699999809E+01 0.  1.
</event>
<event>
 5   0  0.1444091E-06  0.3616561E+04  0.7818609E-02  0.8086709E-01
        2   -1    0    0  501    0  0.00000000000E+00  0.00000000000E+00  0.21871664100E+04  0.21871664100E+04  0.25500000920E-02 0. -1.
       -2   -1    0    0    0  501  0.00000000000E+00  0.00000000000E+00 -0.14950293332E+04  0.14950293332E+04  0.25500000920E-02 0.  1.
    10030    2    1    2    0    0  0.00000000000E+00  0.00000000000E+00  0.69213707676E+03  0.36821957432E+04  0.36165607638E+04 0.  0.
        1    1    3    3  502    0 -0.12154128382E+03 -0.17157191274E+04  0.91424056143E+03  0.19478963556E+04  0.50400001928E-02 0. -1.
       -1    1    3    3    0  502  0.12154128382E+03  0.17157191274E+04 -0.22210348467E+03  0.17342993876E+04  0.50400001928E-02 0.  1.
</event>
<event>
 5   0  0.1505671E-06  0.3629134E+04  0.7818609E-02  0.8083851E-01
       -2   -1    0    0    0  501  0.00000000000E+00  0.00000000000E+00  0.13242390442E+04  0.13242390442E+04  0.25500000920E-02 0.  1.
        2   -1    0    0  501    0  0.00000000000E+00  0.00000000000E+00 -0.24864496551E+04  0.24864496551E+04  0.25500000920E-02 0. -1.
    10030    2    1    2    0    0  0.00000000000E+00  0.00000000000E+00 -0.11622106110E+04  0.38106886993E+04  0.36291341748E+04 0.  0.
        3    1    3    3  502    0  0.18407969041E+03 -0.15144826963E+04 -0.16126521981E+04  0.22199527680E+04  0.10100000352E+00 0. -1.
       -3    1    3    3    0  502 -0.18407969041E+03  0.15144826963E+04  0.45044158718E+03  0.15907359314E+04  0.10100000352E+00 0.  1.
</event>
<event>
 5   0  0.1505671E-06  0.3627682E+04  0.7818609E-02  0.8084180E-01
       -2   -1    0    0    0  501  0.00000000000E+00  0.00000000000E+00  0.12968562828E+04  0.12968562828E+04  0.25500000920E-02 0.  1.
        2   -1    0    0  501    0  0.00000000000E+00  0.00000000000E+00 -0.25369182880E+04  0.25369182880E+04  0.25500000920E-02 0. -1.
    10030    2    1    2    0    0  0.00000000000E+00  0.00000000000E+00 -0.12400620052E+04  0.38337745708E+04  0.36276815851E+04 0.  0.
        3    1    3    3  502    0 -0.28620742391E+03  0.17788134504E+04 -0.39853781942E+03  0.18452437196E+04  0.10100000352E+00 0.  1.
       -3    1    3    3    0  502  0.28620742391E+03 -0.17788134504E+04 -0.84152418575E+03  0.19885308512E+04  0.10100000352E+00 0. -1.
</event>
<event>
 5   0  0.1491854E-06  0.3520779E+04  0.7818609E-02  0.8108883E-01
        2   -1    0    0  501    0  0.00000000000E+00  0.00000000000E+00  0.19880280544E+04  0.19880280544E+04  0.25500000920E-02 0.  1.
       -2   -1    0    0    0  501  0.00000000000E+00  0.00000000000E+00 -0.15588169500E+04  0.15588169500E+04  0.25500000920E-02 0. -1.
    10030    2    1    2    0    0  0.00000000000E+00  0.00000000000E+00  0.42921110445E+03  0.35468450044E+04  0.35207793616E+04 0.  0.
        5    1    3    3  502    0 -0.13202873082E+04 -0.89617726648E+03  0.96351864388E+03  0.18640500359E+04  0.46999998093E+01 0.  1.
       -5    1    3    3    0  502  0.13202873082E+04  0.89617726648E+03 -0.53430753944E+03  0.16827949685E+04  0.46999998093E+01 0. -1.
</event>
<event>
 5   0  0.4811500E-07  0.3666428E+04  0.7818609E-02  0.8075443E-01
       -1   -1    0    0    0  501  0.00000000000E+00  0.00000000000E+00  0.17556501989E+04  0.17556501989E+04  0.50400001928E-02 0. -1.
        1   -1    0    0  501    0  0.00000000000E+00  0.00000000000E+00 -0.19142042514E+04  0.19142042514E+04  0.50400001928E-02 0.  1.
    10030    2    1    2    0    0  0.00000000000E+00  0.00000000000E+00 -0.15855405248E+03  0.36698544503E+04  0.36664277299E+04 0.  0.
        3    1    3    3  502    0  0.10393107264E+04 -0.94004701377E+03  0.11036980797E+04  0.17838174333E+04  0.10100000352E+00 0. -1.
       -3    1    3    3    0  502 -0.10393107264E+04  0.94004701377E+03 -0.12622521321E+04  0.18860370170E+04  0.10100000352E+00 0.  1.
</event>
<event>
 5   0  0.4811500E-07  0.2647901E+04  0.7818609E-02  0.8352110E-01
       -3   -1    0    0    0  501  0.00000000000E+00  0.00000000000E+00  0.85578150731E+03  0.85578151327E+03  0.10100000352E+00 0. -1.
        3   -1    0    0  501    0  0.00000000000E+00  0.00000000000E+00 -0.20482392585E+04  0.20482392610E+04  0.10100000352E+00 0.  1.
    10030    2    1    2    0    0  0.00000000000E+00  0.00000000000E+00 -0.11924577512E+04  0.29040207743E+04  0.26479012763E+04 0.  0.
        5    1    3    3  502    0  0.55896167643E+03 -0.95470001793E+03 -0.13938529060E+04  0.17795331673E+04  0.46999998093E+01 0.  1.
       -5    1    3    3    0  502 -0.55896167643E+03  0.95470001793E+03  0.20139515476E+03  0.11244876070E+04  0.46999998093E+01 0. -1.
</event>
<event>
 5   0  0.4811500E-07  0.3471655E+04  0.7818609E-02  0.8120540E-01
       -1   -1    0    0    0  501  0.00000000000E+00  0.00000000000E+00  0.25097870631E+04  0.25097870631E+04  0.50400001928E-02 0.  1.
        1   -1    0    0  501    0  0.00000000000E+00  0.00000000000E+00 -0.12005389614E+04  0.12005389614E+04  0.50400001928E-02 0. -1.
    10030    2    1    2    0    0  0.00000000000E+00  0.00000000000E+00  0.13092481017E+04  0.37103260245E+04  0.34716550256E+04 0.  0.
        2    1    3    3  502    0 -0.33411898218E+03  0.16902018070E+04  0.42871703592E+03  0.17754480954E+04  0.25500000920E-02 0.  1.
       -2    1    3    3    0  502  0.33411898218E+03 -0.16902018070E+04  0.88053106578E+03  0.19348779291E+04  0.25500000920E-02 0. -1.
</event>
<event>
 5   0  0.4811500E-07  0.3686262E+04  0.7818609E-02  0.8071013E-01
       -1   -1    0    0    0  501  0.00000000000E+00  0.00000000000E+00  0.16682343000E+04  0.16682343000E+04  0.50400001928E-02 0. -1.
        1   -1    0    0  501    0  0.00000000000E+00  0.00000000000E+00 -0.20363640725E+04  0.20363640725E+04  0.50400001928E-02 0.  1.
    10030    2    1    2    0    0  0.00000000000E+00  0.00000000000E+00 -0.36812977256E+03  0.37045983725E+04  0.36862622766E+04 0.  0.
        4    1    3    3  502    0  0.11913389730E+04 -0.99547943212E+03 -0.11824160257E+04  0.19515063717E+04  0.12699999809E+01 0.  1.
       -4    1    3    3    0  502 -0.11913389730E+04  0.99547943212E+03  0.81428625310E+03  0.17530920008E+04  0.12699999809E+01 0. -1.
</event>
<event>
 5   0  0.1505671E-06  0.3311952E+04  0.7818609E-02  0.8159861E-01
       -2   -1    0    0    0  501  0.00000000000E+00  0.00000000000E+00  0.12352746707E+04  0.12352746707E+04  0.25500000920E-02 0. -1.
        2   -1    0    0  501    0  0.00000000000E+00  0.00000000000E+00 -0.22199568095E+04  0.22199568095E+04  0.25500000920E-02 0.  1.
    10030    2    1    2    0    0  0.00000000000E+00  0.00000000000E+00 -0.98468213883E+03  0.34552314802E+04  0.33119519421E+04 0.  0.
        3    1    3    3  502    0  0.10567144526E+03 -0.10020187258E+04 -0.18633660852E+04  0.21183345248E+04  0.10100000352E+00 0.  1.
       -3    1    3    3    0  502 -0.10567144526E+03  0.10020187258E+04  0.87868394641E+03  0.13368969553E+04  0.10100000352E+00 0. -1.
</event>
<event>
 5   0  0.1505671E-06  0.3605618E+04  0.7818609E-02  0.8089206E-01
       -2   -1    0    0    0  501  0.00000000000E+00  0.00000000000E+00  0.12287160113E+04  0.12287160113E+04  0.25500000920E-02 0.  1.
        2   -1    0    0  501    0  0.00000000000E+00  0.00000000000E+00 -0.26451351521E+04  0.26451351521E+04  0.25500000920E-02 0. -1.
    10030    2    1    2    0    0  0.00000000000E+00  0.00000000000E+00 -0.14164191408E+04  0.38738511634E+04  0.36056177909E+04 0.  0.
        3    1    3    3  502    0  0.33723828086E+03 -0.17691083185E+04 -0.62062179514E+03  0.19049003448E+04  0.10100000352E+00 0.  1.
       -3    1    3    3    0  502 -0.33723828086E+03  0.17691083185E+04 -0.79579734567E+03  0.19689508187E+04  0.10100000352E+00 0. -1.
</event>
<event>
 5   0  0.1444091E-06  0.3510282E+04  0.7818609E-02  0.8111357E-01
       -2   -1    0    0    0  501  0.00000000000E+00  0.00000000000E+00  0.13561154073E+04  0.13561154073E+04  0.25500000920E-02 0.  1.
        2   -1    0    0  501    0  0.00000000000E+00  0.00000000000E+00 -0.22715769599E+04  0.22715769599E+04  0.25500000920E-02 0. -1.
    10030    2    1    2    0    0  0.00000000000E+00  0.00000000000E+00 -0.91546155267E+03  0.36276923672E+04  0.35102823329E+04 0.  0.
        1    1    3    3  502    0  0.16187353112E+04  0.37356836645E+03  0.12748085833E+03  0.16661658685E+04  0.50400001928E-02 0.  1.
       -1    1    3    3    0  502 -0.16187353112E+04 -0.37356836645E+03 -0.10429424110E+04  0.19615264986E+04  0.50400001928E-02 0. -1.
</event>
<event>
 5   0  0.5071661E-07  0.3291214E+04  0.7818609E-02  0.8165134E-01
       -1   -1    0    0    0  501  0.00000000000E+00  0.00000000000E+00  0.97278986906E+03  0.97278986907E+03  0.50400001928E-02 0. -1.
        1   -1    0    0  501    0  0.00000000000E+00  0.00000000000E+00 -0.27837698943E+04  0.27837698943E+04  0.50400001928E-02 0.  1.
    10030    2    1    2    0    0  0.00000000000E+00  0.00000000000E+00 -0.18109800253E+04  0.37565597634E+04  0.32912144573E+04 0.  0.
        1    1    3    3  502    0 -0.34903082792E+03  0.58358442793E+03  0.80493172140E+03  0.10537117156E+04  0.50400001928E-02 0. -1.
       -1    1    3    3    0  502  0.34903082792E+03 -0.58358442793E+03 -0.26159117467E+04  0.27028480478E+04  0.50400001928E-02 0.  1.
</event>
<event>
 5   0  0.1468942E-06  0.3667851E+04  0.7818609E-02  0.8075124E-01
       -2   -1    0    0    0  501  0.00000000000E+00  0.00000000000E+00  0.13287774004E+04  0.13287774004E+04  0.25500000920E-02 0. -1.
        2   -1    0    0  501    0  0.00000000000E+00  0.00000000000E+00 -0.25311104373E+04  0.25311104373E+04  0.25500000920E-02 0.  1.
    10030    2    1    2    0    0  0.00000000000E+00  0.00000000000E+00 -0.12023330370E+04  0.38598878377E+04  0.36678507859E+04 0.  0.
        2    1    3    3  502    0 -0.16671341232E+04  0.18124416895E+03 -0.13823929634E+04  0.21732914988E+04  0.25500000920E-02 0.  1.
       -2    1    3    3    0  502  0.16671341232E+04 -0.18124416895E+03  0.18005992641E+03  0.16865963389E+04  0.25500000920E-02 0. -1.
</event>
<event>
 5   0  0.1505671E-06  0.3615356E+04  0.7818609E-02  0.8086983E-01
        2   -1    0    0  501    0  0.00000000000E+00  0.00000000000E+00  0.19785861385E+04  0.19785861385E+04  0.25500000920E-02 0. -1.
       -2   -1    0    0    0  501  0.00000000000E+00  0.00000000000E+00 -0.16515323678E+04  0.16515323678E+04  0.25500000920E-02 0.  1.
    10030    2    1    2    0    0  0.00000000000E+00  0.00000000000E+00  0.32705377063E+03  0.36301185063E+04  0.36153556120E+04 0.  0.
        3    1    3    3  502    0  0.17975287358E+04 -0.10499733181E+03  0.32407050759E+03  0.18295233531E+04  0.10100000352E+00 0. -1.
       -3    1    3    3    0  502 -0.17975287358E+04  0.10499733181E+03  0.29832630402E+01  0.18005951532E+04  0.10100000352E+00 0.  1.
</event>
<event>
 5   0  0.5071661E-07  0.2505318E+04  0.7818609E-02  0.8401094E-01
        1   -1    0    0  501    0  0.00000000000E+00  0.00000000000E+00  0.33447788674E+04  0.33447788674E+04  0.50400001928E-02 0. -1.
       -1   -1    0    0    0  501  0.00000000000E+00  0.00000000000E+00 -0.46913541748E+03  0.46913541750E+03  0.50400001928E-02 0.  1.
    10030    2    1    2    0    0  0.00000000000E+00  0.00000000000E+00  0.28756434499E+04  0.38139142849E+04  0.25053177286E+04 0.  0.
        1    1    3    3  502    0  0.33112633449E+03  0.53043842110E+03 -0.21454875160E+03  0.66109056476E+03  0.50400001928E-02 0.  1.
       -1    1    3    3    0  502 -0.33112633449E+03 -0.53043842110E+03  0.30901922015E+04  0.31528237201E+04  0.50400001928E-02 0. -1.
</event>
<event>
 5   0  0.1379425E-06  0.3486327E+04  0.7818609E-02  0.8117038E-01
        2   -1    0    0  501    0  0.00000000000E+00  0.00000000000E+00  0.16003114405E+04  0.16003114405E+04  0.25500000920E-02 0.  1.
       -2   -1    0    0    0  501  0.00000000000E+00  0.00000000000E+00 -0.18987672258E+04  0.18987672258E+04  0.25500000920E-02 0. -1.
    10030    2    1    2    0    0  0.00000000000E+00  0.00000000000E+00 -0.29845578533E+03  0.34990786663E+04  0.34863269579E+04 0.  0.
        4    1    3    3  502    0 -0.62605461677E+03 -0.15950443586E+04  0.17210938442E+03  0.17221306983E+04  0.12699999809E+01 0.  1.
       -4    1    3    3    0  502  0.62605461677E+03  0.15950443586E+04 -0.47056516975E+03  0.17769479680E+04  0.12699999809E+01 0. -1.
</event>
<event>
 5   0  0.4811500E-07  0.3497060E+04  0.7818609E-02  0.8114487E-01
       -1   -1    0    0    0  501  0.00000000000E+00  0.00000000000E+00  0.11520975792E+04  0.11520975792E+04  0.50400001928E-02 0. -1.
        1   -1    0    0  501    0  0.00000000000E+00  0.00000000000E+00 -0.26537318375E+04  0.26537318375E+04  0.50400001928E-02 0.  1.
    10030    2    1    2    0    0  0.00000000000E+00  0.00000000000E+00 -0.15016342583E+04  0.38058294167E+04  0.34970604947E+04 0.  0.
        5    1    3    3  502    0  0.11314170086E+04  0.13330291645E+04 -0.76852441045E+03  0.19099013221E+04  0.46999998093E+01 0.  1.
       -5    1    3    3    0  502 -0.11314170086E+04 -0.13330291645E+04 -0.73310984781E+03  0.18959280946E+04  0.46999998093E+01 0. -1.
</event>
<event>
 5   0  0.1491854E-06  0.3695431E+04  0.7818609E-02  0.8068975E-01
        2   -1    0    0  501    0  0.00000000000E+00  0.00000000000E+00  0.18240231037E+04  0.18240231037E+04  0.25500000920E-02 0.  1.
       -2   -1    0    0    0  501  0.00000000000E+00  0.00000000000E+00 -0.18717155544E+04  0.18717155544E+04  0.25500000920E-02 0. -1.
    10030    2    1    2    0    0  0.00000000000E+00  0.00000000000E+00 -0.47692450672E+02  0.36957386582E+04  0.36954309166E+04 0.  0.
        5    1    3    3  502    0  0.71940755903E+03  0.69595030517E+03  0.15293884722E+04  0.18278252794E+04  0.46999998093E+01 0.  1.
       -5    1    3    3    0  502 -0.71940755903E+03 -0.69595030517E+03 -0.15770809229E+04  0.18679133787E+04  0.46999998093E+01 0. -1.
</event>
<event>
 5   0  0.1379425E-06  0.3542868E+04  0.7818609E-02  0.8103705E-01
       -2   -1    0    0    0  501  0.00000000000E+00  0.00000000000E+00  0.17538067795E+04  0.17538067795E+04  0.25500000920E-02 0.  1.
        2   -1    0    0  501    0  0.00000000000E+00  0.00000000000E+00 -0.17892387314E+04  0.17892387314E+04  0.25500000920E-02 0. -1.
    10030    2    1    2    0    0  0.00000000000E+00  0.00000000000E+00 -0.35431951926E+02  0.35430455109E+04  0.35428683392E+04 0.  0.
        4    1    3    3  502    0  0.60345953286E+03  0.14034562785E+04  0.87905874390E+03  0.17625546294E+04  0.12699999809E+01 0. -1.
       -4    1    3    3    0  502 -0.60345953286E+03 -0.14034562785E+04 -0.91449069583E+03  0.17804908815E+04  0.12699999809E+01 0.  1.
</event>
<event>
 5   0  0.1505671E-06  0.3675738E+04  0.7818609E-02  0.8073360E-01
       -2   -1    0    0    0  501  0.00000000000E+00  0.00000000000E+00  0.10012237507E+04  0.10012237507E+04  0.25500000920E-02 0.  1.
        2   -1    0    0  501    0  0.00000000000E+00  0.00000000000E+00 -0.33736335261E+04  0.33736335261E+04  0.25500000920E-02 0. -1.
    10030    2    1    2    0    0  0.00000000000E+00  0.00000000000E+00 -0.23724097753E+04  0.43748572768E+04  0.36757377559E+04 0.  0.
        3    1    3    3  502    0  0.80825532863E+03 -0.24111023859E+03 -0.31296757979E+04  0.32413394505E+04  0.10100000352E+00 0. -1.
       -3    1    3    3    0  502 -0.80825532863E+03  0.24111023859E+03  0.75726602252E+03  0.11335178263E+04  0.10100000352E+00 0.  1.
</event>
<event>
 5   0  0.1505671E-06  0.3639560E+04  0.7818609E-02  0.8081490E-01
        2   -1    0    0  501    0  0.00000000000E+00  0.00000000000E+00  0.11477973506E+04  0.11477973506E+04  0.25500000920E-02 0.  1.
       -2   -1    0    0    0  501  0.00000000000E+00  0.00000000000E+00 -0.28851781522E+04  0.28851781522E+04  0.25500000920E-02 0. -1.
    10030    2    1    2    0    0  0.00000000000E+00  0.00000000000E+00 -0.17373808015E+04  0.40329755028E+04  0.36395603247E+04 0.  0.
        3    1    3    3  502    0  0.10075751056E+04 -0.20614196359E+03  0.79488988326E+03  0.12998276960E+04  0.10100000352E+00 0.  1.
       -3    1    3    3    0  502 -0.10075751056E+04  0.20614196359E+03 -0.25322706848E+04  0.27331478068E+04  0.10100000352E+00 0. -1.
</event>
<event>
 5   0  0.1379425E-06  0.3539215E+04  0.7818609E-02  0.8104559E-01
       -2   -1    0    0    0  501  0.00000000000E+00  0.00000000000E+00  0.19307441466E+04  0.19307441466E+04  0.25500000920E-02 0. -1.
        2   -1    0    0  501    0  0.00000000000E+00  0.00000000000E+00 -0.16219189708E+04  0.16219189708E+04  0.25500000920E-02 0.  1.
    10030    2    1    2    0    0  0.00000000000E+00  0.00000000000E+00  0.30882517577E+03  0.35526631174E+04  0.35392149181E+04 0.  0.
        4    1    3    3  502    0  0.17196495191E+04  0.41602308994E+03  0.11907561023E+03  0.17732597931E+04  0.12699999809E+01 0.  1.
       -4    1    3    3    0  502 -0.17196495191E+04 -0.41602308994E+03  0.18974956555E+03  0.17794033243E+04  0.12699999809E+01 0. -1.
</event>
<event>
 5   0  0.1505671E-06  0.3590238E+04  0.7818609E-02  0.8092731E-01
        2   -1    0    0  501    0  0.00000000000E+00  0.00000000000E+00  0.23960367895E+04  0.23960367895E+04  0.25500000920E-02 0. -1.
       -2   -1    0    0    0  501  0.00000000000E+00  0.00000000000E+00 -0.13449092357E+04  0.13449092357E+04  0.25500000920E-02 0.  1.
    10030    2    1    2    0    0  0.00000000000E+00  0.00000000000E+00  0.10511275538E+04  0.37409460252E+04  0.35902378792E+04 0.  0.
        3    1    3    3  502    0  0.12397548082E+04  0.76628987560E+03 -0.56640637858E+03  0.15636522484E+04  0.10100000352E+00 0.  1.
       -3    1    3    3    0  502 -0.12397548082E+04 -0.76628987560E+03  0.16175339324E+04  0.21772937768E+04  0.10100000352E+00 0. -1.
</event>
<event>
 5   0  0.4811500E-07  0.3603029E+04  0.7818609E-02  0.8089798E-01
       -3   -1    0    0    0  501  0.00000000000E+00  0.00000000000E+00  0.13585145939E+04  0.13585145977E+04  0.10100000352E+00 0. -1.
        3   -1    0    0  501    0  0.00000000000E+00  0.00000000000E+00 -0.23889722700E+04  0.23889722721E+04  0.10100000352E+00 0.  1.
    10030    2    1    2    0    0  0.00000000000E+00  0.00000000000E+00 -0.10304576761E+04  0.37474868698E+04  0.36030285618E+04 0.  0.
        5    1    3    3  502    0  0.13984463037E+04  0.83569808797E+03  0.28462155560E+03  0.16538061792E+04  0.46999998093E+01 0. -1.
       -5    1    3    3    0  502 -0.13984463037E+04 -0.83569808797E+03 -0.13150792317E+04  0.20936806906E+04  0.46999998093E+01 0.  1.
</event>
<event>
 5   0  0.4811500E-07  0.3678608E+04  0.7818609E-02  0.8072719E-01
       -1   -1    0    0    0  501  0.00000000000E+00  0.00000000000E+00  0.14512053651E+04  0.14512053651E+04  0.50400001928E-02 0.  1.
        1   -1    0    0  501    0  0.00000000000E+00  0.00000000000E+00 -0.23311924436E+04  0.23311924436E+04  0.50400001928E-02 0. -1.
    10030    2    1    2    0    0  0.00000000000E+00  0.00000000000E+00 -0.87998707848E+03  0.37823978087E+04  0.36786078787E+04 0.  0.
        5    1    3    3  502    0  0.13949757376E+04  0.11930023317E+04 -0.31918372510E+03  0.18630921105E+04  0.46999998093E+01 0. -1.
       -5    1    3    3    0  502 -0.13949757376E+04 -0.11930023317E+04 -0.56080335339E+03  0.19193056982E+04  0.46999998093E+01 0.  1.
</event>
<event>
 5   0  0.1444091E-06  0.2580880E+04  0.7818609E-02  0.8374725E-01
        2   -1    0    0  501    0  0.00000000000E+00  0.00000000000E+00  0.25261574290E+04  0.25261574290E+04  0.25500000920E-02 0. -1.
       -2   -1    0    0    0  501  0.00000000000E+00  0.00000000000E+00 -0.65919678507E+03  0.65919678507E+03  0.25500000920E-02 0.  1.
    10030    2    1    2    0    0  0.00000000000E+00  0.00000000000E+00  0.18669606439E+04  0.31853542141E+04  0.25808795832E+04 0.  0.
        1    1    3    3  502    0  0.11384493282E+04 -0.57275145503E+03  0.68319443294E+03  0.14459826193E+04  0.50400001928E-02 0.  1.
       -1    1    3    3    0  502 -0.11384493282E+04  0.57275145503E+03  0.11837662110E+04  0.17393715947E+04  0.50400001928E-02 0. -1.
</event>
<event>
 5   0  0.5071661E-07  0.3621834E+04  0.7818609E-02  0.8085509E-01
        1   -1    0    0  501    0  0.00000000000E+00  0.00000000000E+00  0.15095126430E+04  0.15095126430E+04  0.50400001928E-02 0. -1.
       -1   -1    0    0    0  501  0.00000000000E+00  0.00000000000E+00 -0.21725031441E+04  0.21725031441E+04  0.50400001928E-02 0.  1.
    10030    2    1    2    0    0  0.00000000000E+00  0.00000000000E+00 -0.66299050109E+03  0.36820157870E+04  0.36218343214E+04 0.  0.
        1    1    3    3  502    0  0.81050648209E+03  0.14899137754E+04  0.31360137852E+03  0.17248506139E+04  0.50400001928E-02 0. -1.
       -1    1    3    3    0  502 -0.81050648209E+03 -0.14899137754E+04 -0.97659187961E+03  0.19571651731E+04  0.50400001928E-02 0.  1.
</event>
<event>
 5   0  0.1379425E-06  0.3626290E+04  0.7818609E-02  0.8084496E-01
       -2   -1    0    0    0  501  0.00000000000E+00  0.00000000000E+00  0.15865085564E+04  0.15865085564E+04  0.25500000920E-02 0. -1.
        2   -1    0    0  501    0  0.00000000000E+00  0.00000000000E+00 -0.20721564912E+04  0.20721564912E+04  0.25500000920E-02 0.  1.
    10030    2    1    2    0    0  0.00000000000E+00  0.00000000000E+00 -0.48564793485E+03  0.36586650476E+04  0.36262895656E+04 0.  0.
        4    1    3    3  502    0 -0.11208083922E+04 -0.30035250089E+03 -0.16484852832E+04  0.20159187530E+04  0.12699999809E+01 0.  1.
       -4    1    3    3    0  502  0.11208083922E+04  0.30035250089E+03  0.11628373483E+04  0.16427462946E+04  0.12699999809E+01 0. -1.
</event>
<event>
 5   0  0.1379425E-06  0.3499693E+04  0.7818609E-02  0.8113863E-01
       -2   -1    0    0    0  501  0.00000000000E+00  0.00000000000E+00  0.14394948898E+04  0.14394948898E+04  0.25500000920E-02 0. -1.
        2   -1    0    0  501    0  0.00000000000E+00  0.00000000000E+00 -0.21271088664E+04  0.21271088664E+04  0.25500000920E-02 0.  1.
    10030    2    1    2    0    0  0.00000000000E+00  0.00000000000E+00 -0.68761397662E+03  0.35666037562E+04  0.34996927541E+04 0.  0.
        4    1    3    3  502    0  0.16517048632E+04 -0.56493982074E+03 -0.46726254878E+03  0.18071031677E+04  0.12699999809E+01 0. -1.
       -4    1    3    3    0  502 -0.16517048632E+04  0.56493982074E+03 -0.22035142784E+03  0.17595005885E+04  0.12699999809E+01 0.  1.
</event>
<event>
 5   0  0.4811500E-07  0.2942607E+04  0.7818609E-02  0.8260312E-01
        1   -1    0    0  501    0  0.00000000000E+00  0.00000000000E+00  0.20798530391E+04  0.20798530391E+04  0.50400001928E-02 0.  1.
       -1   -1    0    0    0  501  0.00000000000E+00  0.00000000000E+00 -0.10408110510E+04  0.10408110510E+04  0.50400001928E-02 0. -1.
    10030    2    1    2    0    0  0.00000000000E+00  0.00000000000E+00  0.10390419881E+04  0.31206640901E+04  0.29426070261E+04 0.  0.
        5    1    3    3  502    0  0.19532231809E+03 -0.12224402105E+04 -0.32370185489E+03  0.12795764366E+04  0.46999998093E+01 0. -1.
       -5    1    3    3    0  502 -0.19532231809E+03  0.12224402105E+04  0.13627438429E+04  0.18410876535E+04  0.46999998093E+01 0.  1.
</event>
<event>
 5   0  0.1379425E-06  0.3679172E+04  0.7818609E-02  0.8072593E-01
        2   -1    0    0  501    0  0.00000000000E+00  0.00000000000E+00  0.13081663676E+04  0.13081663677E+04  0.25500000920E-02 0. -1.
       -2   -1    0    0    0  501  0.00000000000E+00  0.00000000000E+00 -0.25868851698E+04  0.25868851698E+04  0.25500000920E-02 0.  1.
    10030    2    1    2    0    0  0.00000000000E+00  0.00000000000E+00 -0.12787188021E+04  0.38950515374E+04  0.36791717416E+04 0.  0.
        4    1    3    3  502    0 -0.15213210140E+04 -0.13344883943E+03 -0.17251340841E+04  0.23039781773E+04  0.12699999809E+01 0.  1.
       -4    1    3    3    0  502  0.15213210140E+04  0.13344883943E+03  0.44641528200E+03  0.15910733601E+04  0.12699999809E+01 0. -1.
</event>
<event>
 5   0  0.1444091E-06  0.3268401E+04  0.7818609E-02  0.8170983E-01
        2   -1    0    0  501    0  0.00000000000E+00  0.00000000000E+00  0.10760698627E+04  0.10760698628E+04  0.25500000920E-02 0.  1.
       -2   -1    0    0    0  501  0.00000000000E+00  0.00000000000E+00 -0.24818188870E+04  0.24818188870E+04  0.25500000920E-02 0. -1.
    10030    2    1    2    0    0  0.00000000000E+00  0.00000000000E+00 -0.14057490243E+04  0.35578887498E+04  0.32684005318E+04 0.  0.
        1    1    3    3  502    0  0.44289508579E+03 -0.23619496227E+03 -0.23958281957E+04  0.24478433080E+04  0.50400001928E-02 0. -1.
       -1    1    3    3    0  502 -0.44289508579E+03  0.23619496227E+03  0.99007917139E+03  0.11100454418E+04  0.50400001928E-02 0.  1.
</event>
<event>
 5   0  0.4811500E-07  0.3673755E+04  0.7818609E-02  0.8073803E-01
        1   -1    0    0  501    0  0.00000000000E+00  0.00000000000E+00  0.23319425989E+04  0.23319425990E+04  0.50400001928E-02 0. -1.
       -1   -1    0    0    0  501  0.00000000000E+00  0.00000000000E+00 -0.14469133825E+04  0.14469133825E+04  0.50400001928E-02 0.  1.
    10030    2    1    2    0    0  0.00000000000E+00  0.00000000000E+00  0.88502921648E+03  0.37788559814E+04  0.36737550019E+04 0.  0.
        4    1    3    3  502    0 -0.12656346556E+04  0.13311898125E+04  0.45776933207E+03  0.18930007324E+04  0.12699999809E+01 0.  1.
       -4    1    3    3    0  502  0.12656346556E+04 -0.13311898125E+04  0.42725988442E+03  0.18858552490E+04  0.12699999809E+01 0. -1.
</event>
<event>
 5   0  0.4811500E-07  0.3589727E+04  0.7818609E-02  0.8092849E-01
        3   -1    0    0  501    0  0.00000000000E+00  0.00000000000E+00  0.18208348283E+04  0.18208348311E+04  0.10100000352E+00 0. -1.
       -3   -1    0    0    0  501  0.00000000000E+00  0.00000000000E+00 -0.17692622779E+04  0.17692622808E+04  0.10100000352E+00 0.  1.
    10030    2    1    2    0    0  0.00000000000E+00  0.00000000000E+00  0.51572550391E+02  0.35900971119E+04  0.35897266671E+04 0.  0.
        4    1    3    3  502    0 -0.14465094814E+04  0.75599746085E+02 -0.10342418612E+04  0.17798210140E+04  0.12699999809E+01 0.  1.
       -4    1    3    3    0  502  0.14465094814E+04 -0.75599746085E+02  0.10858144116E+04  0.18102760979E+04  0.12699999809E+01 0. -1.
</event>
<event>
 5   0  0.4811500E-07  0.3650476E+04  0.7818609E-02  0.8079026E-01
        1   -1    0    0  501    0  0.00000000000E+00  0.00000000000E+00  0.15432831624E+04  0.15432831624E+04  0.50400001928E-02 0. -1.
       -1   -1    0    0    0  501  0.00000000000E+00  0.00000000000E+00 -0.21587059589E+04  0.21587059589E+04  0.50400001928E-02 0.  1.
    10030    2    1    2    0    0  0.00000000000E+00  0.00000000000E+00 -0.61542279644E+03  0.37019891213E+04  0.36504764395E+04 0.  0.
        3    1    3    3  502    0  0.88589938744E+03  0.60450973953E+03 -0.18054561027E+04  0.20999813092E+04  0.10100000352E+00 0.  1.
       -3    1    3    3    0  502 -0.88589938744E+03 -0.60450973953E+03  0.11900333063E+04  0.16020078121E+04  0.10100000352E+00 0. -1.
</event>
<event>
 5   0  0.1379425E-06  0.3607328E+04  0.7818609E-02  0.8088815E-01
        2   -1    0    0  501    0  0.00000000000E+00  0.00000000000E+00  0.16219377385E+04  0.16219377385E+04  0.25500000920E-02 0.  1.
       -2   -1    0    0    0  501  0.00000000000E+00  0.00000000000E+00 -0.20057518097E+04  0.20057518097E+04  0.25500000920E-02 0. -1.
    10030    2    1    2    0    0  0.00000000000E+00  0.00000000000E+00 -0.38381407118E+03  0.36276895482E+04  0.36073284043E+04 0.  0.
        4    1    3    3  502    0 -0.41067271393E+03  0.46693036892E+03 -0.18945455090E+04  0.19939860446E+04  0.12699999809E+01 0. -1.
       -4    1    3    3    0  502  0.41067271393E+03 -0.46693036892E+03  0.15107314378E+04  0.16337035036E+04  0.12699999809E+01 0.  1.
</event>
<event>
 5   0  0.1444091E-06  0.3604446E+04  0.7818609E-02  0.8089474E-01
        2   -1    0    0  501    0  0.00000000000E+00  0.00000000000E+00  0.23360178409E+04  0.23360178409E+04  0.25500000920E-02 0. -1.
       -2   -1    0    0    0  501  0.00000000000E+00  0.00000000000E+00 -0.13904034458E+04  0.13904034458E+04  0.25500000920E-02 0.  1.
    10030    2    1    2    0    0  0.00000000000E+00  0.00000000000E+00  0.94561439511E+03  0.37264212868E+04  0.36044457303E+04 0.  0.
        1    1    3    3  502    0  0.11617548425E+04  0.13672440348E+04  0.29682130498E+03  0.18185525705E+04  0.50400001928E-02 0. -1.
       -1    1    3    3    0  502 -0.11617548425E+04 -0.13672440348E+04  0.64879309014E+03  0.19078687163E+04  0.50400001928E-02 0.  1.
</event>
<event>
 5   0  0.1468942E-06  0.3353713E+04  0.7818609E-02  0.8149361E-01
       -2   -1    0    0    0  501  0.00000000000E+00  0.00000000000E+00  0.19188252032E+04  0.19188252032E+04  0.25500000920E-02 0.  1.
        2   -1    0    0  501    0  0.00000000000E+00  0.00000000000E+00 -0.14654003058E+04  0.14654003058E+04  0.25500000920E-02 0. -1.
    10030    2    1    2    0    0  0.00000000000E+00  0.00000000000E+00  0.45342489740E+03  0.33842255091E+04  0.33537125933E+04 0.  0.
        2    1    3    3  502    0 -0.10503043426E+04  0.80391165646E+03 -0.81340985210E+03  0.15527552128E+04  0.25500000920E-02 0. -1.
       -2    1    3    3    0  502  0.10503043426E+04 -0.80391165646E+03  0.12668347495E+04  0.18314702962E+04  0.25500000920E-02 0.  1.
</event>
<event>
 5   0  0.1491854E-06  0.3613601E+04  0.7818609E-02  0.8087383E-01
        2   -1    0    0  501    0  0.00000000000E+00  0.00000000000E+00  0.28315947196E+04  0.28315947196E+04  0.25500000920E-02 0. -1.
       -2   -1    0    0    0  501  0.00000000000E+00  0.00000000000E+00 -0.11528937062E+04  0.11528937062E+04  0.25500000920E-02 0.  1.
    10030    2    1    2    0    0  0.00000000000E+00  0.00000000000E+00  0.16787010134E+04  0.39844884258E+04  0.36136008251E+04 0.  0.
        5    1    3    3  502    0 -0.40205969901E+03 -0.77423481561E+03  0.25839620392E+04  0.27272648315E+04  0.46999998093E+01 0. -1.
       -5    1    3    3    0  502  0.40205969901E+03  0.77423481561E+03 -0.90526102578E+03  0.12572235943E+04  0.46999998093E+01 0.  1.
</event>
<event>
 5   0  0.1468942E-06  0.2892008E+04  0.7818609E-02  0.8275259E-01
       -2   -1    0    0    0  501  0.00000000000E+00  0.00000000000E+00  0.14066025828E+04  0.14066025828E+04  0.25500000920E-02 0. -1.
        2   -1    0    0  501    0  0.00000000000E+00  0.00000000000E+00 -0.14865090262E+04  0.14865090262E+04  0.25500000920E-02 0.  1.
    10030    2    1    2    0    0  0.00000000000E+00  0.00000000000E+00 -0.79906443389E+02  0.28931116091E+04  0.28920079085E+04 0.  0.
        2    1    3    3  502    0 -0.84268753407E+03 -0.27425864366E+03 -0.11830123042E+04  0.14781265831E+04  0.25500000920E-02 0.  1.
       -2    1    3    3    0  502  0.84268753407E+03  0.27425864366E+03  0.11031058608E+04  0.14149850260E+04  0.25500000920E-02 0. -1.
</event>
<event>
 5   0  0.4811500E-07  0.2388498E+04  0.7818609E-02  0.8443822E-01
       -1   -1    0    0    0  501  0.00000000000E+00  0.00000000000E+00  0.96753900821E+03  0.96753900822E+03  0.50400001928E-02 0.  1.
        1   -1    0    0  501    0  0.00000000000E+00  0.00000000000E+00 -0.14740811436E+04  0.14740811436E+04  0.50400001928E-02 0. -1.
    10030    2    1    2    0    0  0.00000000000E+00  0.00000000000E+00 -0.50654213539E+03  0.24416201518E+04  0.23884982794E+04 0.  0.
        3    1    3    3  502    0 -0.98337781342E+03 -0.51991222674E+03  0.19101025248E+03  0.11286388148E+04  0.10100000352E+00 0.  1.
       -3    1    3    3    0  502  0.98337781342E+03  0.51991222674E+03 -0.69755238787E+03  0.13129813371E+04  0.10100000352E+00 0. -1.
</event>
<event>
 5   0  0.1444091E-06  0.3614034E+04  0.7818609E-02  0.8087285E-01
       -2   -1    0    0    0  501  0.00000000000E+00  0.00000000000E+00  0.14371648183E+04  0.14371648183E+04  0.25500000920E-02 0.  1.
        2   -1    0    0  501    0  0.00000000000E+00  0.00000000000E+00 -0.22720500635E+04  0.22720500635E+04  0.25500000920E-02 0. -1.
    10030    2    1    2    0    0  0.00000000000E+00  0.00000000000E+00 -0.83488524524E+03  0.37092148818E+04  0.36140339880E+04 0.  0.
        1    1    3    3  502    0  0.61612138670E+02 -0.15907366215E+04 -0.12949881294E+04  0.20521289701E+04  0.50400001928E-02 0. -1.
       -1    1    3    3    0  502 -0.61612138670E+02  0.15907366215E+04  0.46010288413E+03  0.16570859117E+04  0.50400001928E-02 0.  1.
</event>
<event>
 5   0  0.4811500E-07  0.3639367E+04  0.7818609E-02  0.8081533E-01
       -1   -1    0    0    0  501  0.00000000000E+00  0.00000000000E+00  0.14122350850E+04  0.14122350850E+04  0.50400001928E-02 0. -1.
        1   -1    0    0  501    0  0.00000000000E+00  0.00000000000E+00 -0.23446864433E+04  0.23446864433E+04  0.50400001928E-02 0.  1.
    10030    2    1    2    0    0  0.00000000000E+00  0.00000000000E+00 -0.93245135828E+03  0.37569215283E+04  0.36393672299E+04 0.  0.
        2    1    3    3  502    0 -0.28284714210E+03 -0.14437583200E+04 -0.15717074240E+04  0.21528364589E+04  0.25500000920E-02 0.  1.
       -2    1    3    3    0  502  0.28284714210E+03  0.14437583200E+04  0.63925606572E+03  0.16040850694E+04  0.25500000920E-02 0. -1.
</event>
<event>
 5   0  0.4811500E-07  0.3207038E+04  0.7818609E-02  0.8186961E-01
        1   -1    0    0  501    0  0.00000000000E+00  0.00000000000E+00  0.17987827228E+04  0.17987827228E+04  0.50400001928E-02 0.  1.
       -1   -1    0    0    0  501  0.00000000000E+00  0.00000000000E+00 -0.14294517956E+04  0.14294517956E+04  0.50400001928E-02 0. -1.
    10030    2    1    2    0    0  0.00000000000E+00  0.00000000000E+00  0.36933092715E+03  0.32282345184E+04  0.32070380061E+04 0.  0.
        4    1    3    3  502    0 -0.14602600247E+04 -0.65128216999E+03  0.30689194899E+03  0.16281007604E+04  0.12699999809E+01 0.  1.
       -4    1    3    3    0  502  0.14602600247E+04  0.65128216999E+03  0.62438978158E+02  0.16001337580E+04  0.12699999809E+01 0. -1.
</event>
<event>
 5   0  0.1505671E-06  0.3144472E+04  0.7818609E-02  0.8203638E-01
        2   -1    0    0  501    0  0.00000000000E+00  0.00000000000E+00  0.16332056344E+04  0.16332056344E+04  0.25500000920E-02 0. -1.
       -2   -1    0    0    0  501  0.00000000000E+00  0.00000000000E+00 -0.15135424592E+04  0.15135424592E+04  0.25500000920E-02 0.  1.
    10030    2    1    2    0    0  0.00000000000E+00  0.00000000000E+00  0.11966317517E+03  0.31467480935E+04  0.31444720207E+04 0.  0.
        3    1    3    3  502    0  0.17873319252E+03 -0.41487516156E+03  0.15668629075E+04  0.16306827818E+04  0.10100000352E+00 0. -1.
       -3    1    3    3    0  502 -0.17873319252E+03  0.41487516156E+03 -0.14471997324E+04  0.15160653117E+04  0.10100000352E+00 0.  1.
</event>
<event>
 5   0  0.1491854E-06  0.3515667E+04  0.7818609E-02  0.8110087E-01
        2   -1    0    0  501    0  0.00000000000E+00  0.00000000000E+00  0.19587993948E+04  0.19587993948E+04  0.25500000920E-02 0.  1.
       -2   -1    0    0    0  501  0.00000000000E+00  0.00000000000E+00 -0.15774857531E+04  0.15774857531E+04  0.25500000920E-02 0. -1.
    10030    2    1    2    0    0  0.00000000000E+00  0.00000000000E+00  0.38131364175E+03  0.35362851479E+04  0.35156667297E+04 0.  0.
        5    1    3    3  502    0 -0.46001341431E+03 -0.14518285644E+02  0.18971124563E+04  0.19521477618E+04  0.46999998093E+01 0.  1.
       -5    1    3    3    0  502  0.46001341431E+03  0.14518285644E+02 -0.15157988146E+04  0.15841373861E+04  0.46999998093E+01 0. -1.
</event>
<event>
 5   0  0.4811500E-07  0.3589600E+04  0.7818609E-02  0.8092878E-01
       -3   -1    0    0    0  501  0.00000000000E+00  0.00000000000E+00  0.28274850196E+04  0.28274850214E+04  0.10100000352E+00 0.  1.
        3   -1    0    0  501    0  0.00000000000E+00  0.00000000000E+00 -0.11392834985E+04  0.11392835029E+04  0.10100000352E+00 0. -1.
    10030    2    1    2    0    0  0.00000000000E+00  0.00000000000E+00  0.16882015212E+04  0.39667685244E+04  0.35895999986E+04 0.  0.
        2    1    3    3  502    0  0.62764294517E+02  0.75303751720E+03  0.26431311475E+04  0.27490265771E+04  0.25500000920E-02 0.  1.
       -2    1    3    3    0  502 -0.62764294517E+02 -0.75303751720E+03 -0.95492962628E+03  0.12177419473E+04  0.25500000920E-02 0. -1.
</event>
<event>
 5   0  0.1491854E-06  0.3597263E+04  0.7818609E-02  0.8091119E-01
        2   -1    0    0  501    0  0.00000000000E+00  0.00000000000E+00  0.21917018788E+04  0.21917018788E+04  0.25500000920E-02 0. -1.
       -2   -1    0    0    0  501  0.00000000000E+00  0.00000000000E+00 -0.14760563573E+04  0.14760563573E+04  0.25500000920E-02 0.  1.
    10030    2    1    2    0    0  0.00000000000E+00  0.00000000000E+00  0.71564552149E+03  0.36677582362E+04  0.35972631217E+04 0.  0.
        5    1    3    3  502    0  0.14610236143E+04 -0.55368953918E+03 -0.55064394461E+03  0.16566209437E+04  0.46999998093E+01 0.  1.
       -5    1    3    3    0  502 -0.14610236143E+04  0.55368953918E+03  0.12662894661E+04  0.20111372925E+04  0.46999998093E+01 0. -1.
</event>
<event>
 5   0  0.1444091E-06  0.2629753E+04  0.7818609E-02  0.8358165E-01
       -2   -1    0    0    0  501  0.00000000000E+00  0.00000000000E+00  0.85711794735E+03  0.85711794736E+03  0.25500000920E-02 0.  1.
        2   -1    0    0  501    0  0.00000000000E+00  0.00000000000E+00 -0.20171086225E+04  0.20171086225E+04  0.25500000920E-02 0. -1.
    10030    2    1    2    0    0  0.00000000000E+00  0.00000000000E+00 -0.11599906751E+04  0.28742265698E+04  0.26297528417E+04 0.  0.
        1    1    3    3  502    0  0.96296052349E+03 -0.87025483615E+03 -0.35004756893E+03  0.13443101391E+04  0.50400001928E-02 0.  1.
       -1    1    3    3    0  502 -0.96296052349E+03  0.87025483615E+03 -0.80994310617E+03  0.15299164307E+04  0.50400001928E-02 0. -1.
</event>
<event>
 5   0  0.4811500E-07  0.3586722E+04  0.7818609E-02  0.8093540E-01
       -1   -1    0    0    0  501  0.00000000000E+00  0.00000000000E+00  0.16964767530E+04  0.16964767530E+04  0.50400001928E-02 0.  1.
        1   -1    0    0  501    0  0.00000000000E+00  0.00000000000E+00 -0.18957782078E+04  0.18957782078E+04  0.50400001928E-02 0. -1.
    10030    2    1    2    0    0  0.00000000000E+00  0.00000000000E+00 -0.19930145484E+03  0.35922549608E+04  0.35867219900E+04 0.  0.
        4    1    3    3  502    0  0.68780278871E+03 -0.15060100594E+04  0.59061712272E+03  0.17578308149E+04  0.12699999809E+01 0.  1.
       -4    1    3    3    0  502 -0.68780278871E+03  0.15060100594E+04 -0.78991857756E+03  0.18344241459E+04  0.12699999809E+01 0. -1.
</event>
<event>
 5   0  0.4811500E-07  0.3508575E+04  0.7818609E-02  0.8111761E-01
        1   -1    0    0  501    0  0.00000000000E+00  0.00000000000E+00  0.27960363489E+04  0.27960363489E+04  0.50400001928E-02 0.  1.
       -1   -1    0    0    0  501  0.00000000000E+00  0.00000000000E+00 -0.11006738468E+04  0.11006738468E+04  0.50400001928E-02 0. -1.
    10030    2    1    2    0    0  0.00000000000E+00  0.00000000000E+00  0.16953625021E+04  0.38967101957E+04  0.35085746873E+04 0.  0.
        5    1    3    3  502    0  0.36461699316E+03  0.16812430635E+04  0.12291581747E+04  0.21143262990E+04  0.46999998093E+01 0.  1.
       -5    1    3    3    0  502 -0.36461699316E+03 -0.16812430635E+04  0.46620432741E+03  0.17823838967E+04  0.46999998093E+01 0. -1.
</event>
<event>
 5   0  0.1491854E-06  0.2318176E+04  0.7818609E-02  0.8470789E-01
        2   -1    0    0  501    0  0.00000000000E+00  0.00000000000E+00  0.13027354283E+04  0.13027354283E+04  0.25500000920E-02 0. -1.
       -2   -1    0    0    0  501  0.00000000000E+00  0.00000000000E+00 -0.10312802454E+04  0.10312802454E+04  0.25500000920E-02 0.  1.
    10030    2    1    2    0    0  0.00000000000E+00  0.00000000000E+00  0.27145518297E+03  0.23340156737E+04  0.23181762764E+04 0.  0.
        5    1    3    3  502    0 -0.34447465808E+03 -0.11044228440E+04  0.64174337074E+02  0.11586859125E+04  0.46999998093E+01 0.  1.
       -5    1    3    3    0  502  0.34447465808E+03  0.11044228440E+04  0.20728084589E+03  0.11753297611E+04  0.46999998093E+01 0. -1.
</event>
<event>
 5   0  0.1468942E-06  0.3575939E+04  0.7818609E-02  0.8096025E-01
       -2   -1    0    0    0  501  0.00000000000E+00  0.00000000000E+00  0.11781403829E+04  0.11781403829E+04  0.25500000920E-02 0.  1.
        2   -1    0    0  501    0  0.00000000000E+00  0.00000000000E+00 -0.27134588594E+04  0.27134588594E+04  0.25500000920E-02 0. -1.
    10030    2    1    2    0    0  0.00000000000E+00  0.00000000000E+00 -0.15353184765E+04  0.38915992423E+04  0.35759392945E+04 0.  0.
        2    1    3    3  502    0  0.11574389767E+04  0.87029880585E+03  0.37360195336E+03  0.14955478647E+04  0.25500000920E-02 0.  1.
       -2    1    3    3    0  502 -0.11574389767E+04 -0.87029880585E+03 -0.19089204299E+04  0.23960513775E+04  0.25500000920E-02 0. -1.
</event>
<event>
 5   0  0.1505671E-06  0.3654218E+04  0.7818609E-02  0.8078184E-01
        2   -1    0    0  501    0  0.00000000000E+00  0.00000000000E+00  0.15417048600E+04  0.15417048600E+04  0.25500000920E-02 0.  1.
       -2   -1    0    0    0  501  0.00000000000E+00  0.00000000000E+00 -0.21653484001E+04  0.21653484001E+04  0.25500000920E-02 0. -1.
    10030    2    1    2    0    0  0.00000000000E+00  0.00000000000E+00 -0.62364354012E+03  0.37070532601E+04  0.36542184675E+04 0.  0.
        3    1    3    3  502    0  0.12755927134E+04  0.38811934730E+02  0.10146327651E+04  0.16303750474E+04  0.10100000352E+00 0.  1.
       -3    1    3    3    0  502 -0.12755927134E+04 -0.38811934730E+02 -0.16382763052E+04  0.20766782128E+04  0.10100000352E+00 0. -1.
</event>
<event>
 5   0  0.5071661E-07  0.3652650E+04  0.7818609E-02  0.8078537E-01
       -1   -1    0    0    0  501  0.00000000000E+00  0.00000000000E+00  0.17197116621E+04  0.17197116622E+04  0.50400001928E-02 0. -1.
        1   -1    0    0  501    0  0.00000000000E+00  0.00000000000E+00 -0.19395476876E+04  0.19395476876E+04  0.50400001928E-02 0.  1.
    10030    2    1    2    0    0  0.00000000000E+00  0.00000000000E+00 -0.21983602542E+03  0.36592593497E+04  0.36526498752E+04 0.  0.
        1    1    3    3  502    0 -0.29977114240E+03 -0.12926841183E+04 -0.13670064466E+04  0.19051513306E+04  0.50400001928E-02 0.  1.
       -1    1    3    3    0  502  0.29977114240E+03  0.12926841183E+04  0.11471704211E+04  0.17541080191E+04  0.50400001928E-02 0. -1.
</event>
<event>
 5   0  0.1505671E-06  0.3564771E+04  0.7818609E-02  0.8098609E-01
       -2   -1    0    0    0  501  0.00000000000E+00  0.00000000000E+00  0.10611124647E+04  0.10611124647E+04  0.25500000920E-02 0. -1.
        2   -1    0    0  501    0  0.00000000000E+00  0.00000000000E+00 -0.29939308572E+04  0.29939308572E+04  0.25500000920E-02 0.  1.
    10030    2    1    2    0    0  0.00000000000E+00  0.00000000000E+00 -0.19328183925E+04  0.40550433220E+04  0.35647705963E+04 0.  0.
        3    1    3    3  502    0  0.17756683622E+04 -0.44115530233E+02 -0.79786603616E+03  0.19471863122E+04  0.10100000352E+00 0.  1.
       -3    1    3    3    0  502 -0.17756683622E+04  0.44115530233E+02 -0.11349523563E+04  0.21078570098E+04  0.10100000352E+00 0. -1.
</event>
<event>
 5   0  0.1491854E-06  0.3502503E+04  0.7818609E-02  0.8113197E-01
        2   -1    0    0  501    0  0.00000000000E+00  0.00000000000E+00  0.13045415572E+04  0.13045415572E+04  0.25500000920E-02 0.  1.
       -2   -1    0    0    0  501  0.00000000000E+00  0.00000000000E+00 -0.23509273619E+04  0.23509273619E+04  0.25500000920E-02 0. -1.
    10030    2    1    2    0    0  0.00000000000E+00  0.00000000000E+00 -0.10463858047E+04  0.36554689191E+04  0.35025033571E+04 0.  0.
        5    1    3    3  502    0 -0.40626474482E+03 -0.11914046976E+04 -0.17938898533E+04  0.21914741824E+04  0.46999998093E+01 0. -1.
       -5    1    3    3    0  502  0.40626474482E+03  0.11914046976E+04  0.74750404861E+03  0.14639947367E+04  0.46999998093E+01 0.  1.
</event>
<event>
 5   0  0.5071661E-07  0.3671641E+04  0.7818609E-02  0.8074276E-01
        1   -1    0    0  501    0  0.00000000000E+00  0.00000000000E+00  0.19796415862E+04  0.19796415862E+04  0.50400001928E-02 0.  1.
       -1   -1    0    0    0  501  0.00000000000E+00  0.00000000000E+00 -0.17024478104E+04  0.17024478104E+04  0.50400001928E-02 0. -1.
    10030    2    1    2    0    0  0.00000000000E+00  0.00000000000E+00  0.27719377577E+03  0.36820893966E+04  0.36716407689E+04 0.  0.
        1    1    3    3  502    0  0.78691422354E+03 -0.15707213239E+04  0.67287656821E+03  0.18812661557E+04  0.50400001928E-02 0. -1.
       -1    1    3    3    0  502 -0.78691422354E+03  0.15707213239E+04 -0.39568279244E+03  0.18008232409E+04  0.50400001928E-02 0.  1.
</event>
<event>
 5   0  0.4811500E-07  0.3580517E+04  0.7818609E-02  0.8094969E-01
        1   -1    0    0  501    0  0.00000000000E+00  0.00000000000E+00  0.16801010781E+04  0.16801010781E+04  0.50400001928E-02 0. -1.
       -1   -1    0    0    0  501  0.00000000000E+00  0.00000000000E+00 -0.19076381539E+04  0.19076381539E+04  0.50400001928E-02 0.  1.
    10030    2    1    2    0    0  0.00000000000E+00  0.00000000000E+00 -0.22753707575E+03  0.35877392320E+04  0.35805166772E+04 0.  0.
        2    1    3    3  502    0  0.89669178152E+03 -0.99189062087E+03 -0.13065990859E+04  0.18695198116E+04  0.25500000920E-02 0.  1.
       -2    1    3    3    0  502 -0.89669178152E+03  0.99189062087E+03  0.10790620101E+04  0.17182194204E+04  0.25500000920E-02 0. -1.
</event>
<event>
 5   0  0.1379425E-06  0.3655888E+04  0.7818609E-02  0.8077809E-01
        2   -1    0    0  501    0  0.00000000000E+00  0.00000000000E+00  0.11335123187E+04  0.11335123187E+04  0.25500000920E-02 0. -1.
       -2   -1    0    0    0  501  0.00000000000E+00  0.00000000000E+00 -0.29478099168E+04  0.29478099168E+04  0.25500000920E-02 0.  1.
    10030    2    1    2    0    0  0.00000000000E+00  0.00000000000E+00 -0.18142975981E+04  0.40813222356E+04  0.36558877740E+04 0.  0.
        4    1    3    3  502    0  0.59508143729E+03 -0.13606827385E+04  0.28260895267E+03  0.15117701098E+04  0.12699999809E+01 0. -1.
       -4    1    3    3    0  502 -0.59508143729E+03  0.13606827385E+04 -0.20969065507E+04  0.25695521258E+04  0.12699999809E+01 0.  1.
</event>
<event>
 5   0  0.1379425E-06  0.3722564E+04  0.7818609E-02  0.8062980E-01
       -2   -1    0    0    0  501  0.00000000000E+00  0.00000000000E+00  0.24978374322E+04  0.24978374322E+04  0.25500000920E-02 0. -1.
        2   -1    0    0  501    0  0.00000000000E+00  0.00000000000E+00 -0.13869478202E+04  0.13869478202E+04  0.25500000920E-02 0.  1.
    10030    2    1    2    0    0  0.00000000000E+00  0.00000000000E+00  0.11108896120E+04  0.38847852523E+04  0.37225637304E+04 0.  0.
        4    1    3    3  502    0 -0.80606974903E+03  0.95018810910E+03 -0.88747390481E+03  0.15297769209E+04  0.12699999809E+01 0.  1.
       -4    1    3    3    0  502  0.80606974903E+03 -0.95018810910E+03  0.19983635168E+04  0.23550083315E+04  0.12699999809E+01 0. -1.
</event>
<event>
 5   0  0.1468942E-06  0.3336079E+04  0.7818609E-02  0.8153775E-01
        2   -1    0    0  501    0  0.00000000000E+00  0.00000000000E+00  0.15329659507E+04  0.15329659507E+04  0.25500000920E-02 0.  1.
       -2   -1    0    0    0  501  0.00000000000E+00  0.00000000000E+00 -0.18150142121E+04  0.18150142121E+04  0.25500000920E-02 0. -1.
    10030    2    1    2    0    0  0.00000000000E+00  0.00000000000E+00 -0.28204826144E+03  0.33479801628E+04  0.33360785285E+04 0.  0.
        2    1    3    3  502    0 -0.11311445063E+04 -0.10962500792E+04 -0.69171014771E+03  0.17203822421E+04  0.25500000920E-02 0. -1.
       -2    1    3    3    0  502  0.11311445063E+04  0.10962500792E+04  0.40966188627E+03  0.16275979207E+04  0.25500000920E-02 0.  1.
</event>
<event>
 5   0  0.1444091E-06  0.3185891E+04  0.7818609E-02  0.8192553E-01
       -2   -1    0    0    0  501  0.00000000000E+00  0.00000000000E+00  0.21326898197E+04  0.21326898197E+04  0.25500000920E-02 0.  1.
        2   -1    0    0  501    0  0.00000000000E+00  0.00000000000E+00 -0.11898005051E+04  0.11898005051E+04  0.25500000920E-02 0. -1.
    10030    2    1    2    0    0  0.00000000000E+00  0.00000000000E+00  0.94288931466E+03  0.33224903248E+04  0.31858910369E+04 0.  0.
        1    1    3    3  502    0 -0.15590818747E+04 -0.14375635631E+03  0.77740623310E+03  0.17480739782E+04  0.50400001928E-02 0.  1.
       -1    1    3    3    0  502  0.15590818747E+04  0.14375635631E+03  0.16548308155E+03  0.15744163466E+04  0.50400001928E-02 0. -1.
</event>
<event>
 5   0  0.1379425E-06  0.3539382E+04  0.7818609E-02  0.8104520E-01
       -2   -1    0    0    0  501  0.00000000000E+00  0.00000000000E+00  0.11789700105E+04  0.11789700105E+04  0.25500000920E-02 0.  1.
        2   -1    0    0  501    0  0.00000000000E+00  0.00000000000E+00 -0.26563920907E+04  0.26563920907E+04  0.25500000920E-02 0. -1.
    10030    2    1    2    0    0  0.00000000000E+00  0.00000000000E+00 -0.14774220802E+04  0.38353621012E+04  0.35393822122E+04 0.  0.
        4    1    3    3  502    0 -0.28163196252E+03  0.17470766446E+04 -0.75447522163E+03  0.19237535802E+04  0.12699999809E+01 0. -1.
       -4    1    3    3    0  502  0.28163196252E+03 -0.17470766446E+04 -0.72294685858E+03  0.19116085210E+04  0.12699999809E+01 0.  1.
</event>
<event>
 5   0  0.1505671E-06  0.2312185E+04  0.7818609E-02  0.8473132E-01
        2   -1    0    0  501    0  0.00000000000E+00  0.00000000000E+00  0.10064477711E+04  0.10064477711E+04  0.25500000920E-02 0.  1.
       -2   -1    0    0    0  501  0.00000000000E+00  0.00000000000E+00 -0.13279878740E+04  0.13279878740E+04  0.25500000920E-02 0. -1.
    10030    2    1    2    0    0  0.00000000000E+00  0.00000000000E+00 -0.32154010295E+03  0.23344356451E+04  0.23121854907E+04 0.  0.
        3    1    3    3  502    0  0.29642206227E+03  0.41184637701E+03  0.88800761259E+03  0.10227614617E+04  0.10100000352E+00 0.  1.
       -3    1    3    3    0  502 -0.29642206227E+03 -0.41184637701E+03 -0.12095477155E+04  0.13116741835E+04  0.10100000352E+00 0. -1.
</event>
<event>
 5   0  0.5071661E-07  0.3555665E+04  0.7818609E-02  0.8100723E-01
       -1   -1    0    0    0  501  0.00000000000E+00  0.00000000000E+00  0.16421776112E+04  0.16421776112E+04  0.50400001928E-02 0. -1.
        1   -1    0    0  501    0  0.00000000000E+00  0.00000000000E+00 -0.19246937715E+04  0.19246937715E+04  0.50400001928E-02 0.  1.
    10030    2    1    2    0    0  0.00000000000E+00  0.00000000000E+00 -0.28251616035E+03  0.35668713827E+04  0.35556653498E+04 0.  0.
        1    1    3    3  502    0 -0.65527871463E+03 -0.71611553751E+03 -0.16354076383E+04  0.19017806920E+04  0.50400001928E-02 0.  1.
       -1    1    3    3    0  502  0.65527871463E+03  0.71611553751E+03  0.13528914780E+04  0.16650906907E+04  0.50400001928E-02 0. -1.
</event>
<event>
 5   0  0.5071661E-07  0.3647572E+04  0.7818609E-02  0.8079681E-01
        1   -1    0    0  501    0  0.00000000000E+00  0.00000000000E+00  0.25204881982E+04  0.25204881982E+04  0.50400001928E-02 0.  1.
       -1   -1    0    0    0  501  0.00000000000E+00  0.00000000000E+00 -0.13196628881E+04  0.13196628881E+04  0.50400001928E-02 0. -1.
    10030    2    1    2    0    0  0.00000000000E+00  0.00000000000E+00  0.12008253102E+04  0.38401510863E+04  0.36475716498E+04 0.  0.
        1    1    3    3  502    0 -0.49249946493E+02 -0.12649764152E+03  0.25151621757E+04  0.25188227370E+04  0.50400001928E-02 0.  1.
       -1    1    3    3    0  502  0.49249946493E+02  0.12649764152E+03 -0.13143368655E+04  0.13213283493E+04  0.50400001928E-02 0. -1.
</event>
<event>
 5   0  0.4811500E-07  0.3768815E+04  0.7818609E-02  0.8052880E-01
        1   -1    0    0  501    0  0.00000000000E+00  0.00000000000E+00  0.23706189256E+04  0.23706189256E+04  0.50400001928E-02 0.  1.
       -1   -1    0    0    0  501  0.00000000000E+00  0.00000000000E+00 -0.14979174444E+04  0.14979174444E+04  0.50400001928E-02 0. -1.
    10030    2    1    2    0    0  0.00000000000E+00  0.00000000000E+00  0.87270148113E+03  0.38685363700E+04  0.37688149027E+04 0.  0.
        4    1    3    3  502    0 -0.12420305584E+04  0.98502054067E+03  0.14821738154E+04  0.21701949695E+04  0.12699999809E+01 0.  1.
       -4    1    3    3    0  502  0.12420305584E+04 -0.98502054067E+03 -0.60947233427E+03  0.16983414005E+04  0.12699999809E+01 0. -1.
</event>
<event>
 5   0  0.5071661E-07  0.3609276E+04  0.7818609E-02  0.8088370E-01
        1   -1    0    0  501    0  0.00000000000E+00  0.00000000000E+00  0.17977824420E+04  0.17977824420E+04  0.50400001928E-02 0.  1.
       -1   -1    0    0    0  501  0.00000000000E+00  0.00000000000E+00 -0.18115197976E+04  0.18115197976E+04  0.50400001928E-02 0. -1.
    10030    2    1    2    0    0  0.00000000000E+00  0.00000000000E+00 -0.13737355599E+02  0.36093022396E+04  0.36092760967E+04 0.  0.
        1    1    3    3  502    0 -0.11549516818E+04 -0.17143488719E+03  0.13691555250E+04  0.17994138378E+04  0.50400001928E-02 0.  1.
       -1    1    3    3    0  502  0.11549516818E+04  0.17143488719E+03 -0.13828928806E+04  0.18098884018E+04  0.50400001928E-02 0. -1.
</event>
<event>
 5   0  0.1444091E-06  0.3583379E+04  0.7818609E-02  0.8094309E-01
        2   -1    0    0  501    0  0.00000000000E+00  0.00000000000E+00  0.31977353162E+04  0.31977353162E+04  0.25500000920E-02 0.  1.
       -2   -1    0    0    0  501  0.00000000000E+00  0.00000000000E+00 -0.10038829413E+04  0.10038829413E+04  0.25500000920E-02 0. -1.
    10030    2    1    2    0    0  0.00000000000E+00  0.00000000000E+00  0.21938523749E+04  0.42016182575E+04  0.35833793742E+04 0.  0.
        1    1    3    3  502    0 -0.19895485078E+03  0.59080151764E+03 -0.87261722782E+03  0.10724226276E+04  0.50400001928E-02 0. -1.
       -1    1    3    3    0  502  0.19895485078E+03 -0.59080151764E+03  0.30664696027E+04  0.31291956299E+04  0.50400001928E-02 0.  1.
</event>
<event>
 5   0  0.1379425E-06  0.3761713E+04  0.7818609E-02  0.8054421E-01
       -2   -1    0    0    0  501  0.00000000000E+00  0.00000000000E+00  0.13213287702E+04  0.13213287702E+04  0.25500000920E-02 0.  1.
        2   -1    0    0  501    0  0.00000000000E+00  0.00000000000E+00 -0.26773208065E+04  0.26773208065E+04  0.25500000920E-02 0. -1.
    10030    2    1    2    0    0  0.00000000000E+00  0.00000000000E+00 -0.13559920363E+04  0.39986495766E+04  0.37617129122E+04 0.  0.
        4    1    3    3  502    0  0.15245929729E+04  0.10220671171E+04 -0.24150519229E+03  0.18513052951E+04  0.12699999809E+01 0.  1.
       -4    1    3    3    0  502 -0.15245929729E+04 -0.10220671171E+04 -0.11144868440E+04  0.21473442815E+04  0.12699999809E+01 0. -1.
</event>
<event>
 5   0  0.1468942E-06  0.3688540E+04  0.7818609E-02  0.8070506E-01
       -2   -1    0    0    0  501  0.00000000000E+00  0.00000000000E+00  0.19588058655E+04  0.19588058655E+04  0.25500000920E-02 0. -1.
        2   -1    0    0  501    0  0.00000000000E+00  0.00000000000E+00 -0.17364313357E+04  0.17364313357E+04  0.25500000920E-02 0.  1.
    10030    2    1    2    0    0  0.00000000000E+00  0.00000000000E+00  0.22237452980E+03  0.36952372012E+04  0.36885400285E+04 0.  0.
        2    1    3    3  502    0 -0.13737955122E+04  0.11608858707E+04 -0.29742800176E+03  0.18230286696E+04  0.25500000920E-02 0. -1.
       -2    1    3    3    0  502  0.13737955122E+04 -0.11608858707E+04  0.51980253156E+03  0.18722085316E+04  0.25500000920E-02 0.  1.
</event>
<event>
 5   0  0.4811500E-07  0.3639967E+04  0.7818609E-02  0.8081398E-01
        1   -1    0    0  501    0  0.00000000000E+00  0.00000000000E+00  0.16822499163E+04  0.16822499163E+04  0.50400001928E-02 0.  1.
       -1   -1    0    0    0  501  0.00000000000E+00  0.00000000000E+00 -0.19689940927E+04  0.19689940927E+04  0.50400001928E-02 0. -1.
    10030    2    1    2    0    0  0.00000000000E+00  0.00000000000E+00 -0.28674417641E+03  0.36512440090E+04  0.36399671140E+04 0.  0.
        5    1    3    3  502    0  0.11848417335E+04 -0.20242987934E+02 -0.15289763893E+04  0.19344380582E+04  0.46999998093E+01 0. -1.
       -5    1    3    3    0  502 -0.11848417335E+04  0.20242987934E+02  0.12422322129E+04  0.17168059508E+04  0.46999998093E+01 0.  1.
</event>
<event>
 5   0  0.4811500E-07  0.2671810E+04  0.7818609E-02  0.8344210E-01
        1   -1    0    0  501    0  0.00000000000E+00  0.00000000000E+00  0.13419877755E+04  0.13419877755E+04  0.50400001928E-02 0. -1.
       -1   -1    0    0    0  501  0.00000000000E+00  0.00000000000E+00 -0.13298500160E+04  0.13298500160E+04  0.50400001928E-02 0.  1.
    10030    2    1    2    0    0  0.00000000000E+00  0.00000000000E+00  0.12137759440E+02  0.26718377915E+04  0.26718102213E+04 0.  0.
        3    1    3    3  502    0 -0.11877491397E+04 -0.13784334439E+03  0.60180453609E+03  0.13386252337E+04  0.10100000352E+00 0. -1.
       -3    1    3    3    0  502  0.11877491397E+04  0.13784334439E+03 -0.58966677665E+03  0.13332125578E+04  0.10100000352E+00 0.  1.
</event>
<event>
 5   0  0.1444091E-06  0.3629862E+04  0.7818609E-02  0.8083685E-01
        2   -1    0    0  501    0  0.00000000000E+00  0.00000000000E+00  0.11435095549E+04  0.11435095549E+04  0.25500000920E-02 0.  1.
       -2   -1    0    0    0  501  0.00000000000E+00  0.00000000000E+00 -0.28805839127E+04  0.28805839127E+04  0.25500000920E-02 0. -1.
    10030    2    1    2    0    0  0.00000000000E+00  0.00000000000E+00 -0.17370743578E+04  0.40240934676E+04  0.36298623819E+04 0.  0.
        1    1    3    3  502    0 -0.61060987629E+03 -0.12454951385E+03 -0.27582559408E+04  0.28277787816E+04  0.50400001928E-02 0. -1.
       -1    1    3    3    0  502  0.61060987629E+03  0.12454951385E+03  0.10211815831E+04  0.11963146860E+04  0.50400001928E-02 0.  1.
</event>
<event>
 5   0  0.4811500E-07  0.3619491E+04  0.7818609E-02  0.8086042E-01
       -1   -1    0    0    0  501  0.00000000000E+00  0.00000000000E+00  0.15016188760E+04  0.15016188760E+04  0.50400001928E-02 0. -1.
        1   -1    0    0  501    0  0.00000000000E+00  0.00000000000E+00 -0.21810981377E+04  0.21810981377E+04  0.50400001928E-02 0.  1.
    10030    2    1    2    0    0  0.00000000000E+00  0.00000000000E+00 -0.67947926169E+03  0.36827170137E+04  0.36194906459E+04 0.  0.
        4    1    3    3  502    0  0.14269287414E+04 -0.11021229946E+04 -0.49859440220E+03  0.18706679874E+04  0.12699999809E+01 0.  1.
       -4    1    3    3    0  502 -0.14269287414E+04  0.11021229946E+04 -0.18088485949E+03  0.18120490263E+04  0.12699999809E+01 0. -1.
</event>
<event>
 5   0  0.4811500E-07  0.2413167E+04  0.7818609E-02  0.8434591E-01
        1   -1    0    0  501    0  0.00000000000E+00  0.00000000000E+00  0.16146538010E+04  0.16146538010E+04  0.50400001928E-02 0.  1.
       -1   -1    0    0    0  501  0.00000000000E+00  0.00000000000E+00 -0.90164430075E+03  0.90164430076E+03  0.50400001928E-02 0. -1.
    10030    2    1    2    0    0  0.00000000000E+00  0.00000000000E+00  0.71300950028E+03  0.25162981018E+04  0.24131667140E+04 0.  0.
        3    1    3    3  502    0 -0.73213936522E+03 -0.42852865906E+03 -0.53817238031E+03  0.10046364431E+04  0.10100000352E+00 0. -1.
       -3    1    3    3    0  502  0.73213936522E+03  0.42852865906E+03  0.12511818806E+04  0.15116616587E+04  0.10100000352E+00 0.  1.
</event>
<event>
 5   0  0.5071661E-07  0.3604732E+04  0.7818609E-02  0.8089409E-01
        1   -1    0    0  501    0  0.00000000000E+00  0.00000000000E+00  0.17356757485E+04  0.17356757485E+04  0.50400001928E-02 0. -1.
       -1   -1    0    0    0  501  0.00000000000E+00  0.00000000000E+00 -0.18716185938E+04  0.18716185938E+04  0.50400001928E-02 0.  1.
    10030    2    1    2    0    0  0.00000000000E+00  0.00000000000E+00 -0.13594284525E+03  0.36072943423E+04  0.36047318922E+04 0.  0.
        1    1    3    3  502    0  0.16489701776E+04 -0.57543596496E+03  0.37764705195E+03  0.17868537971E+04  0.50400001928E-02 0. -1.
       -1    1    3    3    0  502 -0.16489701776E+04  0.57543596496E+03 -0.51358989720E+03  0.18204405452E+04  0.50400001928E-02 0.  1.
</event>
<event>
 5   0  0.4811500E-07  0.3373737E+04  0.7818609E-02  0.8144382E-01
       -1   -1    0    0    0  501  0.00000000000E+00  0.00000000000E+00  0.20889191273E+04  0.20889191273E+04  0.50400001928E-02 0.  1.
        1   -1    0    0  501    0  0.00000000000E+00  0.00000000000E+00 -0.13621994816E+04  0.13621994816E+04  0.50400001928E-02 0. -1.
    10030    2    1    2    0    0  0.00000000000E+00  0.00000000000E+00  0.72671964570E+03  0.34511186089E+04  0.33737365352E+04 0.  0.
        5    1    3    3  502    0 -0.25944429957E+03  0.93358451044E+03 -0.10491119496E+04  0.14281279199E+04  0.46999998093E+01 0. -1.
       -5    1    3    3    0  502  0.25944429957E+03 -0.93358451044E+03  0.17758315953E+04  0.20229906890E+04  0.46999998093E+01 0.  1.
</event>
<event>
 5   0  0.4811500E-07  0.3668784E+04  0.7818609E-02  0.8074915E-01
        1   -1    0    0  501    0  0.00000000000E+00  0.00000000000E+00  0.90881188597E+03  0.90881188599E+03  0.50400001928E-02 0.  1.
       -1   -1    0    0    0  501  0.00000000000E+00  0.00000000000E+00 -0.37026300850E+04  0.37026300850E+04  0.50400001928E-02 0. -1.
    10030    2    1    2    0    0  0.00000000000E+00  0.00000000000E+00 -0.27938181990E+04  0.46114419710E+04  0.36687841204E+04 0.  0.
        3    1    3    3  502    0  0.99933033761E+03  0.18217661834E+03  0.52302107656E+03  0.11425412468E+04  0.10100000352E+00 0.  1.
       -3    1    3    3    0  502 -0.99933033761E+03 -0.18217661834E+03 -0.33168392755E+04  0.34689007241E+04  0.10100000352E+00 0. -1.
</event>
<event>
 5   0  0.1379425E-06  0.3606502E+04  0.7818609E-02  0.8089004E-01
       -2   -1    0    0    0  501  0.00000000000E+00  0.00000000000E+00  0.17908928745E+04  0.17908928745E+04  0.25500000920E-02 0. -1.
        2   -1    0    0  501    0  0.00000000000E+00  0.00000000000E+00 -0.18156941871E+04  0.18156941871E+04  0.25500000920E-02 0.  1.
    10030    2    1    2    0    0  0.00000000000E+00  0.00000000000E+00 -0.24801312582E+02  0.36065870616E+04  0.36065017853E+04 0.  0.
        4    1    3    3  502    0  0.82941490791E+03  0.12708331079E+04  0.96166872489E+03  0.17965951761E+04  0.12699999809E+01 0. -1.
       -4    1    3    3    0  502 -0.82941490791E+03 -0.12708331079E+04 -0.98647003747E+03  0.18099918854E+04  0.12699999809E+01 0.  1.
</event>
<event>
 5   0  0.1444091E-06  0.3540664E+04  0.7818609E-02  0.8104220E-01
       -2   -1    0    0    0  501  0.00000000000E+00  0.00000000000E+00  0.12859158251E+04  0.12859158251E+04  0.25500000920E-02 0.  1.
        2   -1    0    0  501    0  0.00000000000E+00  0.00000000000E+00 -0.24372327256E+04  0.24372327256E+04  0.25500000920E-02 0. -1.
    10030    2    1    2    0    0  0.00000000000E+00  0.00000000000E+00 -0.11513169005E+04  0.37231485507E+04  0.35406644187E+04 0.  0.
        1    1    3    3  502    0  0.12227205038E+04  0.12343718107E+04 -0.21851108519E+03  0.17511328595E+04  0.50400001928E-02 0.  1.
       -1    1    3    3    0  502 -0.12227205038E+04 -0.12343718107E+04 -0.93280581526E+03  0.19720156912E+04  0.50400001928E-02 0. -1.
</event>
<event>
 5   0  0.4811500E-07  0.3607329E+04  0.7818609E-02  0.8088815E-01
       -1   -1    0    0    0  501  0.00000000000E+00  0.00000000000E+00  0.15644099256E+04  0.15644099256E+04  0.50400001928E-02 0.  1.
        1   -1    0    0  501    0  0.00000000000E+00  0.00000000000E+00 -0.20795093325E+04  0.20795093325E+04  0.50400001928E-02 0. -1.
    10030    2    1    2    0    0  0.00000000000E+00  0.00000000000E+00 -0.51509940687E+03  0.36439192581E+04  0.36073286738E+04 0.  0.
        4    1    3    3  502    0  0.39424834073E+03  0.16356200337E+04 -0.91415750609E+03  0.19147768036E+04  0.12699999809E+01 0.  1.
       -4    1    3    3    0  502 -0.39424834073E+03 -0.16356200337E+04  0.39905809921E+03  0.17291424545E+04  0.12699999809E+01 0. -1.
</event>
<event>
 5   0  0.1491854E-06  0.3630895E+04  0.7818609E-02  0.8083451E-01
        2   -1    0    0  501    0  0.00000000000E+00  0.00000000000E+00  0.15625388346E+04  0.15625388346E+04  0.25500000920E-02 0.  1.
       -2   -1    0    0    0  501  0.00000000000E+00  0.00000000000E+00 -0.21092911608E+04  0.21092911608E+04  0.25500000920E-02 0. -1.
    10030    2    1    2    0    0  0.00000000000E+00  0.00000000000E+00 -0.54675232616E+03  0.36718299954E+04  0.36308948497E+04 0.  0.
        5    1    3    3  502    0 -0.45698381053E+03 -0.53720324824E+01  0.15034080624E+04  0.15713436778E+04  0.46999998093E+01 0.  1.
       -5    1    3    3    0  502  0.45698381053E+03  0.53720324824E+01 -0.20501603885E+04  0.21004863176E+04  0.46999998093E+01 0. -1.
</event>
<event>
 5   0  0.4811500E-07  0.3593639E+04  0.7818609E-02  0.8091950E-01
       -1   -1    0    0    0  501  0.00000000000E+00  0.00000000000E+00  0.23627510133E+04  0.23627510133E+04  0.50400001928E-02 0.  1.
        1   -1    0    0  501    0  0.00000000000E+00  0.00000000000E+00 -0.13664408436E+04  0.13664408436E+04  0.50400001928E-02 0. -1.
    10030    2    1    2    0    0  0.00000000000E+00  0.00000000000E+00  0.99631016972E+03  0.37291918568E+04  0.35936385393E+04 0.  0.
        4    1    3    3  502    0 -0.32215929154E+03  0.76224132151E+03  0.21532326572E+04  0.23067750064E+04  0.12699999809E+01 0.  1.
       -4    1    3    3    0  502  0.32215929154E+03 -0.76224132151E+03 -0.11569224875E+04  0.14224168504E+04  0.12699999809E+01 0. -1.
</event>
<event>
 5   0  0.5071661E-07  0.3642894E+04  0.7818609E-02  0.8080736E-01
       -1   -1    0    0    0  501  0.00000000000E+00  0.00000000000E+00  0.13659833408E+04  0.13659833409E+04  0.50400001928E-02 0.  1.
        1   -1    0    0  501    0  0.00000000000E+00  0.00000000000E+00 -0.24287770164E+04  0.24287770164E+04  0.50400001928E-02 0. -1.
    10030    2    1    2    0    0  0.00000000000E+00  0.00000000000E+00 -0.10627936756E+04  0.37947603573E+04  0.36428938733E+04 0.  0.
        1    1    3    3  502    0 -0.70441404108E+02  0.18083576207E+04 -0.31652182285E+03  0.18372004083E+04  0.50400001928E-02 0.  1.
       -1    1    3    3    0  502  0.70441404108E+02 -0.18083576207E+04 -0.74627185274E+03  0.19575599490E+04  0.50400001928E-02 0. -1.
</event>
<event>
 5   0  0.5071661E-07  0.3669510E+04  0.7818609E-02  0.8074753E-01
        1   -1    0    0  501    0  0.00000000000E+00  0.00000000000E+00  0.29462074859E+04  0.29462074859E+04  0.50400001928E-02 0. -1.
       -1   -1    0    0    0  501  0.00000000000E+00  0.00000000000E+00 -0.11425963629E+04  0.11425963629E+04  0.50400001928E-02 0.  1.
    10030    2    1    2    0    0  0.00000000000E+00  0.00000000000E+00  0.18036111230E+04  0.40888038488E+04  0.36695100260E+04 0.  0.
        1    1    3    3  502    0 -0.51644865809E+03 -0.21632505635E+03 -0.10450695847E+04  0.11856163727E+04  0.50400001928E-02 0.  1.
       -1    1    3    3    0  502  0.51644865809E+03  0.21632505635E+03  0.28486807077E+04  0.29031874760E+04  0.50400001928E-02 0. -1.
</event>
<event>
 5   0  0.4811500E-07  0.3610005E+04  0.7818609E-02  0.8088204E-01
        1   -1    0    0  501    0  0.00000000000E+00  0.00000000000E+00  0.21296657887E+04  0.21296657887E+04  0.50400001928E-02 0.  1.
       -1   -1    0    0    0  501  0.00000000000E+00  0.00000000000E+00 -0.15298331159E+04  0.15298331159E+04  0.50400001928E-02 0. -1.
    10030    2    1    2    0    0  0.00000000000E+00  0.00000000000E+00  0.59983267279E+03  0.36594989046E+04  0.36100045703E+04 0.  0.
        3    1    3    3  502    0  0.19541304490E+03 -0.10161766619E+04  0.17991222709E+04  0.20754860207E+04  0.10100000352E+00 0.  1.
       -3    1    3    3    0  502 -0.19541304490E+03  0.10161766619E+04 -0.11992895981E+04  0.15840128840E+04  0.10100000352E+00 0. -1.
</event>
<event>
 5   0  0.1491854E-06  0.2707704E+04  0.7818609E-02  0.8332510E-01
       -2   -1    0    0    0  501  0.00000000000E+00  0.00000000000E+00  0.77281191645E+03  0.77281191645E+03  0.25500000920E-02 0. -1.
        2   -1    0    0  501    0  0.00000000000E+00  0.00000000000E+00 -0.23717480053E+04  0.23717480053E+04  0.25500000920E-02 0.  1.
    10030    2    1    2    0    0  0.00000000000E+00  0.00000000000E+00 -0.15989360888E+04  0.31445599217E+04  0.27077039139E+04 0.  0.
        5    1    3    3  502    0  0.11186073765E+04  0.92275670619E+02  0.79700828343E+02  0.11252428956E+04  0.46999998093E+01 0. -1.
       -5    1    3    3    0  502 -0.11186073765E+04 -0.92275670619E+02 -0.16786369172E+04  0.20193170261E+04  0.46999998093E+01 0.  1.
</event>
<event>
 5   0  0.1444091E-06  0.3614025E+04  0.7818609E-02  0.8087287E-01
        2   -1    0    0  501    0  0.00000000000E+00  0.00000000000E+00  0.23353467989E+04  0.23353467989E+04  0.25500000920E-02 0. -1.
       -2   -1    0    0    0  501  0.00000000000E+00  0.00000000000E+00 -0.13982053537E+04  0.13982053537E+04  0.25500000920E-02 0.  1.
    10030    2    1    2    0    0  0.00000000000E+00  0.00000000000E+00  0.93714144523E+03  0.37335521526E+04  0.36140251228E+04 0.  0.
        1    1    3    3  502    0  0.33428033472E+03 -0.46238371507E+03 -0.13027060534E+04  0.14221761859E+04  0.50400001928E-02 0.  1.
       -1    1    3    3    0  502 -0.33428033472E+03  0.46238371507E+03  0.22398474987E+04  0.23113759667E+04  0.50400001928E-02 0. -1.
</event>
<event>
 5   0  0.4811500E-07  0.3865924E+04  0.7818609E-02  0.8032154E-01
       -1   -1    0    0    0  501  0.00000000000E+00  0.00000000000E+00  0.12289618148E+04  0.12289618148E+04  0.50400001928E-02 0.  1.
        1   -1    0    0  501    0  0.00000000000E+00  0.00000000000E+00 -0.30402432952E+04  0.30402432952E+04  0.50400001928E-02 0. -1.
    10030    2    1    2    0    0  0.00000000000E+00  0.00000000000E+00 -0.18112814804E+04  0.42692051100E+04  0.38659244263E+04 0.  0.
        4    1    3    3  502    0 -0.15396957352E+04 -0.11536461890E+04 -0.11115856538E+04  0.22219781199E+04  0.12699999809E+01 0.  1.
       -4    1    3    3    0  502  0.15396957352E+04  0.11536461890E+04 -0.69969582667E+03  0.20472269902E+04  0.12699999809E+01 0. -1.
</event>
<event>
 5   0  0.4811500E-07  0.3664452E+04  0.7818609E-02  0.8075886E-01
       -1   -1    0    0    0  501  0.00000000000E+00  0.00000000000E+00  0.17310369086E+04  0.17310369086E+04  0.50400001928E-02 0. -1.
        1   -1    0    0  501    0  0.00000000000E+00  0.00000000000E+00 -0.19393306798E+04  0.19393306798E+04  0.50400001928E-02 0.  1.
    10030    2    1    2    0    0  0.00000000000E+00  0.00000000000E+00 -0.20829377120E+03  0.36703675884E+04  0.36644524746E+04 0.  0.
        3    1    3    3  502    0 -0.76761369160E+03 -0.40040573471E+03 -0.17215281693E+04  0.19269703630E+04  0.10100000352E+00 0.  1.
       -3    1    3    3    0  502  0.76761369160E+03  0.40040573471E+03  0.15132343981E+04  0.17433972254E+04  0.10100000352E+00 0. -1.
</event>
<event>
 5   0  0.1491854E-06  0.3593314E+04  0.7818609E-02  0.8092025E-01
        2   -1    0    0  501    0  0.00000000000E+00  0.00000000000E+00  0.19459724956E+04  0.19459724956E+04  0.25500000920E-02 0.  1.
       -2   -1    0    0    0  501  0.00000000000E+00  0.00000000000E+00 -0.16587984246E+04  0.16587984246E+04  0.25500000920E-02 0. -1.
    10030    2    1    2    0    0  0.00000000000E+00  0.00000000000E+00  0.28717407102E+03  0.36047709202E+04  0.35933138522E+04 0.  0.
        5    1    3    3  502    0 -0.10505223056E+04 -0.87298211294E+03  0.13144670250E+04  0.18956636131E+04  0.46999998093E+01 0.  1.
       -5    1    3    3    0  502  0.10505223056E+04  0.87298211294E+03 -0.10272929540E+04  0.17091073072E+04  0.46999998093E+01 0. -1.
</event>
<event>
 5   0  0.4811500E-07  0.3568159E+04  0.7818609E-02  0.8097824E-01
       -1   -1    0    0    0  501  0.00000000000E+00  0.00000000000E+00  0.34040829675E+04  0.34040829675E+04  0.50400001928E-02 0. -1.
        1   -1    0    0  501    0  0.00000000000E+00  0.00000000000E+00 -0.93503590818E+03  0.93503590819E+03  0.50400001928E-02 0.  1.
    10030    2    1    2    0    0  0.00000000000E+00  0.00000000000E+00  0.24690470593E+04  0.43391188757E+04  0.35681590822E+04 0.  0.
        3    1    3    3  502    0 -0.14843306098E+03 -0.15766772179E+04  0.22336214621E+04  0.27380665202E+04  0.10100000352E+00 0. -1.
       -3    1    3    3    0  502  0.14843306098E+03  0.15766772179E+04  0.23542559720E+03  0.16010523555E+04  0.10100000352E+00 0.  1.
</event>
<event>
 5   0  0.5071661E-07  0.3567528E+04  0.7818609E-02  0.8097971E-01
        1   -1    0    0  501    0  0.00000000000E+00  0.00000000000E+00  0.17712619831E+04  0.17712619831E+04  0.50400001928E-02 0.  1.
       -1   -1    0    0    0  501  0.00000000000E+00  0.00000000000E+00 -0.17963539005E+04  0.17963539005E+04  0.50400001928E-02 0. -1.
    10030    2    1    2    0    0  0.00000000000E+00  0.00000000000E+00 -0.25091917439E+02  0.35676158836E+04  0.35675276437E+04 0.  0.
        1    1    3    3  502    0  0.29712273763E+03 -0.17449397980E+04 -0.23326968264E+03  0.17853603459E+04  0.50400001928E-02 0.  1.
       -1    1    3    3    0  502 -0.29712273763E+03  0.17449397980E+04  0.20817776520E+03  0.17822555377E+04  0.50400001928E-02 0. -1.
</event>
<event>
 5   0  0.1379425E-06  0.3564844E+04  0.7818609E-02  0.8098592E-01
        2   -1    0    0  501    0  0.00000000000E+00  0.00000000000E+00  0.18616491966E+04  0.18616491966E+04  0.25500000920E-02 0. -1.
       -2   -1    0    0    0  501  0.00000000000E+00  0.00000000000E+00 -0.17065668455E+04  0.17065668455E+04  0.25500000920E-02 0.  1.
    10030    2    1    2    0    0  0.00000000000E+00  0.00000000000E+00  0.15508235110E+03  0.35682160421E+04  0.35648443427E+04 0.  0.
        4    1    3    3  502    0  0.11618584317E+03 -0.17179201445E+04  0.53871376257E+03  0.18041515745E+04  0.12699999809E+01 0. -1.
       -4    1    3    3    0  502 -0.11618584317E+03  0.17179201445E+04 -0.38363141147E+03  0.17640644676E+04  0.12699999809E+01 0.  1.
</event>
<event>
 5   0  0.1468942E-06  0.3581064E+04  0.7818609E-02  0.8094843E-01
       -2   -1    0    0    0  501  0.00000000000E+00  0.00000000000E+00  0.22956176523E+04  0.22956176523E+04  0.25500000920E-02 0.  1.
        2   -1    0    0  501    0  0.00000000000E+00  0.00000000000E+00 -0.13965764627E+04  0.13965764627E+04  0.25500000920E-02 0. -1.
    10030    2    1    2    0    0  0.00000000000E+00  0.00000000000E+00  0.89904118961E+03  0.36921941150E+04  0.35810644119E+04 0.  0.
        2    1    3    3  502    0 -0.12976825164E+04 -0.28054297278E+03 -0.78914451468E+03  0.15444848132E+04  0.25500000920E-02 0.  1.
       -2    1    3    3    0  502  0.12976825164E+04  0.28054297278E+03  0.16881857043E+04  0.21477093018E+04  0.25500000920E-02 0. -1.
</event>
<event>
 5   0  0.4811500E-07  0.3658312E+04  0.7818609E-02  0.8077264E-01
        1   -1    0    0  501    0  0.00000000000E+00  0.00000000000E+00  0.94949069259E+03  0.94949069261E+03  0.50400001928E-02 0. -1.
       -1   -1    0    0    0  501  0.00000000000E+00  0.00000000000E+00 -0.35237969067E+04  0.35237969067E+04  0.50400001928E-02 0.  1.
    10030    2    1    2    0    0  0.00000000000E+00  0.00000000000E+00 -0.25743062141E+04  0.44732875993E+04  0.36583123790E+04 0.  0.
        2    1    3    3  502    0  0.23232726401E+02  0.17239467608E+04 -0.20342268883E+04  0.26665729367E+04  0.25500000920E-02 0.  1.
       -2    1    3    3    0  502 -0.23232726401E+02 -0.17239467608E+04 -0.54007932576E+03  0.18067146625E+04  0.25500000920E-02 0. -1.
</event>
<event>
 5   0  0.1468942E-06  0.3507273E+04  0.7818609E-02  0.8112069E-01
        2   -1    0    0  501    0  0.00000000000E+00  0.00000000000E+00  0.18095567320E+04  0.18095567320E+04  0.25500000920E-02 0.  1.
       -2   -1    0    0    0  501  0.00000000000E+00  0.00000000000E+00 -0.16994442648E+04  0.16994442648E+04  0.25500000920E-02 0. -1.
    10030    2    1    2    0    0  0.00000000000E+00  0.00000000000E+00  0.11011246720E+03  0.35090009969E+04  0.35072729065E+04 0.  0.
        2    1    3    3  502    0 -0.11627768266E+04  0.13120589229E+04  0.13899065887E+02  0.17532089863E+04  0.25500000920E-02 0. -1.
       -2    1    3    3    0  502  0.11627768266E+04 -0.13120589229E+04  0.96213401312E+02  0.17557920106E+04  0.25500000920E-02 0.  1.
</event>
<event>
 5   0  0.4811500E-07  0.3507868E+04  0.7818609E-02  0.8111928E-01
        1   -1    0    0  501    0  0.00000000000E+00  0.00000000000E+00  0.26356748558E+04  0.26356748558E+04  0.50400001928E-02 0. -1.
       -1   -1    0    0    0  501  0.00000000000E+00  0.00000000000E+00 -0.11671716289E+04  0.11671716289E+04  0.50400001928E-02 0.  1.
    10030    2    1    2    0    0  0.00000000000E+00  0.00000000000E+00  0.14685032269E+04  0.38028464847E+04  0.35078682500E+04 0.  0.
        2    1    3    3  502    0 -0.13352846371E+04 -0.30896430139E+03  0.19207443712E+04  0.23595980466E+04  0.25500000920E-02 0. -1.
       -2    1    3    3    0  502  0.13352846371E+04  0.30896430139E+03 -0.45224114433E+03  0.14432484382E+04  0.25500000920E-02 0.  1.
</event>
<event>
 5   0  0.4811500E-07  0.3599439E+04  0.7818609E-02  0.8090620E-01
       -1   -1    0    0    0  501  0.00000000000E+00  0.00000000000E+00  0.20441267472E+04  0.20441267472E+04  0.50400001928E-02 0.  1.
        1   -1    0    0  501    0  0.00000000000E+00  0.00000000000E+00 -0.15845346898E+04  0.15845346898E+04  0.50400001928E-02 0. -1.
    10030    2    1    2    0    0  0.00000000000E+00  0.00000000000E+00  0.45959205742E+03  0.36286614371E+04  0.35994387015E+04 0.  0.
        5    1    3    3  502    0  0.12932275180E+03 -0.16443287414E+04 -0.49606781904E+03  0.17223956441E+04  0.46999998093E+01 0. -1.
       -5    1    3    3    0  502 -0.12932275180E+03  0.16443287414E+04  0.95565987645E+03  0.19062657929E+04  0.46999998093E+01 0.  1.
</event>
<event>
 5   0  0.5071661E-07  0.3567924E+04  0.7818609E-02  0.8097879E-01
        1   -1    0    0  501    0  0.00000000000E+00  0.00000000000E+00  0.25271469101E+04  0.25271469101E+04  0.50400001928E-02 0.  1.
       -1   -1    0    0    0  501  0.00000000000E+00  0.00000000000E+00 -0.12593336468E+04  0.12593336468E+04  0.50400001928E-02 0. -1.
    10030    2    1    2    0    0  0.00000000000E+00  0.00000000000E+00  0.12678132633E+04  0.37864805569E+04  0.35679244019E+04 0.  0.
        1    1    3    3  502    0 -0.13334090528E+04 -0.66154975751E+03  0.16774472885E+04  0.22426451323E+04  0.50400001928E-02 0.  1.
       -1    1    3    3    0  502  0.13334090528E+04  0.66154975751E+03 -0.40963402519E+03  0.15438354246E+04  0.50400001928E-02 0. -1.
</event>
<event>
 5   0  0.1468942E-06  0.3590192E+04  0.7818609E-02  0.8092742E-01
        2   -1    0    0  501    0  0.00000000000E+00  0.00000000000E+00  0.20778414401E+04  0.20778414401E+04  0.25500000920E-02 0.  1.
       -2   -1    0    0    0  501  0.00000000000E+00  0.00000000000E+00 -0.15508256518E+04  0.15508256518E+04  0.25500000920E-02 0. -1.
    10030    2    1    2    0    0  0.00000000000E+00  0.00000000000E+00  0.52701578827E+03  0.36286670919E+04  0.35901920871E+04 0.  0.
        2    1    3    3  502    0 -0.89780564803E+02 -0.13205177485E+04  0.14891627119E+04  0.19923436592E+04  0.25500000920E-02 0.  1.
       -2    1    3    3    0  502  0.89780564803E+02  0.13205177485E+04 -0.96214692360E+03  0.16363234327E+04  0.25500000920E-02 0. -1.
</event>
<event>
 5   0  0.1379425E-06  0.3606973E+04  0.7818609E-02  0.8088896E-01
       -2   -1    0    0    0  501  0.00000000000E+00  0.00000000000E+00  0.13735743931E+04  0.13735743931E+04  0.25500000920E-02 0. -1.
        2   -1    0    0  501    0  0.00000000000E+00  0.00000000000E+00 -0.23679555128E+04  0.23679555128E+04  0.25500000920E-02 0.  1.
    10030    2    1    2    0    0  0.00000000000E+00  0.00000000000E+00 -0.99438111967E+03  0.37415299059E+04  0.36069727232E+04 0.  0.
        4    1    3    3  502    0  0.86544107861E+02  0.14002076539E+04  0.67844236714E+03  0.15583186501E+04  0.12699999809E+01 0. -1.
       -4    1    3    3    0  502 -0.86544107861E+02 -0.14002076539E+04 -0.16728234868E+04  0.21832112558E+04  0.12699999809E+01 0.  1.
</event>
<event>
 5   0  0.1444091E-06  0.3631668E+04  0.7818609E-02  0.8083276E-01
       -2   -1    0    0    0  501  0.00000000000E+00  0.00000000000E+00  0.15756624921E+04  0.15756624921E+04  0.25500000920E-02 0. -1.
        2   -1    0    0  501    0  0.00000000000E+00  0.00000000000E+00 -0.20926132558E+04  0.20926132558E+04  0.25500000920E-02 0.  1.
    10030    2    1    2    0    0  0.00000000000E+00  0.00000000000E+00 -0.51695076372E+03  0.36682757479E+04  0.36316675055E+04 0.  0.
        1    1    3    3  502    0 -0.81992748994E+03  0.14229316006E+04 -0.10410345781E+04  0.19444198162E+04  0.50400001928E-02 0.  1.
       -1    1    3    3    0  502  0.81992748994E+03 -0.14229316006E+04  0.52408381440E+03  0.17238559317E+04  0.50400001928E-02 0. -1.
</event>
<event>
 5   0  0.1444091E-06  0.3584698E+04  0.7818609E-02  0.8094006E-01
       -2   -1    0    0    0  501  0.00000000000E+00  0.00000000000E+00  0.14433427174E+04  0.14433427174E+04  0.25500000920E-02 0. -1.
        2   -1    0    0  501    0  0.00000000000E+00  0.00000000000E+00 -0.22257465875E+04  0.22257465875E+04  0.25500000920E-02 0.  1.
    10030    2    1    2    0    0  0.00000000000E+00  0.00000000000E+00 -0.78240387013E+03  0.36690893049E+04  0.35846981061E+04 0.  0.
        1    1    3    3  502    0  0.13964549236E+04 -0.93831390875E+03 -0.10238103729E+04  0.19694433287E+04  0.50400001928E-02 0. -1.
       -1    1    3    3    0  502 -0.13964549236E+04  0.93831390875E+03  0.24140650279E+03  0.16996459763E+04  0.50400001928E-02 0.  1.
</event>
<event>
 5   0  0.4811500E-07  0.3666321E+04  0.7818609E-02  0.8075467E-01
       -1   -1    0    0    0  501  0.00000000000E+00  0.00000000000E+00  0.10637439565E+04  0.10637439565E+04  0.50400001928E-02 0.  1.
        1   -1    0    0  501    0  0.00000000000E+00  0.00000000000E+00 -0.31591040604E+04  0.31591040604E+04  0.50400001928E-02 0. -1.
    10030    2    1    2    0    0  0.00000000000E+00  0.00000000000E+00 -0.20953601039E+04  0.42228480170E+04  0.36663212365E+04 0.  0.
        2    1    3    3  502    0 -0.11323266690E+04  0.68132819643E+03  0.41564554746E+03  0.13853277655E+04  0.25500000920E-02 0.  1.
       -2    1    3    3    0  502  0.11323266690E+04 -0.68132819643E+03 -0.25110056513E+04  0.28375202515E+04  0.25500000920E-02 0. -1.
</event>
<event>
 5   0  0.1491854E-06  0.2700782E+04  0.7818609E-02  0.8334751E-01
       -2   -1    0    0    0  501  0.00000000000E+00  0.00000000000E+00  0.15606694781E+04  0.15606694781E+04  0.25500000920E-02 0.  1.
        2   -1    0    0  501    0  0.00000000000E+00  0.00000000000E+00 -0.11684450255E+04  0.11684450255E+04  0.25500000920E-02 0. -1.
    10030    2    1    2    0    0  0.00000000000E+00  0.00000000000E+00  0.39222445257E+03  0.27291145037E+04  0.27007824705E+04 0.  0.
        5    1    3    3  502    0  0.37102931694E+03  0.12958335947E+04  0.11348068830E+03  0.13526815648E+04  0.46999998093E+01 0. -1.
       -5    1    3    3    0  502 -0.37102931694E+03 -0.12958335947E+04  0.27874376427E+03  0.13764329389E+04  0.46999998093E+01 0.  1.
</event>
<event>
 5   0  0.1444091E-06  0.3616612E+04  0.7818609E-02  0.8086697E-01
       -2   -1    0    0    0  501  0.00000000000E+00  0.00000000000E+00  0.12623928339E+04  0.12623928339E+04  0.25500000920E-02 0. -1.
        2   -1    0    0  501    0  0.00000000000E+00  0.00000000000E+00 -0.25902952348E+04  0.25902952349E+04  0.25500000920E-02 0.  1.
    10030    2    1    2    0    0  0.00000000000E+00  0.00000000000E+00 -0.13279024009E+04  0.38526880688E+04  0.36166117526E+04 0.  0.
        1    1    3    3  502    0 -0.42870032343E+03 -0.12450344021E+04 -0.19842378799E+04  0.23814060120E+04  0.50400001928E-02 0.  1.
       -1    1    3    3    0  502  0.42870032343E+03  0.12450344021E+04  0.65633547899E+03  0.14712820568E+04  0.50400001928E-02 0. -1.
</event>
<event>
 5   0  0.1491854E-06  0.3161385E+04  0.7818609E-02  0.8199090E-01
       -2   -1    0    0    0  501  0.00000000000E+00  0.00000000000E+00  0.14096568059E+04  0.14096568059E+04  0.25500000920E-02 0. -1.
        2   -1    0    0  501    0  0.00000000000E+00  0.00000000000E+00 -0.17724804134E+04  0.17724804134E+04  0.25500000920E-02 0.  1.
    10030    2    1    2    0    0  0.00000000000E+00  0.00000000000E+00 -0.36282360754E+03  0.31821372193E+04  0.31613851889E+04 0.  0.
        5    1    3    3  502    0  0.42944466139E+03  0.33382253789E+03  0.13124823705E+04  0.14207365227E+04  0.46999998093E+01 0. -1.
       -5    1    3    3    0  502 -0.42944466139E+03 -0.33382253789E+03 -0.16753059781E+04  0.17614006966E+04  0.46999998093E+01 0.  1.
</event>
<event>
 5   0  0.1379425E-06  0.3823662E+04  0.7818609E-02  0.8041096E-01
       -2   -1    0    0    0  501  0.00000000000E+00  0.00000000000E+00  0.18739524128E+04  0.18739524128E+04  0.25500000920E-02 0.  1.
        2   -1    0    0  501    0  0.00000000000E+00  0.00000000000E+00 -0.19504757378E+04  0.19504757378E+04  0.25500000920E-02 0. -1.
    10030    2    1    2    0    0  0.00000000000E+00  0.00000000000E+00 -0.76523324983E+02  0.38244281506E+04  0.38236624930E+04 0.  0.
        4    1    3    3  502    0 -0.12834914623E+03  0.99199149697E+03  0.15913516936E+04  0.18796069959E+04  0.12699999809E+01 0.  1.
       -4    1    3    3    0  502  0.12834914623E+03 -0.99199149697E+03 -0.16678750186E+04  0.19448211547E+04  0.12699999809E+01 0. -1.
</event>
<event>
 5   0  0.5071661E-07  0.3399573E+04  0.7818609E-02  0.8138011E-01
       -1   -1    0    0    0  501  0.00000000000E+00  0.00000000000E+00  0.13623817438E+04  0.13623817438E+04  0.50400001928E-02 0. -1.
        1   -1    0    0  501    0  0.00000000000E+00  0.00000000000E+00 -0.21207527047E+04  0.21207527047E+04  0.50400001928E-02 0.  1.
    10030    2    1    2    0    0  0.00000000000E+00  0.00000000000E+00 -0.75837096094E+03  0.34831344485E+04  0.33995733662E+04 0.  0.
        1    1    3    3  502    0 -0.14780373853E+04  0.37949595823E+03 -0.11463646406E+04  0.19086025212E+04  0.50400001928E-02 0.  1.
       -1    1    3    3    0  502  0.14780373853E+04 -0.37949595823E+03  0.38799367967E+03  0.15745319273E+04  0.50400001928E-02 0. -1.
</event>
<event>
 5   0  0.1505671E-06  0.2792040E+04  0.7818609E-02  0.8305744E-01
       -2   -1    0    0    0  501  0.00000000000E+00  0.00000000000E+00  0.10154586183E+04  0.10154586183E+04  0.25500000920E-02 0.  1.
        2   -1    0    0  501    0  0.00000000000E+00  0.00000000000E+00 -0.19192035046E+04  0.19192035046E+04  0.25500000920E-02 0. -1.
    10030    2    1    2    0    0  0.00000000000E+00  0.00000000000E+00 -0.90374488625E+03  0.29346621229E+04  0.27920399274E+04 0.  0.
        3    1    3    3  502    0  0.45072267795E+03 -0.53985983589E+03  0.81566070702E+03  0.10769874530E+04  0.10100000352E+00 0.  1.
       -3    1    3    3    0  502 -0.45072267795E+03  0.53985983589E+03 -0.17194055933E+04  0.18576746699E+04  0.10100000352E+00 0. -1.
</event>
<event>
 5   0  0.1444091E-06  0.3432913E+04  0.7818609E-02  0.8129875E-01
        2   -1    0    0  501    0  0.00000000000E+00  0.00000000000E+00  0.27118000226E+04  0.27118000226E+04  0.25500000920E-02 0.  1.
       -2   -1    0    0    0  501  0.00000000000E+00  0.00000000000E+00 -0.10864455653E+04  0.10864455653E+04  0.25500000920E-02 0. -1.
    10030    2    1    2    0    0  0.00000000000E+00  0.00000000000E+00  0.16253544573E+04  0.37982455879E+04  0.34329131119E+04 0.  0.
        1    1    3    3  502    0 -0.11530509014E+04 -0.93032899180E+03 -0.14626754323E+03  0.14887688231E+04  0.50400001928E-02 0. -1.
       -1    1    3    3    0  502  0.11530509014E+04  0.93032899180E+03  0.17716220005E+04  0.23094767648E+04  0.50400001928E-02 0.  1.
</event>
<event>
 5   0  0.4811500E-07  0.2667450E+04  0.7818609E-02  0.8345644E-01
        1   -1    0    0  501    0  0.00000000000E+00  0.00000000000E+00  0.14320291262E+04  0.14320291262E+04  0.50400001928E-02 0.  1.
       -1   -1    0    0    0  501  0.00000000000E+00  0.00000000000E+00 -0.12421695955E+04  0.12421695955E+04  0.50400001928E-02 0. -1.
    10030    2    1    2    0    0  0.00000000000E+00  0.00000000000E+00  0.18985953073E+03  0.26741987217E+04  0.26674504985E+04 0.  0.
        4    1    3    3  502    0 -0.36659164183E+03  0.36737510634E+03  0.13266418302E+04  0.14245469663E+04  0.12699999809E+01 0.  1.
       -4    1    3    3    0  502  0.36659164183E+03 -0.36737510634E+03 -0.11367822995E+04  0.12496517554E+04  0.12699999809E+01 0. -1.
</event>
<event>
 5   0  0.1505671E-06  0.2540002E+04  0.7818609E-02  0.8388872E-01
       -2   -1    0    0    0  501  0.00000000000E+00  0.00000000000E+00  0.12055417330E+04  0.12055417330E+04  0.25500000920E-02 0.  1.
        2   -1    0    0  501    0  0.00000000000E+00  0.00000000000E+00 -0.13379067002E+04  0.13379067003E+04  0.25500000920E-02 0. -1.
    10030    2    1    2    0    0  0.00000000000E+00  0.00000000000E+00 -0.13236496725E+03  0.25434484333E+04  0.25400018599E+04 0.  0.
        3    1    3    3  502    0  0.77742311208E+03 -0.72141332299E+03 -0.76575659499E+03  0.13081311290E+04  0.10100000352E+00 0. -1.
       -3    1    3    3    0  502 -0.77742311208E+03  0.72141332299E+03  0.63339162774E+03  0.12353173042E+04  0.10100000352E+00 0.  1.
</event>
<event>
 5   0  0.1444091E-06  0.3811527E+04  0.7818609E-02  0.8043686E-01
        2   -1    0    0  501    0  0.00000000000E+00  0.00000000000E+00  0.18349232138E+04  0.18349232138E+04  0.25500000920E-02 0. -1.
       -2   -1    0    0    0  501  0.00000000000E+00  0.00000000000E+00 -0.19793382980E+04  0.19793382980E+04  0.25500000920E-02 0.  1.
    10030    2    1    2    0    0  0.00000000000E+00  0.00000000000E+00 -0.14441508420E+03  0.38142615117E+04  0.38115266185E+04 0.  0.
        1    1    3    3  502    0  0.11414465921E+03 -0.19017477884E+04 -0.24632534903E+02  0.19053294770E+04  0.50400001928E-02 0. -1.
       -1    1    3    3    0  502 -0.11414465921E+03  0.19017477884E+04 -0.11978254929E+03  0.19089320347E+04  0.50400001928E-02 0.  1.
</event>
<event>
 5   0  0.4811500E-07  0.3600053E+04  0.7818609E-02  0.8090479E-01
        1   -1    0    0  501    0  0.00000000000E+00  0.00000000000E+00  0.17259651571E+04  0.17259651571E+04  0.50400001928E-02 0.  1.
       -1   -1    0    0    0  501  0.00000000000E+00  0.00000000000E+00 -0.18772662479E+04  0.18772662479E+04  0.50400001928E-02 0. -1.
    10030    2    1    2    0    0  0.00000000000E+00  0.00000000000E+00 -0.15130109073E+03  0.36032314050E+04  0.36000534077E+04 0.  0.
        2    1    3    3  502    0  0.82231514814E+03 -0.95743823473E+03 -0.13602187335E+04  0.18555552213E+04  0.25500000920E-02 0. -1.
       -2    1    3    3    0  502 -0.82231514814E+03  0.95743823473E+03  0.12089176428E+04  0.17476761837E+04  0.25500000920E-02 0.  1.
</event>
<event>
 5   0  0.1491854E-06  0.3704125E+04  0.7818609E-02  0.8067048E-01
        2   -1    0    0  501    0  0.00000000000E+00  0.00000000000E+00  0.20896548650E+04  0.20896548650E+04  0.25500000920E-02 0. -1.
       -2   -1    0    0    0  501  0.00000000000E+00  0.00000000000E+00 -0.16414842418E+04  0.16414842418E+04  0.25500000920E-02 0.  1.
    10030    2    1    2    0    0  0.00000000000E+00  0.00000000000E+00  0.44817062314E+03  0.37311391068E+04  0.37041250150E+04 0.  0.
        5    1    3    3  502    0  0.17997789206E+03  0.22394061805E+03  0.20670659321E+04  0.20869415660E+04  0.46999998093E+01 0. -1.
       -5    1    3    3    0  502 -0.17997789206E+03 -0.22394061805E+03 -0.16188953090E+04  0.16441975409E+04  0.46999998093E+01 0.  1.
</event>
<event>
 5   0  0.5071661E-07  0.3599773E+04  0.7818609E-02  0.8090544E-01
        1   -1    0    0  501    0  0.00000000000E+00  0.00000000000E+00  0.17342033269E+04  0.17342033269E+04  0.50400001928E-02 0.  1.
       -1   -1    0    0    0  501  0.00000000000E+00  0.00000000000E+00 -0.18680577281E+04  0.18680577281E+04  0.50400001928E-02 0. -1.
    10030    2    1    2    0    0  0.00000000000E+00  0.00000000000E+00 -0.13385440119E+03  0.36022610549E+04  0.35997732855E+04 0.  0.
        1    1    3    3  502    0  0.10671379944E+04 -0.10461403383E+04 -0.10708148071E+04  0.18384334248E+04  0.50400001928E-02 0. -1.
       -1    1    3    3    0  502 -0.10671379944E+04  0.10461403383E+04  0.93696040589E+03  0.17638276301E+04  0.50400001928E-02 0.  1.
</event>
<event>
 5   0  0.1444091E-06  0.3533226E+04  0.7818609E-02  0.8105961E-01
        2   -1    0    0  501    0  0.00000000000E+00  0.00000000000E+00  0.20018978381E+04  0.20018978381E+04  0.25500000920E-02 0.  1.
       -2   -1    0    0    0  501  0.00000000000E+00  0.00000000000E+00 -0.15589810755E+04  0.15589810755E+04  0.25500000920E-02 0. -1.
    10030    2    1    2    0    0  0.00000000000E+00  0.00000000000E+00  0.44291676266E+03  0.35608789136E+04  0.35332256337E+04 0.  0.
        1    1    3    3  502    0 -0.12075273951E+04 -0.11575521254E+04 -0.35120669238E+03  0.17092090199E+04  0.50400001928E-02 0.  1.
       -1    1    3    3    0  502  0.12075273951E+04  0.11575521254E+04  0.79412345505E+03  0.18516698936E+04  0.50400001928E-02 0. -1.
</event>
<event>
 5   0  0.1468942E-06  0.3608053E+04  0.7818609E-02  0.8088649E-01
        2   -1    0    0  501    0  0.00000000000E+00  0.00000000000E+00  0.25458246476E+04  0.25458246476E+04  0.25500000920E-02 0.  1.
       -2   -1    0    0    0  501  0.00000000000E+00  0.00000000000E+00 -0.12783725448E+04  0.12783725448E+04  0.25500000920E-02 0. -1.
    10030    2    1    2    0    0  0.00000000000E+00  0.00000000000E+00  0.12674521028E+04  0.38241971924E+04  0.36080533994E+04 0.  0.
        2    1    3    3  502    0 -0.11011458257E+04 -0.20192694519E+02  0.21481615626E+04  0.24140273349E+04  0.25500000920E-02 0.  1.
       -2    1    3    3    0  502  0.11011458257E+04  0.20192694519E+02 -0.88070945978E+03  0.14101698575E+04  0.25500000920E-02 0. -1.
</event>
<event>
 5   0  0.4811500E-07  0.3435006E+04  0.7818609E-02  0.8129368E-01
       -1   -1    0    0    0  501  0.00000000000E+00  0.00000000000E+00  0.12677571556E+04  0.12677571556E+04  0.50400001928E-02 0.  1.
        1   -1    0    0  501    0  0.00000000000E+00  0.00000000000E+00 -0.23267994013E+04  0.23267994013E+04  0.50400001928E-02 0. -1.
    10030    2    1    2    0    0  0.00000000000E+00  0.00000000000E+00 -0.10590422458E+04  0.35945565569E+04  0.34350060208E+04 0.  0.
        5    1    3    3  502    0  0.13422393602E+04 -0.71503154942E+02 -0.16483282871E+04  0.21269056005E+04  0.46999998093E+01 0. -1.
       -5    1    3    3    0  502 -0.13422393602E+04  0.71503154942E+02  0.58928604136E+03  0.14676509564E+04  0.46999998093E+01 0.  1.
</event>
<event>
 5   0  0.4811500E-07  0.3177768E+04  0.7818609E-02  0.8194713E-01
        1   -1    0    0  501    0  0.00000000000E+00  0.00000000000E+00  0.19768603137E+04  0.19768603137E+04  0.50400001928E-02 0.  1.
       -1   -1    0    0    0  501  0.00000000000E+00  0.00000000000E+00 -0.12770516020E+04  0.12770516021E+04  0.50400001928E-02 0. -1.
    10030    2    1    2    0    0  0.00000000000E+00  0.00000000000E+00  0.69980871163E+03  0.32539119157E+04  0.31777681669E+04 0.  0.
        3    1    3    3  502    0  0.74759887281E+03  0.12594669129E+04 -0.28080236832E+03  0.14913118251E+04  0.10100000352E+00 0. -1.
       -3    1    3    3    0  502 -0.74759887281E+03 -0.12594669129E+04  0.98061107994E+03  0.17626000907E+04  0.10100000352E+00 0.  1.
</event>
<event>
 5   0  0.1444091E-06  0.3617435E+04  0.7818609E-02  0.8086510E-01
        2   -1    0    0  501    0  0.00000000000E+00  0.00000000000E+00  0.22238511849E+04  0.22238511849E+04  0.25500000920E-02 0. -1.
       -2   -1    0    0    0  501  0.00000000000E+00  0.00000000000E+00 -0.14710786011E+04  0.14710786011E+04  0.25500000920E-02 0.  1.
    10030    2    1    2    0    0  0.00000000000E+00  0.00000000000E+00  0.75277258386E+03  0.36949297860E+04  0.36174354950E+04 0.  0.
        1    1    3    3  502    0 -0.10157818617E+04 -0.84288494831E+03  0.16394824438E+04  0.21047970235E+04  0.50400001928E-02 0. -1.
       -1    1    3    3    0  502  0.10157818617E+04  0.84288494831E+03 -0.88670985990E+03  0.15901327625E+04  0.50400001928E-02 0.  1.
</event>
<event>
 5   0  0.1491854E-06  0.3615396E+04  0.7818609E-02  0.8086974E-01
        2   -1    0    0  501    0  0.00000000000E+00  0.00000000000E+00  0.23195168593E+04  0.23195168593E+04  0.25500000920E-02 0.  1.
       -2   -1    0    0    0  501  0.00000000000E+00  0.00000000000E+00 -0.14088155796E+04  0.14088155796E+04  0.25500000920E-02 0. -1.
    10030    2    1    2    0    0  0.00000000000E+00  0.00000000000E+00  0.91070127961E+03  0.37283324389E+04  0.36153956843E+04 0.  0.
        5    1    3    3  502    0 -0.91645310192E+03  0.14086458490E+04 -0.23147225564E+03  0.16963993961E+04  0.46999998093E+01 0.  1.
       -5    1    3    3    0  502  0.91645310192E+03 -0.14086458490E+04  0.11421735352E+04  0.20319330428E+04  0.46999998093E+01 0. -1.
</event>
<event>
 5   0  0.4811500E-07  0.3693923E+04  0.7818609E-02  0.8069310E-01
        1   -1    0    0  501    0  0.00000000000E+00  0.00000000000E+00  0.24210213175E+04  0.24210213175E+04  0.50400001928E-02 0.  1.
       -1   -1    0    0    0  501  0.00000000000E+00  0.00000000000E+00 -0.14090199896E+04  0.14090199896E+04  0.50400001928E-02 0. -1.
    10030    2    1    2    0    0  0.00000000000E+00  0.00000000000E+00  0.10120013279E+04  0.38300413072E+04  0.36939233515E+04 0.  0.
        5    1    3    3  502    0  0.12229697287E+04  0.42011119235E+03 -0.86134235453E+03  0.15537313516E+04  0.46999998093E+01 0. -1.
       -5    1    3    3    0  502 -0.12229697287E+04 -0.42011119235E+03  0.18733436824E+04  0.22763099556E+04  0.46999998093E+01 0.  1.
</event>
<event>
 5   0  0.1444091E-06  0.3556389E+04  0.7818609E-02  0.8100555E-01
        2   -1    0    0  501    0  0.00000000000E+00  0.00000000000E+00  0.18800904712E+04  0.18800904712E+04  0.25500000920E-02 0. -1.
       -2   -1    0    0    0  501  0.00000000000E+00  0.00000000000E+00 -0.16818208580E+04  0.16818208580E+04  0.25500000920E-02 0.  1.
    10030    2    1    2    0    0  0.00000000000E+00  0.00000000000E+00  0.19826961325E+03  0.35619113292E+04  0.35563888254E+04 0.  0.
        1    1    3    3  502    0  0.62210994492E+03  0.16381655472E+04 -0.20360634797E+03  0.17641039336E+04  0.50400001928E-02 0. -1.
       -1    1    3    3    0  502 -0.62210994492E+03 -0.16381655472E+04  0.40187596123E+03  0.17978073956E+04  0.50400001928E-02 0.  1.
</event>
<event>
 5   0  0.4811500E-07  0.3828775E+04  0.7818609E-02  0.8040008E-01
       -1   -1    0    0    0  501  0.00000000000E+00  0.00000000000E+00  0.23709161879E+04  0.23709161879E+04  0.50400001928E-02 0. -1.
        1   -1    0    0  501    0  0.00000000000E+00  0.00000000000E+00 -0.15457655038E+04  0.15457655038E+04  0.50400001928E-02 0.  1.
    10030    2    1    2    0    0  0.00000000000E+00  0.00000000000E+00  0.82515068413E+03  0.39166816918E+04  0.38287754992E+04 0.  0.
        4    1    3    3  502    0 -0.31808509217E+03 -0.15348965663E+04 -0.71165337442E+03  0.17214928793E+04  0.12699999809E+01 0.  1.
       -4    1    3    3    0  502  0.31808509217E+03  0.15348965663E+04  0.15368040586E+04  0.21951888125E+04  0.12699999809E+01 0. -1.
</event>
<event>
 5   0  0.1444091E-06  0.3673839E+04  0.7818609E-02  0.8073784E-01
       -2   -1    0    0    0  501  0.00000000000E+00  0.00000000000E+00  0.14242351635E+04  0.14242351635E+04  0.25500000920E-02 0.  1.
        2   -1    0    0  501    0  0.00000000000E+00  0.00000000000E+00 -0.23691823142E+04  0.23691823142E+04  0.25500000920E-02 0. -1.
    10030    2    1    2    0    0  0.00000000000E+00  0.00000000000E+00 -0.94494715067E+03  0.37934174777E+04  0.36738387339E+04 0.  0.
        1    1    3    3  502    0  0.17371180681E+02  0.63926895667E+03 -0.22505291260E+04  0.23396255905E+04  0.50400001928E-02 0. -1.
       -1    1    3    3    0  502 -0.17371180681E+02 -0.63926895667E+03  0.13055819753E+04  0.14537918872E+04  0.50400001928E-02 0.  1.
</event>
<event>
 5   0  0.1379425E-06  0.3311894E+04  0.7818609E-02  0.8159876E-01
       -2   -1    0    0    0  501  0.00000000000E+00  0.00000000000E+00  0.13506154859E+04  0.13506154859E+04  0.25500000920E-02 0.  1.
        2   -1    0    0  501    0  0.00000000000E+00  0.00000000000E+00 -0.20303041503E+04  0.20303041503E+04  0.25500000920E-02 0. -1.
    10030    2    1    2    0    0  0.00000000000E+00  0.00000000000E+00 -0.67968866434E+03  0.33809196362E+04  0.33118938549E+04 0.  0.
        4    1    3    3  502    0 -0.15314021478E+04 -0.52511499374E+03 -0.69526784009E+03  0.17619129597E+04  0.12699999809E+01 0. -1.
       -4    1    3    3    0  502  0.15314021478E+04  0.52511499374E+03  0.15579175743E+02  0.16190066765E+04  0.12699999809E+01 0.  1.
</event>
<event>
 5   0  0.1468942E-06  0.3596645E+04  0.7818609E-02  0.8091261E-01
        2   -1    0    0  501    0  0.00000000000E+00  0.00000000000E+00  0.19901666177E+04  0.19901666177E+04  0.25500000920E-02 0.  1.
       -2   -1    0    0    0  501  0.00000000000E+00  0.00000000000E+00 -0.16249710217E+04  0.16249710217E+04  0.25500000920E-02 0. -1.
    10030    2    1    2    0    0  0.00000000000E+00  0.00000000000E+00  0.36519559604E+03  0.36151376394E+04  0.35966445930E+04 0.  0.
        2    1    3    3  502    0  0.58289996015E+03  0.62661029550E+03 -0.14071635306E+04  0.16469735966E+04  0.25500000920E-02 0. -1.
       -2    1    3    3    0  502 -0.58289996015E+03 -0.62661029550E+03  0.17723591266E+04  0.19681640429E+04  0.25500000920E-02 0.  1.
</event>
<event>
 5   0  0.1468942E-06  0.4013911E+04  0.7818609E-02  0.8001746E-01
       -2   -1    0    0    0  501  0.00000000000E+00  0.00000000000E+00  0.16818562056E+04  0.16818562056E+04  0.25500000920E-02 0. -1.
        2   -1    0    0  501    0  0.00000000000E+00  0.00000000000E+00 -0.23948960039E+04  0.23948960039E+04  0.25500000920E-02 0.  1.
    10030    2    1    2    0    0  0.00000000000E+00  0.00000000000E+00 -0.71303979833E+03  0.40767522095E+04  0.40139111629E+04 0.  0.
        2    1    3    3  502    0 -0.17839360864E+04  0.90201795396E+02  0.57285033656E+03  0.18758256402E+04  0.25500000920E-02 0. -1.
       -2    1    3    3    0  502  0.17839360864E+04 -0.90201795396E+02 -0.12858901349E+04  0.22009265693E+04  0.25500000920E-02 0.  1.
</event>
<event>
 5   0  0.1444091E-06  0.3561298E+04  0.7818609E-02  0.8099415E-01
       -2   -1    0    0    0  501  0.00000000000E+00  0.00000000000E+00  0.28772688049E+04  0.28772688049E+04  0.25500000920E-02 0. -1.
        2   -1    0    0  501    0  0.00000000000E+00  0.00000000000E+00 -0.11019862526E+04  0.11019862527E+04  0.25500000920E-02 0.  1.
    10030    2    1    2    0    0  0.00000000000E+00  0.00000000000E+00  0.17752825522E+04  0.39792550575E+04  0.35612978916E+04 0.  0.
        1    1    3    3  502    0 -0.19724769478E+03 -0.16733634934E+04  0.24415523833E+03  0.17025462739E+04  0.50400001928E-02 0.  1.
       -1    1    3    3    0  502  0.19724769478E+03  0.16733634934E+04  0.15311273139E+04  0.22767087837E+04  0.50400001928E-02 0. -1.
</event>
<event>
 5   0  0.4811500E-07  0.3423446E+04  0.7818609E-02  0.8132176E-01
       -1   -1    0    0    0  501  0.00000000000E+00  0.00000000000E+00  0.12624243605E+04  0.12624243605E+04  0.50400001928E-02 0.  1.
        1   -1    0    0  501    0  0.00000000000E+00  0.00000000000E+00 -0.23209277830E+04  0.23209277830E+04  0.50400001928E-02 0. -1.
    10030    2    1    2    0    0  0.00000000000E+00  0.00000000000E+00 -0.10585034225E+04  0.35833521436E+04  0.34234460839E+04 0.  0.
        5    1    3    3  502    0  0.42102170474E+03 -0.10243440101E+03 -0.22625658135E+04  0.23036879635E+04  0.46999998093E+01 0. -1.
       -5    1    3    3    0  502 -0.42102170474E+03  0.10243440101E+03  0.12040623910E+04  0.12796641801E+04  0.46999998093E+01 0.  1.
</event>
<event>
 5   0  0.5071661E-07  0.2935551E+04  0.7818609E-02  0.8262378E-01
       -1   -1    0    0    0  501  0.00000000000E+00  0.00000000000E+00  0.13442117232E+04  0.13442117232E+04  0.50400001928E-02 0. -1.
        1   -1    0    0  501    0  0.00000000000E+00  0.00000000000E+00 -0.16026976560E+04  0.16026976560E+04  0.50400001928E-02 0.  1.
    10030    2    1    2    0    0  0.00000000000E+00  0.00000000000E+00 -0.25848593284E+03  0.29469093792E+04  0.29355510405E+04 0.  0.
        1    1    3    3  502    0 -0.11487148304E+04 -0.91324164569E+03 -0.10069152632E+03  0.14709503216E+04  0.50400001928E-02 0. -1.
       -1    1    3    3    0  502  0.11487148304E+04  0.91324164569E+03 -0.15779440652E+03  0.14759590576E+04  0.50400001928E-02 0.  1.
</event>
<event>
 5   0  0.1444091E-06  0.2335486E+04  0.7818609E-02  0.8464060E-01
       -2   -1    0    0    0  501  0.00000000000E+00  0.00000000000E+00  0.11311177590E+04  0.11311177590E+04  0.25500000920E-02 0. -1.
        2   -1    0    0  501    0  0.00000000000E+00  0.00000000000E+00 -0.12055538080E+04  0.12055538080E+04  0.25500000920E-02 0.  1.
    10030    2    1    2    0    0  0.00000000000E+00  0.00000000000E+00 -0.74436049045E+02  0.23366715670E+04  0.23354856640E+04 0.  0.
        1    1    3    3  502    0 -0.70840002131E+03 -0.73430520150E+03  0.53103921569E+03  0.11502336144E+04  0.50400001928E-02 0.  1.
       -1    1    3    3    0  502  0.70840002131E+03  0.73430520150E+03 -0.60547526474E+03  0.11864379526E+04  0.50400001928E-02 0. -1.
</event>
<event>
 5   0  0.4811500E-07  0.3558309E+04  0.7818609E-02  0.8100109E-01
       -1   -1    0    0    0  501  0.00000000000E+00  0.00000000000E+00  0.16763518952E+04  0.16763518952E+04  0.50400001928E-02 0. -1.
        1   -1    0    0  501    0  0.00000000000E+00  0.00000000000E+00 -0.18882611824E+04  0.18882611824E+04  0.50400001928E-02 0.  1.
    10030    2    1    2    0    0  0.00000000000E+00  0.00000000000E+00 -0.21190928727E+03  0.35646130776E+04  0.35583087060E+04 0.  0.
        2    1    3    3  502    0  0.59994512337E+02  0.17591712810E+04  0.15355504264E+03  0.17668791947E+04  0.25500000920E-02 0. -1.
       -2    1    3    3    0  502 -0.59994512337E+02 -0.17591712810E+04 -0.36546432992E+03  0.17977338829E+04  0.25500000920E-02 0.  1.
</event>
<event>
 5   0  0.4811500E-07  0.3517466E+04  0.7818609E-02  0.8109663E-01
        1   -1    0    0  501    0  0.00000000000E+00  0.00000000000E+00  0.13711192811E+04  0.13711192811E+04  0.50400001928E-02 0. -1.
       -1   -1    0    0    0  501  0.00000000000E+00  0.00000000000E+00 -0.22559243303E+04  0.22559243303E+04  0.50400001928E-02 0.  1.
    10030    2    1    2    0    0  0.00000000000E+00  0.00000000000E+00 -0.88480504916E+03  0.36270436114E+04  0.35174657616E+04 0.  0.
        3    1    3    3  502    0  0.61841063840E+03  0.12325686827E+04  0.68315324158E+03  0.15389462749E+04  0.10100000352E+00 0. -1.
       -3    1    3    3    0  502 -0.61841063840E+03 -0.12325686827E+04 -0.15679582907E+04  0.20880973366E+04  0.10100000352E+00 0.  1.
</event>
<event>
 5   0  0.4811500E-07  0.3585678E+04  0.7818609E-02  0.8093780E-01
       -1   -1    0    0    0  501  0.00000000000E+00  0.00000000000E+00  0.14723139246E+04  0.14723139246E+04  0.50400001928E-02 0. -1.
        1   -1    0    0  501    0  0.00000000000E+00  0.00000000000E+00 -0.21831431613E+04  0.21831431614E+04  0.50400001928E-02 0.  1.
    10030    2    1    2    0    0  0.00000000000E+00  0.00000000000E+00 -0.71082923678E+03  0.36554570859E+04  0.35856782208E+04 0.  0.
        4    1    3    3  502    0 -0.10373804913E+04  0.14608808753E+04 -0.41939944373E+03  0.18401708405E+04  0.12699999809E+01 0. -1.
       -4    1    3    3    0  502  0.10373804913E+04 -0.14608808753E+04 -0.29142979306E+03  0.18152862455E+04  0.12699999809E+01 0.  1.
</event>
<event>
 5   0  0.1444091E-06  0.3624365E+04  0.7818609E-02  0.8084933E-01
       -2   -1    0    0    0  501  0.00000000000E+00  0.00000000000E+00  0.17670200075E+04  0.17670200075E+04  0.25500000920E-02 0. -1.
        2   -1    0    0  501    0  0.00000000000E+00  0.00000000000E+00 -0.18584993489E+04  0.18584993489E+04  0.25500000920E-02 0.  1.
    10030    2    1    2    0    0  0.00000000000E+00  0.00000000000E+00 -0.91479341437E+02  0.36255193564E+04  0.36243650663E+04 0.  0.
        1    1    3    3  502    0 -0.25901463342E+03  0.16926778154E+04 -0.63902110371E+03  0.18277293941E+04  0.50400001928E-02 0. -1.
       -1    1    3    3    0  502  0.25901463342E+03 -0.16926778154E+04  0.54754176227E+03  0.17977899623E+04  0.50400001928E-02 0.  1.
</event>
<event>
 5   0  0.4811500E-07  0.2662747E+04  0.7818609E-02  0.8347194E-01
       -1   -1    0    0    0  501  0.00000000000E+00  0.00000000000E+00  0.17405398842E+04  0.17405398842E+04  0.50400001928E-02 0.  1.
        1   -1    0    0  501    0  0.00000000000E+00  0.00000000000E+00 -0.10183939901E+04  0.10183939901E+04  0.50400001928E-02 0. -1.
    10030    2    1    2    0    0  0.00000000000E+00  0.00000000000E+00  0.72214589409E+03  0.27589338742E+04  0.26627469707E+04 0.  0.
        2    1    3    3  502    0 -0.78624182624E+03  0.80430212093E+03 -0.37703465715E+03  0.11862686221E+04  0.25500000920E-02 0. -1.
       -2    1    3    3    0  502  0.78624182624E+03 -0.80430212093E+03  0.10991805512E+04  0.15726652521E+04  0.25500000920E-02 0.  1.
</event>
<event>
 5   0  0.4811500E-07  0.3457642E+04  0.7818609E-02  0.8123902E-01
       -1   -1    0    0    0  501  0.00000000000E+00  0.00000000000E+00  0.20196196524E+04  0.20196196524E+04  0.50400001928E-02 0. -1.
        1   -1    0    0  501    0  0.00000000000E+00  0.00000000000E+00 -0.14798934902E+04  0.14798934902E+04  0.50400001928E-02 0.  1.
    10030    2    1    2    0    0  0.00000000000E+00  0.00000000000E+00  0.53972616224E+03  0.34995131426E+04  0.34576419574E+04 0.  0.
        3    1    3    3  502    0  0.10828905915E+04 -0.49132811071E+03 -0.10002304663E+04  0.15538714044E+04  0.10100000352E+00 0.  1.
       -3    1    3    3    0  502 -0.10828905915E+04  0.49132811071E+03  0.15399566285E+04  0.19456417382E+04  0.10100000352E+00 0. -1.
</event>
<event>
 5   0  0.4811500E-07  0.3587537E+04  0.7818609E-02  0.8093352E-01
       -1   -1    0    0    0  501  0.00000000000E+00  0.00000000000E+00  0.14383034696E+04  0.14383034696E+04  0.50400001928E-02 0.  1.
        1   -1    0    0  501    0  0.00000000000E+00  0.00000000000E+00 -0.22370840146E+04  0.22370840146E+04  0.50400001928E-02 0. -1.
    10030    2    1    2    0    0  0.00000000000E+00  0.00000000000E+00 -0.79878054501E+03  0.36753874843E+04  0.35875371497E+04 0.  0.
        5    1    3    3  502    0  0.12970735513E+04  0.92891111038E+03  0.44063209892E+03  0.16551297185E+04  0.46999998093E+01 0.  1.
       -5    1    3    3    0  502 -0.12970735513E+04 -0.92891111038E+03 -0.12394126439E+04  0.20202577658E+04  0.46999998093E+01 0. -1.
</event>
<event>
 5   0  0.1444091E-06  0.3613625E+04  0.7818609E-02  0.8087378E-01
       -2   -1    0    0    0  501  0.00000000000E+00  0.00000000000E+00  0.15674463816E+04  0.15674463816E+04  0.25500000920E-02 0.  1.
        2   -1    0    0  501    0  0.00000000000E+00  0.00000000000E+00 -0.20827329268E+04  0.20827329268E+04  0.25500000920E-02 0. -1.
    10030    2    1    2    0    0  0.00000000000E+00  0.00000000000E+00 -0.51528654523E+03  0.36501793084E+04  0.36136254316E+04 0.  0.
        1    1    3    3  502    0  0.12159760080E+04 -0.13273196230E+04 -0.10051540034E+03  0.18029083114E+04  0.50400001928E-02 0. -1.
       -1    1    3    3    0  502 -0.12159760080E+04  0.13273196230E+04 -0.41477114489E+03  0.18472709970E+04  0.50400001928E-02 0.  1.
</event>
<event>
 5   0  0.4811500E-07  0.3580767E+04  0.7818609E-02  0.8094912E-01
        3   -1    0    0  501    0  0.00000000000E+00  0.00000000000E+00  0.12266992274E+04  0.12266992316E+04  0.10100000352E+00 0. -1.
       -3   -1    0    0    0  501  0.00000000000E+00  0.00000000000E+00 -0.26130879588E+04  0.26130879608E+04  0.10100000352E+00 0.  1.
    10030    2    1    2    0    0  0.00000000000E+00  0.00000000000E+00 -0.13863887314E+04  0.38397871924E+04  0.35807669525E+04 0.  0.
        1    1    3    3  502    0 -0.24533915339E+03  0.15358715577E+04  0.25773311423E+03  0.15765529170E+04  0.50400001928E-02 0. -1.
       -1    1    3    3    0  502  0.24533915339E+03 -0.15358715577E+04 -0.16441218456E+04  0.22632342754E+04  0.50400001928E-02 0.  1.
</event>
<event>
 5   0  0.4811500E-07  0.3410056E+04  0.7818609E-02  0.8135443E-01
       -1   -1    0    0    0  501  0.00000000000E+00  0.00000000000E+00  0.13840506865E+04  0.13840506865E+04  0.50400001928E-02 0.  1.
        1   -1    0    0  501    0  0.00000000000E+00  0.00000000000E+00 -0.21004432594E+04  0.21004432594E+04  0.50400001928E-02 0. -1.
    10030    2    1    2    0    0  0.00000000000E+00  0.00000000000E+00 -0.71639257286E+03  0.34844939459E+04  0.34100556800E+04 0.  0.
        5    1    3    3  502    0  0.44382206352E+03  0.95853673475E+03  0.10094245159E+04  0.14610717433E+04  0.46999998093E+01 0.  1.
       -5    1    3    3    0  502 -0.44382206352E+03 -0.95853673475E+03 -0.17258170887E+04  0.20234222025E+04  0.46999998093E+01 0. -1.
</event>
<event>
 5   0  0.1468942E-06  0.2498424E+04  0.7818609E-02  0.8403547E-01
       -2   -1    0    0    0  501  0.00000000000E+00  0.00000000000E+00  0.16512943865E+04  0.16512943865E+04  0.25500000920E-02 0.  1.
        2   -1    0    0  501    0  0.00000000000E+00  0.00000000000E+00 -0.94503502461E+03  0.94503502461E+03  0.25500000920E-02 0. -1.
    10030    2    1    2    0    0  0.00000000000E+00  0.00000000000E+00  0.70625936188E+03  0.25963294111E+04  0.24984243284E+04 0.  0.
        2    1    3    3  502    0 -0.17894984383E+03 -0.86853485401E+03 -0.56121008494E+03  0.10494439474E+04  0.25500000920E-02 0. -1.
       -2    1    3    3    0  502  0.17894984383E+03  0.86853485401E+03  0.12674694468E+04  0.15468854637E+04  0.25500000920E-02 0.  1.
</event>
<event>
 5   0  0.4811500E-07  0.3577837E+04  0.7818609E-02  0.8095587E-01
        1   -1    0    0  501    0  0.00000000000E+00  0.00000000000E+00  0.17755626614E+04  0.17755626614E+04  0.50400001928E-02 0. -1.
       -1   -1    0    0    0  501  0.00000000000E+00  0.00000000000E+00 -0.18023749406E+04  0.18023749406E+04  0.50400001928E-02 0.  1.
    10030    2    1    2    0    0  0.00000000000E+00  0.00000000000E+00 -0.26812279229E+02  0.35779376020E+04  0.35778371380E+04 0.  0.
        2    1    3    3  502    0  0.10140391211E+04  0.96682497267E+03 -0.11257339963E+04  0.17973043419E+04  0.25500000920E-02 0.  1.
       -2    1    3    3    0  502 -0.10140391211E+04 -0.96682497267E+03  0.10989217170E+04  0.17806332602E+04  0.25500000920E-02 0. -1.
</event>
<event>
 5   0  0.1491854E-06  0.3597901E+04  0.7818609E-02  0.8090973E-01
        2   -1    0    0  501    0  0.00000000000E+00  0.00000000000E+00  0.24382522828E+04  0.24382522828E+04  0.25500000920E-02 0. -1.
       -2   -1    0    0    0  501  0.00000000000E+00  0.00000000000E+00 -0.13272713722E+04  0.13272713722E+04  0.25500000920E-02 0.  1.
    10030    2    1    2    0    0  0.00000000000E+00  0.00000000000E+00  0.11109809106E+04  0.37655236550E+04  0.35979007508E+04 0.  0.
        5    1    3    3  502    0  0.12922441530E+04  0.12025583658E+04  0.19270157031E+03  0.17757245167E+04  0.46999998093E+01 0. -1.
       -5    1    3    3    0  502 -0.12922441530E+04 -0.12025583658E+04  0.91827934033E+03  0.19897991383E+04  0.46999998093E+01 0.  1.
</event>
<event>
 5   0  0.1379425E-06  0.3641444E+04  0.7818609E-02  0.8081064E-01
       -2   -1    0    0    0  501  0.00000000000E+00  0.00000000000E+00  0.13650013726E+04  0.13650013726E+04  0.25500000920E-02 0.  1.
        2   -1    0    0  501    0  0.00000000000E+00  0.00000000000E+00 -0.24285901413E+04  0.24285901413E+04  0.25500000920E-02 0. -1.
    10030    2    1    2    0    0  0.00000000000E+00  0.00000000000E+00 -0.10635887687E+04  0.37935915140E+04  0.36414441512E+04 0.  0.
        4    1    3    3  502    0  0.16782901596E+04 -0.57603492425E+03 -0.95695532850E+03  0.20159958352E+04  0.12699999809E+01 0.  1.
       -4    1    3    3    0  502 -0.16782901596E+04  0.57603492425E+03 -0.10663344018E+03  0.17775956788E+04  0.12699999809E+01 0. -1.
</event>
<event>
 5   0  0.1379425E-06  0.3969505E+04  0.7818609E-02  0.8010727E-01
        2   -1    0    0  501    0  0.00000000000E+00  0.00000000000E+00  0.17674056073E+04  0.17674056073E+04  0.25500000920E-02 0. -1.
       -2   -1    0    0    0  501  0.00000000000E+00  0.00000000000E+00 -0.22288273536E+04  0.22288273536E+04  0.25500000920E-02 0.  1.
    10030    2    1    2    0    0  0.00000000000E+00  0.00000000000E+00 -0.46142174628E+03  0.39962329608E+04  0.39695047360E+04 0.  0.
        4    1    3    3  502    0  0.12474638842E+04  0.18007951794E+03  0.13127941568E+04  0.18198969439E+04  0.12699999809E+01 0. -1.
       -4    1    3    3    0  502 -0.12474638842E+04 -0.18007951794E+03 -0.17742159030E+04  0.21763360170E+04  0.12699999809E+01 0.  1.
</event>
<event>
 5   0  0.4811500E-07  0.2472909E+04  0.7818609E-02  0.8412701E-01
        1   -1    0    0  501    0  0.00000000000E+00  0.00000000000E+00  0.14095739272E+04  0.14095739272E+04  0.50400001928E-02 0. -1.
       -1   -1    0    0    0  501  0.00000000000E+00  0.00000000000E+00 -0.10845974591E+04  0.10845974591E+04  0.50400001928E-02 0.  1.
    10030    2    1    2    0    0  0.00000000000E+00  0.00000000000E+00  0.32497646811E+03  0.24941713862E+04  0.24729094604E+04 0.  0.
        5    1    3    3  502    0  0.88675028692E+03 -0.61399232199E+03  0.77224017616E+03  0.13265329331E+04  0.46999998093E+01 0. -1.
       -5    1    3    3    0  502 -0.88675028692E+03  0.61399232199E+03 -0.44726370805E+03  0.11676384532E+04  0.46999998093E+01 0.  1.
</event>
<event>
 5   0  0.4811500E-07  0.3072756E+04  0.7818609E-02  0.8223255E-01
        1   -1    0    0  501    0  0.00000000000E+00  0.00000000000E+00  0.17095218643E+04  0.17095218643E+04  0.50400001928E-02 0. -1.
       -1   -1    0    0    0  501  0.00000000000E+00  0.00000000000E+00 -0.13807708068E+04  0.13807708068E+04  0.50400001928E-02 0.  1.
    10030    2    1    2    0    0  0.00000000000E+00  0.00000000000E+00  0.32875105755E+03  0.30902926711E+04  0.30727563416E+04 0.  0.
        5    1    3    3  502    0  0.12110247225E+03 -0.32358669670E+03  0.16699366412E+04  0.17053107150E+04  0.46999998093E+01 0. -1.
       -5    1    3    3    0  502 -0.12110247225E+03  0.32358669670E+03 -0.13411855836E+04  0.13849819561E+04  0.46999998093E+01 0.  1.
</event>
<event>
 5   0  0.4811500E-07  0.3596475E+04  0.7818609E-02  0.8091300E-01
        1   -1    0    0  501    0  0.00000000000E+00  0.00000000000E+00  0.24707176563E+04  0.24707176563E+04  0.50400001928E-02 0. -1.
       -1   -1    0    0    0  501  0.00000000000E+00  0.00000000000E+00 -0.13087929026E+04  0.13087929026E+04  0.50400001928E-02 0.  1.
    10030    2    1    2    0    0  0.00000000000E+00  0.00000000000E+00  0.11619247537E+04  0.37795105589E+04  0.35964747923E+04 0.  0.
        5    1    3    3  502    0 -0.67968876935E+03  0.12910953244E+04  0.16855163624E+04  0.22293253369E+04  0.46999998093E+01 0. -1.
       -5    1    3    3    0  502  0.67968876935E+03 -0.12910953244E+04 -0.52359160870E+03  0.15501852220E+04  0.46999998093E+01 0.  1.
</event>
<event>
 5   0  0.1379425E-06  0.2877209E+04  0.7818609E-02  0.8279691E-01
       -2   -1    0    0    0  501  0.00000000000E+00  0.00000000000E+00  0.11542861223E+04  0.11542861223E+04  0.25500000920E-02 0. -1.
        2   -1    0    0  501    0  0.00000000000E+00  0.00000000000E+00 -0.17929552256E+04  0.17929552256E+04  0.25500000920E-02 0.  1.
    10030    2    1    2    0    0  0.00000000000E+00  0.00000000000E+00 -0.63866910323E+03  0.29472413479E+04  0.28772092971E+04 0.  0.
        4    1    3    3  502    0 -0.74186887684E+02  0.13642243358E+04  0.14215318066E+03  0.13736159843E+04  0.12699999809E+01 0. -1.
       -4    1    3    3    0  502  0.74186887684E+02 -0.13642243358E+04 -0.78082228390E+03  0.15736253635E+04  0.12699999809E+01 0.  1.
</event>
<event>
 5   0  0.1491854E-06  0.3615340E+04  0.7818609E-02  0.8086987E-01
       -2   -1    0    0    0  501  0.00000000000E+00  0.00000000000E+00  0.16038130634E+04  0.16038130634E+04  0.25500000920E-02 0.  1.
        2   -1    0    0  501    0  0.00000000000E+00  0.00000000000E+00 -0.20374391334E+04  0.20374391334E+04  0.25500000920E-02 0. -1.
    10030    2    1    2    0    0  0.00000000000E+00  0.00000000000E+00 -0.43362607002E+03  0.36412521968E+04  0.36153403701E+04 0.  0.
        5    1    3    3  502    0 -0.14093658723E+04  0.49566920413E+03 -0.12417754117E+04  0.19426858689E+04  0.46999998093E+01 0. -1.
       -5    1    3    3    0  502  0.14093658723E+04 -0.49566920413E+03  0.80814934166E+03  0.16985663279E+04  0.46999998093E+01 0.  1.
</event>
<event>
 5   0  0.4811500E-07  0.3585367E+04  0.7818609E-02  0.8093852E-01
        1   -1    0    0  501    0  0.00000000000E+00  0.00000000000E+00  0.11644417944E+04  0.11644417944E+04  0.50400001928E-02 0.  1.
       -1   -1    0    0    0  501  0.00000000000E+00  0.00000000000E+00 -0.27598759816E+04  0.27598759816E+04  0.50400001928E-02 0. -1.
    10030    2    1    2    0    0  0.00000000000E+00  0.00000000000E+00 -0.15954341871E+04  0.39243177760E+04  0.35853674514E+04 0.  0.
        3    1    3    3  502    0  0.81181233350E+03  0.80744100800E+02  0.94948647053E+03  0.12518320345E+04  0.10100000352E+00 0.  1.
       -3    1    3    3    0  502 -0.81181233350E+03 -0.80744100800E+02 -0.25449206577E+04  0.26724857415E+04  0.10100000352E+00 0. -1.
</event>
<event>
 5   0  0.1379425E-06  0.3529993E+04  0.7818609E-02  0.8106719E-01
       -2   -1    0    0    0  501  0.00000000000E+00  0.00000000000E+00  0.19090532301E+04  0.19090532301E+04  0.25500000920E-02 0.  1.
        2   -1    0    0  501    0  0.00000000000E+00  0.00000000000E+00 -0.16318103506E+04  0.16318103506E+04  0.25500000920E-02 0. -1.
    10030    2    1    2    0    0  0.00000000000E+00  0.00000000000E+00  0.27724287957E+03  0.35408635807E+04  0.35299930995E+04 0.  0.
        4    1    3    3  502    0  0.12437331244E+04  0.98840339262E+03  0.91001358377E+03  0.18308303271E+04  0.12699999809E+01 0.  1.
       -4    1    3    3    0  502 -0.12437331244E+04 -0.98840339262E+03 -0.63277070420E+03  0.17100332535E+04  0.12699999809E+01 0. -1.
</event>
<event>
 5   0  0.1444091E-06  0.3598787E+04  0.7818609E-02  0.8090770E-01
       -2   -1    0    0    0  501  0.00000000000E+00  0.00000000000E+00  0.12575966140E+04  0.12575966140E+04  0.25500000920E-02 0.  1.
        2   -1    0    0  501    0  0.00000000000E+00  0.00000000000E+00 -0.25746069552E+04  0.25746069552E+04  0.25500000920E-02 0. -1.
    10030    2    1    2    0    0  0.00000000000E+00  0.00000000000E+00 -0.13170103412E+04  0.38322035692E+04  0.35987870119E+04 0.  0.
        1    1    3    3  502    0  0.19991641743E+03 -0.50852049982E+03 -0.24841287256E+04  0.25435123742E+04  0.50400001928E-02 0. -1.
       -1    1    3    3    0  502 -0.19991641743E+03  0.50852049982E+03  0.11671183844E+04  0.12886911949E+04  0.50400001928E-02 0.  1.
</event>
<event>
 5   0  0.5071661E-07  0.3551827E+04  0.7818609E-02  0.8101616E-01
        1   -1    0    0  501    0  0.00000000000E+00  0.00000000000E+00  0.18099839579E+04  0.18099839579E+04  0.50400001928E-02 0. -1.
       -1   -1    0    0    0  501  0.00000000000E+00  0.00000000000E+00 -0.17424840244E+04  0.17424840244E+04  0.50400001928E-02 0.  1.
    10030    2    1    2    0    0  0.00000000000E+00  0.00000000000E+00  0.67499933500E+02  0.35524679824E+04  0.35518266462E+04 0.  0.
        1    1    3    3  502    0 -0.17707244386E+04  0.12024168974E+03  0.96570779728E+02  0.17774276404E+04  0.50400001928E-02 0.  1.
       -1    1    3    3    0  502  0.17707244386E+04 -0.12024168974E+03 -0.29070846228E+02  0.17750403419E+04  0.50400001928E-02 0. -1.
</event>
<event>
 5   0  0.1505671E-06  0.3081559E+04  0.7818609E-02  0.8220817E-01
        2   -1    0    0  501    0  0.00000000000E+00  0.00000000000E+00  0.17820814342E+04  0.17820814342E+04  0.25500000920E-02 0. -1.
       -2   -1    0    0    0  501  0.00000000000E+00  0.00000000000E+00 -0.13321507075E+04  0.13321507075E+04  0.25500000920E-02 0.  1.
    10030    2    1    2    0    0  0.00000000000E+00  0.00000000000E+00  0.44993072670E+03  0.31142321417E+04  0.30815587247E+04 0.  0.
        3    1    3    3  502    0 -0.13046469275E+04 -0.65155775849E+03  0.72760180733E+03  0.16297348000E+04  0.10100000352E+00 0. -1.
       -3    1    3    3    0  502  0.13046469275E+04  0.65155775849E+03 -0.27767108063E+03  0.14844973417E+04  0.10100000352E+00 0.  1.
</event>
<event>
 5   0  0.4811500E-07  0.3111570E+04  0.7818609E-02  0.8212570E-01
       -1   -1    0    0    0  501  0.00000000000E+00  0.00000000000E+00  0.17449098159E+04  0.17449098159E+04  0.50400001928E-02 0. -1.
        1   -1    0    0  501    0  0.00000000000E+00  0.00000000000E+00 -0.13871588583E+04  0.13871588583E+04  0.50400001928E-02 0.  1.
    10030    2    1    2    0    0  0.00000000000E+00  0.00000000000E+00  0.35775095761E+03  0.31320686743E+04  0.31115700912E+04 0.  0.
        3    1    3    3  502    0  0.84679153888E+03 -0.63850255638E+03  0.13246739000E+04  0.16969096547E+04  0.10100000352E+00 0. -1.
       -3    1    3    3    0  502 -0.84679153888E+03  0.63850255638E+03 -0.96692294234E+03  0.14351590196E+04  0.10100000352E+00 0.  1.
</event>
<event>
 5   0  0.4811500E-07  0.3536716E+04  0.7818609E-02  0.8105143E-01
        1   -1    0    0  501    0  0.00000000000E+00  0.00000000000E+00  0.23092413525E+04  0.23092413525E+04  0.50400001928E-02 0.  1.
       -1   -1    0    0    0  501  0.00000000000E+00  0.00000000000E+00 -0.13541637311E+04  0.13541637311E+04  0.50400001928E-02 0. -1.
    10030    2    1    2    0    0  0.00000000000E+00  0.00000000000E+00  0.95507762144E+03  0.36634050837E+04  0.35367164919E+04 0.  0.
        5    1    3    3  502    0 -0.76962112647E+03  0.14775226249E+04 -0.13672923053E+03  0.16715581826E+04  0.46999998093E+01 0.  1.
       -5    1    3    3    0  502  0.76962112647E+03 -0.14775226249E+04  0.10918068520E+04  0.19918469011E+04  0.46999998093E+01 0. -1.
</event>
<event>
 5   0  0.5071661E-07  0.2296112E+04  0.7818609E-02  0.8479455E-01
        1   -1    0    0  501    0  0.00000000000E+00  0.00000000000E+00  0.93818724023E+03  0.93818724024E+03  0.50400001928E-02 0. -1.
       -1   -1    0    0    0  501  0.00000000000E+00  0.00000000000E+00 -0.14048721350E+04  0.14048721350E+04  0.50400001928E-02 0.  1.
    10030    2    1    2    0    0  0.00000000000E+00  0.00000000000E+00 -0.46668489476E+03  0.23430593752E+04  0.22961124635E+04 0.  0.
        1    1    3    3  502    0 -0.57002596633E+03 -0.98659959507E+03 -0.90026054425E+02  0.11429842754E+04  0.50400001928E-02 0. -1.
       -1    1    3    3    0  502  0.57002596633E+03  0.98659959507E+03 -0.37665884034E+03  0.12000750999E+04  0.50400001928E-02 0.  1.
</event>
<event>
 5   0  0.5071661E-07  0.3601457E+04  0.7818609E-02  0.8090158E-01
        1   -1    0    0  501    0  0.00000000000E+00  0.00000000000E+00  0.22760117678E+04  0.22760117678E+04  0.50400001928E-02 0.  1.
       -1   -1    0    0    0  501  0.00000000000E+00  0.00000000000E+00 -0.14246951289E+04  0.14246951289E+04  0.50400001928E-02 0. -1.
    10030    2    1    2    0    0  0.00000000000E+00  0.00000000000E+00  0.85131663884E+03  0.37007068967E+04  0.36014568602E+04 0.  0.
        1    1    3    3  502    0 -0.69819773846E+03  0.59465572702E+03 -0.11667346160E+04  0.14840367852E+04  0.50400001928E-02 0. -1.
       -1    1    3    3    0  502  0.69819773846E+03 -0.59465572702E+03  0.20180512549E+04  0.22166701115E+04  0.50400001928E-02 0.  1.
</event>
<event>
 5   0  0.1505671E-06  0.2296154E+04  0.7818609E-02  0.8479439E-01
       -2   -1    0    0    0  501  0.00000000000E+00  0.00000000000E+00  0.15061624465E+04  0.15061624465E+04  0.25500000920E-02 0.  1.
        2   -1    0    0  501    0  0.00000000000E+00  0.00000000000E+00 -0.87512502296E+03  0.87512502296E+03  0.25500000920E-02 0. -1.
    10030    2    1    2    0    0  0.00000000000E+00  0.00000000000E+00  0.63103742354E+03  0.23812874695E+04  0.22961536931E+04 0.  0.
        3    1    3    3  502    0  0.80594746000E+03 -0.81655658703E+03  0.27195572211E+03  0.11790996112E+04  0.10100000352E+00 0.  1.
       -3    1    3    3    0  502 -0.80594746000E+03  0.81655658703E+03  0.35908170143E+03  0.12021878583E+04  0.10100000352E+00 0. -1.
</event>
<event>
 5   0  0.5071661E-07  0.3367183E+04  0.7818609E-02  0.8146008E-01
       -1   -1    0    0    0  501  0.00000000000E+00  0.00000000000E+00  0.16895741177E+04  0.16895741177E+04  0.50400001928E-02 0. -1.
        1   -1    0    0  501    0  0.00000000000E+00  0.00000000000E+00 -0.16776300273E+04  0.16776300273E+04  0.50400001928E-02 0.  1.
    10030    2    1    2    0    0  0.00000000000E+00  0.00000000000E+00  0.11944090422E+02  0.33672041450E+04  0.33671829610E+04 0.  0.
        1    1    3    3  502    0 -0.42377411409E+03 -0.88305234172E+03 -0.13633847122E+04  0.16787447130E+04  0.50400001928E-02 0.  1.
       -1    1    3    3    0  502  0.42377411409E+03  0.88305234172E+03  0.13753288026E+04  0.16884594320E+04  0.50400001928E-02 0. -1.
</event>
<event>
 5   0  0.4811500E-07  0.3578492E+04  0.7818609E-02  0.8095436E-01
        1   -1    0    0  501    0  0.00000000000E+00  0.00000000000E+00  0.19703268639E+04  0.19703268639E+04  0.50400001928E-02 0. -1.
       -1   -1    0    0    0  501  0.00000000000E+00  0.00000000000E+00 -0.16248070359E+04  0.16248070359E+04  0.50400001928E-02 0.  1.
    10030    2    1    2    0    0  0.00000000000E+00  0.00000000000E+00  0.34551982794E+03  0.35951338998E+04  0.35784918340E+04 0.  0.
        2    1    3    3  502    0  0.16276418041E+04 -0.74293530679E+03  0.15751571753E+03  0.17961018662E+04  0.25500000920E-02 0. -1.
       -2    1    3    3    0  502 -0.16276418041E+04  0.74293530679E+03  0.18800411041E+03  0.17990320336E+04  0.25500000920E-02 0.  1.
</event>
<event>
 5   0  0.4811500E-07  0.3626253E+04  0.7818609E-02  0.8084504E-01
        1   -1    0    0  501    0  0.00000000000E+00  0.00000000000E+00  0.21316854058E+04  0.21316854058E+04  0.50400001928E-02 0.  1.
       -1   -1    0    0    0  501  0.00000000000E+00  0.00000000000E+00 -0.15421729302E+04  0.15421729302E+04  0.50400001928E-02 0. -1.
    10030    2    1    2    0    0  0.00000000000E+00  0.00000000000E+00  0.58951247561E+03  0.36738583360E+04  0.36262529026E+04 0.  0.
        3    1    3    3  502    0  0.77253194123E+03  0.10169392923E+04  0.15986863664E+04  0.20461596303E+04  0.10100000352E+00 0.  1.
       -3    1    3    3    0  502 -0.77253194123E+03 -0.10169392923E+04 -0.10091738908E+04  0.16276987057E+04  0.10100000352E+00 0. -1.
</event>
<event>
 5   0  0.1379425E-06  0.3541794E+04  0.7818609E-02  0.8103956E-01
        2   -1    0    0  501    0  0.00000000000E+00  0.00000000000E+00  0.20915547378E+04  0.20915547378E+04  0.25500000920E-02 0.  1.
       -2   -1    0    0    0  501  0.00000000000E+00  0.00000000000E+00 -0.14993991474E+04  0.14993991474E+04  0.25500000920E-02 0. -1.
    10030    2    1    2    0    0  0.00000000000E+00  0.00000000000E+00  0.59215559040E+03  0.35909538853E+04  0.35417935517E+04 0.  0.
        4    1    3    3  502    0  0.15208052338E+04  0.32043579721E+03  0.11567097687E+04  0.19373969034E+04  0.12699999809E+01 0.  1.
       -4    1    3    3    0  502 -0.15208052338E+04 -0.32043579721E+03 -0.56455417825E+03  0.16535569819E+04  0.12699999809E+01 0. -1.
</event>
<event>
 5   0  0.1505671E-06  0.3595146E+04  0.7818609E-02  0.8091604E-01
        2   -1    0    0  501    0  0.00000000000E+00  0.00000000000E+00  0.25018387128E+04  0.25018387128E+04  0.25500000920E-02 0.  1.
       -2   -1    0    0    0  501  0.00000000000E+00  0.00000000000E+00 -0.12915577438E+04  0.12915577438E+04  0.25500000920E-02 0. -1.
    10030    2    1    2    0    0  0.00000000000E+00  0.00000000000E+00  0.12102809690E+04  0.37933964565E+04  0.35951462630E+04 0.  0.
        3    1    3    3  502    0 -0.14022003621E+04 -0.85155537351E+03  0.13804786371E+04  0.21440694222E+04  0.10100000352E+00 0.  1.
       -3    1    3    3    0  502  0.14022003621E+04  0.85155537351E+03 -0.17019766810E+03  0.16493270343E+04  0.10100000352E+00 0. -1.
</event>
<event>
 5   0  0.4811500E-07  0.3605628E+04  0.7818609E-02  0.8089204E-01
       -1   -1    0    0    0  501  0.00000000000E+00  0.00000000000E+00  0.13108028458E+04  0.13108028458E+04  0.50400001928E-02 0. -1.
        1   -1    0    0  501    0  0.00000000000E+00  0.00000000000E+00 -0.24795016633E+04  0.24795016633E+04  0.50400001928E-02 0.  1.
    10030    2    1    2    0    0  0.00000000000E+00  0.00000000000E+00 -0.11686988175E+04  0.37903045091E+04  0.36056277325E+04 0.  0.
        4    1    3    3  502    0  0.16704180763E+04 -0.32925383757E+03  0.38830741812E+02  0.17030014911E+04  0.12699999809E+01 0. -1.
       -4    1    3    3    0  502 -0.16704180763E+04  0.32925383757E+03 -0.12075295593E+04  0.20873030180E+04  0.12699999809E+01 0.  1.
</event>
<event>
 5   0  0.5892841E-07  0.2222808E+04  0.7818609E-02  0.8508994E-01
       -1   -1    0    0    0  501  0.00000000000E+00  0.00000000000E+00  0.96509850050E+03  0.96509850052E+03  0.50400001928E-02 0. -1.
        1   -1    0    0  501    0  0.00000000000E+00  0.00000000000E+00 -0.12798889553E+04  0.12798889553E+04  0.50400001928E-02 0.  1.
    10030    2    1    2    0    0  0.00000000000E+00  0.00000000000E+00 -0.31479045479E+03  0.22449874558E+04  0.22228080543E+04 0.  0.
        2    1    3    3  502    0 -0.33884435185E+03  0.45501690756E+03  0.80784112864E+03  0.98714901108E+03  0.25500000920E-02 0. -1.
       -2    1    3    3    0  502  0.33884435185E+03 -0.45501690756E+03 -0.11226315834E+04  0.12578384447E+04  0.25500000920E-02 0.  1.
</event>
<event>
 5   0  0.4811500E-07  0.3873079E+04  0.7818609E-02  0.8030652E-01
        1   -1    0    0  501    0  0.00000000000E+00  0.00000000000E+00  0.19828730651E+04  0.19828730651E+04  0.50400001928E-02 0.  1.
       -1   -1    0    0    0  501  0.00000000000E+00  0.00000000000E+00 -0.18912889742E+04  0.18912889742E+04  0.50400001928E-02 0. -1.
    10030    2    1    2    0    0  0.00000000000E+00  0.00000000000E+00  0.91584090928E+02  0.38741620393E+04  0.38730793770E+04 0.  0.
        4    1    3    3  502    0  0.47075146651E+03 -0.59896529644E+03  0.18266879948E+04  0.19791808944E+04  0.12699999809E+01 0.  1.
       -4    1    3    3    0  502 -0.47075146651E+03  0.59896529644E+03 -0.17351039038E+04  0.18949811449E+04  0.12699999809E+01 0. -1.
</event>
<event>
 5   0  0.5071661E-07  0.2962510E+04  0.7818609E-02  0.8254518E-01
       -1   -1    0    0    0  501  0.00000000000E+00  0.00000000000E+00  0.11220385199E+04  0.11220385199E+04  0.50400001928E-02 0. -1.
        1   -1    0    0  501    0  0.00000000000E+00  0.00000000000E+00 -0.19554729225E+04  0.19554729225E+04  0.50400001928E-02 0.  1.
    10030    2    1    2    0    0  0.00000000000E+00  0.00000000000E+00 -0.83343440256E+03  0.30775114424E+04  0.29625097088E+04 0.  0.
        1    1    3    3  502    0 -0.94755388810E+03  0.35933506068E+03  0.70556120173E+03  0.12348265733E+04  0.50400001928E-02 0. -1.
       -1    1    3    3    0  502  0.94755388810E+03 -0.35933506068E+03 -0.15389956043E+04  0.18426848691E+04  0.50400001928E-02 0.  1.
</event>
<event>
 5   0  0.4811500E-07  0.3491427E+04  0.7818609E-02  0.8115825E-01
        1   -1    0    0  501    0  0.00000000000E+00  0.00000000000E+00  0.16208541439E+04  0.16208541439E+04  0.50400001928E-02 0. -1.
       -1   -1    0    0    0  501  0.00000000000E+00  0.00000000000E+00 -0.18801915773E+04  0.18801915773E+04  0.50400001928E-02 0.  1.
    10030    2    1    2    0    0  0.00000000000E+00  0.00000000000E+00 -0.25933743342E+03  0.35010457212E+04  0.34914273925E+04 0.  0.
        5    1    3    3  502    0  0.13222924731E+04  0.41216056119E+02  0.10124765623E+04  0.16659192739E+04  0.46999998093E+01 0. -1.
       -5    1    3    3    0  502 -0.13222924731E+04 -0.41216056119E+02 -0.12718139957E+04  0.18351264473E+04  0.46999998093E+01 0.  1.
</event>
<event>
 5   0  0.4811500E-07  0.3630876E+04  0.7818609E-02  0.8083456E-01
       -1   -1    0    0    0  501  0.00000000000E+00  0.00000000000E+00  0.16810517386E+04  0.16810517386E+04  0.50400001928E-02 0. -1.
        1   -1    0    0  501    0  0.00000000000E+00  0.00000000000E+00 -0.19605670644E+04  0.19605670644E+04  0.50400001928E-02 0.  1.
    10030    2    1    2    0    0  0.00000000000E+00  0.00000000000E+00 -0.27951532581E+03  0.36416188031E+04  0.36308757469E+04 0.  0.
        4    1    3    3  502    0  0.58906163185E+03 -0.71735918021E+03 -0.17045711696E+04  0.19409178975E+04  0.12699999809E+01 0.  1.
       -4    1    3    3    0  502 -0.58906163185E+03  0.71735918021E+03  0.14250558438E+04  0.17007009056E+04  0.12699999809E+01 0. -1.
</event>
<event>
 5   0  0.1379425E-06  0.3489855E+04  0.7818609E-02  0.8116198E-01
       -2   -1    0    0    0  501  0.00000000000E+00  0.00000000000E+00  0.16019325921E+04  0.16019325921E+04  0.25500000920E-02 0.  1.
        2   -1    0    0  501    0  0.00000000000E+00  0.00000000000E+00 -0.19006870046E+04  0.19006870046E+04  0.25500000920E-02 0. -1.
    10030    2    1    2    0    0  0.00000000000E+00  0.00000000000E+00 -0.29875441242E+03  0.35026195967E+04  0.34898552750E+04 0.  0.
        4    1    3    3  502    0  0.11607119464E+04  0.19354693569E+03  0.11437677622E+04  0.16410115617E+04  0.12699999809E+01 0.  1.
       -4    1    3    3    0  502 -0.11607119464E+04 -0.19354693569E+03 -0.14425221746E+04  0.18616080350E+04  0.12699999809E+01 0. -1.
</event>
<event>
 5   0  0.4811500E-07  0.3570293E+04  0.7818609E-02  0.8097331E-01
       -3   -1    0    0    0  501  0.00000000000E+00  0.00000000000E+00  0.15191560146E+04  0.15191560179E+04  0.10100000352E+00 0.  1.
        3   -1    0    0  501    0  0.00000000000E+00  0.00000000000E+00 -0.20977092994E+04  0.20977093018E+04  0.10100000352E+00 0. -1.
    10030    2    1    2    0    0  0.00000000000E+00  0.00000000000E+00 -0.57855328483E+03  0.36168653198E+04  0.35702928224E+04 0.  0.
        5    1    3    3  502    0  0.13047752997E+04 -0.20729322687E+03  0.92693228787E+03  0.16138880447E+04  0.46999998093E+01 0.  1.
       -5    1    3    3    0  502 -0.13047752997E+04  0.20729322687E+03 -0.15054855727E+04  0.20029772750E+04  0.46999998093E+01 0. -1.
</event>
<event>
 5   0  0.1379425E-06  0.3616297E+04  0.7818609E-02  0.8086769E-01
        2   -1    0    0  501    0  0.00000000000E+00  0.00000000000E+00  0.15372567479E+04  0.15372567479E+04  0.25500000920E-02 0. -1.
       -2   -1    0    0    0  501  0.00000000000E+00  0.00000000000E+00 -0.21267762394E+04  0.21267762394E+04  0.25500000920E-02 0.  1.
    10030    2    1    2    0    0  0.00000000000E+00  0.00000000000E+00 -0.58951949150E+03  0.36640329873E+04  0.36162970704E+04 0.  0.
        4    1    3    3  502    0 -0.15998243603E+04 -0.82541884470E+03 -0.12327651527E+03  0.18044259378E+04  0.12699999809E+01 0. -1.
       -4    1    3    3    0  502  0.15998243603E+04  0.82541884470E+03 -0.46624297622E+03  0.18596070495E+04  0.12699999809E+01 0.  1.
</event>
<event>
 5   0  0.5071661E-07  0.2891024E+04  0.7818609E-02  0.8275553E-01
       -1   -1    0    0    0  501  0.00000000000E+00  0.00000000000E+00  0.93096718894E+03  0.93096718896E+03  0.50400001928E-02 0.  1.
        1   -1    0    0  501    0  0.00000000000E+00  0.00000000000E+00 -0.22444451055E+04  0.22444451055E+04  0.50400001928E-02 0. -1.
    10030    2    1    2    0    0  0.00000000000E+00  0.00000000000E+00 -0.13134779166E+04  0.31754122945E+04  0.28910238675E+04 0.  0.
        1    1    3    3  502    0  0.27146490625E+03  0.99717778498E+03 -0.17668248429E+04  0.20468822037E+04  0.50400001928E-02 0. -1.
       -1    1    3    3    0  502 -0.27146490625E+03 -0.99717778498E+03  0.45334692635E+03  0.11285300908E+04  0.50400001928E-02 0.  1.
</event>
<event>
 5   0  0.5164453E-07  0.2278515E+04  0.7818609E-02  0.8486441E-01
        1   -1    0    0  501    0  0.00000000000E+00  0.00000000000E+00  0.13228493448E+04  0.13228493448E+04  0.50400001928E-02 0. -1.
       -1   -1    0    0    0  501  0.00000000000E+00  0.00000000000E+00 -0.98114535013E+03  0.98114535014E+03  0.50400001928E-02 0.  1.
    10030    2    1    2    0    0  0.00000000000E+00  0.00000000000E+00  0.34170399468E+03  0.23039946950E+04  0.22785148528E+04 0.  0.
        4    1    3    3  502    0  0.11964938069E+03 -0.58182120117E+03 -0.81216836833E+03  0.10062062193E+04  0.12699999809E+01 0.  1.
       -4    1    3    3    0  502 -0.11964938069E+03  0.58182120117E+03  0.11538723630E+04  0.12977884756E+04  0.12699999809E+01 0. -1.
</event>
<event>
 5   0  0.1379425E-06  0.3771107E+04  0.7818609E-02  0.8052384E-01
        2   -1    0    0  501    0  0.00000000000E+00  0.00000000000E+00  0.14151908622E+04  0.14151908622E+04  0.25500000920E-02 0.  1.
       -2   -1    0    0    0  501  0.00000000000E+00  0.00000000000E+00 -0.25122497275E+04  0.25122497275E+04  0.25500000920E-02 0. -1.
    10030    2    1    2    0    0  0.00000000000E+00  0.00000000000E+00 -0.10970588653E+04  0.39274405897E+04  0.37711074543E+04 0.  0.
        4    1    3    3  502    0 -0.17407802669E+04  0.71852338170E+03 -0.64577849889E+03  0.19908850470E+04  0.12699999809E+01 0.  1.
       -4    1    3    3    0  502  0.17407802669E+04 -0.71852338170E+03 -0.45128036645E+03  0.19365555427E+04  0.12699999809E+01 0. -1.
</event>
<event>
 5   0  0.1379425E-06  0.3442833E+04  0.7818609E-02  0.8127473E-01
        2   -1    0    0  501    0  0.00000000000E+00  0.00000000000E+00  0.15139807340E+04  0.15139807340E+04  0.25500000920E-02 0.  1.
       -2   -1    0    0    0  501  0.00000000000E+00  0.00000000000E+00 -0.19572741200E+04  0.19572741200E+04  0.25500000920E-02 0. -1.
    10030    2    1    2    0    0  0.00000000000E+00  0.00000000000E+00 -0.44329338598E+03  0.34712548540E+04  0.34428333151E+04 0.  0.
        4    1    3    3  502    0  0.40588452151E+03 -0.36600494475E+03  0.14241804463E+04  0.15254485966E+04  0.12699999809E+01 0.  1.
       -4    1    3    3    0  502 -0.40588452151E+03  0.36600494475E+03 -0.18674738323E+04  0.19458062574E+04  0.12699999809E+01 0. -1.
</event>
<event>
 5   0  0.1491854E-06  0.3582336E+04  0.7818609E-02  0.8094550E-01
        2   -1    0    0  501    0  0.00000000000E+00  0.00000000000E+00  0.21185999777E+04  0.21185999777E+04  0.25500000920E-02 0. -1.
       -2   -1    0    0    0  501  0.00000000000E+00  0.00000000000E+00 -0.15143412671E+04  0.15143412671E+04  0.25500000920E-02 0.  1.
    10030    2    1    2    0    0  0.00000000000E+00  0.00000000000E+00  0.60425871061E+03  0.36329412448E+04  0.35823363185E+04 0.  0.
        5    1    3    3  502    0 -0.71807728914E+03 -0.13579523826E+04 -0.63207392286E+03  0.16610867529E+04  0.46999998093E+01 0.  1.
       -5    1    3    3    0  502  0.71807728914E+03  0.13579523826E+04  0.12363326335E+04  0.19718544919E+04  0.46999998093E+01 0. -1.
</event>
<event>
 5   0  0.1444091E-06  0.2634071E+04  0.7818609E-02  0.8356719E-01
        2   -1    0    0  501    0  0.00000000000E+00  0.00000000000E+00  0.87037631040E+03  0.87037631040E+03  0.25500000920E-02 0.  1.
       -2   -1    0    0    0  501  0.00000000000E+00  0.00000000000E+00 -0.19929112420E+04  0.19929112420E+04  0.25500000920E-02 0. -1.
    10030    2    1    2    0    0  0.00000000000E+00  0.00000000000E+00 -0.11225349316E+04  0.28632875524E+04  0.26340711712E+04 0.  0.
        1    1    3    3  502    0 -0.11031700121E+04  0.41430217830E+03 -0.12006276846E+04  0.16823011644E+04  0.50400001928E-02 0. -1.
       -1    1    3    3    0  502  0.11031700121E+04 -0.41430217830E+03  0.78092753079E+02  0.11809863880E+04  0.50400001928E-02 0.  1.
</event>
<event>
 5   0  0.4811500E-07  0.2422693E+04  0.7818609E-02  0.8431056E-01
       -1   -1    0    0    0  501  0.00000000000E+00  0.00000000000E+00  0.41751481632E+03  0.41751481635E+03  0.50400001928E-02 0. -1.
        1   -1    0    0  501    0  0.00000000000E+00  0.00000000000E+00 -0.35145116994E+04  0.35145116994E+04  0.50400001928E-02 0.  1.
    10030    2    1    2    0    0  0.00000000000E+00  0.00000000000E+00 -0.30969968831E+04  0.39320265158E+04  0.24226933002E+04 0.  0.
        5    1    3    3  502    0  0.47169911901E+03  0.11133446743E+04 -0.16666789368E+04  0.20590962073E+04  0.46999998093E+01 0.  1.
       -5    1    3    3    0  502 -0.47169911901E+03 -0.11133446743E+04 -0.14303179463E+04  0.18729303084E+04  0.46999998093E+01 0. -1.
</event>
<event>
 5   0  0.1491854E-06  0.3525634E+04  0.7818609E-02  0.8107742E-01
        2   -1    0    0  501    0  0.00000000000E+00  0.00000000000E+00  0.32963585036E+04  0.32963585036E+04  0.25500000920E-02 0. -1.
       -2   -1    0    0    0  501  0.00000000000E+00  0.00000000000E+00 -0.94271396303E+03  0.94271396303E+03  0.25500000920E-02 0.  1.
    10030    2    1    2    0    0  0.00000000000E+00  0.00000000000E+00  0.23536445406E+04  0.42390724666E+04  0.35256336670E+04 0.  0.
        5    1    3    3  502    0 -0.47138247823E+02 -0.17377910011E+04  0.82553312747E+03  0.19244912607E+04  0.46999998093E+01 0.  1.
       -5    1    3    3    0  502  0.47138247823E+02  0.17377910011E+04  0.15281114131E+04  0.23145812059E+04  0.46999998093E+01 0. -1.
</event>
<event>
 5   0  0.4811500E-07  0.2324362E+04  0.7818609E-02  0.8468377E-01
       -1   -1    0    0    0  501  0.00000000000E+00  0.00000000000E+00  0.94225657313E+03  0.94225657314E+03  0.50400001928E-02 0. -1.
        1   -1    0    0  501    0  0.00000000000E+00  0.00000000000E+00 -0.14334364996E+04  0.14334364996E+04  0.50400001928E-02 0.  1.
    10030    2    1    2    0    0  0.00000000000E+00  0.00000000000E+00 -0.49117992651E+03  0.23756930728E+04  0.23243622471E+04 0.  0.
        2    1    3    3  502    0 -0.35399901507E+03  0.84579879247E+02 -0.13736834354E+04  0.14210824182E+04  0.25500000920E-02 0.  1.
       -2    1    3    3    0  502  0.35399901507E+03 -0.84579879247E+02  0.88250350889E+03  0.95461065458E+03  0.25500000920E-02 0. -1.
</event>
<event>
 5   0  0.1491854E-06  0.3626458E+04  0.7818609E-02  0.8084458E-01
       -2   -1    0    0    0  501  0.00000000000E+00  0.00000000000E+00  0.95707887222E+03  0.95707887222E+03  0.25500000920E-02 0.  1.
        2   -1    0    0  501    0  0.00000000000E+00  0.00000000000E+00 -0.34352448793E+04  0.34352448793E+04  0.25500000920E-02 0. -1.
    10030    2    1    2    0    0  0.00000000000E+00  0.00000000000E+00 -0.24781660071E+04  0.43923237515E+04  0.36264584900E+04 0.  0.
        5    1    3    3  502    0 -0.16652954230E+04 -0.16404778556E+01 -0.37025770482E+03  0.17059672901E+04  0.46999998093E+01 0.  1.
       -5    1    3    3    0  502  0.16652954230E+04  0.16404778556E+01 -0.21079083022E+04  0.26863564614E+04  0.46999998093E+01 0. -1.
</event>
<event>
 5   0  0.4811500E-07  0.3656459E+04  0.7818609E-02  0.8077680E-01
        1   -1    0    0  501    0  0.00000000000E+00  0.00000000000E+00  0.20719273436E+04  0.20719273436E+04  0.50400001928E-02 0. -1.
       -1   -1    0    0    0  501  0.00000000000E+00  0.00000000000E+00 -0.16131950075E+04  0.16131950075E+04  0.50400001928E-02 0.  1.
    10030    2    1    2    0    0  0.00000000000E+00  0.00000000000E+00  0.45873233607E+03  0.36851223512E+04  0.36564588589E+04 0.  0.
        3    1    3    3  502    0 -0.58513829851E+03  0.34433192253E+03  0.19401628024E+04  0.20555249965E+04  0.10100000352E+00 0. -1.
       -3    1    3    3    0  502  0.58513829851E+03 -0.34433192253E+03 -0.14814304664E+04  0.16295973546E+04  0.10100000352E+00 0.  1.
</event>
<event>
 5   0  0.4811500E-07  0.2946880E+04  0.7818609E-02  0.8259064E-01
       -1   -1    0    0    0  501  0.00000000000E+00  0.00000000000E+00  0.10819171111E+04  0.10819171111E+04  0.50400001928E-02 0.  1.
        1   -1    0    0  501    0  0.00000000000E+00  0.00000000000E+00 -0.20066473911E+04  0.20066473911E+04  0.50400001928E-02 0. -1.
    10030    2    1    2    0    0  0.00000000000E+00  0.00000000000E+00 -0.92473028004E+03  0.30885645022E+04  0.29468804851E+04 0.  0.
        4    1    3    3  502    0 -0.82189780454E+03  0.79591688710E+03 -0.14354574578E+04  0.18356305234E+04  0.12699999809E+01 0. -1.
       -4    1    3    3    0  502  0.82189780454E+03 -0.79591688710E+03  0.51072717779E+03  0.12529339788E+04  0.12699999809E+01 0.  1.
</event>
<event>
 5   0  0.4811500E-07  0.3535462E+04  0.7818609E-02  0.8105437E-01
        1   -1    0    0  501    0  0.00000000000E+00  0.00000000000E+00  0.11561764786E+04  0.11561764786E+04  0.50400001928E-02 0. -1.
       -1   -1    0    0    0  501  0.00000000000E+00  0.00000000000E+00 -0.27027643925E+04  0.27027643925E+04  0.50400001928E-02 0.  1.
    10030    2    1    2    0    0  0.00000000000E+00  0.00000000000E+00 -0.15465879140E+04  0.38589408711E+04  0.35354618469E+04 0.  0.
        3    1    3    3  502    0  0.33370020872E+03 -0.16992440610E+04 -0.38571865808E+03  0.17741378474E+04  0.10100000352E+00 0. -1.
       -3    1    3    3    0  502 -0.33370020872E+03  0.16992440610E+04 -0.11608692559E+04  0.20848030237E+04  0.10100000352E+00 0.  1.
</event>
<event>
 5   0  0.4811500E-07  0.3576121E+04  0.7818609E-02  0.8095983E-01
       -1   -1    0    0    0  501  0.00000000000E+00  0.00000000000E+00  0.22637780286E+04  0.22637780286E+04  0.50400001928E-02 0. -1.
        1   -1    0    0  501    0  0.00000000000E+00  0.00000000000E+00 -0.14123120606E+04  0.14123120606E+04  0.50400001928E-02 0.  1.
    10030    2    1    2    0    0  0.00000000000E+00  0.00000000000E+00  0.85146596805E+03  0.36760900892E+04  0.35761213695E+04 0.  0.
        3    1    3    3  502    0  0.12036984976E+04  0.39843130448E+03  0.17217400292E+04  0.21382297154E+04  0.10100000352E+00 0. -1.
       -3    1    3    3    0  502 -0.12036984976E+04 -0.39843130448E+03 -0.87027406115E+03  0.15378603738E+04  0.10100000352E+00 0.  1.
</event>
<event>
 5   0  0.1468942E-06  0.3614361E+04  0.7818609E-02  0.8087210E-01
       -2   -1    0    0    0  501  0.00000000000E+00  0.00000000000E+00  0.18824894593E+04  0.18824894593E+04  0.25500000920E-02 0.  1.
        2   -1    0    0  501    0  0.00000000000E+00  0.00000000000E+00 -0.17348844700E+04  0.17348844700E+04  0.25500000920E-02 0. -1.
    10030    2    1    2    0    0  0.00000000000E+00  0.00000000000E+00  0.14760498932E+03  0.36173739293E+04  0.36143612038E+04 0.  0.
        2    1    3    3  502    0 -0.47879819605E+03 -0.58583819050E+03 -0.15687381320E+04  0.17416639816E+04  0.25500000920E-02 0. -1.
       -2    1    3    3    0  502  0.47879819605E+03  0.58583819050E+03  0.17163431213E+04  0.18757099477E+04  0.25500000920E-02 0.  1.
</event>
<event>
 5   0  0.4811500E-07  0.3672785E+04  0.7818609E-02  0.8074020E-01
        1   -1    0    0  501    0  0.00000000000E+00  0.00000000000E+00  0.27429544292E+04  0.27429544293E+04  0.50400001928E-02 0. -1.
       -1   -1    0    0    0  501  0.00000000000E+00  0.00000000000E+00 -0.12294542685E+04  0.12294542685E+04  0.50400001928E-02 0.  1.
    10030    2    1    2    0    0  0.00000000000E+00  0.00000000000E+00  0.15135001608E+04  0.39724086978E+04  0.36727847916E+04 0.  0.
        5    1    3    3  502    0 -0.79521250845E+03 -0.16022716762E+04  0.30730534459E+03  0.18149644963E+04  0.46999998093E+01 0.  1.
       -5    1    3    3    0  502  0.79521250845E+03  0.16022716762E+04  0.12061948162E+04  0.21574442015E+04  0.46999998093E+01 0. -1.
</event>
<event>
 5   0  0.4811500E-07  0.2781070E+04  0.7818609E-02  0.8309170E-01
       -1   -1    0    0    0  501  0.00000000000E+00  0.00000000000E+00  0.14322071553E+04  0.14322071553E+04  0.50400001928E-02 0.  1.
        1   -1    0    0  501    0  0.00000000000E+00  0.00000000000E+00 -0.13500750001E+04  0.13500750001E+04  0.50400001928E-02 0. -1.
    10030    2    1    2    0    0  0.00000000000E+00  0.00000000000E+00  0.82132155135E+02  0.27822821554E+04  0.27810696326E+04 0.  0.
        2    1    3    3  502    0  0.80800733618E+03  0.10354083805E+04  0.49803727632E+03  0.14046307338E+04  0.25500000920E-02 0.  1.
       -2    1    3    3    0  502 -0.80800733618E+03 -0.10354083805E+04 -0.41590512118E+03  0.13776514216E+04  0.25500000920E-02 0. -1.
</event>
<event>
 5   0  0.4811500E-07  0.3596617E+04  0.7818609E-02  0.8091267E-01
        1   -1    0    0  501    0  0.00000000000E+00  0.00000000000E+00  0.29913659879E+04  0.29913659879E+04  0.50400001928E-02 0.  1.
       -1   -1    0    0    0  501  0.00000000000E+00  0.00000000000E+00 -0.10810827619E+04  0.10810827619E+04  0.50400001928E-02 0. -1.
    10030    2    1    2    0    0  0.00000000000E+00  0.00000000000E+00  0.19102832260E+04  0.40724487498E+04  0.35966174130E+04 0.  0.
        3    1    3    3  502    0 -0.12111526281E+04 -0.96554213255E+03 -0.79381247405E+02  0.15509557347E+04  0.10100000352E+00 0. -1.
       -3    1    3    3    0  502  0.12111526281E+04  0.96554213255E+03  0.19896644734E+04  0.25214930151E+04  0.10100000352E+00 0.  1.
</event>
<event>
 5   0  0.1444091E-06  0.3643264E+04  0.7818609E-02  0.8080653E-01
        2   -1    0    0  501    0  0.00000000000E+00  0.00000000000E+00  0.22122066950E+04  0.22122066950E+04  0.25500000920E-02 0.  1.
       -2   -1    0    0    0  501  0.00000000000E+00  0.00000000000E+00 -0.15000150502E+04  0.15000150502E+04  0.25500000920E-02 0. -1.
    10030    2    1    2    0    0  0.00000000000E+00  0.00000000000E+00  0.71219164478E+03  0.37122217452E+04  0.36432641061E+04 0.  0.
        1    1    3    3  502    0  0.12810617419E+04 -0.76087727563E+03  0.14239249288E+04  0.20609744341E+04  0.50400001928E-02 0.  1.
       -1    1    3    3    0  502 -0.12810617419E+04  0.76087727563E+03 -0.71173328399E+03  0.16512473112E+04  0.50400001928E-02 0. -1.
</event>
<event>
 5   0  0.1468942E-06  0.3550599E+04  0.7818609E-02  0.8101902E-01
        2   -1    0    0  501    0  0.00000000000E+00  0.00000000000E+00  0.23008477551E+04  0.23008477551E+04  0.25500000920E-02 0. -1.
       -2   -1    0    0    0  501  0.00000000000E+00  0.00000000000E+00 -0.13697941361E+04  0.13697941361E+04  0.25500000920E-02 0.  1.
    10030    2    1    2    0    0  0.00000000000E+00  0.00000000000E+00  0.93105361895E+03  0.36706418912E+04  0.35505986892E+04 0.  0.
        2    1    3    3  502    0  0.43874351202E+03  0.12195552206E+03 -0.13083883298E+04  0.13853696403E+04  0.25500000920E-02 0.  1.
       -2    1    3    3    0  502 -0.43874351202E+03 -0.12195552206E+03  0.22394419488E+04  0.22852722509E+04  0.25500000920E-02 0. -1.
</event>
<event>
 5   0  0.4811500E-07  0.3655564E+04  0.7818609E-02  0.8077881E-01
        1   -1    0    0  501    0  0.00000000000E+00  0.00000000000E+00  0.26404688370E+04  0.26404688370E+04  0.50400001928E-02 0.  1.
       -1   -1    0    0    0  501  0.00000000000E+00  0.00000000000E+00 -0.12652249591E+04  0.12652249591E+04  0.50400001928E-02 0. -1.
    10030    2    1    2    0    0  0.00000000000E+00  0.00000000000E+00  0.13752438779E+04  0.39056937962E+04  0.36555640202E+04 0.  0.
        3    1    3    3  502    0 -0.46209114952E+03 -0.10632147428E+04  0.21974055168E+04  0.24844606729E+04  0.10100000352E+00 0.  1.
       -3    1    3    3    0  502  0.46209114952E+03  0.10632147428E+04 -0.82216163897E+03  0.14212331232E+04  0.10100000352E+00 0. -1.
</event>
<event>
 5   0  0.1444091E-06  0.3636555E+04  0.7818609E-02  0.8082169E-01
        2   -1    0    0  501    0  0.00000000000E+00  0.00000000000E+00  0.13327536232E+04  0.13327536232E+04  0.25500000920E-02 0.  1.
       -2   -1    0    0    0  501  0.00000000000E+00  0.00000000000E+00 -0.24806788932E+04  0.24806788932E+04  0.25500000920E-02 0. -1.
    10030    2    1    2    0    0  0.00000000000E+00  0.00000000000E+00 -0.11479252700E+04  0.38134325164E+04  0.36365553937E+04 0.  0.
        1    1    3    3  502    0  0.39425775084E+03  0.15739403661E+04  0.28656427543E+03  0.16476791357E+04  0.50400001928E-02 0.  1.
       -1    1    3    3    0  502 -0.39425775084E+03 -0.15739403661E+04 -0.14344895454E+04  0.21657533807E+04  0.50400001928E-02 0. -1.
</event>
<event>
 5   0  0.5071661E-07  0.3386587E+04  0.7818609E-02  0.8141206E-01
       -1   -1    0    0    0  501  0.00000000000E+00  0.00000000000E+00  0.11574581140E+04  0.11574581140E+04  0.50400001928E-02 0. -1.
        1   -1    0    0  501    0  0.00000000000E+00  0.00000000000E+00 -0.24771893683E+04  0.24771893683E+04  0.50400001928E-02 0.  1.
    10030    2    1    2    0    0  0.00000000000E+00  0.00000000000E+00 -0.13197312544E+04  0.36346474823E+04  0.33865870337E+04 0.  0.
        1    1    3    3  502    0 -0.82141267145E+03 -0.14472597170E+04 -0.99578274233E+03  0.19392943911E+04  0.50400001928E-02 0. -1.
       -1    1    3    3    0  502  0.82141267145E+03  0.14472597170E+04 -0.32394851203E+03  0.16953530912E+04  0.50400001928E-02 0.  1.
</event>
<event>
 5   0  0.4811500E-07  0.3715214E+04  0.7818609E-02  0.8064599E-01
        1   -1    0    0  501    0  0.00000000000E+00  0.00000000000E+00  0.14491893020E+04  0.14491893020E+04  0.50400001928E-02 0. -1.
       -1   -1    0    0    0  501  0.00000000000E+00  0.00000000000E+00 -0.23811265275E+04  0.23811265275E+04  0.50400001928E-02 0.  1.
    10030    2    1    2    0    0  0.00000000000E+00  0.00000000000E+00 -0.93193722550E+03  0.38303158296E+04  0.37152136361E+04 0.  0.
        3    1    3    3  502    0 -0.62411989745E+03  0.16546462958E+04 -0.10522000983E+04  0.20577913081E+04  0.10100000352E+00 0.  1.
       -3    1    3    3    0  502  0.62411989745E+03 -0.16546462958E+04  0.12026287275E+03  0.17725245215E+04  0.10100000352E+00 0. -1.
</event>
<event>
 5   0  0.1379425E-06  0.3507115E+04  0.7818609E-02  0.8112106E-01
        2   -1    0    0  501    0  0.00000000000E+00  0.00000000000E+00  0.19445117519E+04  0.19445117519E+04  0.25500000920E-02 0. -1.
       -2   -1    0    0    0  501  0.00000000000E+00  0.00000000000E+00 -0.15813549350E+04  0.15813549350E+04  0.25500000920E-02 0.  1.
    10030    2    1    2    0    0  0.00000000000E+00  0.00000000000E+00  0.36315681692E+03  0.35258666869E+04  0.35071146289E+04 0.  0.
        4    1    3    3  502    0  0.10554526471E+04 -0.90475591863E+03  0.12561235352E+04  0.18736092205E+04  0.12699999809E+01 0. -1.
       -4    1    3    3    0  502 -0.10554526471E+04  0.90475591863E+03 -0.89296671826E+03  0.16522574664E+04  0.12699999809E+01 0.  1.
</event>
<event>
 5   0  0.1491854E-06  0.3386281E+04  0.7818609E-02  0.8141282E-01
       -2   -1    0    0    0  501  0.00000000000E+00  0.00000000000E+00  0.14677277429E+04  0.14677277429E+04  0.25500000920E-02 0.  1.
        2   -1    0    0  501    0  0.00000000000E+00  0.00000000000E+00 -0.19531715220E+04  0.19531715220E+04  0.25500000920E-02 0. -1.
    10030    2    1    2    0    0  0.00000000000E+00  0.00000000000E+00 -0.48544377907E+03  0.34208992649E+04  0.33862805729E+04 0.  0.
        5    1    3    3  502    0  0.36310144983E+03 -0.93981212992E+03 -0.16173726963E+04  0.19055198847E+04  0.46999998093E+01 0. -1.
       -5    1    3    3    0  502 -0.36310144983E+03  0.93981212992E+03  0.11319289172E+04  0.15153793802E+04  0.46999998093E+01 0.  1.
</event>
<event>
 5   0  0.4811500E-07  0.3483447E+04  0.7818609E-02  0.8117724E-01
       -3   -1    0    0    0  501  0.00000000000E+00  0.00000000000E+00  0.16426519838E+04  0.16426519869E+04  0.10100000352E+00 0.  1.
        3   -1    0    0  501    0  0.00000000000E+00  0.00000000000E+00 -0.18467706587E+04  0.18467706615E+04  0.10100000352E+00 0. -1.
    10030    2    1    2    0    0  0.00000000000E+00  0.00000000000E+00 -0.20411867498E+03  0.34894226484E+04  0.34834474283E+04 0.  0.
        4    1    3    3  502    0  0.60856131888E+03  0.77596595765E+02  0.15308385731E+04  0.16491926692E+04  0.12699999809E+01 0.  1.
       -4    1    3    3    0  502 -0.60856131888E+03 -0.77596595765E+02 -0.17349572481E+04  0.18402299791E+04  0.12699999809E+01 0. -1.
</event>
<event>
 5   0  0.1444091E-06  0.3628914E+04  0.7818609E-02  0.8083900E-01
       -2   -1    0    0    0  501  0.00000000000E+00  0.00000000000E+00  0.20016748124E+04  0.20016748124E+04  0.25500000920E-02 0.  1.
        2   -1    0    0  501    0  0.00000000000E+00  0.00000000000E+00 -0.16447502052E+04  0.16447502053E+04  0.25500000920E-02 0. -1.
    10030    2    1    2    0    0  0.00000000000E+00  0.00000000000E+00  0.35692460713E+03  0.36464250176E+04  0.36289144705E+04 0.  0.
        1    1    3    3  502    0 -0.90899129468E+03 -0.11520647727E+04 -0.89380287632E+03  0.17182555095E+04  0.50400001928E-02 0. -1.
       -1    1    3    3    0  502  0.90899129468E+03  0.11520647727E+04  0.12507274834E+04  0.19281695081E+04  0.50400001928E-02 0.  1.
</event>
<event>
 5   0  0.1491854E-06  0.2745850E+04  0.7818609E-02  0.8320280E-01
       -2   -1    0    0    0  501  0.00000000000E+00  0.00000000000E+00  0.92323263069E+03  0.92323263069E+03  0.25500000920E-02 0. -1.
        2   -1    0    0  501    0  0.00000000000E+00  0.00000000000E+00 -0.20416559920E+04  0.20416559920E+04  0.25500000920E-02 0.  1.
    10030    2    1    2    0    0  0.00000000000E+00  0.00000000000E+00 -0.11184233613E+04  0.29648886227E+04  0.27458502745E+04 0.  0.
        5    1    3    3  502    0  0.29566620002E+03 -0.22994939946E+03  0.86698764343E+03  0.94444951797E+03  0.46999998093E+01 0. -1.
       -5    1    3    3    0  502 -0.29566620002E+03  0.22994939946E+03 -0.19854110048E+04  0.20204391048E+04  0.46999998093E+01 0.  1.
</event>
<event>
 5   0  0.1379425E-06  0.2513113E+04  0.7818609E-02  0.8398329E-01
        2   -1    0    0  501    0  0.00000000000E+00  0.00000000000E+00  0.25129020221E+04  0.25129020221E+04  0.25500000920E-02 0. -1.
       -2   -1    0    0    0  501  0.00000000000E+00  0.00000000000E+00 -0.62833113837E+03  0.62833113837E+03  0.25500000920E-02 0.  1.
    10030    2    1    2    0    0  0.00000000000E+00  0.00000000000E+00  0.18845708838E+04  0.31412331605E+04  0.25131132789E+04 0.  0.
        4    1    3    3  502    0  0.98270324160E+02 -0.10051840615E+04  0.18767175451E+04  0.21312255655E+04  0.12699999809E+01 0. -1.
       -4    1    3    3    0  502 -0.98270324160E+02  0.10051840615E+04  0.78533386960E+01  0.10100075950E+04  0.12699999809E+01 0.  1.
</event>
<event>
 5   0  0.4811500E-07  0.3196067E+04  0.7818609E-02  0.8189857E-01
       -1   -1    0    0    0  501  0.00000000000E+00  0.00000000000E+00  0.13719909861E+04  0.13719909862E+04  0.50400001928E-02 0. -1.
        1   -1    0    0  501    0  0.00000000000E+00  0.00000000000E+00 -0.18613180922E+04  0.18613180922E+04  0.50400001928E-02 0.  1.
    10030    2    1    2    0    0  0.00000000000E+00  0.00000000000E+00 -0.48932710602E+03  0.32333090783E+04  0.31960673615E+04 0.  0.
        3    1    3    3  502    0  0.13800022489E+04  0.77327809487E+03 -0.47390142225E+03  0.16513472643E+04  0.10100000352E+00 0.  1.
       -3    1    3    3    0  502 -0.13800022489E+04 -0.77327809487E+03 -0.15425683762E+02  0.15819618140E+04  0.10100000352E+00 0. -1.
</event>
<event>
 5   0  0.4811500E-07  0.3112552E+04  0.7818609E-02  0.8212301E-01
        1   -1    0    0  501    0  0.00000000000E+00  0.00000000000E+00  0.28714988691E+04  0.28714988691E+04  0.50400001928E-02 0.  1.
       -1   -1    0    0    0  501  0.00000000000E+00  0.00000000000E+00 -0.84346035973E+03  0.84346035975E+03  0.50400001928E-02 0. -1.
    10030    2    1    2    0    0  0.00000000000E+00  0.00000000000E+00  0.20280385094E+04  0.37149592288E+04  0.31125523090E+04 0.  0.
        3    1    3    3  502    0 -0.77150734268E+03  0.52342986679E+03 -0.47326569349E+03  0.10455538399E+04  0.10100000352E+00 0. -1.
       -3    1    3    3    0  502  0.77150734268E+03 -0.52342986679E+03  0.25013042028E+04  0.26694053890E+04  0.10100000352E+00 0.  1.
</event>
<event>
 5   0  0.1505671E-06  0.2296102E+04  0.7818609E-02  0.8479460E-01
       -2   -1    0    0    0  501  0.00000000000E+00  0.00000000000E+00  0.90224259689E+03  0.90224259689E+03  0.25500000920E-02 0.  1.
        2   -1    0    0  501    0  0.00000000000E+00  0.00000000000E+00 -0.14608275534E+04  0.14608275534E+04  0.25500000920E-02 0. -1.
    10030    2    1    2    0    0  0.00000000000E+00  0.00000000000E+00 -0.55858495650E+03  0.23630701503E+04  0.22961017794E+04 0.  0.
        3    1    3    3  502    0 -0.40557947321E+03 -0.30429973802E+03  0.78076250765E+03  0.93095818553E+03  0.10100000352E+00 0.  1.
       -3    1    3    3    0  502  0.40557947321E+03  0.30429973802E+03 -0.13393474642E+04  0.14321119647E+04  0.10100000352E+00 0. -1.
</event>
<event>
 5   0  0.1379425E-06  0.3120776E+04  0.7818609E-02  0.8210059E-01
       -2   -1    0    0    0  501  0.00000000000E+00  0.00000000000E+00  0.16257149054E+04  0.16257149054E+04  0.25500000920E-02 0.  1.
        2   -1    0    0  501    0  0.00000000000E+00  0.00000000000E+00 -0.14976864080E+04  0.14976864080E+04  0.25500000920E-02 0. -1.
    10030    2    1    2    0    0  0.00000000000E+00  0.00000000000E+00  0.12802849739E+03  0.31234013134E+04  0.31207762605E+04 0.  0.
        4    1    3    3  502    0 -0.11220588202E+04  0.15193715612E+03  0.11385600294E+04  0.16057463837E+04  0.12699999809E+01 0.  1.
       -4    1    3    3    0  502  0.11220588202E+04 -0.15193715612E+03 -0.10105315321E+04  0.15176549296E+04  0.12699999809E+01 0. -1.
</event>
<event>
 5   0  0.4811500E-07  0.2579080E+04  0.7818609E-02  0.8375342E-01
       -1   -1    0    0    0  501  0.00000000000E+00  0.00000000000E+00  0.11128020109E+04  0.11128020109E+04  0.50400001928E-02 0.  1.
        1   -1    0    0  501    0  0.00000000000E+00  0.00000000000E+00 -0.14943477485E+04  0.14943477485E+04  0.50400001928E-02 0. -1.
    10030    2    1    2    0    0  0.00000000000E+00  0.00000000000E+00 -0.38154573763E+03  0.26071497595E+04  0.25790798201E+04 0.  0.
        2    1    3    3  502    0 -0.51203008235E+02  0.40160345558E+03 -0.14284372562E+04  0.14847020167E+04  0.25500000920E-02 0. -1.
       -2    1    3    3    0  502  0.51203008235E+02 -0.40160345558E+03  0.10468915186E+04  0.11224477428E+04  0.25500000920E-02 0.  1.
</event>
<event>
 5   0  0.5071661E-07  0.3609278E+04  0.7818609E-02  0.8088370E-01
        1   -1    0    0  501    0  0.00000000000E+00  0.00000000000E+00  0.25011204605E+04  0.25011204605E+04  0.50400001928E-02 0. -1.
       -1   -1    0    0    0  501  0.00000000000E+00  0.00000000000E+00 -0.13021055034E+04  0.13021055034E+04  0.50400001928E-02 0.  1.
    10030    2    1    2    0    0  0.00000000000E+00  0.00000000000E+00  0.11990149570E+04  0.38032259639E+04  0.36092784411E+04 0.  0.
        1    1    3    3  502    0  0.11938280224E+04  0.86717790696E+03  0.16943282649E+04  0.22467690444E+04  0.50400001928E-02 0. -1.
       -1    1    3    3    0  502 -0.11938280224E+04 -0.86717790696E+03 -0.49531330790E+03  0.15564569195E+04  0.50400001928E-02 0.  1.
</event>
<event>
 5   0  0.4811500E-07  0.3605850E+04  0.7818609E-02  0.8089153E-01
       -1   -1    0    0    0  501  0.00000000000E+00  0.00000000000E+00  0.16171177203E+04  0.16171177203E+04  0.50400001928E-02 0. -1.
        1   -1    0    0  501    0  0.00000000000E+00  0.00000000000E+00 -0.20100816941E+04  0.20100816941E+04  0.50400001928E-02 0.  1.
    10030    2    1    2    0    0  0.00000000000E+00  0.00000000000E+00 -0.39296397381E+03  0.36271994144E+04  0.36058500950E+04 0.  0.
        2    1    3    3  502    0 -0.17694905842E+04  0.22879186043E+03  0.64080776458E+02  0.17853708267E+04  0.25500000920E-02 0. -1.
       -2    1    3    3    0  502  0.17694905842E+04 -0.22879186043E+03 -0.45704475027E+03  0.18418285878E+04  0.25500000920E-02 0.  1.
</event>
<event>
 5   0  0.4811500E-07  0.3670308E+04  0.7818609E-02  0.8074574E-01
       -3   -1    0    0    0  501  0.00000000000E+00  0.00000000000E+00  0.23971979520E+04  0.23971979541E+04  0.10100000352E+00 0. -1.
        3   -1    0    0  501    0  0.00000000000E+00  0.00000000000E+00 -0.14048863884E+04  0.14048863920E+04  0.10100000352E+00 0.  1.
    10030    2    1    2    0    0  0.00000000000E+00  0.00000000000E+00  0.99231156366E+03  0.38020843461E+04  0.36703083162E+04 0.  0.
        5    1    3    3  502    0 -0.24962424994E+02  0.15455312336E+04  0.15208514603E+04  0.21684789994E+04  0.46999998093E+01 0. -1.
       -5    1    3    3    0  502  0.24962424994E+02 -0.15455312336E+04 -0.52853989661E+03  0.16336053467E+04  0.46999998093E+01 0.  1.
</event>
<event>
 5   0  0.1379425E-06  0.3634169E+04  0.7818609E-02  0.8082709E-01
        2   -1    0    0  501    0  0.00000000000E+00  0.00000000000E+00  0.23189691084E+04  0.23189691084E+04  0.25500000920E-02 0. -1.
       -2   -1    0    0    0  501  0.00000000000E+00  0.00000000000E+00 -0.14238207522E+04  0.14238207522E+04  0.25500000920E-02 0.  1.
    10030    2    1    2    0    0  0.00000000000E+00  0.00000000000E+00  0.89514835613E+03  0.37427898606E+04  0.36341691432E+04 0.  0.
        4    1    3    3  502    0 -0.11074327411E+04 -0.13519957514E+04  0.95993211640E+03  0.19939335668E+04  0.12699999809E+01 0.  1.
       -4    1    3    3    0  502  0.11074327411E+04  0.13519957514E+04 -0.64783760271E+02  0.17488562938E+04  0.12699999809E+01 0. -1.
</event>
<event>
 5   0  0.1379425E-06  0.3631339E+04  0.7818609E-02  0.8083351E-01
        2   -1    0    0  501    0  0.00000000000E+00  0.00000000000E+00  0.17913562793E+04  0.17913562793E+04  0.25500000920E-02 0.  1.
       -2   -1    0    0    0  501  0.00000000000E+00  0.00000000000E+00 -0.18403123534E+04  0.18403123534E+04  0.25500000920E-02 0. -1.
    10030    2    1    2    0    0  0.00000000000E+00  0.00000000000E+00 -0.48956074115E+02  0.36316686327E+04  0.36313386458E+04 0.  0.
        4    1    3    3  502    0 -0.82525986056E+03 -0.11856888806E+04 -0.11244604876E+04  0.18306624375E+04  0.12699999809E+01 0. -1.
       -4    1    3    3    0  502  0.82525986056E+03  0.11856888806E+04  0.10755044135E+04  0.18010061952E+04  0.12699999809E+01 0.  1.
</event>
<event>
 5   0  0.1491854E-06  0.3632565E+04  0.7818609E-02  0.8083073E-01
       -2   -1    0    0    0  501  0.00000000000E+00  0.00000000000E+00  0.26074466402E+04  0.26074466402E+04  0.25500000920E-02 0.  1.
        2   -1    0    0  501    0  0.00000000000E+00  0.00000000000E+00 -0.12651772162E+04  0.12651772162E+04  0.25500000920E-02 0. -1.
    10030    2    1    2    0    0  0.00000000000E+00  0.00000000000E+00  0.13422694240E+04  0.38726238564E+04  0.36325649790E+04 0.  0.
        5    1    3    3  502    0  0.12306116133E+01  0.87746630000E+03 -0.10242127846E+04  0.13486966079E+04  0.46999998093E+01 0. -1.
       -5    1    3    3    0  502 -0.12306116133E+01 -0.87746630000E+03  0.23664822086E+04  0.25239272485E+04  0.46999998093E+01 0.  1.
</event>
<event>
 5   0  0.4811500E-07  0.3451416E+04  0.7818609E-02  0.8125401E-01
        1   -1    0    0  501    0  0.00000000000E+00  0.00000000000E+00  0.21550776498E+04  0.21550776498E+04  0.50400001928E-02 0. -1.
       -1   -1    0    0    0  501  0.00000000000E+00  0.00000000000E+00 -0.13818841472E+04  0.13818841472E+04  0.50400001928E-02 0.  1.
    10030    2    1    2    0    0  0.00000000000E+00  0.00000000000E+00  0.77319350254E+03  0.35369617970E+04  0.34514157329E+04 0.  0.
        3    1    3    3  502    0 -0.26181091647E+03 -0.87007919665E+03  0.18900957660E+04  0.20971515871E+04  0.10100000352E+00 0. -1.
       -3    1    3    3    0  502  0.26181091647E+03  0.87007919665E+03 -0.11169022634E+04  0.14398102099E+04  0.10100000352E+00 0.  1.
</event>
<event>
 5   0  0.4811500E-07  0.2699325E+04  0.7818609E-02  0.8335224E-01
       -1   -1    0    0    0  501  0.00000000000E+00  0.00000000000E+00  0.11389061909E+04  0.11389061909E+04  0.50400001928E-02 0.  1.
        1   -1    0    0  501    0  0.00000000000E+00  0.00000000000E+00 -0.15994194462E+04  0.15994194462E+04  0.50400001928E-02 0. -1.
    10030    2    1    2    0    0  0.00000000000E+00  0.00000000000E+00 -0.46051325533E+03  0.27383256371E+04  0.26993248853E+04 0.  0.
        2    1    3    3  502    0  0.11389568085E+04 -0.22936295389E+03 -0.92702737296E+03  0.14863410532E+04  0.25500000920E-02 0. -1.
       -2    1    3    3    0  502 -0.11389568085E+04  0.22936295389E+03  0.46651411763E+03  0.12519845839E+04  0.25500000920E-02 0.  1.
</event>
<event>
 5   0  0.1444091E-06  0.3226956E+04  0.7818609E-02  0.8181734E-01
        2   -1    0    0  501    0  0.00000000000E+00  0.00000000000E+00  0.16706308074E+04  0.16706308074E+04  0.25500000920E-02 0. -1.
       -2   -1    0    0    0  501  0.00000000000E+00  0.00000000000E+00 -0.15582808107E+04  0.15582808107E+04  0.25500000920E-02 0.  1.
    10030    2    1    2    0    0  0.00000000000E+00  0.00000000000E+00  0.11234999673E+03  0.32289116181E+04  0.32269564167E+04 0.  0.
        1    1    3    3  502    0  0.79555656063E+03 -0.11285098660E+03 -0.13438390542E+04  0.15657423127E+04  0.50400001928E-02 0.  1.
       -1    1    3    3    0  502 -0.79555656063E+03  0.11285098660E+03  0.14561890509E+04  0.16631693054E+04  0.50400001928E-02 0. -1.
</event>
<event>
 5   0  0.4811500E-07  0.3682326E+04  0.7818609E-02  0.8071890E-01
        1   -1    0    0  501    0  0.00000000000E+00  0.00000000000E+00  0.26323629085E+04  0.26323629085E+04  0.50400001928E-02 0.  1.
       -1   -1    0    0    0  501  0.00000000000E+00  0.00000000000E+00 -0.12877713923E+04  0.12877713923E+04  0.50400001928E-02 0. -1.
    10030    2    1    2    0    0  0.00000000000E+00  0.00000000000E+00  0.13445915162E+04  0.39201343008E+04  0.36823262472E+04 0.  0.
        4    1    3    3  502    0  0.81841060959E+03 -0.75246087210E+03 -0.89009662889E+03  0.14241723602E+04  0.12699999809E+01 0. -1.
       -4    1    3    3    0  502 -0.81841060959E+03  0.75246087210E+03  0.22346881451E+04  0.24959619405E+04  0.12699999809E+01 0.  1.
</event>
<event>
 5   0  0.1379425E-06  0.2902522E+04  0.7818609E-02  0.8272127E-01
       -2   -1    0    0    0  501  0.00000000000E+00  0.00000000000E+00  0.10365558276E+04  0.10365558276E+04  0.25500000920E-02 0. -1.
        2   -1    0    0  501    0  0.00000000000E+00  0.00000000000E+00 -0.20318814811E+04  0.20318814811E+04  0.25500000920E-02 0.  1.
    10030    2    1    2    0    0  0.00000000000E+00  0.00000000000E+00 -0.99532565350E+03  0.30684373088E+04  0.29025220691E+04 0.  0.
        4    1    3    3  502    0  0.95373983591E+03  0.24421597979E+03  0.62953999228E+03  0.11685817619E+04  0.12699999809E+01 0.  1.
       -4    1    3    3    0  502 -0.95373983591E+03 -0.24421597979E+03 -0.16248656458E+04  0.18998555469E+04  0.12699999809E+01 0. -1.
</event>
<event>
 5   0  0.4811500E-07  0.3464252E+04  0.7818609E-02  0.8122314E-01
        3   -1    0    0  501    0  0.00000000000E+00  0.00000000000E+00  0.13158682327E+04  0.13158682365E+04  0.10100000352E+00 0.  1.
       -3   -1    0    0    0  501  0.00000000000E+00  0.00000000000E+00 -0.22800615644E+04  0.22800615667E+04  0.10100000352E+00 0. -1.
    10030    2    1    2    0    0  0.00000000000E+00  0.00000000000E+00 -0.96419333177E+03  0.35959298032E+04  0.34642520648E+04 0.  0.
        2    1    3    3  502    0  0.63094440650E+03  0.93816668480E+03 -0.18442309878E+04  0.21632002933E+04  0.25500000920E-02 0. -1.
       -2    1    3    3    0  502 -0.63094440650E+03 -0.93816668480E+03  0.88003765601E+03  0.14327295099E+04  0.25500000920E-02 0.  1.
</event>
<event>
 5   0  0.1468942E-06  0.3641525E+04  0.7818609E-02  0.8081046E-01
        2   -1    0    0  501    0  0.00000000000E+00  0.00000000000E+00  0.31110761003E+04  0.31110761003E+04  0.25500000920E-02 0.  1.
       -2   -1    0    0    0  501  0.00000000000E+00  0.00000000000E+00 -0.10656042924E+04  0.10656042924E+04  0.25500000920E-02 0. -1.
    10030    2    1    2    0    0  0.00000000000E+00  0.00000000000E+00  0.20454718079E+04  0.41766803926E+04  0.36415249807E+04 0.  0.
        2    1    3    3  502    0 -0.16154633446E+03  0.15355913101E+03  0.30953702423E+04  0.31033843722E+04  0.25500000920E-02 0.  1.
       -2    1    3    3    0  502  0.16154633446E+03 -0.15355913101E+03 -0.10498984344E+04  0.10732960204E+04  0.25500000920E-02 0. -1.
</event>
<event>
 5   0  0.4811500E-07  0.3650815E+04  0.7818609E-02  0.8078950E-01
        1   -1    0    0  501    0  0.00000000000E+00  0.00000000000E+00  0.14584403273E+04  0.14584403274E+04  0.50400001928E-02 0. -1.
       -1   -1    0    0    0  501  0.00000000000E+00  0.00000000000E+00 -0.22847098672E+04  0.22847098672E+04  0.50400001928E-02 0.  1.
    10030    2    1    2    0    0  0.00000000000E+00  0.00000000000E+00 -0.82626953984E+03  0.37431501945E+04  0.36508152550E+04 0.  0.
        4    1    3    3  502    0  0.11964484260E+04 -0.74653335110E+03  0.77519124246E+03  0.16092619288E+04  0.12699999809E+01 0. -1.
       -4    1    3    3    0  502 -0.11964484260E+04  0.74653335110E+03 -0.16014607823E+04  0.21338882657E+04  0.12699999809E+01 0.  1.
</event>
<event>
 5   0  0.1379425E-06  0.3062839E+04  0.7818609E-02  0.8226011E-01
       -2   -1    0    0    0  501  0.00000000000E+00  0.00000000000E+00  0.11957204977E+04  0.11957204977E+04  0.25500000920E-02 0. -1.
        2   -1    0    0  501    0  0.00000000000E+00  0.00000000000E+00 -0.19613656058E+04  0.19613656058E+04  0.25500000920E-02 0.  1.
    10030    2    1    2    0    0  0.00000000000E+00  0.00000000000E+00 -0.76564510807E+03  0.31570861035E+04  0.30628385908E+04 0.  0.
        4    1    3    3  502    0  0.58136617332E+03  0.13482787285E+04 -0.83141688453E+03  0.16873345270E+04  0.12699999809E+01 0. -1.
       -4    1    3    3    0  502 -0.58136617332E+03 -0.13482787285E+04  0.65771776460E+02  0.14697515765E+04  0.12699999809E+01 0.  1.
</event>
<event>
 5   0  0.4811500E-07  0.3641620E+04  0.7818609E-02  0.8081024E-01
        1   -1    0    0  501    0  0.00000000000E+00  0.00000000000E+00  0.28448984040E+04  0.28448984040E+04  0.50400001928E-02 0. -1.
       -1   -1    0    0    0  501  0.00000000000E+00  0.00000000000E+00 -0.11653663775E+04  0.11653663775E+04  0.50400001928E-02 0.  1.
    10030    2    1    2    0    0  0.00000000000E+00  0.00000000000E+00  0.16795320266E+04  0.40102647815E+04  0.36416199403E+04 0.  0.
        3    1    3    3  502    0 -0.40573521394E+03  0.27690822005E+03 -0.10910187946E+04  0.11965037595E+04  0.10100000352E+00 0.  1.
       -3    1    3    3    0  502  0.40573521394E+03 -0.27690822005E+03  0.27705508212E+04  0.28137610220E+04  0.10100000352E+00 0. -1.
</event>
<event>
 5   0  0.1491854E-06  0.3317316E+04  0.7818609E-02  0.8158503E-01
       -2   -1    0    0    0  501  0.00000000000E+00  0.00000000000E+00  0.14709105849E+04  0.14709105849E+04  0.25500000920E-02 0.  1.
        2   -1    0    0  501    0  0.00000000000E+00  0.00000000000E+00 -0.18703691845E+04  0.18703691845E+04  0.25500000920E-02 0. -1.
    10030    2    1    2    0    0  0.00000000000E+00  0.00000000000E+00 -0.39945859959E+03  0.33412797694E+04  0.33173156806E+04 0.  0.
        5    1    3    3  502    0 -0.70190579418E+03 -0.15957000589E+03 -0.17048432164E+04  0.18505801288E+04  0.46999998093E+01 0. -1.
       -5    1    3    3    0  502  0.70190579418E+03  0.15957000589E+03  0.13053846168E+04  0.14906996406E+04  0.46999998093E+01 0.  1.
</event>
<event>
 5   0  0.1491854E-06  0.3604216E+04  0.7818609E-02  0.8089527E-01
       -2   -1    0    0    0  501  0.00000000000E+00  0.00000000000E+00  0.16423023916E+04  0.16423023916E+04  0.25500000920E-02 0. -1.
        2   -1    0    0  501    0  0.00000000000E+00  0.00000000000E+00 -0.19774633326E+04  0.19774633326E+04  0.25500000920E-02 0.  1.
    10030    2    1    2    0    0  0.00000000000E+00  0.00000000000E+00 -0.33516094108E+03  0.36197657242E+04  0.36042157318E+04 0.  0.
        5    1    3    3  502    0 -0.50180880900E+03 -0.10562377564E+04 -0.15446710752E+04  0.19373902806E+04  0.46999998093E+01 0.  1.
       -5    1    3    3    0  502  0.50180880900E+03  0.10562377564E+04  0.12095101341E+04  0.16823754436E+04  0.46999998093E+01 0. -1.
</event>
<event>
 5   0  0.1444091E-06  0.2834425E+04  0.7818609E-02  0.8292660E-01
        2   -1    0    0  501    0  0.00000000000E+00  0.00000000000E+00  0.16990498436E+04  0.16990498436E+04  0.25500000920E-02 0. -1.
       -2   -1    0    0    0  501  0.00000000000E+00  0.00000000000E+00 -0.11821258506E+04  0.11821258506E+04  0.25500000920E-02 0.  1.
    10030    2    1    2    0    0  0.00000000000E+00  0.00000000000E+00  0.51692399298E+03  0.28811756942E+04  0.28344246270E+04 0.  0.
        1    1    3    3  502    0  0.70548993169E+02 -0.66724055436E+03 -0.10104481495E+04  0.12129272776E+04  0.50400001928E-02 0.  1.
       -1    1    3    3    0  502 -0.70548993169E+02  0.66724055436E+03  0.15273721425E+04  0.16682484166E+04  0.50400001928E-02 0. -1.
</event>
<event>
 5   0  0.4811500E-07  0.3575722E+04  0.7818609E-02  0.8096076E-01
       -1   -1    0    0    0  501  0.00000000000E+00  0.00000000000E+00  0.13156374670E+04  0.13156374670E+04  0.50400001928E-02 0. -1.
        1   -1    0    0  501    0  0.00000000000E+00  0.00000000000E+00 -0.24295797036E+04  0.24295797036E+04  0.50400001928E-02 0.  1.
    10030    2    1    2    0    0  0.00000000000E+00  0.00000000000E+00 -0.11139422367E+04  0.37452171706E+04  0.35757215144E+04 0.  0.
        2    1    3    3  502    0  0.14333336562E+04 -0.57655938177E+03  0.38544607909E+03  0.15923048611E+04  0.25500000920E-02 0. -1.
       -2    1    3    3    0  502 -0.14333336562E+04  0.57655938177E+03 -0.14993883158E+04  0.21529123095E+04  0.25500000920E-02 0.  1.
</event>
<event>
 5   0  0.4811500E-07  0.3678423E+04  0.7818609E-02  0.8072761E-01
        1   -1    0    0  501    0  0.00000000000E+00  0.00000000000E+00  0.13439082031E+04  0.13439082031E+04  0.50400001928E-02 0. -1.
       -1   -1    0    0    0  501  0.00000000000E+00  0.00000000000E+00 -0.25170605635E+04  0.25170605635E+04  0.50400001928E-02 0.  1.
    10030    2    1    2    0    0  0.00000000000E+00  0.00000000000E+00 -0.11731523604E+04  0.38609687666E+04  0.36784226723E+04 0.  0.
        3    1    3    3  502    0  0.63291749370E+03 -0.15354926434E+04 -0.14159642784E+04  0.21824933127E+04  0.10100000352E+00 0.  1.
       -3    1    3    3    0  502 -0.63291749370E+03  0.15354926434E+04  0.24281191806E+03  0.16784754539E+04  0.10100000352E+00 0. -1.
</event>
<event>
 5   0  0.5071661E-07  0.2307616E+04  0.7818609E-02  0.8474924E-01
       -1   -1    0    0    0  501  0.00000000000E+00  0.00000000000E+00  0.10382731734E+04  0.10382731734E+04  0.50400001928E-02 0. -1.
        1   -1    0    0  501    0  0.00000000000E+00  0.00000000000E+00 -0.12821994519E+04  0.12821994519E+04  0.50400001928E-02 0.  1.
    10030    2    1    2    0    0  0.00000000000E+00  0.00000000000E+00 -0.24392627850E+03  0.23204726253E+04  0.23076163406E+04 0.  0.
        1    1    3    3  502    0  0.42156861550E+03 -0.10202162470E+04  0.21563335858E+03  0.11247484313E+04  0.50400001928E-02 0. -1.
       -1    1    3    3    0  502 -0.42156861550E+03  0.10202162470E+04 -0.45955963708E+03  0.11957241941E+04  0.50400001928E-02 0.  1.
</event>
<event>
 5   0  0.1379425E-06  0.3293250E+04  0.7818609E-02  0.8164615E-01
       -2   -1    0    0    0  501  0.00000000000E+00  0.00000000000E+00  0.13826182095E+04  0.13826182095E+04  0.25500000920E-02 0.  1.
        2   -1    0    0  501    0  0.00000000000E+00  0.00000000000E+00 -0.19610429893E+04  0.19610429893E+04  0.25500000920E-02 0. -1.
    10030    2    1    2    0    0  0.00000000000E+00  0.00000000000E+00 -0.57842477983E+03  0.33436611988E+04  0.32932499126E+04 0.  0.
        4    1    3    3  502    0  0.10302049582E+04 -0.36625815580E+03  0.96085534676E+03  0.14555795763E+04  0.12699999809E+01 0.  1.
       -4    1    3    3    0  502 -0.10302049582E+04  0.36625815580E+03 -0.15392801266E+04  0.18880816226E+04  0.12699999809E+01 0. -1.
</event>
<event>
 5   0  0.4811500E-07  0.3548585E+04  0.7818609E-02  0.8102371E-01
       -1   -1    0    0    0  501  0.00000000000E+00  0.00000000000E+00  0.22322302659E+04  0.22322302659E+04  0.50400001928E-02 0. -1.
        1   -1    0    0  501    0  0.00000000000E+00  0.00000000000E+00 -0.14103001632E+04  0.14103001632E+04  0.50400001928E-02 0.  1.
    10030    2    1    2    0    0  0.00000000000E+00  0.00000000000E+00  0.82193010272E+03  0.36425304291E+04  0.35485854693E+04 0.  0.
        5    1    3    3  502    0  0.17684569285E+04  0.12848461677E+03  0.34488361606E+03  0.18063540636E+04  0.46999998093E+01 0.  1.
       -5    1    3    3    0  502 -0.17684569285E+04 -0.12848461677E+03  0.47704648666E+03  0.18361763655E+04  0.46999998093E+01 0. -1.
</event>
<event>
 5   0  0.4811500E-07  0.3599891E+04  0.7818609E-02  0.8090517E-01
       -1   -1    0    0    0  501  0.00000000000E+00  0.00000000000E+00  0.15410881889E+04  0.15410881889E+04  0.50400001928E-02 0. -1.
        1   -1    0    0  501    0  0.00000000000E+00  0.00000000000E+00 -0.21022834977E+04  0.21022834977E+04  0.50400001928E-02 0.  1.
    10030    2    1    2    0    0  0.00000000000E+00  0.00000000000E+00 -0.56119530879E+03  0.36433716866E+04  0.35998912584E+04 0.  0.
        4    1    3    3  502    0  0.23621122547E+03  0.10047425129E+04 -0.17730268706E+04  0.20515674878E+04  0.12699999809E+01 0.  1.
       -4    1    3    3    0  502 -0.23621122547E+03 -0.10047425129E+04  0.12118315618E+04  0.15918041988E+04  0.12699999809E+01 0. -1.
</event>
<event>
 5   0  0.4811500E-07  0.3623236E+04  0.7818609E-02  0.8085190E-01
       -1   -1    0    0    0  501  0.00000000000E+00  0.00000000000E+00  0.17666558684E+04  0.17666558684E+04  0.50400001928E-02 0.  1.
        1   -1    0    0  501    0  0.00000000000E+00  0.00000000000E+00 -0.18577239360E+04  0.18577239360E+04  0.50400001928E-02 0. -1.
    10030    2    1    2    0    0  0.00000000000E+00  0.00000000000E+00 -0.91068067552E+02  0.36243798044E+04  0.36232355118E+04 0.  0.
        2    1    3    3  502    0 -0.57760958774E+03 -0.14943325808E+04  0.80048492435E+03  0.17909323862E+04  0.25500000920E-02 0.  1.
       -2    1    3    3    0  502  0.57760958774E+03  0.14943325808E+04 -0.89155299191E+03  0.18334474182E+04  0.25500000920E-02 0. -1.
</event>
<event>
 5   0  0.1505671E-06  0.2278373E+04  0.7818609E-02  0.8486497E-01
        2   -1    0    0  501    0  0.00000000000E+00  0.00000000000E+00  0.21834126683E+04  0.21834126683E+04  0.25500000920E-02 0.  1.
       -2   -1    0    0    0  501  0.00000000000E+00  0.00000000000E+00 -0.59436580850E+03  0.59436580850E+03  0.25500000920E-02 0. -1.
    10030    2    1    2    0    0  0.00000000000E+00  0.00000000000E+00  0.15890468598E+04  0.27777784768E+04  0.22783729597E+04 0.  0.
        3    1    3    3  502    0  0.22750948260E+03  0.93657843795E+03  0.54114184465E+02  0.96533314988E+03  0.10100000352E+00 0.  1.
       -3    1    3    3    0  502 -0.22750948260E+03 -0.93657843795E+03  0.15349326754E+04  0.18124453270E+04  0.10100000352E+00 0. -1.
</event>
<event>
 5   0  0.1379425E-06  0.3458833E+04  0.7818609E-02  0.8123616E-01
       -2   -1    0    0    0  501  0.00000000000E+00  0.00000000000E+00  0.22563851388E+04  0.22563851388E+04  0.25500000920E-02 0. -1.
        2   -1    0    0  501    0  0.00000000000E+00  0.00000000000E+00 -0.13255187159E+04  0.13255187159E+04  0.25500000920E-02 0.  1.
    10030    2    1    2    0    0  0.00000000000E+00  0.00000000000E+00  0.93086642285E+03  0.35819038547E+04  0.34588325960E+04 0.  0.
        4    1    3    3  502    0 -0.24469196895E+03 -0.14880868534E+04 -0.41121133091E+03  0.15631292380E+04  0.12699999809E+01 0.  1.
       -4    1    3    3    0  502  0.24469196895E+03  0.14880868534E+04  0.13420777538E+04  0.20187746167E+04  0.12699999809E+01 0. -1.
</event>
<event>
 5   0  0.1444091E-06  0.3181954E+04  0.7818609E-02  0.8193599E-01
        2   -1    0    0  501    0  0.00000000000E+00  0.00000000000E+00  0.16161262367E+04  0.16161262367E+04  0.25500000920E-02 0. -1.
       -2   -1    0    0    0  501  0.00000000000E+00  0.00000000000E+00 -0.15662187469E+04  0.15662187469E+04  0.25500000920E-02 0.  1.
    10030    2    1    2    0    0  0.00000000000E+00  0.00000000000E+00  0.49907489750E+02  0.31823449836E+04  0.31819536196E+04 0.  0.
        1    1    3    3  502    0 -0.78353784836E+03 -0.79842731367E+03  0.11563706922E+04  0.16089160677E+04  0.50400001928E-02 0. -1.
       -1    1    3    3    0  502  0.78353784836E+03  0.79842731367E+03 -0.11064632025E+04  0.15734289159E+04  0.50400001928E-02 0.  1.
</event>
<event>
 5   0  0.1505671E-06  0.4002412E+04  0.7818609E-02  0.8004060E-01
       -2   -1    0    0    0  501  0.00000000000E+00  0.00000000000E+00  0.17611010671E+04  0.17611010671E+04  0.25500000920E-02 0.  1.
        2   -1    0    0  501    0  0.00000000000E+00  0.00000000000E+00 -0.22740462911E+04  0.22740462911E+04  0.25500000920E-02 0. -1.
    10030    2    1    2    0    0  0.00000000000E+00  0.00000000000E+00 -0.51294522392E+03  0.40351473582E+04  0.40024119478E+04 0.  0.
        3    1    3    3  502    0  0.34014753830E+03 -0.13828409588E+04  0.11610412468E+04  0.18373802688E+04  0.10100000352E+00 0.  1.
       -3    1    3    3    0  502 -0.34014753830E+03  0.13828409588E+04 -0.16739864707E+04  0.21977670894E+04  0.10100000352E+00 0. -1.
</event>
<event>
 5   0  0.4811500E-07  0.2960642E+04  0.7818609E-02  0.8255060E-01
        1   -1    0    0  501    0  0.00000000000E+00  0.00000000000E+00  0.11313798899E+04  0.11313798899E+04  0.50400001928E-02 0.  1.
       -1   -1    0    0    0  501  0.00000000000E+00  0.00000000000E+00 -0.19368830630E+04  0.19368830630E+04  0.50400001928E-02 0. -1.
    10030    2    1    2    0    0  0.00000000000E+00  0.00000000000E+00 -0.80550317314E+03  0.30682629529E+04  0.29606421915E+04 0.  0.
        5    1    3    3  502    0 -0.76482971432E+03  0.43516927163E+03 -0.16363968652E+04  0.18579971952E+04  0.46999998093E+01 0. -1.
       -5    1    3    3    0  502  0.76482971432E+03 -0.43516927163E+03  0.83089369205E+03  0.12102657577E+04  0.46999998093E+01 0.  1.
</event>
<event>
 5   0  0.4811500E-07  0.3588528E+04  0.7818609E-02  0.8093125E-01
        1   -1    0    0  501    0  0.00000000000E+00  0.00000000000E+00  0.11193679213E+04  0.11193679213E+04  0.50400001928E-02 0. -1.
       -1   -1    0    0    0  501  0.00000000000E+00  0.00000000000E+00 -0.28760718566E+04  0.28760718566E+04  0.50400001928E-02 0.  1.
    10030    2    1    2    0    0  0.00000000000E+00  0.00000000000E+00 -0.17567039353E+04  0.39954397779E+04  0.35885275954E+04 0.  0.
        4    1    3    3  502    0  0.31978001940E+02  0.17256193452E+04 -0.14244778029E+04  0.22378389891E+04  0.12699999809E+01 0.  1.
       -4    1    3    3    0  502 -0.31978001940E+02 -0.17256193452E+04 -0.33222613235E+03  0.17576007889E+04  0.12699999809E+01 0. -1.
</event>
<event>
 5   0  0.4811500E-07  0.3510754E+04  0.7818609E-02  0.8111246E-01
        1   -1    0    0  501    0  0.00000000000E+00  0.00000000000E+00  0.17457743315E+04  0.17457743315E+04  0.50400001928E-02 0. -1.
       -1   -1    0    0    0  501  0.00000000000E+00  0.00000000000E+00 -0.17650320245E+04  0.17650320245E+04  0.50400001928E-02 0.  1.
    10030    2    1    2    0    0  0.00000000000E+00  0.00000000000E+00 -0.19257693050E+02  0.35108063560E+04  0.35107535388E+04 0.  0.
        3    1    3    3  502    0 -0.17361044247E+04 -0.30590995878E+01 -0.26901598032E+03  0.17568259844E+04  0.10100000352E+00 0. -1.
       -3    1    3    3    0  502  0.17361044247E+04  0.30590995878E+01  0.24975828726E+03  0.17539803716E+04  0.10100000352E+00 0.  1.
</event>
<event>
 5   0  0.5071661E-07  0.2561401E+04  0.7818609E-02  0.8381432E-01
       -1   -1    0    0    0  501  0.00000000000E+00  0.00000000000E+00  0.60702325471E+03  0.60702325473E+03  0.50400001928E-02 0.  1.
        1   -1    0    0  501    0  0.00000000000E+00  0.00000000000E+00 -0.27020279839E+04  0.27020279839E+04  0.50400001928E-02 0. -1.
    10030    2    1    2    0    0  0.00000000000E+00  0.00000000000E+00 -0.20950047292E+04  0.33090512387E+04  0.25614010394E+04 0.  0.
        1    1    3    3  502    0 -0.24448312201E+02  0.50317041467E+03 -0.25686544399E+04  0.26175874040E+04  0.50400001928E-02 0. -1.
       -1    1    3    3    0  502  0.24448312201E+02 -0.50317041467E+03  0.47364971066E+03  0.69146383463E+03  0.50400001928E-02 0.  1.
</event>
<event>
 5   0  0.1379425E-06  0.3653979E+04  0.7818609E-02  0.8078238E-01
       -2   -1    0    0    0  501  0.00000000000E+00  0.00000000000E+00  0.12804232165E+04  0.12804232165E+04  0.25500000920E-02 0. -1.
        2   -1    0    0  501    0  0.00000000000E+00  0.00000000000E+00 -0.26068645716E+04  0.26068645716E+04  0.25500000920E-02 0.  1.
    10030    2    1    2    0    0  0.00000000000E+00  0.00000000000E+00 -0.13264413550E+04  0.38872877881E+04  0.36539786096E+04 0.  0.
        4    1    3    3  502    0 -0.12764870577E+04 -0.12970964344E+04 -0.49164712124E+03  0.18850986376E+04  0.12699999809E+01 0. -1.
       -4    1    3    3    0  502  0.12764870577E+04  0.12970964344E+04 -0.83479423381E+03  0.20021891505E+04  0.12699999809E+01 0.  1.
</event>
<event>
 5   0  0.1444091E-06  0.3310592E+04  0.7818609E-02  0.8160206E-01
        2   -1    0    0  501    0  0.00000000000E+00  0.00000000000E+00  0.21667784364E+04  0.21667784364E+04  0.25500000920E-02 0. -1.
       -2   -1    0    0    0  501  0.00000000000E+00  0.00000000000E+00 -0.12645521041E+04  0.12645521041E+04  0.25500000920E-02 0.  1.
    10030    2    1    2    0    0  0.00000000000E+00  0.00000000000E+00  0.90222633231E+03  0.34313305405E+04  0.33105916274E+04 0.  0.
        1    1    3    3  502    0  0.89967234042E+03 -0.32930908671E+03 -0.94798742091E+03  0.13477889096E+04  0.50400001928E-02 0.  1.
       -1    1    3    3    0  502 -0.89967234042E+03  0.32930908671E+03  0.18502137532E+04  0.20835416308E+04  0.50400001928E-02 0. -1.
</event>
<event>
 5   0  0.1468942E-06  0.3646509E+04  0.7818609E-02  0.8079920E-01
        2   -1    0    0  501    0  0.00000000000E+00  0.00000000000E+00  0.23556798127E+04  0.23556798127E+04  0.25500000920E-02 0. -1.
       -2   -1    0    0    0  501  0.00000000000E+00  0.00000000000E+00 -0.14111669137E+04  0.14111669137E+04  0.25500000920E-02 0.  1.
    10030    2    1    2    0    0  0.00000000000E+00  0.00000000000E+00  0.94451289903E+03  0.37668467265E+04  0.36465092409E+04 0.  0.
        2    1    3    3  502    0  0.12007476723E+04 -0.50276340976E+03  0.17909786466E+04  0.22140845809E+04  0.25500000920E-02 0. -1.
       -2    1    3    3    0  502 -0.12007476723E+04  0.50276340976E+03 -0.84646574760E+03  0.15527621455E+04  0.25500000920E-02 0.  1.
</event>
<event>
 5   0  0.4811500E-07  0.3574857E+04  0.7818609E-02  0.8096275E-01
       -1   -1    0    0    0  501  0.00000000000E+00  0.00000000000E+00  0.15515524282E+04  0.15515524282E+04  0.50400001928E-02 0. -1.
        1   -1    0    0  501    0  0.00000000000E+00  0.00000000000E+00 -0.20591636913E+04  0.20591636913E+04  0.50400001928E-02 0.  1.
    10030    2    1    2    0    0  0.00000000000E+00  0.00000000000E+00 -0.50761126310E+03  0.36107161195E+04  0.35748568785E+04 0.  0.
        3    1    3    3  502    0 -0.57898331872E+03  0.15702606982E+04 -0.88776407356E+03  0.18944828857E+04  0.10100000352E+00 0.  1.
       -3    1    3    3    0  502  0.57898331872E+03 -0.15702606982E+04  0.38015281046E+03  0.17162332339E+04  0.10100000352E+00 0. -1.
</event>
<event>
 5   0  0.1505671E-06  0.3436905E+04  0.7818609E-02  0.8128907E-01
       -2   -1    0    0    0  501  0.00000000000E+00  0.00000000000E+00  0.13424480130E+04  0.13424480130E+04  0.25500000920E-02 0.  1.
        2   -1    0    0  501    0  0.00000000000E+00  0.00000000000E+00 -0.21997721016E+04  0.21997721016E+04  0.25500000920E-02 0. -1.
    10030    2    1    2    0    0  0.00000000000E+00  0.00000000000E+00 -0.85732408861E+03  0.35422201146E+04  0.34369054027E+04 0.  0.
        3    1    3    3  502    0 -0.15032869900E+04 -0.16212282985E+03 -0.12703404183E+04  0.19748216059E+04  0.10100000352E+00 0. -1.
       -3    1    3    3    0  502  0.15032869900E+04  0.16212282985E+03  0.41301632971E+03  0.15673985087E+04  0.10100000352E+00 0.  1.
</event>
<event>
 5   0  0.1491854E-06  0.3649027E+04  0.7818609E-02  0.8079353E-01
        2   -1    0    0  501    0  0.00000000000E+00  0.00000000000E+00  0.17113652785E+04  0.17113652785E+04  0.25500000920E-02 0. -1.
       -2   -1    0    0    0  501  0.00000000000E+00  0.00000000000E+00 -0.19451426955E+04  0.19451426955E+04  0.25500000920E-02 0.  1.
    10030    2    1    2    0    0  0.00000000000E+00  0.00000000000E+00 -0.23377741698E+03  0.36565079740E+04  0.36490270872E+04 0.  0.
        5    1    3    3  502    0 -0.61667987483E+03 -0.53752588231E+03  0.15172824974E+04  0.17237738857E+04  0.46999998093E+01 0. -1.
       -5    1    3    3    0  502  0.61667987483E+03  0.53752588231E+03 -0.17510599144E+04  0.19327340882E+04  0.46999998093E+01 0.  1.
</event>
<event>
 5   0  0.1444091E-06  0.3556215E+04  0.7818609E-02  0.8100595E-01
       -2   -1    0    0    0  501  0.00000000000E+00  0.00000000000E+00  0.12786027391E+04  0.12786027391E+04  0.25500000920E-02 0.  1.
        2   -1    0    0  501    0  0.00000000000E+00  0.00000000000E+00 -0.24727513396E+04  0.24727513396E+04  0.25500000920E-02 0. -1.
    10030    2    1    2    0    0  0.00000000000E+00  0.00000000000E+00 -0.11941486005E+04  0.37513540787E+04  0.35562151994E+04 0.  0.
        1    1    3    3  502    0  0.85743908905E+03 -0.14325243286E+04 -0.12424795589E+04  0.20811254642E+04  0.50400001928E-02 0. -1.
       -1    1    3    3    0  502 -0.85743908905E+03  0.14325243286E+04  0.48330958425E+02  0.16702286146E+04  0.50400001928E-02 0.  1.
</event>
<event>
 5   0  0.4811500E-07  0.3567385E+04  0.7818609E-02  0.8098004E-01
       -1   -1    0    0    0  501  0.00000000000E+00  0.00000000000E+00  0.23198256698E+04  0.23198256698E+04  0.50400001928E-02 0. -1.
        1   -1    0    0  501    0  0.00000000000E+00  0.00000000000E+00 -0.13714646335E+04  0.13714646335E+04  0.50400001928E-02 0.  1.
    10030    2    1    2    0    0  0.00000000000E+00  0.00000000000E+00  0.94836103635E+03  0.36912903033E+04  0.35673849593E+04 0.  0.
        3    1    3    3  502    0 -0.10191202575E+04 -0.48776066221E+03  0.19023525873E+04  0.22125690813E+04  0.10100000352E+00 0. -1.
       -3    1    3    3    0  502  0.10191202575E+04  0.48776066221E+03 -0.95399155099E+03  0.14787212220E+04  0.10100000352E+00 0.  1.
</event>
<event>
 5   0  0.4811500E-07  0.3693197E+04  0.7818609E-02  0.8069471E-01
        1   -1    0    0  501    0  0.00000000000E+00  0.00000000000E+00  0.28820065190E+04  0.28820065190E+04  0.50400001928E-02 0. -1.
       -1   -1    0    0    0  501  0.00000000000E+00  0.00000000000E+00 -0.11831774995E+04  0.11831774995E+04  0.50400001928E-02 0.  1.
    10030    2    1    2    0    0  0.00000000000E+00  0.00000000000E+00  0.16988290195E+04  0.40651840185E+04  0.36931965920E+04 0.  0.
        4    1    3    3  502    0 -0.80657983147E+03  0.37142052622E+03 -0.93273601622E+03  0.12878362942E+04  0.12699999809E+01 0.  1.
       -4    1    3    3    0  502  0.80657983147E+03 -0.37142052622E+03  0.26315650357E+04  0.27773477243E+04  0.12699999809E+01 0. -1.
</event>
<event>
 5   0  0.4811500E-07  0.2545211E+04  0.7818609E-02  0.8387053E-01
       -1   -1    0    0    0  501  0.00000000000E+00  0.00000000000E+00  0.71896443192E+03  0.71896443194E+03  0.50400001928E-02 0. -1.
        1   -1    0    0  501    0  0.00000000000E+00  0.00000000000E+00 -0.22525804795E+04  0.22525804795E+04  0.50400001928E-02 0.  1.
    10030    2    1    2    0    0  0.00000000000E+00  0.00000000000E+00 -0.15336160476E+04  0.29715449115E+04  0.25452113821E+04 0.  0.
        3    1    3    3  502    0 -0.49845582654E+03  0.10652860579E+04 -0.13342590584E+04  0.17786342629E+04  0.10100000352E+00 0.  1.
       -3    1    3    3    0  502  0.49845582654E+03 -0.10652860579E+04 -0.19935698919E+03  0.11929106485E+04  0.10100000352E+00 0. -1.
</event>
<event>
 5   0  0.1379425E-06  0.2791659E+04  0.7818609E-02  0.8305863E-01
       -2   -1    0    0    0  501  0.00000000000E+00  0.00000000000E+00  0.17808789048E+04  0.17808789048E+04  0.25500000920E-02 0. -1.
        2   -1    0    0  501    0  0.00000000000E+00  0.00000000000E+00 -0.10940329139E+04  0.10940329139E+04  0.25500000920E-02 0.  1.
    10030    2    1    2    0    0  0.00000000000E+00  0.00000000000E+00  0.68684599092E+03  0.28749118187E+04  0.27916591035E+04 0.  0.
        4    1    3    3  502    0  0.52903617690E+03  0.84590088166E+02 -0.98393071606E+03  0.11203374609E+04  0.12699999809E+01 0.  1.
       -4    1    3    3    0  502 -0.52903617690E+03 -0.84590088166E+02  0.16707767070E+04  0.17545743578E+04  0.12699999809E+01 0. -1.
</event>
<event>
 5   0  0.1491854E-06  0.2566295E+04  0.7818609E-02  0.8379741E-01
       -2   -1    0    0    0  501  0.00000000000E+00  0.00000000000E+00  0.99699913727E+03  0.99699913727E+03  0.25500000920E-02 0.  1.
        2   -1    0    0  501    0  0.00000000000E+00  0.00000000000E+00 -0.16514229080E+04  0.16514229080E+04  0.25500000920E-02 0. -1.
    10030    2    1    2    0    0  0.00000000000E+00  0.00000000000E+00 -0.65442377078E+03  0.26484220453E+04  0.25662947723E+04 0.  0.
        5    1    3    3  502    0 -0.54098089173E+03  0.11108433606E+04  0.30003784246E+02  0.12359432083E+04  0.46999998093E+01 0.  1.
       -5    1    3    3    0  502  0.54098089173E+03 -0.11108433606E+04 -0.68442755502E+03  0.14124788370E+04  0.46999998093E+01 0. -1.
</event>
<event>
 5   0  0.1468942E-06  0.3594805E+04  0.7818609E-02  0.8091683E-01
       -2   -1    0    0    0  501  0.00000000000E+00  0.00000000000E+00  0.22623078545E+04  0.22623078545E+04  0.25500000920E-02 0. -1.
        2   -1    0    0  501    0  0.00000000000E+00  0.00000000000E+00 -0.14280357191E+04  0.14280357191E+04  0.25500000920E-02 0.  1.
    10030    2    1    2    0    0  0.00000000000E+00  0.00000000000E+00  0.83427213543E+03  0.36903435736E+04  0.35948053765E+04 0.  0.
        2    1    3    3  502    0  0.51371624634E+03  0.80212571900E+03  0.19818984576E+04  0.21989159936E+04  0.25500000920E-02 0. -1.
       -2    1    3    3    0  502 -0.51371624634E+03 -0.80212571900E+03 -0.11476263222E+04  0.14914275799E+04  0.25500000920E-02 0.  1.
</event>
<event>
 5   0  0.1505671E-06  0.3723436E+04  0.7818609E-02  0.8062788E-01
       -2   -1    0    0    0  501  0.00000000000E+00  0.00000000000E+00  0.13456172395E+04  0.13456172395E+04  0.25500000920E-02 0. -1.
        2   -1    0    0  501    0  0.00000000000E+00  0.00000000000E+00 -0.25757645468E+04  0.25757645468E+04  0.25500000920E-02 0.  1.
    10030    2    1    2    0    0  0.00000000000E+00  0.00000000000E+00 -0.12301473074E+04  0.39213817863E+04  0.37234356066E+04 0.  0.
        3    1    3    3  502    0 -0.13144532826E+04  0.10577367163E+04 -0.14439322597E+04  0.22207059180E+04  0.10100000352E+00 0. -1.
       -3    1    3    3    0  502  0.13144532826E+04 -0.10577367163E+04  0.21378495234E+03  0.17006758684E+04  0.10100000352E+00 0.  1.
</event>
<event>
 5   0  0.1468942E-06  0.3471516E+04  0.7818609E-02  0.8120574E-01
        2   -1    0    0  501    0  0.00000000000E+00  0.00000000000E+00  0.18889168073E+04  0.18889168073E+04  0.25500000920E-02 0.  1.
       -2   -1    0    0    0  501  0.00000000000E+00  0.00000000000E+00 -0.15950174877E+04  0.15950174877E+04  0.25500000920E-02 0. -1.
    10030    2    1    2    0    0  0.00000000000E+00  0.00000000000E+00  0.29389931961E+03  0.34839342949E+04  0.34715157153E+04 0.  0.
        2    1    3    3  502    0 -0.61090644407E+03 -0.15271905542E+04 -0.40941394990E+03  0.16950331721E+04  0.25500000920E-02 0. -1.
       -2    1    3    3    0  502  0.61090644407E+03  0.15271905542E+04  0.70331326951E+03  0.17889011228E+04  0.25500000920E-02 0.  1.
</event>
<event>
 5   0  0.1505671E-06  0.3606157E+04  0.7818609E-02  0.8089083E-01
        2   -1    0    0  501    0  0.00000000000E+00  0.00000000000E+00  0.16701207412E+04  0.16701207412E+04  0.25500000920E-02 0.  1.
       -2   -1    0    0    0  501  0.00000000000E+00  0.00000000000E+00 -0.19466212232E+04  0.19466212232E+04  0.25500000920E-02 0. -1.
    10030    2    1    2    0    0  0.00000000000E+00  0.00000000000E+00 -0.27650048204E+03  0.36167419644E+04  0.36061572235E+04 0.  0.
        3    1    3    3  502    0  0.67407446046E+03 -0.63721791026E+03  0.14124670576E+04  0.16898184051E+04  0.10100000352E+00 0.  1.
       -3    1    3    3    0  502 -0.67407446046E+03  0.63721791026E+03 -0.16889675396E+04  0.19269235593E+04  0.10100000352E+00 0. -1.
</event>
<event>
 5   0  0.1505671E-06  0.3569902E+04  0.7818609E-02  0.8097421E-01
        2   -1    0    0  501    0  0.00000000000E+00  0.00000000000E+00  0.24116117457E+04  0.24116117457E+04  0.25500000920E-02 0.  1.
       -2   -1    0    0    0  501  0.00000000000E+00  0.00000000000E+00 -0.13211288769E+04  0.13211288769E+04  0.25500000920E-02 0. -1.
    10030    2    1    2    0    0  0.00000000000E+00  0.00000000000E+00  0.10904828688E+04  0.37327406225E+04  0.35699019129E+04 0.  0.
        3    1    3    3  502    0  0.53246533766E+03  0.11035811867E+04 -0.81189956962E+03  0.14698951299E+04  0.10100000352E+00 0. -1.
       -3    1    3    3    0  502 -0.53246533766E+03 -0.11035811867E+04  0.19023824384E+04  0.22628454927E+04  0.10100000352E+00 0.  1.
</event>
<event>
 5   0  0.1379425E-06  0.2447583E+04  0.7818609E-02  0.8421901E-01
       -2   -1    0    0    0  501  0.00000000000E+00  0.00000000000E+00  0.12222527622E+04  0.12222527622E+04  0.25500000920E-02 0. -1.
        2   -1    0    0  501    0  0.00000000000E+00  0.00000000000E+00 -0.12253321423E+04  0.12253321423E+04  0.25500000920E-02 0.  1.
    10030    2    1    2    0    0  0.00000000000E+00  0.00000000000E+00 -0.30793801054E+01  0.24475849045E+04  0.24475829674E+04 0.  0.
        4    1    3    3  502    0  0.20217861504E+03  0.32092811027E+03  0.11619873106E+04  0.12223285840E+04  0.12699999809E+01 0. -1.
       -4    1    3    3    0  502 -0.20217861504E+03 -0.32092811027E+03 -0.11650666907E+04  0.12252563205E+04  0.12699999809E+01 0.  1.
</event>
<event>
 5   0  0.4811500E-07  0.3554232E+04  0.7818609E-02  0.8101057E-01
       -1   -1    0    0    0  501  0.00000000000E+00  0.00000000000E+00  0.11274093163E+04  0.11274093163E+04  0.50400001928E-02 0.  1.
        1   -1    0    0  501    0  0.00000000000E+00  0.00000000000E+00 -0.28012376474E+04  0.28012376474E+04  0.50400001928E-02 0. -1.
    10030    2    1    2    0    0  0.00000000000E+00  0.00000000000E+00 -0.16738283311E+04  0.39286469637E+04  0.35542320808E+04 0.  0.
        3    1    3    3  502    0  0.58251694086E+03 -0.10772100793E+04  0.58654922024E+03  0.13578466553E+04  0.10100000352E+00 0.  1.
       -3    1    3    3    0  502 -0.58251694086E+03  0.10772100793E+04 -0.22603775513E+04  0.25708003084E+04  0.10100000352E+00 0. -1.
</event>
<event>
 5   0  0.4811500E-07  0.3081796E+04  0.7818609E-02  0.8220752E-01
       -1   -1    0    0    0  501  0.00000000000E+00  0.00000000000E+00  0.12896394002E+04  0.12896394002E+04  0.50400001928E-02 0. -1.
        1   -1    0    0  501    0  0.00000000000E+00  0.00000000000E+00 -0.18411087526E+04  0.18411087526E+04  0.50400001928E-02 0.  1.
    10030    2    1    2    0    0  0.00000000000E+00  0.00000000000E+00 -0.55146935237E+03  0.31307481528E+04  0.30817958319E+04 0.  0.
        2    1    3    3  502    0 -0.11618692411E+03 -0.29137494120E+03 -0.18083293433E+04  0.18353347846E+04  0.25500000920E-02 0.  1.
       -2    1    3    3    0  502  0.11618692411E+03  0.29137494120E+03  0.12568599909E+04  0.12954133682E+04  0.25500000920E-02 0. -1.
</event>
<event>
 5   0  0.4811500E-07  0.3174753E+04  0.7818609E-02  0.8195517E-01
       -1   -1    0    0    0  501  0.00000000000E+00  0.00000000000E+00  0.13276425776E+04  0.13276425776E+04  0.50400001928E-02 0. -1.
        1   -1    0    0  501    0  0.00000000000E+00  0.00000000000E+00 -0.18979233371E+04  0.18979233371E+04  0.50400001928E-02 0.  1.
    10030    2    1    2    0    0  0.00000000000E+00  0.00000000000E+00 -0.57028075950E+03  0.32255659146E+04  0.31747527975E+04 0.  0.
        2    1    3    3  502    0 -0.15758110519E+04  0.16459791735E+03 -0.18615994156E+03  0.15952831942E+04  0.25500000920E-02 0. -1.
       -2    1    3    3    0  502  0.15758110519E+04 -0.16459791735E+03 -0.38412081794E+03  0.16302827204E+04  0.25500000920E-02 0.  1.
</event>
<event>
 5   0  0.4811500E-07  0.3620672E+04  0.7818609E-02  0.8085773E-01
        1   -1    0    0  501    0  0.00000000000E+00  0.00000000000E+00  0.30572137500E+04  0.30572137500E+04  0.50400001928E-02 0. -1.
       -1   -1    0    0    0  501  0.00000000000E+00  0.00000000000E+00 -0.10719946411E+04  0.10719946411E+04  0.50400001928E-02 0.  1.
    10030    2    1    2    0    0  0.00000000000E+00  0.00000000000E+00  0.19852191089E+04  0.41292083911E+04  0.36206721789E+04 0.  0.
        3    1    3    3  502    0 -0.48391276655E+02  0.95656917013E+03  0.27445891300E+04  0.29069117282E+04  0.10100000352E+00 0. -1.
       -3    1    3    3    0  502  0.48391276655E+02 -0.95656917013E+03 -0.75937002112E+03  0.12222966629E+04  0.10100000352E+00 0.  1.
</event>
<event>
 5   0  0.1444091E-06  0.3637267E+04  0.7818609E-02  0.8082008E-01
       -2   -1    0    0    0  501  0.00000000000E+00  0.00000000000E+00  0.12291310172E+04  0.12291310172E+04  0.25500000920E-02 0. -1.
        2   -1    0    0  501    0  0.00000000000E+00  0.00000000000E+00 -0.26908668798E+04  0.26908668798E+04  0.25500000920E-02 0.  1.
    10030    2    1    2    0    0  0.00000000000E+00  0.00000000000E+00 -0.14617358626E+04  0.39199978970E+04  0.36372670758E+04 0.  0.
        1    1    3    3  502    0  0.76510629467E+03  0.79652793791E+03  0.82628968857E+03  0.13793473266E+04  0.50400001928E-02 0. -1.
       -1    1    3    3    0  502 -0.76510629467E+03 -0.79652793791E+03 -0.22880255512E+04  0.25406505704E+04  0.50400001928E-02 0.  1.
</event>
<event>
 5   0  0.4811500E-07  0.3563690E+04  0.7818609E-02  0.8098860E-01
       -1   -1    0    0    0  501  0.00000000000E+00  0.00000000000E+00  0.11595011130E+04  0.11595011130E+04  0.50400001928E-02 0.  1.
        1   -1    0    0  501    0  0.00000000000E+00  0.00000000000E+00 -0.27382218962E+04  0.27382218962E+04  0.50400001928E-02 0. -1.
    10030    2    1    2    0    0  0.00000000000E+00  0.00000000000E+00 -0.15787207832E+04  0.38977230092E+04  0.35636898497E+04 0.  0.
        3    1    3    3  502    0  0.44568051547E+03  0.14759321813E+04  0.18765820687E+03  0.15531331361E+04  0.10100000352E+00 0.  1.
       -3    1    3    3    0  502 -0.44568051547E+03 -0.14759321813E+04 -0.17663789901E+04  0.23445898730E+04  0.10100000352E+00 0. -1.
</event>
<event>
 5   0  0.1505671E-06  0.3559161E+04  0.7818609E-02  0.8099911E-01
       -2   -1    0    0    0  501  0.00000000000E+00  0.00000000000E+00  0.11841631873E+04  0.11841631873E+04  0.25500000920E-02 0.  1.
        2   -1    0    0  501    0  0.00000000000E+00  0.00000000000E+00 -0.26743843628E+04  0.26743843628E+04  0.25500000920E-02 0. -1.
    10030    2    1    2    0    0  0.00000000000E+00  0.00000000000E+00 -0.14902211755E+04  0.38585475501E+04  0.35591614244E+04 0.  0.
        3    1    3    3  502    0  0.10995691847E+04 -0.89761144764E+03 -0.19087822444E+04  0.23786988817E+04  0.10100000352E+00 0. -1.
       -3    1    3    3    0  502 -0.10995691847E+04  0.89761144764E+03  0.41856106897E+03  0.14798486684E+04  0.10100000352E+00 0.  1.
</event>
<event>
 5   0  0.5071661E-07  0.3600585E+04  0.7818609E-02  0.8090358E-01
        1   -1    0    0  501    0  0.00000000000E+00  0.00000000000E+00  0.23182323719E+04  0.23182323719E+04  0.50400001928E-02 0. -1.
       -1   -1    0    0    0  501  0.00000000000E+00  0.00000000000E+00 -0.13980711000E+04  0.13980711000E+04  0.50400001928E-02 0.  1.
    10030    2    1    2    0    0  0.00000000000E+00  0.00000000000E+00  0.92016127194E+03  0.37163034719E+04  0.36005853314E+04 0.  0.
        1    1    3    3  502    0 -0.17500524289E+04 -0.37589328190E+03  0.26134523347E+03  0.18089446079E+04  0.50400001928E-02 0.  1.
       -1    1    3    3    0  502  0.17500524289E+04  0.37589328190E+03  0.65881603847E+03  0.19073588640E+04  0.50400001928E-02 0. -1.
</event>
<event>
 5   0  0.1379425E-06  0.3620151E+04  0.7818609E-02  0.8085891E-01
        2   -1    0    0  501    0  0.00000000000E+00  0.00000000000E+00  0.21579617103E+04  0.21579617103E+04  0.25500000920E-02 0. -1.
       -2   -1    0    0    0  501  0.00000000000E+00  0.00000000000E+00 -0.15182720948E+04  0.15182720948E+04  0.25500000920E-02 0.  1.
    10030    2    1    2    0    0  0.00000000000E+00  0.00000000000E+00  0.63968961549E+03  0.36762338052E+04  0.36201508513E+04 0.  0.
        4    1    3    3  502    0  0.84594310791E+03 -0.75713593622E+03  0.17514711558E+04  0.20872295969E+04  0.12699999809E+01 0. -1.
       -4    1    3    3    0  502 -0.84594310791E+03  0.75713593622E+03 -0.11117815403E+04  0.15890042083E+04  0.12699999809E+01 0.  1.
</event>
<event>
 5   0  0.1379425E-06  0.3596001E+04  0.7818609E-02  0.8091408E-01
       -2   -1    0    0    0  501  0.00000000000E+00  0.00000000000E+00  0.15184910216E+04  0.15184910216E+04  0.25500000920E-02 0. -1.
        2   -1    0    0  501    0  0.00000000000E+00  0.00000000000E+00 -0.21289593705E+04  0.21289593705E+04  0.25500000920E-02 0.  1.
    10030    2    1    2    0    0  0.00000000000E+00  0.00000000000E+00 -0.61046834884E+03  0.36474503921E+04  0.35960009396E+04 0.  0.
        4    1    3    3  502    0 -0.73168772513E+03  0.34790379696E+03 -0.19333160846E+04  0.20962148446E+04  0.12699999809E+01 0.  1.
       -4    1    3    3    0  502  0.73168772513E+03 -0.34790379696E+03  0.13228477357E+04  0.15512355475E+04  0.12699999809E+01 0. -1.
</event>
<event>
 5   0  0.4811500E-07  0.3581245E+04  0.7818609E-02  0.8094801E-01
       -1   -1    0    0    0  501  0.00000000000E+00  0.00000000000E+00  0.11975739293E+04  0.11975739294E+04  0.50400001928E-02 0. -1.
        1   -1    0    0  501    0  0.00000000000E+00  0.00000000000E+00 -0.26773539214E+04  0.26773539214E+04  0.50400001928E-02 0.  1.
    10030    2    1    2    0    0  0.00000000000E+00  0.00000000000E+00 -0.14797799920E+04  0.38749278508E+04  0.35812451778E+04 0.  0.
        5    1    3    3  502    0 -0.90518617932E+02  0.94007342333E+03 -0.23859530910E+04  0.25660720769E+04  0.46999998093E+01 0.  1.
       -5    1    3    3    0  502  0.90518617932E+02 -0.94007342333E+03  0.90617309896E+03  0.13088557738E+04  0.46999998093E+01 0. -1.
</event>
<event>
 5   0  0.4811500E-07  0.2319406E+04  0.7818609E-02  0.8470309E-01
       -1   -1    0    0    0  501  0.00000000000E+00  0.00000000000E+00  0.15265619505E+04  0.15265619505E+04  0.50400001928E-02 0. -1.
        1   -1    0    0  501    0  0.00000000000E+00  0.00000000000E+00 -0.88100642364E+03  0.88100642366E+03  0.50400001928E-02 0.  1.
    10030    2    1    2    0    0  0.00000000000E+00  0.00000000000E+00  0.64555552681E+03  0.24075683741E+04  0.23194058588E+04 0.  0.
        3    1    3    3  502    0  0.77427432024E+03 -0.85634489258E+03  0.20867409078E+03  0.11731888954E+04  0.10100000352E+00 0. -1.
       -3    1    3    3    0  502 -0.77427432024E+03  0.85634489258E+03  0.43688143603E+03  0.12343794787E+04  0.10100000352E+00 0.  1.
</event>
<event>
 5   0  0.4811500E-07  0.3552971E+04  0.7818609E-02  0.8101350E-01
       -1   -1    0    0    0  501  0.00000000000E+00  0.00000000000E+00  0.15968111819E+04  0.15968111819E+04  0.50400001928E-02 0.  1.
        1   -1    0    0  501    0  0.00000000000E+00  0.00000000000E+00 -0.19763763552E+04  0.19763763552E+04  0.50400001928E-02 0. -1.
    10030    2    1    2    0    0  0.00000000000E+00  0.00000000000E+00 -0.37956517326E+03  0.35731875371E+04  0.35529705114E+04 0.  0.
        2    1    3    3  502    0  0.73382091705E+03 -0.12515727616E+04  0.84122023128E+03  0.16770745342E+04  0.25500000920E-02 0.  1.
       -2    1    3    3    0  502 -0.73382091705E+03  0.12515727616E+04 -0.12207854045E+04  0.18961130029E+04  0.25500000920E-02 0. -1.
</event>
<event>
 5   0  0.1379425E-06  0.2375591E+04  0.7818609E-02  0.8448699E-01
        2   -1    0    0  501    0  0.00000000000E+00  0.00000000000E+00  0.13223555229E+04  0.13223555229E+04  0.25500000920E-02 0. -1.
       -2   -1    0    0    0  501  0.00000000000E+00  0.00000000000E+00 -0.10669277481E+04  0.10669277481E+04  0.25500000920E-02 0.  1.
    10030    2    1    2    0    0  0.00000000000E+00  0.00000000000E+00  0.25542777481E+03  0.23892832711E+04  0.23755907058E+04 0.  0.
        4    1    3    3  502    0  0.46478283343E+03 -0.49943811080E+03  0.11056322512E+04  0.12991865903E+04  0.12699999809E+01 0. -1.
       -4    1    3    3    0  502 -0.46478283343E+03  0.49943811080E+03 -0.85020447637E+03  0.10900966807E+04  0.12699999809E+01 0.  1.
</event>
<event>
 5   0  0.4811500E-07  0.3610315E+04  0.7818609E-02  0.8088133E-01
       -1   -1    0    0    0  501  0.00000000000E+00  0.00000000000E+00  0.19347265151E+04  0.19347265151E+04  0.50400001928E-02 0.  1.
        1   -1    0    0  501    0  0.00000000000E+00  0.00000000000E+00 -0.16842661360E+04  0.16842661360E+04  0.50400001928E-02 0. -1.
    10030    2    1    2    0    0  0.00000000000E+00  0.00000000000E+00  0.25046037916E+03  0.36189926511E+04  0.36103154166E+04 0.  0.
        3    1    3    3  502    0  0.12221390015E+04 -0.13255683953E+04  0.36479083908E+02  0.18033541093E+04  0.10100000352E+00 0. -1.
       -3    1    3    3    0  502 -0.12221390015E+04  0.13255683953E+04  0.21398129525E+03  0.18156385418E+04  0.10100000352E+00 0.  1.
</event>
<event>
 5   0  0.1468942E-06  0.3564759E+04  0.7818609E-02  0.8098612E-01
        2   -1    0    0  501    0  0.00000000000E+00  0.00000000000E+00  0.21513035587E+04  0.21513035587E+04  0.25500000920E-02 0. -1.
       -2   -1    0    0    0  501  0.00000000000E+00  0.00000000000E+00 -0.14767215385E+04  0.14767215385E+04  0.25500000920E-02 0.  1.
    10030    2    1    2    0    0  0.00000000000E+00  0.00000000000E+00  0.67458202018E+03  0.36280250972E+04  0.35647587863E+04 0.  0.
        2    1    3    3  502    0  0.10649000720E+03  0.12857124084E+04  0.15889468315E+04  0.20467409587E+04  0.25500000920E-02 0. -1.
       -2    1    3    3    0  502 -0.10649000720E+03 -0.12857124084E+04 -0.91436481129E+03  0.15812841386E+04  0.25500000920E-02 0.  1.
</event>
<event>
 5   0  0.1379425E-06  0.3572176E+04  0.7818609E-02  0.8096895E-01
       -2   -1    0    0    0  501  0.00000000000E+00  0.00000000000E+00  0.11166800845E+04  0.11166800845E+04  0.25500000920E-02 0. -1.
        2   -1    0    0  501    0  0.00000000000E+00  0.00000000000E+00 -0.28567803120E+04  0.28567803120E+04  0.25500000920E-02 0.  1.
    10030    2    1    2    0    0  0.00000000000E+00  0.00000000000E+00 -0.17401002275E+04  0.39734603964E+04  0.35721756284E+04 0.  0.
        4    1    3    3  502    0  0.46435716142E+03 -0.16098411159E+04 -0.15583445746E+04  0.22881554620E+04  0.12699999809E+01 0.  1.
       -4    1    3    3    0  502 -0.46435716142E+03  0.16098411159E+04 -0.18175565291E+03  0.16853049345E+04  0.12699999809E+01 0. -1.
</event>
<event>
 5   0  0.4811500E-07  0.3462890E+04  0.7818609E-02  0.8122641E-01
       -1   -1    0    0    0  501  0.00000000000E+00  0.00000000000E+00  0.11720132285E+04  0.11720132286E+04  0.50400001928E-02 0. -1.
        1   -1    0    0  501    0  0.00000000000E+00  0.00000000000E+00 -0.25579074487E+04  0.25579074487E+04  0.50400001928E-02 0.  1.
    10030    2    1    2    0    0  0.00000000000E+00  0.00000000000E+00 -0.13858942202E+04  0.37299206773E+04  0.34628897570E+04 0.  0.
        5    1    3    3  502    0 -0.26410482537E+03  0.17081446091E+04 -0.58326179477E+03  0.18242055190E+04  0.46999998093E+01 0.  1.
       -5    1    3    3    0  502  0.26410482537E+03 -0.17081446091E+04 -0.80263242542E+03  0.19057151583E+04  0.46999998093E+01 0. -1.
</event>
<event>
 5   0  0.1491854E-06  0.3613273E+04  0.7818609E-02  0.8087458E-01
        2   -1    0    0  501    0  0.00000000000E+00  0.00000000000E+00  0.34891618739E+04  0.34891618739E+04  0.25500000920E-02 0.  1.
       -2   -1    0    0    0  501  0.00000000000E+00  0.00000000000E+00 -0.93544977657E+03  0.93544977658E+03  0.25500000920E-02 0. -1.
    10030    2    1    2    0    0  0.00000000000E+00  0.00000000000E+00  0.25537120973E+04  0.44246116504E+04  0.36132731396E+04 0.  0.
        5    1    3    3  502    0  0.21148800499E+03 -0.67882886859E+03  0.33106232542E+04  0.33861163935E+04  0.46999998093E+01 0.  1.
       -5    1    3    3    0  502 -0.21148800499E+03  0.67882886859E+03 -0.75691115695E+03  0.10384952569E+04  0.46999998093E+01 0. -1.
</event>
<event>
 5   0  0.1468942E-06  0.3608714E+04  0.7818609E-02  0.8088499E-01
       -2   -1    0    0    0  501  0.00000000000E+00  0.00000000000E+00  0.17135604690E+04  0.17135604690E+04  0.25500000920E-02 0.  1.
        2   -1    0    0  501    0  0.00000000000E+00  0.00000000000E+00 -0.18999645374E+04  0.18999645374E+04  0.25500000920E-02 0. -1.
    10030    2    1    2    0    0  0.00000000000E+00  0.00000000000E+00 -0.18640406841E+03  0.36135250064E+04  0.36087139670E+04 0.  0.
        2    1    3    3  502    0  0.18606706005E+03  0.17673506716E+04 -0.40595603462E+03  0.18228959513E+04  0.25500000920E-02 0.  1.
       -2    1    3    3    0  502 -0.18606706005E+03 -0.17673506716E+04  0.21955196621E+03  0.17906290551E+04  0.25500000920E-02 0. -1.
</event>
<event>
 5   0  0.1505671E-06  0.2849630E+04  0.7818609E-02  0.8288024E-01
        2   -1    0    0  501    0  0.00000000000E+00  0.00000000000E+00  0.17134321930E+04  0.17134321930E+04  0.25500000920E-02 0.  1.
       -2   -1    0    0    0  501  0.00000000000E+00  0.00000000000E+00 -0.11848140028E+04  0.11848140028E+04  0.25500000920E-02 0. -1.
    10030    2    1    2    0    0  0.00000000000E+00  0.00000000000E+00  0.52861819016E+03  0.28982461959E+04  0.28496304709E+04 0.  0.
        3    1    3    3  502    0  0.54352923291E+03  0.55395573457E+03 -0.95098546007E+03  0.12274625609E+04  0.10100000352E+00 0. -1.
       -3    1    3    3    0  502 -0.54352923291E+03 -0.55395573457E+03  0.14796036502E+04  0.16707836350E+04  0.10100000352E+00 0.  1.
</event>
<event>
 5   0  0.1491854E-06  0.3551869E+04  0.7818609E-02  0.8101606E-01
        2   -1    0    0  501    0  0.00000000000E+00  0.00000000000E+00  0.17028049036E+04  0.17028049036E+04  0.25500000920E-02 0. -1.
       -2   -1    0    0    0  501  0.00000000000E+00  0.00000000000E+00 -0.18522047771E+04  0.18522047771E+04  0.25500000920E-02 0.  1.
    10030    2    1    2    0    0  0.00000000000E+00  0.00000000000E+00 -0.14939987352E+03  0.35550096808E+04  0.35518690162E+04 0.  0.
        5    1    3    3  502    0  0.14852207378E+04  0.68693882085E+03 -0.76535045387E+03  0.18065295433E+04  0.46999998093E+01 0.  1.
       -5    1    3    3    0  502 -0.14852207378E+04 -0.68693882085E+03  0.61595058035E+03  0.17484801374E+04  0.46999998093E+01 0. -1.
</event>
<event>
 5   0  0.4811500E-07  0.3427101E+04  0.7818609E-02  0.8131287E-01
        1   -1    0    0  501    0  0.00000000000E+00  0.00000000000E+00  0.20858864651E+04  0.20858864651E+04  0.50400001928E-02 0. -1.
       -1   -1    0    0    0  501  0.00000000000E+00  0.00000000000E+00 -0.14076775958E+04  0.14076775958E+04  0.50400001928E-02 0.  1.
    10030    2    1    2    0    0  0.00000000000E+00  0.00000000000E+00  0.67820886928E+03  0.34935640609E+04  0.34271011916E+04 0.  0.
        2    1    3    3  502    0  0.85864173777E+03 -0.11322042688E+04 -0.63712289059E+03  0.15572661038E+04  0.25500000920E-02 0.  1.
       -2    1    3    3    0  502 -0.85864173777E+03  0.11322042688E+04  0.13153317599E+04  0.19362979571E+04  0.25500000920E-02 0. -1.
</event>
<event>
 5   0  0.1468942E-06  0.3595923E+04  0.7818609E-02  0.8091426E-01
        2   -1    0    0  501    0  0.00000000000E+00  0.00000000000E+00  0.20440546091E+04  0.20440546091E+04  0.25500000920E-02 0.  1.
       -2   -1    0    0    0  501  0.00000000000E+00  0.00000000000E+00 -0.15814968618E+04  0.15814968618E+04  0.25500000920E-02 0. -1.
    10030    2    1    2    0    0  0.00000000000E+00  0.00000000000E+00  0.46255774732E+03  0.36255514709E+04  0.35959232192E+04 0.  0.
        2    1    3    3  502    0 -0.80210853642E+03  0.49315214019E+02 -0.13903436946E+04  0.16058847043E+04  0.25500000920E-02 0. -1.
       -2    1    3    3    0  502  0.80210853642E+03 -0.49315214019E+02  0.18529014419E+04  0.20196667666E+04  0.25500000920E-02 0.  1.
</event>
<event>
 5   0  0.4811500E-07  0.3505745E+04  0.7818609E-02  0.8112430E-01
        1   -1    0    0  501    0  0.00000000000E+00  0.00000000000E+00  0.19443529632E+04  0.19443529632E+04  0.50400001928E-02 0. -1.
       -1   -1    0    0    0  501  0.00000000000E+00  0.00000000000E+00 -0.15802486700E+04  0.15802486700E+04  0.50400001928E-02 0.  1.
    10030    2    1    2    0    0  0.00000000000E+00  0.00000000000E+00  0.36410429324E+03  0.35246016332E+04  0.35057445338E+04 0.  0.
        2    1    3    3  502    0 -0.53167255732E+03 -0.11923037418E+04 -0.99398218918E+03  0.16408121506E+04  0.25500000920E-02 0.  1.
       -2    1    3    3    0  502  0.53167255732E+03  0.11923037418E+04  0.13580864824E+04  0.18837894826E+04  0.25500000920E-02 0. -1.
</event>
<event>
 5   0  0.1505671E-06  0.3570860E+04  0.7818609E-02  0.8097199E-01
       -2   -1    0    0    0  501  0.00000000000E+00  0.00000000000E+00  0.15363348754E+04  0.15363348754E+04  0.25500000920E-02 0.  1.
        2   -1    0    0  501    0  0.00000000000E+00  0.00000000000E+00 -0.20749118213E+04  0.20749118213E+04  0.25500000920E-02 0. -1.
    10030    2    1    2    0    0  0.00000000000E+00  0.00000000000E+00 -0.53857694596E+03  0.36112466967E+04  0.35708595012E+04 0.  0.
        3    1    3    3  502    0  0.15186064182E+04  0.42998486753E+03 -0.11134187244E+04  0.19315159087E+04  0.10100000352E+00 0. -1.
       -3    1    3    3    0  502 -0.15186064182E+04 -0.42998486753E+03  0.57484177841E+03  0.16797307880E+04  0.10100000352E+00 0.  1.
</event>
<event>
 5   0  0.4811500E-07  0.3555892E+04  0.7818609E-02  0.8100670E-01
        1   -1    0    0  501    0  0.00000000000E+00  0.00000000000E+00  0.29513534171E+04  0.29513534171E+04  0.50400001928E-02 0.  1.
       -1   -1    0    0    0  501  0.00000000000E+00  0.00000000000E+00 -0.10710653609E+04  0.10710653609E+04  0.50400001928E-02 0. -1.
    10030    2    1    2    0    0  0.00000000000E+00  0.00000000000E+00  0.18802880562E+04  0.40224187781E+04  0.35558922441E+04 0.  0.
        4    1    3    3  502    0 -0.11965542307E+04  0.95275816577E+03  0.19654868109E+04  0.24905080137E+04  0.12699999809E+01 0.  1.
       -4    1    3    3    0  502  0.11965542307E+04 -0.95275816577E+03 -0.85198754667E+02  0.15319107644E+04  0.12699999809E+01 0. -1.
</event>
<event>
 5   0  0.4811500E-07  0.3823908E+04  0.7818609E-02  0.8041044E-01
        1   -1    0    0  501    0  0.00000000000E+00  0.00000000000E+00  0.17464806277E+04  0.17464806277E+04  0.50400001928E-02 0.  1.
       -1   -1    0    0    0  501  0.00000000000E+00  0.00000000000E+00 -0.20931052705E+04  0.20931052705E+04  0.50400001928E-02 0. -1.
    10030    2    1    2    0    0  0.00000000000E+00  0.00000000000E+00 -0.34662464278E+03  0.38395858981E+04  0.38239078475E+04 0.  0.
        2    1    3    3  502    0  0.18278698858E+04 -0.60540579342E+02  0.38646269421E+03  0.18692583810E+04  0.25500000920E-02 0.  1.
       -2    1    3    3    0  502 -0.18278698858E+04  0.60540579342E+02 -0.73308733699E+03  0.19703275171E+04  0.25500000920E-02 0. -1.
</event>
<event>
 5   0  0.5071661E-07  0.3582994E+04  0.7818609E-02  0.8094398E-01
        1   -1    0    0  501    0  0.00000000000E+00  0.00000000000E+00  0.19012087253E+04  0.19012087253E+04  0.50400001928E-02 0. -1.
       -1   -1    0    0    0  501  0.00000000000E+00  0.00000000000E+00 -0.16881164210E+04  0.16881164211E+04  0.50400001928E-02 0.  1.
    10030    2    1    2    0    0  0.00000000000E+00  0.00000000000E+00  0.21309230427E+03  0.35893251464E+04  0.35829940938E+04 0.  0.
        1    1    3    3  502    0 -0.14445829623E+04 -0.76124373247E+02  0.11652232400E+04  0.18575144829E+04  0.50400001928E-02 0. -1.
       -1    1    3    3    0  502  0.14445829623E+04  0.76124373247E+02 -0.95213093571E+03  0.17318106634E+04  0.50400001928E-02 0.  1.
</event>
<event>
 5   0  0.1491854E-06  0.3188523E+04  0.7818609E-02  0.8191855E-01
        2   -1    0    0  501    0  0.00000000000E+00  0.00000000000E+00  0.27647565793E+04  0.27647565793E+04  0.25500000920E-02 0. -1.
       -2   -1    0    0    0  501  0.00000000000E+00  0.00000000000E+00 -0.91931046497E+03  0.91931046497E+03  0.25500000920E-02 0.  1.
    10030    2    1    2    0    0  0.00000000000E+00  0.00000000000E+00  0.18454461144E+04  0.36840670443E+04  0.31885229536E+04 0.  0.
        5    1    3    3  502    0  0.78944043214E+03 -0.97163823086E+03 -0.21777772570E+03  0.12707266722E+04  0.46999998093E+01 0.  1.
       -5    1    3    3    0  502 -0.78944043214E+03  0.97163823086E+03  0.20632238401E+04  0.24133403721E+04  0.46999998093E+01 0. -1.
</event>
<event>
 5   0  0.4811500E-07  0.3812951E+04  0.7818609E-02  0.8043381E-01
       -1   -1    0    0    0  501  0.00000000000E+00  0.00000000000E+00  0.26617797816E+04  0.26617797816E+04  0.50400001928E-02 0.  1.
        1   -1    0    0  501    0  0.00000000000E+00  0.00000000000E+00 -0.13654960308E+04  0.13654960308E+04  0.50400001928E-02 0. -1.
    10030    2    1    2    0    0  0.00000000000E+00  0.00000000000E+00  0.12962837508E+04  0.40272758124E+04  0.38129514692E+04 0.  0.
        5    1    3    3  502    0 -0.20457760945E+03  0.24360281947E+03 -0.13372605369E+04  0.13745843609E+04  0.46999998093E+01 0. -1.
       -5    1    3    3    0  502  0.20457760945E+03 -0.24360281947E+03  0.26335442876E+04  0.26526914515E+04  0.46999998093E+01 0.  1.
</event>
<event>
 5   0  0.4811500E-07  0.3556404E+04  0.7818609E-02  0.8100552E-01
        1   -1    0    0  501    0  0.00000000000E+00  0.00000000000E+00  0.17620333712E+04  0.17620333712E+04  0.50400001928E-02 0.  1.
       -1   -1    0    0    0  501  0.00000000000E+00  0.00000000000E+00 -0.17945185858E+04  0.17945185858E+04  0.50400001928E-02 0. -1.
    10030    2    1    2    0    0  0.00000000000E+00  0.00000000000E+00 -0.32485214536E+02  0.35565519570E+04  0.35564035955E+04 0.  0.
        3    1    3    3  502    0  0.76577711533E+02 -0.11357867767E+04 -0.13823617733E+04  0.17907539838E+04  0.10100000352E+00 0. -1.
       -3    1    3    3    0  502 -0.76577711533E+02  0.11357867767E+04  0.13498765588E+04  0.17657979732E+04  0.10100000352E+00 0.  1.
</event>
<event>
 5   0  0.1444091E-06  0.3482520E+04  0.7818609E-02  0.8117945E-01
        2   -1    0    0  501    0  0.00000000000E+00  0.00000000000E+00  0.28747435563E+04  0.28747435563E+04  0.25500000920E-02 0.  1.
       -2   -1    0    0    0  501  0.00000000000E+00  0.00000000000E+00 -0.10546982986E+04  0.10546982986E+04  0.25500000920E-02 0. -1.
    10030    2    1    2    0    0  0.00000000000E+00  0.00000000000E+00  0.18200452578E+04  0.39294418549E+04  0.34825204308E+04 0.  0.
        1    1    3    3  502    0 -0.14806665864E+04 -0.90098162541E+03  0.72173736664E+03  0.18775106540E+04  0.50400001928E-02 0. -1.
       -1    1    3    3    0  502  0.14806665864E+04  0.90098162541E+03  0.10983078911E+04  0.20519312009E+04  0.50400001928E-02 0.  1.
</event>
<event>
 5   0  0.5071661E-07  0.3232977E+04  0.7818609E-02  0.8180162E-01
       -1   -1    0    0    0  501  0.00000000000E+00  0.00000000000E+00  0.18456316573E+04  0.18456316573E+04  0.50400001928E-02 0. -1.
        1   -1    0    0  501    0  0.00000000000E+00  0.00000000000E+00 -0.14157940980E+04  0.14157940980E+04  0.50400001928E-02 0.  1.
    10030    2    1    2    0    0  0.00000000000E+00  0.00000000000E+00  0.42983755930E+03  0.32614257553E+04  0.32329765898E+04 0.  0.
        1    1    3    3  502    0 -0.84047377570E+03  0.95349967489E+03  0.12224448600E+04  0.17634991447E+04  0.50400001928E-02 0. -1.
       -1    1    3    3    0  502  0.84047377570E+03 -0.95349967489E+03 -0.79260730068E+03  0.14979266106E+04  0.50400001928E-02 0.  1.
</event>
<event>
 5   0  0.1505671E-06  0.3483393E+04  0.7818609E-02  0.8117737E-01
        2   -1    0    0  501    0  0.00000000000E+00  0.00000000000E+00  0.19623965275E+04  0.19623965275E+04  0.25500000920E-02 0. -1.
       -2   -1    0    0    0  501  0.00000000000E+00  0.00000000000E+00 -0.15458174501E+04  0.15458174501E+04  0.25500000920E-02 0.  1.
    10030    2    1    2    0    0  0.00000000000E+00  0.00000000000E+00  0.41657907738E+03  0.35082139776E+04  0.34833930564E+04 0.  0.
        3    1    3    3  502    0  0.97556476785E+03 -0.68615661133E+03 -0.10699940741E+04  0.16023185827E+04  0.10100000352E+00 0.  1.
       -3    1    3    3    0  502 -0.97556476785E+03  0.68615661133E+03  0.14865731515E+04  0.19058953950E+04  0.10100000352E+00 0. -1.
</event>
<event>
 5   0  0.5071661E-07  0.3518630E+04  0.7818609E-02  0.8109389E-01
       -1   -1    0    0    0  501  0.00000000000E+00  0.00000000000E+00  0.14317731006E+04  0.14317731006E+04  0.50400001928E-02 0. -1.
        1   -1    0    0  501    0  0.00000000000E+00  0.00000000000E+00 -0.21617876738E+04  0.21617876738E+04  0.50400001928E-02 0.  1.
    10030    2    1    2    0    0  0.00000000000E+00  0.00000000000E+00 -0.73001457320E+03  0.35935607743E+04  0.35186300973E+04 0.  0.
        1    1    3    3  502    0 -0.46576659168E+03  0.10819834227E+02  0.13676268823E+04  0.14448040960E+04  0.50400001928E-02 0. -1.
       -1    1    3    3    0  502  0.46576659168E+03 -0.10819834227E+02 -0.20976414555E+04  0.21487566783E+04  0.50400001928E-02 0.  1.
</event>
<event>
 5   0  0.4811500E-07  0.3779387E+04  0.7818609E-02  0.8050593E-01
        1   -1    0    0  501    0  0.00000000000E+00  0.00000000000E+00  0.14954004034E+04  0.14954004034E+04  0.50400001928E-02 0.  1.
       -1   -1    0    0    0  501  0.00000000000E+00  0.00000000000E+00 -0.23879501103E+04  0.23879501103E+04  0.50400001928E-02 0. -1.
    10030    2    1    2    0    0  0.00000000000E+00  0.00000000000E+00 -0.89254970691E+03  0.38833505137E+04  0.37793870182E+04 0.  0.
        4    1    3    3  502    0 -0.16986434846E+04  0.11623601894E+03  0.39605580382E+03  0.17480738865E+04  0.12699999809E+01 0.  1.
       -4    1    3    3    0  502  0.16986434846E+04 -0.11623601894E+03 -0.12886055107E+04  0.21352766273E+04  0.12699999809E+01 0. -1.
</event>
<event>
 5   0  0.1444091E-06  0.3597893E+04  0.7818609E-02  0.8090974E-01
       -2   -1    0    0    0  501  0.00000000000E+00  0.00000000000E+00  0.14151706832E+04  0.14151706832E+04  0.25500000920E-02 0. -1.
        2   -1    0    0  501    0  0.00000000000E+00  0.00000000000E+00 -0.22867977682E+04  0.22867977682E+04  0.25500000920E-02 0.  1.
    10030    2    1    2    0    0  0.00000000000E+00  0.00000000000E+00 -0.87162708504E+03  0.37019684514E+04  0.35978933614E+04 0.  0.
        1    1    3    3  502    0  0.16306667348E+04 -0.20768060975E+03  0.31608051179E+03  0.16739510523E+04  0.50400001928E-02 0. -1.
       -1    1    3    3    0  502 -0.16306667348E+04  0.20768060975E+03 -0.11877075968E+04  0.20280173991E+04  0.50400001928E-02 0.  1.
</event>
<event>
 5   0  0.5071661E-07  0.3582230E+04  0.7818609E-02  0.8094574E-01
       -1   -1    0    0    0  501  0.00000000000E+00  0.00000000000E+00  0.14069339779E+04  0.14069339779E+04  0.50400001928E-02 0. -1.
        1   -1    0    0  501    0  0.00000000000E+00  0.00000000000E+00 -0.22802010532E+04  0.22802010532E+04  0.50400001928E-02 0.  1.
    10030    2    1    2    0    0  0.00000000000E+00  0.00000000000E+00 -0.87326707529E+03  0.36871350310E+04  0.35822296621E+04 0.  0.
        1    1    3    3  502    0  0.16220544361E+04 -0.21370530273E+03  0.31365925895E+03  0.16658669457E+04  0.50400001928E-02 0. -1.
       -1    1    3    3    0  502 -0.16220544361E+04  0.21370530273E+03 -0.11869263342E+04  0.20212680854E+04  0.50400001928E-02 0.  1.
</event>
<event>
 5   0  0.5071661E-07  0.3542849E+04  0.7818609E-02  0.8103710E-01
        1   -1    0    0  501    0  0.00000000000E+00  0.00000000000E+00  0.11007262399E+04  0.11007262399E+04  0.50400001928E-02 0. -1.
       -1   -1    0    0    0  501  0.00000000000E+00  0.00000000000E+00 -0.28507956540E+04  0.28507956540E+04  0.50400001928E-02 0.  1.
    10030    2    1    2    0    0  0.00000000000E+00  0.00000000000E+00 -0.17500694141E+04  0.39515218940E+04  0.35428494640E+04 0.  0.
        1    1    3    3  502    0  0.15227104798E+04 -0.65827274476E+03 -0.18210131733E+03  0.16688712058E+04  0.50400001928E-02 0. -1.
       -1    1    3    3    0  502 -0.15227104798E+04  0.65827274476E+03 -0.15679680968E+04  0.22826506882E+04  0.50400001928E-02 0.  1.
</event>
<event>
 5   0  0.1505671E-06  0.3544141E+04  0.7818609E-02  0.8103408E-01
       -2   -1    0    0    0  501  0.00000000000E+00  0.00000000000E+00  0.25351663646E+04  0.25351663646E+04  0.25500000920E-02 0.  1.
        2   -1    0    0  501    0  0.00000000000E+00  0.00000000000E+00 -0.12386694704E+04  0.12386694704E+04  0.25500000920E-02 0. -1.
    10030    2    1    2    0    0  0.00000000000E+00  0.00000000000E+00  0.12964968941E+04  0.37738358350E+04  0.35441406170E+04 0.  0.
        3    1    3    3  502    0 -0.55163231306E+02 -0.41253440071E+03  0.24823831968E+04  0.25170327689E+04  0.10100000352E+00 0.  1.
       -3    1    3    3    0  502  0.55163231306E+02  0.41253440071E+03 -0.11858863027E+04  0.12568030661E+04  0.10100000352E+00 0. -1.
</event>
<event>
 5   0  0.1491854E-06  0.3675351E+04  0.7818609E-02  0.8073446E-01
        2   -1    0    0  501    0  0.00000000000E+00  0.00000000000E+00  0.14464299287E+04  0.14464299287E+04  0.25500000920E-02 0.  1.
       -2   -1    0    0    0  501  0.00000000000E+00  0.00000000000E+00 -0.23347496705E+04  0.23347496705E+04  0.25500000920E-02 0. -1.
    10030    2    1    2    0    0  0.00000000000E+00  0.00000000000E+00 -0.88831974180E+03  0.37811795993E+04  0.36753513027E+04 0.  0.
        5    1    3    3  502    0  0.57910557073E+03  0.16666938913E+04 -0.97256148177E+03  0.20147281988E+04  0.46999998093E+01 0.  1.
       -5    1    3    3    0  502 -0.57910557073E+03 -0.16666938913E+04  0.84241739969E+02  0.17664514004E+04  0.46999998093E+01 0. -1.
</event>
<event>
 5   0  0.1468942E-06  0.3607001E+04  0.7818609E-02  0.8088890E-01
        2   -1    0    0  501    0  0.00000000000E+00  0.00000000000E+00  0.21377904525E+04  0.21377904525E+04  0.25500000920E-02 0.  1.
       -2   -1    0    0    0  501  0.00000000000E+00  0.00000000000E+00 -0.15214844243E+04  0.15214844243E+04  0.25500000920E-02 0. -1.
    10030    2    1    2    0    0  0.00000000000E+00  0.00000000000E+00  0.61630602820E+03  0.36592748768E+04  0.36070014560E+04 0.  0.
        2    1    3    3  502    0  0.13306256417E+03  0.17839324150E+04  0.75716113675E+02  0.17904897199E+04  0.25500000920E-02 0. -1.
       -2    1    3    3    0  502 -0.13306256417E+03 -0.17839324150E+04  0.54058991453E+03  0.18687851569E+04  0.25500000920E-02 0.  1.
</event>
<event>
 5   0  0.1468942E-06  0.3327754E+04  0.7818609E-02  0.8155869E-01
        2   -1    0    0  501    0  0.00000000000E+00  0.00000000000E+00  0.25488802949E+04  0.25488802950E+04  0.25500000920E-02 0. -1.
       -2   -1    0    0    0  501  0.00000000000E+00  0.00000000000E+00 -0.10861579682E+04  0.10861579682E+04  0.25500000920E-02 0.  1.
    10030    2    1    2    0    0  0.00000000000E+00  0.00000000000E+00  0.14627223267E+04  0.36350382632E+04  0.33277539828E+04 0.  0.
        2    1    3    3  502    0  0.32823941220E+03 -0.53438613308E+03 -0.95211031769E+03  0.11400981133E+04  0.25500000920E-02 0.  1.
       -2    1    3    3    0  502 -0.32823941220E+03  0.53438613308E+03  0.24148326444E+04  0.24949401499E+04  0.25500000920E-02 0. -1.
</event>
<event>
 5   0  0.1444091E-06  0.3540402E+04  0.7818609E-02  0.8104281E-01
       -2   -1    0    0    0  501  0.00000000000E+00  0.00000000000E+00  0.13588133861E+04  0.13588133861E+04  0.25500000920E-02 0.  1.
        2   -1    0    0  501    0  0.00000000000E+00  0.00000000000E+00 -0.23061381290E+04  0.23061381290E+04  0.25500000920E-02 0. -1.
    10030    2    1    2    0    0  0.00000000000E+00  0.00000000000E+00 -0.94732474288E+03  0.36649515151E+04  0.35404018754E+04 0.  0.
        1    1    3    3  502    0  0.90734469130E+03 -0.71147179252E+03  0.91677481454E+03  0.14730724901E+04  0.50400001928E-02 0.  1.
       -1    1    3    3    0  502 -0.90734469130E+03  0.71147179252E+03 -0.18640995574E+04  0.21918790250E+04  0.50400001928E-02 0. -1.
</event>
<event>
 5   0  0.4811500E-07  0.3551824E+04  0.7818609E-02  0.8101617E-01
       -1   -1    0    0    0  501  0.00000000000E+00  0.00000000000E+00  0.13009829032E+04  0.13009829032E+04  0.50400001928E-02 0.  1.
        1   -1    0    0  501    0  0.00000000000E+00  0.00000000000E+00 -0.24242160432E+04  0.24242160432E+04  0.50400001928E-02 0. -1.
    10030    2    1    2    0    0  0.00000000000E+00  0.00000000000E+00 -0.11232331400E+04  0.37251989464E+04  0.35518241093E+04 0.  0.
        2    1    3    3  502    0  0.14581834762E+04  0.47453408615E+03 -0.15010988716E+04  0.21458749897E+04  0.25500000920E-02 0. -1.
       -2    1    3    3    0  502 -0.14581834762E+04 -0.47453408615E+03  0.37786573159E+03  0.15793239567E+04  0.25500000920E-02 0.  1.
</event>
<event>
 5   0  0.1444091E-06  0.3332287E+04  0.7818609E-02  0.8154728E-01
        2   -1    0    0  501    0  0.00000000000E+00  0.00000000000E+00  0.16023923939E+04  0.16023923939E+04  0.25500000920E-02 0.  1.
       -2   -1    0    0    0  501  0.00000000000E+00  0.00000000000E+00 -0.17324310244E+04  0.17324310244E+04  0.25500000920E-02 0. -1.
    10030    2    1    2    0    0  0.00000000000E+00  0.00000000000E+00 -0.13003863045E+03  0.33348234183E+04  0.33322870804E+04 0.  0.
        1    1    3    3  502    0 -0.14865916759E+04  0.54574224332E+03 -0.58333716054E+03  0.16876230770E+04  0.50400001928E-02 0.  1.
       -1    1    3    3    0  502  0.14865916759E+04 -0.54574224332E+03  0.45329853009E+03  0.16472003413E+04  0.50400001928E-02 0. -1.
</event>
<event>
 5   0  0.5071661E-07  0.2405871E+04  0.7818609E-02  0.8437309E-01
        1   -1    0    0  501    0  0.00000000000E+00  0.00000000000E+00  0.17471591062E+04  0.17471591062E+04  0.50400001928E-02 0. -1.
       -1   -1    0    0    0  501  0.00000000000E+00  0.00000000000E+00 -0.82823234669E+03  0.82823234671E+03  0.50400001928E-02 0.  1.
    10030    2    1    2    0    0  0.00000000000E+00  0.00000000000E+00  0.91892675948E+03  0.25753914529E+04  0.24058708915E+04 0.  0.
        1    1    3    3  502    0 -0.87251696167E+03 -0.52503098058E+03  0.11449851871E+04  0.15322971179E+04  0.50400001928E-02 0. -1.
       -1    1    3    3    0  502  0.87251696167E+03  0.52503098058E+03 -0.22605842757E+03  0.10430943350E+04  0.50400001928E-02 0.  1.
</event>
<event>
 5   0  0.4811500E-07  0.3501737E+04  0.7818609E-02  0.8113378E-01
       -1   -1    0    0    0  501  0.00000000000E+00  0.00000000000E+00  0.13972819432E+04  0.13972819432E+04  0.50400001928E-02 0. -1.
        1   -1    0    0  501    0  0.00000000000E+00  0.00000000000E+00 -0.21939312771E+04  0.21939312771E+04  0.50400001928E-02 0.  1.
    10030    2    1    2    0    0  0.00000000000E+00  0.00000000000E+00 -0.79664933393E+03  0.35912132203E+04  0.35017370307E+04 0.  0.
        3    1    3    3  502    0  0.13626786379E+03 -0.29438196732E+03  0.13661942658E+04  0.14041782136E+04  0.10100000352E+00 0. -1.
       -3    1    3    3    0  502 -0.13626786379E+03  0.29438196732E+03 -0.21628435997E+04  0.21870350067E+04  0.10100000352E+00 0.  1.
</event>
<event>
 5   0  0.4811500E-07  0.3439784E+04  0.7818609E-02  0.8128210E-01
       -1   -1    0    0    0  501  0.00000000000E+00  0.00000000000E+00  0.24582773275E+04  0.24582773275E+04  0.50400001928E-02 0.  1.
        1   -1    0    0  501    0  0.00000000000E+00  0.00000000000E+00 -0.12032934893E+04  0.12032934893E+04  0.50400001928E-02 0. -1.
    10030    2    1    2    0    0  0.00000000000E+00  0.00000000000E+00  0.12549838383E+04  0.36615708168E+04  0.34397843554E+04 0.  0.
        4    1    3    3  502    0  0.47331597977E+02  0.17114617395E+04  0.45360082319E+03  0.17711851641E+04  0.12699999809E+01 0.  1.
       -4    1    3    3    0  502 -0.47331597977E+02 -0.17114617395E+04  0.80138301507E+03  0.18903856526E+04  0.12699999809E+01 0. -1.
</event>
<event>
 5   0  0.1379425E-06  0.3592633E+04  0.7818609E-02  0.8092181E-01
       -2   -1    0    0    0  501  0.00000000000E+00  0.00000000000E+00  0.13103606282E+04  0.13103606282E+04  0.25500000920E-02 0.  1.
        2   -1    0    0  501    0  0.00000000000E+00  0.00000000000E+00 -0.24624929490E+04  0.24624929490E+04  0.25500000920E-02 0. -1.
    10030    2    1    2    0    0  0.00000000000E+00  0.00000000000E+00 -0.11521323207E+04  0.37728535772E+04  0.35926334674E+04 0.  0.
        4    1    3    3  502    0 -0.17505942011E+04  0.29565007925E+03 -0.28892140487E+03  0.17987401751E+04  0.12699999809E+01 0.  1.
       -4    1    3    3    0  502  0.17505942011E+04 -0.29565007925E+03 -0.86321091588E+03  0.19741134022E+04  0.12699999809E+01 0. -1.
</event>
<event>
 5   0  0.4811500E-07  0.3582367E+04  0.7818609E-02  0.8094543E-01
        1   -1    0    0  501    0  0.00000000000E+00  0.00000000000E+00  0.18456775469E+04  0.18456775469E+04  0.50400001928E-02 0.  1.
       -1   -1    0    0    0  501  0.00000000000E+00  0.00000000000E+00 -0.17382982403E+04  0.17382982403E+04  0.50400001928E-02 0. -1.
    10030    2    1    2    0    0  0.00000000000E+00  0.00000000000E+00  0.10737930663E+03  0.35839757871E+04  0.35823668332E+04 0.  0.
        3    1    3    3  502    0 -0.10639990259E+04  0.11162876141E+04  0.96522238130E+03  0.18192982768E+04  0.10100000352E+00 0.  1.
       -3    1    3    3    0  502  0.10639990259E+04 -0.11162876141E+04 -0.85784307468E+03  0.17646775103E+04  0.10100000352E+00 0. -1.
</event>
<event>
 5   0  0.1491854E-06  0.3602149E+04  0.7818609E-02  0.8090000E-01
       -2   -1    0    0    0  501  0.00000000000E+00  0.00000000000E+00  0.17329137214E+04  0.17329137214E+04  0.25500000920E-02 0.  1.
        2   -1    0    0  501    0  0.00000000000E+00  0.00000000000E+00 -0.18719167495E+04  0.18719167495E+04  0.25500000920E-02 0. -1.
    10030    2    1    2    0    0  0.00000000000E+00  0.00000000000E+00 -0.13900302804E+03  0.36048304709E+04  0.36021494808E+04 0.  0.
        5    1    3    3  502    0 -0.88659541125E+03 -0.11557408519E+03 -0.16341354529E+04  0.18627478522E+04  0.46999998093E+01 0. -1.
       -5    1    3    3    0  502  0.88659541125E+03  0.11557408519E+03  0.14951324249E+04  0.17420826187E+04  0.46999998093E+01 0.  1.
</event>
<event>
 5   0  0.4811500E-07  0.2533824E+04  0.7818609E-02  0.8391034E-01
       -1   -1    0    0    0  501  0.00000000000E+00  0.00000000000E+00  0.66589192156E+03  0.66589192158E+03  0.50400001928E-02 0. -1.
        1   -1    0    0  501    0  0.00000000000E+00  0.00000000000E+00 -0.24103999412E+04  0.24103999412E+04  0.50400001928E-02 0.  1.
    10030    2    1    2    0    0  0.00000000000E+00  0.00000000000E+00 -0.17445080196E+04  0.30762918628E+04  0.25338238681E+04 0.  0.
        3    1    3    3  502    0  0.29759879298E+03  0.11638504326E+04 -0.38366289052E+03  0.12610749758E+04  0.10100000352E+00 0. -1.
       -3    1    3    3    0  502 -0.29759879298E+03 -0.11638504326E+04 -0.13608451291E+04  0.18152168869E+04  0.10100000352E+00 0.  1.
</event>
<event>
 5   0  0.1444091E-06  0.3493909E+04  0.7818609E-02  0.8115235E-01
       -2   -1    0    0    0  501  0.00000000000E+00  0.00000000000E+00  0.98650400120E+03  0.98650400121E+03  0.25500000920E-02 0. -1.
        2   -1    0    0  501    0  0.00000000000E+00  0.00000000000E+00 -0.30936009567E+04  0.30936009567E+04  0.25500000920E-02 0.  1.
    10030    2    1    2    0    0  0.00000000000E+00  0.00000000000E+00 -0.21070969555E+04  0.40801049579E+04  0.34939088265E+04 0.  0.
        1    1    3    3  502    0 -0.49795922116E+03  0.13099980748E+03 -0.30029749275E+04  0.30467987709E+04  0.50400001928E-02 0.  1.
       -1    1    3    3    0  502  0.49795922116E+03 -0.13099980748E+03  0.89587797194E+03  0.10333061870E+04  0.50400001928E-02 0. -1.
</event>
<event>
 5   0  0.4811500E-07  0.3554366E+04  0.7818609E-02  0.8101025E-01
       -1   -1    0    0    0  501  0.00000000000E+00  0.00000000000E+00  0.10928523685E+04  0.10928523686E+04  0.50400001928E-02 0.  1.
        1   -1    0    0  501    0  0.00000000000E+00  0.00000000000E+00 -0.28900337316E+04  0.28900337316E+04  0.50400001928E-02 0. -1.
    10030    2    1    2    0    0  0.00000000000E+00  0.00000000000E+00 -0.17971813630E+04  0.39828861001E+04  0.35543664463E+04 0.  0.
        3    1    3    3  502    0  0.47025728300E+03 -0.19094699040E+03  0.10099125429E+04  0.11302769660E+04  0.10100000352E+00 0.  1.
       -3    1    3    3    0  502 -0.47025728300E+03  0.19094699040E+03 -0.28070939059E+04  0.28526091341E+04  0.10100000352E+00 0. -1.
</event>
<event>
 5   0  0.1491854E-06  0.3582762E+04  0.7818609E-02  0.8094452E-01
       -2   -1    0    0    0  501  0.00000000000E+00  0.00000000000E+00  0.97214637747E+03  0.97214637747E+03  0.25500000920E-02 0. -1.
        2   -1    0    0  501    0  0.00000000000E+00  0.00000000000E+00 -0.33009902712E+04  0.33009902712E+04  0.25500000920E-02 0.  1.
    10030    2    1    2    0    0  0.00000000000E+00  0.00000000000E+00 -0.23288438938E+04  0.42731366487E+04  0.35827619146E+04 0.  0.
        5    1    3    3  502    0  0.65731823609E+03 -0.23088808678E+02 -0.31517596478E+04  0.32196601256E+04  0.46999998093E+01 0.  1.
       -5    1    3    3    0  502 -0.65731823609E+03  0.23088808678E+02  0.82291575404E+03  0.10534765231E+04  0.46999998093E+01 0. -1.
</event>
<event>
 5   0  0.1505671E-06  0.3731324E+04  0.7818609E-02  0.8061055E-01
       -2   -1    0    0    0  501  0.00000000000E+00  0.00000000000E+00  0.20156687101E+04  0.20156687101E+04  0.25500000920E-02 0. -1.
        2   -1    0    0  501    0  0.00000000000E+00  0.00000000000E+00 -0.17268189121E+04  0.17268189121E+04  0.25500000920E-02 0.  1.
    10030    2    1    2    0    0  0.00000000000E+00  0.00000000000E+00  0.28884979796E+03  0.37424876222E+04  0.37313240809E+04 0.  0.
        3    1    3    3  502    0 -0.95884677528E+03 -0.13901336795E+04  0.93978924416E+03  0.19326310096E+04  0.10100000352E+00 0. -1.
       -3    1    3    3    0  502  0.95884677528E+03  0.13901336795E+04 -0.65093944620E+03  0.18098566126E+04  0.10100000352E+00 0.  1.
</event>
<event>
 5   0  0.1505671E-06  0.3772658E+04  0.7818609E-02  0.8052048E-01
        2   -1    0    0  501    0  0.00000000000E+00  0.00000000000E+00  0.16183285852E+04  0.16183285852E+04  0.25500000920E-02 0.  1.
       -2   -1    0    0    0  501  0.00000000000E+00  0.00000000000E+00 -0.21987107447E+04  0.21987107447E+04  0.25500000920E-02 0. -1.
    10030    2    1    2    0    0  0.00000000000E+00  0.00000000000E+00 -0.58038215950E+03  0.38170393300E+04  0.37726576568E+04 0.  0.
        3    1    3    3  502    0  0.13511839953E+04 -0.12840511148E+04  0.26110265829E+01  0.18639990027E+04  0.10100000352E+00 0. -1.
       -3    1    3    3    0  502 -0.13511839953E+04  0.12840511148E+04 -0.58299318609E+03  0.19530403272E+04  0.10100000352E+00 0.  1.
</event>
<event>
 5   0  0.4811500E-07  0.3586367E+04  0.7818609E-02  0.8093622E-01
        1   -1    0    0  501    0  0.00000000000E+00  0.00000000000E+00  0.14614545996E+04  0.14614545996E+04  0.50400001928E-02 0. -1.
       -1   -1    0    0    0  501  0.00000000000E+00  0.00000000000E+00 -0.22002100358E+04  0.22002100359E+04  0.50400001928E-02 0.  1.
    10030    2    1    2    0    0  0.00000000000E+00  0.00000000000E+00 -0.73875543626E+03  0.36616646354E+04  0.35863670069E+04 0.  0.
        4    1    3    3  502    0 -0.36887225454E+03  0.12447739304E+04 -0.16322697625E+04  0.20856258218E+04  0.12699999809E+01 0.  1.
       -4    1    3    3    0  502  0.36887225454E+03 -0.12447739304E+04  0.89351432628E+03  0.15760388136E+04  0.12699999809E+01 0. -1.
</event>
<event>
 5   0  0.4811500E-07  0.3580723E+04  0.7818609E-02  0.8094922E-01
        1   -1    0    0  501    0  0.00000000000E+00  0.00000000000E+00  0.17406596187E+04  0.17406596187E+04  0.50400001928E-02 0. -1.
       -1   -1    0    0    0  501  0.00000000000E+00  0.00000000000E+00 -0.18414827130E+04  0.18414827130E+04  0.50400001928E-02 0.  1.
    10030    2    1    2    0    0  0.00000000000E+00  0.00000000000E+00 -0.10082309435E+03  0.35821423317E+04  0.35807231656E+04 0.  0.
        4    1    3    3  502    0  0.21206356843E+03  0.61867758360E+03  0.16168803526E+04  0.17441435139E+04  0.12699999809E+01 0. -1.
       -4    1    3    3    0  502 -0.21206356843E+03 -0.61867758360E+03 -0.17177034470E+04  0.18379988178E+04  0.12699999809E+01 0.  1.
</event>
<event>
 5   0  0.5071661E-07  0.3629880E+04  0.7818609E-02  0.8083681E-01
        1   -1    0    0  501    0  0.00000000000E+00  0.00000000000E+00  0.24347624608E+04  0.24347624608E+04  0.50400001928E-02 0.  1.
       -1   -1    0    0    0  501  0.00000000000E+00  0.00000000000E+00 -0.13529068554E+04  0.13529068554E+04  0.50400001928E-02 0. -1.
    10030    2    1    2    0    0  0.00000000000E+00  0.00000000000E+00  0.10818556054E+04  0.37876693162E+04  0.36298797911E+04 0.  0.
        1    1    3    3  502    0 -0.14855308387E+03  0.10206831447E+04  0.20992108157E+04  0.23389202956E+04  0.50400001928E-02 0.  1.
       -1    1    3    3    0  502  0.14855308387E+03 -0.10206831447E+04 -0.10173552103E+04  0.14487490205E+04  0.50400001928E-02 0. -1.
</event>
<event>
 5   0  0.4811500E-07  0.2783933E+04  0.7818609E-02  0.8308274E-01
       -1   -1    0    0    0  501  0.00000000000E+00  0.00000000000E+00  0.14512657271E+04  0.14512657271E+04  0.50400001928E-02 0.  1.
        1   -1    0    0  501    0  0.00000000000E+00  0.00000000000E+00 -0.13350903650E+04  0.13350903650E+04  0.50400001928E-02 0. -1.
    10030    2    1    2    0    0  0.00000000000E+00  0.00000000000E+00  0.11617536206E+03  0.27863560921E+04  0.27839331093E+04 0.  0.
        5    1    3    3  502    0 -0.33441580655E+03 -0.36160644595E+03 -0.12449500478E+04  0.13388487087E+04  0.46999998093E+01 0. -1.
       -5    1    3    3    0  502  0.33441580655E+03  0.36160644595E+03  0.13611254099E+04  0.14475073833E+04  0.46999998093E+01 0.  1.
</event>
<event>
 5   0  0.4811500E-07  0.2817588E+04  0.7818609E-02  0.8297829E-01
        1   -1    0    0  501    0  0.00000000000E+00  0.00000000000E+00  0.13646258789E+04  0.13646258789E+04  0.50400001928E-02 0. -1.
       -1   -1    0    0    0  501  0.00000000000E+00  0.00000000000E+00 -0.14543917633E+04  0.14543917633E+04  0.50400001928E-02 0.  1.
    10030    2    1    2    0    0  0.00000000000E+00  0.00000000000E+00 -0.89765884385E+02  0.28190176422E+04  0.28175880737E+04 0.  0.
        3    1    3    3  502    0 -0.39383733459E+02 -0.76836179178E+03  0.11358724825E+04  0.13719100657E+04  0.10100000352E+00 0. -1.
       -3    1    3    3    0  502  0.39383733459E+02  0.76836179178E+03 -0.12256383669E+04  0.14471075766E+04  0.10100000352E+00 0.  1.
</event>
<event>
 5   0  0.4811500E-07  0.2264212E+04  0.7818609E-02  0.8492167E-01
       -1   -1    0    0    0  501  0.00000000000E+00  0.00000000000E+00  0.10578934842E+04  0.10578934842E+04  0.50400001928E-02 0. -1.
        1   -1    0    0  501    0  0.00000000000E+00  0.00000000000E+00 -0.12115250900E+04  0.12115250900E+04  0.50400001928E-02 0.  1.
    10030    2    1    2    0    0  0.00000000000E+00  0.00000000000E+00 -0.15363160579E+03  0.22694185742E+04  0.22642124447E+04 0.  0.
        4    1    3    3  502    0  0.83016483087E+03 -0.72236925091E+03 -0.34326893521E+03  0.11527472211E+04  0.12699999809E+01 0.  1.
       -4    1    3    3    0  502 -0.83016483087E+03  0.72236925091E+03  0.18963732942E+03  0.11166713530E+04  0.12699999809E+01 0. -1.
</event>
<event>
 5   0  0.4811500E-07  0.3540061E+04  0.7818609E-02  0.8104361E-01
       -1   -1    0    0    0  501  0.00000000000E+00  0.00000000000E+00  0.18820894426E+04  0.18820894426E+04  0.50400001928E-02 0. -1.
        1   -1    0    0  501    0  0.00000000000E+00  0.00000000000E+00 -0.16646435539E+04  0.16646435539E+04  0.50400001928E-02 0.  1.
    10030    2    1    2    0    0  0.00000000000E+00  0.00000000000E+00  0.21744588869E+03  0.35467329965E+04  0.35400610495E+04 0.  0.
        2    1    3    3  502    0  0.36409945578E+03 -0.14485970751E+03  0.18380860184E+04  0.18793916461E+04  0.25500000920E-02 0. -1.
       -2    1    3    3    0  502 -0.36409945578E+03  0.14485970751E+03 -0.16206401297E+04  0.16673413504E+04  0.25500000920E-02 0.  1.
</event>
<event>
 5   0  0.1468942E-06  0.3638987E+04  0.7818609E-02  0.8081619E-01
        2   -1    0    0  501    0  0.00000000000E+00  0.00000000000E+00  0.11987448987E+04  0.11987448987E+04  0.25500000920E-02 0.  1.
       -2   -1    0    0    0  501  0.00000000000E+00  0.00000000000E+00 -0.27616858327E+04  0.27616858327E+04  0.25500000920E-02 0. -1.
    10030    2    1    2    0    0  0.00000000000E+00  0.00000000000E+00 -0.15629409340E+04  0.39604307314E+04  0.36389871139E+04 0.  0.
        2    1    3    3  502    0  0.42474357966E+03  0.17688875524E+04 -0.81895911909E+03  0.19950098547E+04  0.25500000920E-02 0. -1.
       -2    1    3    3    0  502 -0.42474357966E+03 -0.17688875524E+04 -0.74398181490E+03  0.19654208767E+04  0.25500000920E-02 0.  1.
</event>
<event>
 5   0  0.4811500E-07  0.2449993E+04  0.7818609E-02  0.8421020E-01
        1   -1    0    0  501    0  0.00000000000E+00  0.00000000000E+00  0.18299642466E+04  0.18299642466E+04  0.50400001928E-02 0.  1.
       -1   -1    0    0    0  501  0.00000000000E+00  0.00000000000E+00 -0.82002516314E+03  0.82002516315E+03  0.50400001928E-02 0. -1.
    10030    2    1    2    0    0  0.00000000000E+00  0.00000000000E+00  0.10099390834E+04  0.26499894097E+04  0.24499932489E+04 0.  0.
        3    1    3    3  502    0 -0.43309157607E+03  0.55671772102E+03 -0.57834444439E+03  0.91213224957E+03  0.10100000352E+00 0. -1.
       -3    1    3    3    0  502  0.43309157607E+03 -0.55671772102E+03  0.15882835278E+04  0.17378571602E+04  0.10100000352E+00 0.  1.
</event>
<event>
 5   0  0.4811500E-07  0.3744382E+04  0.7818609E-02  0.8058197E-01
        1   -1    0    0  501    0  0.00000000000E+00  0.00000000000E+00  0.26185468851E+04  0.26185468851E+04  0.50400001928E-02 0. -1.
       -1   -1    0    0    0  501  0.00000000000E+00  0.00000000000E+00 -0.13385662249E+04  0.13385662249E+04  0.50400001928E-02 0.  1.
    10030    2    1    2    0    0  0.00000000000E+00  0.00000000000E+00  0.12799806602E+04  0.39571131100E+04  0.37443816145E+04 0.  0.
        3    1    3    3  502    0  0.18652266536E+04  0.21443262366E+02  0.80897519434E+03  0.20332169481E+04  0.10100000352E+00 0. -1.
       -3    1    3    3    0  502 -0.18652266536E+04 -0.21443262366E+02  0.47100546589E+03  0.19238961619E+04  0.10100000352E+00 0.  1.
</event>
<event>
 5   0  0.1468942E-06  0.3477557E+04  0.7818609E-02  0.8119129E-01
       -2   -1    0    0    0  501  0.00000000000E+00  0.00000000000E+00  0.14735757668E+04  0.14735757669E+04  0.25500000920E-02 0.  1.
        2   -1    0    0  501    0  0.00000000000E+00  0.00000000000E+00 -0.20517108848E+04  0.20517108848E+04  0.25500000920E-02 0. -1.
    10030    2    1    2    0    0  0.00000000000E+00  0.00000000000E+00 -0.57813511794E+03  0.35252866516E+04  0.34775574419E+04 0.  0.
        2    1    3    3  502    0  0.14938929999E+04  0.68482899107E+02 -0.11883422688E+04  0.19101213444E+04  0.25500000920E-02 0. -1.
       -2    1    3    3    0  502 -0.14938929999E+04 -0.68482899107E+02  0.61020715089E+03  0.16151653072E+04  0.25500000920E-02 0.  1.
</event>
<event>
 5   0  0.4811500E-07  0.3484096E+04  0.7818609E-02  0.8117569E-01
       -1   -1    0    0    0  501  0.00000000000E+00  0.00000000000E+00  0.22221102455E+04  0.22221102455E+04  0.50400001928E-02 0. -1.
        1   -1    0    0  501    0  0.00000000000E+00  0.00000000000E+00 -0.13656978719E+04  0.13656978719E+04  0.50400001928E-02 0.  1.
    10030    2    1    2    0    0  0.00000000000E+00  0.00000000000E+00  0.85641237363E+03  0.35878081174E+04  0.34840959995E+04 0.  0.
        2    1    3    3  502    0  0.15096557110E+04  0.60453874947E+03  0.10714636365E+04  0.19474500738E+04  0.25500000920E-02 0. -1.
       -2    1    3    3    0  502 -0.15096557110E+04 -0.60453874947E+03 -0.21505126289E+03  0.16403580436E+04  0.25500000920E-02 0.  1.
</event>
<event>
 5   0  0.4811500E-07  0.3599154E+04  0.7818609E-02  0.8090685E-01
        1   -1    0    0  501    0  0.00000000000E+00  0.00000000000E+00  0.21371193589E+04  0.21371193589E+04  0.50400001928E-02 0.  1.
       -1   -1    0    0    0  501  0.00000000000E+00  0.00000000000E+00 -0.15153473432E+04  0.15153473432E+04  0.50400001928E-02 0. -1.
    10030    2    1    2    0    0  0.00000000000E+00  0.00000000000E+00  0.62177201569E+03  0.36524667021E+04  0.35991544244E+04 0.  0.
        3    1    3    3  502    0  0.26909135755E+03 -0.17749440545E+04  0.43780483589E+03  0.18478391813E+04  0.10100000352E+00 0.  1.
       -3    1    3    3    0  502 -0.26909135755E+03  0.17749440545E+04  0.18396717980E+03  0.18046275208E+04  0.10100000352E+00 0. -1.
</event>
<event>
 5   0  0.1379425E-06  0.3689489E+04  0.7818609E-02  0.8070295E-01
       -2   -1    0    0    0  501  0.00000000000E+00  0.00000000000E+00  0.13704419642E+04  0.13704419642E+04  0.25500000920E-02 0. -1.
        2   -1    0    0  501    0  0.00000000000E+00  0.00000000000E+00 -0.24832003404E+04  0.24832003404E+04  0.25500000920E-02 0.  1.
    10030    2    1    2    0    0  0.00000000000E+00  0.00000000000E+00 -0.11127583763E+04  0.38536423046E+04  0.36894888274E+04 0.  0.
        4    1    3    3  502    0  0.78942562428E+03  0.68960397118E+03 -0.21419217497E+04  0.23846544505E+04  0.12699999809E+01 0.  1.
       -4    1    3    3    0  502 -0.78942562428E+03 -0.68960397118E+03  0.10291633735E+04  0.14689878541E+04  0.12699999809E+01 0. -1.
</event>
<event>
 5   0  0.1468942E-06  0.3555447E+04  0.7818609E-02  0.8100774E-01
        2   -1    0    0  501    0  0.00000000000E+00  0.00000000000E+00  0.14858998496E+04  0.14858998496E+04  0.25500000920E-02 0. -1.
       -2   -1    0    0    0  501  0.00000000000E+00  0.00000000000E+00 -0.21268599595E+04  0.21268599595E+04  0.25500000920E-02 0.  1.
    10030    2    1    2    0    0  0.00000000000E+00  0.00000000000E+00 -0.64096010990E+03  0.36127598091E+04  0.35554470289E+04 0.  0.
        2    1    3    3  502    0  0.74926393050E+03 -0.11216498533E+04 -0.14970773856E+04  0.20151266783E+04  0.25500000920E-02 0.  1.
       -2    1    3    3    0  502 -0.74926393050E+03  0.11216498533E+04  0.85611727573E+03  0.15976331308E+04  0.25500000920E-02 0. -1.
</event>
<event>
 5   0  0.1379425E-06  0.3583036E+04  0.7818609E-02  0.8094388E-01
        2   -1    0    0  501    0  0.00000000000E+00  0.00000000000E+00  0.15950752350E+04  0.15950752350E+04  0.25500000920E-02 0. -1.
       -2   -1    0    0    0  501  0.00000000000E+00  0.00000000000E+00 -0.20121542610E+04  0.20121542610E+04  0.25500000920E-02 0.  1.
    10030    2    1    2    0    0  0.00000000000E+00  0.00000000000E+00 -0.41707902601E+03  0.36072294960E+04  0.35830363831E+04 0.  0.
        4    1    3    3  502    0  0.50954580746E+03 -0.93829923451E+03 -0.16568263443E+04  0.19710701488E+04  0.12699999809E+01 0.  1.
       -4    1    3    3    0  502 -0.50954580746E+03  0.93829923451E+03  0.12397473183E+04  0.16361593472E+04  0.12699999809E+01 0. -1.
</event>
<event>
 5   0  0.1505671E-06  0.3309596E+04  0.7818609E-02  0.8160458E-01
       -2   -1    0    0    0  501  0.00000000000E+00  0.00000000000E+00  0.11431016221E+04  0.11431016221E+04  0.25500000920E-02 0.  1.
        2   -1    0    0  501    0  0.00000000000E+00  0.00000000000E+00 -0.23955496541E+04  0.23955496541E+04  0.25500000920E-02 0. -1.
    10030    2    1    2    0    0  0.00000000000E+00  0.00000000000E+00 -0.12524480320E+04  0.35386512762E+04  0.33095961660E+04 0.  0.
        3    1    3    3  502    0 -0.94351394541E+03  0.85533566732E+03 -0.17560191849E+04  0.21691982521E+04  0.10100000352E+00 0. -1.
       -3    1    3    3    0  502  0.94351394541E+03 -0.85533566732E+03  0.50357115294E+03  0.13694530241E+04  0.10100000352E+00 0.  1.
</event>
<event>
 5   0  0.1379425E-06  0.3383117E+04  0.7818609E-02  0.8142062E-01
       -2   -1    0    0    0  501  0.00000000000E+00  0.00000000000E+00  0.14893867351E+04  0.14893867351E+04  0.25500000920E-02 0. -1.
        2   -1    0    0  501    0  0.00000000000E+00  0.00000000000E+00 -0.19211730406E+04  0.19211730406E+04  0.25500000920E-02 0.  1.
    10030    2    1    2    0    0  0.00000000000E+00  0.00000000000E+00 -0.43178630546E+03  0.34105597757E+04  0.33831166947E+04 0.  0.
        4    1    3    3  502    0  0.10637964616E+03  0.79789706423E+03  0.12839290748E+04  0.15153982435E+04  0.12699999809E+01 0. -1.
       -4    1    3    3    0  502 -0.10637964616E+03 -0.79789706423E+03 -0.17157153803E+04  0.18951615322E+04  0.12699999809E+01 0.  1.
</event>
<event>
 5   0  0.1444091E-06  0.3659912E+04  0.7818609E-02  0.8076904E-01
       -2   -1    0    0    0  501  0.00000000000E+00  0.00000000000E+00  0.17060631740E+04  0.17060631740E+04  0.25500000920E-02 0.  1.
        2   -1    0    0  501    0  0.00000000000E+00  0.00000000000E+00 -0.19628461107E+04  0.19628461107E+04  0.25500000920E-02 0. -1.
    10030    2    1    2    0    0  0.00000000000E+00  0.00000000000E+00 -0.25678293667E+03  0.36689092847E+04  0.36599122753E+04 0.  0.
        1    1    3    3  502    0 -0.10047577653E+04  0.26649923226E+03 -0.16381413504E+04  0.19401203807E+04  0.50400001928E-02 0. -1.
       -1    1    3    3    0  502  0.10047577653E+04 -0.26649923226E+03  0.13813584137E+04  0.17287889040E+04  0.50400001928E-02 0.  1.
</event>
<event>
 5   0  0.4811500E-07  0.3591594E+04  0.7818609E-02  0.8092420E-01
       -1   -1    0    0    0  501  0.00000000000E+00  0.00000000000E+00  0.15632649084E+04  0.15632649084E+04  0.50400001928E-02 0. -1.
        1   -1    0    0  501    0  0.00000000000E+00  0.00000000000E+00 -0.20629178601E+04  0.20629178601E+04  0.50400001928E-02 0.  1.
    10030    2    1    2    0    0  0.00000000000E+00  0.00000000000E+00 -0.49965295170E+03  0.36261827686E+04  0.35915941306E+04 0.  0.
        2    1    3    3  502    0 -0.12718594253E+04 -0.42440730283E+03 -0.14559605747E+04  0.19792850102E+04  0.25500000920E-02 0.  1.
       -2    1    3    3    0  502  0.12718594253E+04  0.42440730283E+03  0.95630762304E+03  0.16468977583E+04  0.25500000920E-02 0. -1.
</event>
<event>
 5   0  0.1468942E-06  0.2198656E+04  0.7818609E-02  0.8518988E-01
       -2   -1    0    0    0  501  0.00000000000E+00  0.00000000000E+00  0.55651295688E+03  0.55651295688E+03  0.25500000920E-02 0.  1.
        2   -1    0    0  501    0  0.00000000000E+00  0.00000000000E+00 -0.21715983122E+04  0.21715983122E+04  0.25500000920E-02 0. -1.
    10030    2    1    2    0    0  0.00000000000E+00  0.00000000000E+00 -0.16150853554E+04  0.27281112691E+04  0.21986564970E+04 0.  0.
        2    1    3    3  502    0 -0.11236389674E+03  0.66336513866E+03  0.27120700054E+03  0.72541863060E+03  0.25500000920E-02 0.  1.
       -2    1    3    3    0  502  0.11236389674E+03 -0.66336513866E+03 -0.18862923559E+04  0.20026926385E+04  0.25500000920E-02 0. -1.
</event>
<event>
 5   0  0.1505671E-06  0.3668598E+04  0.7818609E-02  0.8074957E-01
       -2   -1    0    0    0  501  0.00000000000E+00  0.00000000000E+00  0.15549910135E+04  0.15549910135E+04  0.25500000920E-02 0.  1.
        2   -1    0    0  501    0  0.00000000000E+00  0.00000000000E+00 -0.21637764659E+04  0.21637764659E+04  0.25500000920E-02 0. -1.
    10030    2    1    2    0    0  0.00000000000E+00  0.00000000000E+00 -0.60878545237E+03  0.37187674794E+04  0.36685980754E+04 0.  0.
        3    1    3    3  502    0  0.13465298719E+04  0.75367629185E+03 -0.13096614359E+04  0.20239525033E+04  0.10100000352E+00 0. -1.
       -3    1    3    3    0  502 -0.13465298719E+04 -0.75367629185E+03  0.70087598349E+03  0.16948149761E+04  0.10100000352E+00 0.  1.
</event>
<event>
 5   0  0.1491854E-06  0.3637591E+04  0.7818609E-02  0.8081935E-01
        2   -1    0    0  501    0  0.00000000000E+00  0.00000000000E+00  0.16354984741E+04  0.16354984741E+04  0.25500000920E-02 0.  1.
       -2   -1    0    0    0  501  0.00000000000E+00  0.00000000000E+00 -0.20226355307E+04  0.20226355307E+04  0.25500000920E-02 0. -1.
    10030    2    1    2    0    0  0.00000000000E+00  0.00000000000E+00 -0.38713705659E+03  0.36581340047E+04  0.36375911392E+04 0.  0.
        5    1    3    3  502    0  0.85765742263E+03 -0.14329756858E+04  0.53091625013E+03  0.17523954249E+04  0.46999998093E+01 0.  1.
       -5    1    3    3    0  502 -0.85765742263E+03  0.14329756858E+04 -0.91805330672E+03  0.19057385798E+04  0.46999998093E+01 0. -1.
</event>
<event>
 5   0  0.1444091E-06  0.3533926E+04  0.7818609E-02  0.8105797E-01
        2   -1    0    0  501    0  0.00000000000E+00  0.00000000000E+00  0.21714740013E+04  0.21714740013E+04  0.25500000920E-02 0.  1.
       -2   -1    0    0    0  501  0.00000000000E+00  0.00000000000E+00 -0.14378057030E+04  0.14378057030E+04  0.25500000920E-02 0. -1.
    10030    2    1    2    0    0  0.00000000000E+00  0.00000000000E+00  0.73366829830E+03  0.36092797044E+04  0.35339256942E+04 0.  0.
        1    1    3    3  502    0  0.14795256898E+04 -0.96597039750E+03  0.37491664092E+03  0.18062828027E+04  0.50400001928E-02 0. -1.
       -1    1    3    3    0  502 -0.14795256898E+04  0.96597039750E+03  0.35875165738E+03  0.18029969017E+04  0.50400001928E-02 0.  1.
</event>
<event>
 5   0  0.5071661E-07  0.3513017E+04  0.7818609E-02  0.8110712E-01
        1   -1    0    0  501    0  0.00000000000E+00  0.00000000000E+00  0.19987462188E+04  0.19987462188E+04  0.50400001928E-02 0. -1.
       -1   -1    0    0    0  501  0.00000000000E+00  0.00000000000E+00 -0.15436285394E+04  0.15436285394E+04  0.50400001928E-02 0.  1.
    10030    2    1    2    0    0  0.00000000000E+00  0.00000000000E+00  0.45511767933E+03  0.35423747582E+04  0.35130167699E+04 0.  0.
        1    1    3    3  502    0 -0.33680855786E+03  0.14084905332E+04 -0.77474799610E+03  0.16424128727E+04  0.50400001928E-02 0.  1.
       -1    1    3    3    0  502  0.33680855786E+03 -0.14084905332E+04  0.12298656754E+04  0.18999618855E+04  0.50400001928E-02 0. -1.
</event>
<event>
 5   0  0.1468942E-06  0.3114160E+04  0.7818609E-02  0.8211863E-01
       -2   -1    0    0    0  501  0.00000000000E+00  0.00000000000E+00  0.11947219465E+04  0.11947219465E+04  0.25500000920E-02 0. -1.
        2   -1    0    0  501    0  0.00000000000E+00  0.00000000000E+00 -0.20293411190E+04  0.20293411190E+04  0.25500000920E-02 0.  1.
    10030    2    1    2    0    0  0.00000000000E+00  0.00000000000E+00 -0.83461917248E+03  0.32240630655E+04  0.31141601576E+04 0.  0.
        2    1    3    3  502    0 -0.10258411173E+04 -0.37046766423E+03  0.73316981183E+03  0.13142048018E+04  0.25500000920E-02 0. -1.
       -2    1    3    3    0  502  0.10258411173E+04  0.37046766423E+03 -0.15677889843E+04  0.19098582637E+04  0.25500000920E-02 0.  1.
</event>
<event>
 5   0  0.4811500E-07  0.3354922E+04  0.7818609E-02  0.8149059E-01
       -1   -1    0    0    0  501  0.00000000000E+00  0.00000000000E+00  0.16808779781E+04  0.16808779781E+04  0.50400001928E-02 0.  1.
        1   -1    0    0  501    0  0.00000000000E+00  0.00000000000E+00 -0.16740513129E+04  0.16740513129E+04  0.50400001928E-02 0. -1.
    10030    2    1    2    0    0  0.00000000000E+00  0.00000000000E+00  0.68266651855E+01  0.33549292910E+04  0.33549223455E+04 0.  0.
        3    1    3    3  502    0 -0.80613191679E+03  0.83672818912E+03 -0.12065119987E+04  0.16750026696E+04  0.10100000352E+00 0. -1.
       -3    1    3    3    0  502  0.80613191679E+03 -0.83672818912E+03  0.12133386639E+04  0.16799266214E+04  0.10100000352E+00 0.  1.
</event>
<event>
 5   0  0.1491854E-06  0.3026536E+04  0.7818609E-02  0.8236194E-01
       -2   -1    0    0    0  501  0.00000000000E+00  0.00000000000E+00  0.15386513969E+04  0.15386513969E+04  0.25500000920E-02 0.  1.
        2   -1    0    0  501    0  0.00000000000E+00  0.00000000000E+00 -0.14883032095E+04  0.14883032095E+04  0.25500000920E-02 0. -1.
    10030    2    1    2    0    0  0.00000000000E+00  0.00000000000E+00  0.50348187388E+02  0.30269546064E+04  0.30265358496E+04 0.  0.
        5    1    3    3  502    0 -0.57027234491E+03  0.43413524975E+02  0.14263898688E+04  0.15367841193E+04  0.46999998093E+01 0.  1.
       -5    1    3    3    0  502  0.57027234491E+03 -0.43413524975E+02 -0.13760416814E+04  0.14901704871E+04  0.46999998093E+01 0. -1.
</event>
<event>
 5   0  0.4811500E-07  0.3607453E+04  0.7818609E-02  0.8088787E-01
        1   -1    0    0  501    0  0.00000000000E+00  0.00000000000E+00  0.15332234370E+04  0.15332234370E+04  0.50400001928E-02 0.  1.
       -1   -1    0    0    0  501  0.00000000000E+00  0.00000000000E+00 -0.21219537624E+04  0.21219537624E+04  0.50400001928E-02 0. -1.
    10030    2    1    2    0    0  0.00000000000E+00  0.00000000000E+00 -0.58873032535E+03  0.36551771994E+04  0.36074529745E+04 0.  0.
        2    1    3    3  502    0  0.14668403251E+04  0.87936710639E+03 -0.87511636079E+03  0.19211287547E+04  0.25500000920E-02 0. -1.
       -2    1    3    3    0  502 -0.14668403251E+04 -0.87936710639E+03  0.28638603544E+03  0.17340484447E+04  0.25500000920E-02 0.  1.
</event>
<event>
 5   0  0.1379425E-06  0.3593077E+04  0.7818609E-02  0.8092079E-01
       -2   -1    0    0    0  501  0.00000000000E+00  0.00000000000E+00  0.12628743716E+04  0.12628743716E+04  0.25500000920E-02 0.  1.
        2   -1    0    0  501    0  0.00000000000E+00  0.00000000000E+00 -0.25557181586E+04  0.25557181586E+04  0.25500000920E-02 0. -1.
    10030    2    1    2    0    0  0.00000000000E+00  0.00000000000E+00 -0.12928437870E+04  0.38185925302E+04  0.35930772124E+04 0.  0.
        4    1    3    3  502    0 -0.12193415833E+04 -0.13081929075E+04 -0.82860692802E+03  0.19709778371E+04  0.12699999809E+01 0.  1.
       -4    1    3    3    0  502  0.12193415833E+04  0.13081929075E+04 -0.46423685901E+03  0.18476146931E+04  0.12699999809E+01 0. -1.
</event>
<event>
 5   0  0.5071661E-07  0.3289787E+04  0.7818609E-02  0.8165499E-01
       -1   -1    0    0    0  501  0.00000000000E+00  0.00000000000E+00  0.13904404132E+04  0.13904404132E+04  0.50400001928E-02 0.  1.
        1   -1    0    0  501    0  0.00000000000E+00  0.00000000000E+00 -0.19459124346E+04  0.19459124346E+04  0.50400001928E-02 0. -1.
    10030    2    1    2    0    0  0.00000000000E+00  0.00000000000E+00 -0.55547202138E+03  0.33363528478E+04  0.32897874033E+04 0.  0.
        1    1    3    3  502    0  0.56718664980E+03  0.82986538585E+02  0.12858679273E+04  0.14078507690E+04  0.50400001928E-02 0.  1.
       -1    1    3    3    0  502 -0.56718664980E+03 -0.82986538585E+02 -0.18413399487E+04  0.19285020788E+04  0.50400001928E-02 0. -1.
</event>
<event>
 5   0  0.1444091E-06  0.3654423E+04  0.7818609E-02  0.8078138E-01
        2   -1    0    0  501    0  0.00000000000E+00  0.00000000000E+00  0.14933984925E+04  0.14933984925E+04  0.25500000920E-02 0.  1.
       -2   -1    0    0    0  501  0.00000000000E+00  0.00000000000E+00 -0.22356402239E+04  0.22356402239E+04  0.25500000920E-02 0. -1.
    10030    2    1    2    0    0  0.00000000000E+00  0.00000000000E+00 -0.74224173144E+03  0.37290387164E+04  0.36544229313E+04 0.  0.
        1    1    3    3  502    0 -0.19987972387E+03 -0.17053341934E+04 -0.10088495256E+04  0.19914552419E+04  0.50400001928E-02 0. -1.
       -1    1    3    3    0  502  0.19987972387E+03  0.17053341934E+04  0.26660779412E+03  0.17375834745E+04  0.50400001928E-02 0.  1.
</event>
<event>
 5   0  0.4811500E-07  0.3389199E+04  0.7818609E-02  0.8140562E-01
        1   -1    0    0  501    0  0.00000000000E+00  0.00000000000E+00  0.81493340330E+03  0.81493340331E+03  0.50400001928E-02 0.  1.
       -1   -1    0    0    0  501  0.00000000000E+00  0.00000000000E+00 -0.35238064279E+04  0.35238064279E+04  0.50400001928E-02 0. -1.
    10030    2    1    2    0    0  0.00000000000E+00  0.00000000000E+00 -0.27088730246E+04  0.43387398312E+04  0.33891990587E+04 0.  0.
        4    1    3    3  502    0  0.25237470614E+03  0.11731564858E+04 -0.28861905308E+04  0.31257137626E+04  0.12699999809E+01 0. -1.
       -4    1    3    3    0  502 -0.25237470614E+03 -0.11731564858E+04  0.17731750618E+03  0.12130260687E+04  0.12699999809E+01 0.  1.
</event>
<event>
 5   0  0.4811500E-07  0.3558116E+04  0.7818609E-02  0.8100154E-01
       -3   -1    0    0    0  501  0.00000000000E+00  0.00000000000E+00  0.11092598023E+04  0.11092598069E+04  0.10100000352E+00 0.  1.
        3   -1    0    0  501    0  0.00000000000E+00  0.00000000000E+00 -0.28532959667E+04  0.28532959685E+04  0.10100000352E+00 0. -1.
    10030    2    1    2    0    0  0.00000000000E+00  0.00000000000E+00 -0.17440361644E+04  0.39625557754E+04  0.35581155308E+04 0.  0.
        1    1    3    3  502    0 -0.10518079535E+04 -0.63015404895E+03 -0.23075915964E+04  0.26131155872E+04  0.50400001928E-02 0.  1.
       -1    1    3    3    0  502  0.10518079535E+04  0.63015404895E+03  0.56355543201E+03  0.13494401882E+04  0.50400001928E-02 0. -1.
</event>
<event>
 5   0  0.1505671E-06  0.3490845E+04  0.7818609E-02  0.8115963E-01
       -2   -1    0    0    0  501  0.00000000000E+00  0.00000000000E+00  0.12875536861E+04  0.12875536861E+04  0.25500000920E-02 0.  1.
        2   -1    0    0  501    0  0.00000000000E+00  0.00000000000E+00 -0.23661151919E+04  0.23661151919E+04  0.25500000920E-02 0. -1.
    10030    2    1    2    0    0  0.00000000000E+00  0.00000000000E+00 -0.10785615058E+04  0.36536688781E+04  0.34908453630E+04 0.  0.
        3    1    3    3  502    0 -0.61692586613E+03 -0.11742472468E+04 -0.17266769245E+04  0.21773532861E+04  0.10100000352E+00 0. -1.
       -3    1    3    3    0  502  0.61692586613E+03  0.11742472468E+04  0.64811541867E+03  0.14763155919E+04  0.10100000352E+00 0.  1.
</event>
<event>
 5   0  0.4811500E-07  0.2448695E+04  0.7818609E-02  0.8421494E-01
        1   -1    0    0  501    0  0.00000000000E+00  0.00000000000E+00  0.17126874252E+04  0.17126874252E+04  0.50400001928E-02 0.  1.
       -1   -1    0    0    0  501  0.00000000000E+00  0.00000000000E+00 -0.87524861839E+03  0.87524861840E+03  0.50400001928E-02 0. -1.
    10030    2    1    2    0    0  0.00000000000E+00  0.00000000000E+00  0.83743880679E+03  0.25879360436E+04  0.24486954099E+04 0.  0.
        3    1    3    3  502    0 -0.20809900269E+03  0.44555358512E+03 -0.76628964503E+03  0.91050701393E+03  0.10100000352E+00 0. -1.
       -3    1    3    3    0  502  0.20809900269E+03 -0.44555358512E+03  0.16037284518E+04  0.16774290296E+04  0.10100000352E+00 0.  1.
</event>
<event>
 5   0  0.1444091E-06  0.3464815E+04  0.7818609E-02  0.8122179E-01
       -2   -1    0    0    0  501  0.00000000000E+00  0.00000000000E+00  0.16875856862E+04  0.16875856862E+04  0.25500000920E-02 0.  1.
        2   -1    0    0  501    0  0.00000000000E+00  0.00000000000E+00 -0.17784193731E+04  0.17784193731E+04  0.25500000920E-02 0. -1.
    10030    2    1    2    0    0  0.00000000000E+00  0.00000000000E+00 -0.90833686838E+02  0.34660050593E+04  0.34648146145E+04 0.  0.
        1    1    3    3  502    0 -0.16009724442E+04  0.45568677026E+03 -0.52565665562E+03  0.17455881872E+04  0.50400001928E-02 0.  1.
       -1    1    3    3    0  502  0.16009724442E+04 -0.45568677026E+03  0.43482296879E+03  0.17204168721E+04  0.50400001928E-02 0. -1.
</event>
<event>
 5   0  0.4811500E-07  0.2230552E+04  0.7818609E-02  0.8505818E-01
       -1   -1    0    0    0  501  0.00000000000E+00  0.00000000000E+00  0.85976404209E+03  0.85976404211E+03  0.50400001928E-02 0. -1.
        1   -1    0    0  501    0  0.00000000000E+00  0.00000000000E+00 -0.14467231633E+04  0.14467231633E+04  0.50400001928E-02 0.  1.
    10030    2    1    2    0    0  0.00000000000E+00  0.00000000000E+00 -0.58695912118E+03  0.23064872054E+04  0.22305519986E+04 0.  0.
        4    1    3    3  502    0 -0.69560820873E+03  0.67252437498E+03  0.28009213927E+03  0.10072800179E+04  0.12699999809E+01 0. -1.
       -4    1    3    3    0  502  0.69560820873E+03 -0.67252437498E+03 -0.86705126045E+03  0.12992071875E+04  0.12699999809E+01 0.  1.
</event>
<event>
 5   0  0.1505671E-06  0.3589060E+04  0.7818609E-02  0.8093002E-01
       -2   -1    0    0    0  501  0.00000000000E+00  0.00000000000E+00  0.16559820077E+04  0.16559820077E+04  0.25500000920E-02 0.  1.
        2   -1    0    0  501    0  0.00000000000E+00  0.00000000000E+00 -0.19446694659E+04  0.19446694659E+04  0.25500000920E-02 0. -1.
    10030    2    1    2    0    0  0.00000000000E+00  0.00000000000E+00 -0.28868745820E+03  0.36006514735E+04  0.35890598470E+04 0.  0.
        3    1    3    3  502    0 -0.39265988619E+01 -0.84835654281E+03 -0.17307837677E+04  0.19275208696E+04  0.10100000352E+00 0. -1.
       -3    1    3    3    0  502  0.39265988619E+01  0.84835654281E+03  0.14420963095E+04  0.16731306040E+04  0.10100000352E+00 0.  1.
</event>
<event>
 5   0  0.4811500E-07  0.3599002E+04  0.7818609E-02  0.8090720E-01
       -1   -1    0    0    0  501  0.00000000000E+00  0.00000000000E+00  0.22867065374E+04  0.22867065374E+04  0.50400001928E-02 0.  1.
        1   -1    0    0  501    0  0.00000000000E+00  0.00000000000E+00 -0.14160991250E+04  0.14160991250E+04  0.50400001928E-02 0. -1.
    10030    2    1    2    0    0  0.00000000000E+00  0.00000000000E+00  0.87060741244E+03  0.37028056625E+04  0.35990015987E+04 0.  0.
        4    1    3    3  502    0  0.58438810896E+03 -0.88006819598E+03  0.19340881334E+04  0.22037985416E+04  0.12699999809E+01 0.  1.
       -4    1    3    3    0  502 -0.58438810896E+03  0.88006819598E+03 -0.10634807210E+04  0.14990071208E+04  0.12699999809E+01 0. -1.
</event>
<event>
 5   0  0.4811500E-07  0.3592573E+04  0.7818609E-02  0.8092195E-01
        1   -1    0    0  501    0  0.00000000000E+00  0.00000000000E+00  0.18388931233E+04  0.18388931233E+04  0.50400001928E-02 0.  1.
       -1   -1    0    0    0  501  0.00000000000E+00  0.00000000000E+00 -0.17546673439E+04  0.17546673439E+04  0.50400001928E-02 0. -1.
    10030    2    1    2    0    0  0.00000000000E+00  0.00000000000E+00  0.84225779394E+02  0.35935604672E+04  0.35925732908E+04 0.  0.
        5    1    3    3  502    0 -0.30297326804E+03  0.17501590212E+04  0.31009362017E+03  0.18030611592E+04  0.46999998093E+01 0. -1.
       -5    1    3    3    0  502  0.30297326804E+03 -0.17501590212E+04 -0.22586784078E+03  0.17904993080E+04  0.46999998093E+01 0.  1.
</event>
<event>
 5   0  0.4811500E-07  0.2373800E+04  0.7818609E-02  0.8449378E-01
       -1   -1    0    0    0  501  0.00000000000E+00  0.00000000000E+00  0.91535610106E+03  0.91535610107E+03  0.50400001928E-02 0.  1.
        1   -1    0    0  501    0  0.00000000000E+00  0.00000000000E+00 -0.15389989491E+04  0.15389989491E+04  0.50400001928E-02 0. -1.
    10030    2    1    2    0    0  0.00000000000E+00  0.00000000000E+00 -0.62364284805E+03  0.24543550502E+04  0.23738003940E+04 0.  0.
        4    1    3    3  502    0 -0.14323562871E+03  0.95484657145E+03 -0.10255226794E+04  0.14085264638E+04  0.12699999809E+01 0.  1.
       -4    1    3    3    0  502  0.14323562871E+03 -0.95484657145E+03  0.40187983136E+03  0.10458285864E+04  0.12699999809E+01 0. -1.
</event>
<event>
 5   0  0.4811500E-07  0.3620592E+04  0.7818609E-02  0.8085791E-01
        1   -1    0    0  501    0  0.00000000000E+00  0.00000000000E+00  0.16441339812E+04  0.16441339812E+04  0.50400001928E-02 0. -1.
       -1   -1    0    0    0  501  0.00000000000E+00  0.00000000000E+00 -0.19932511244E+04  0.19932511244E+04  0.50400001928E-02 0.  1.
    10030    2    1    2    0    0  0.00000000000E+00  0.00000000000E+00 -0.34911714321E+03  0.36373851056E+04  0.36205921652E+04 0.  0.
        3    1    3    3  502    0  0.51881357248E+03  0.35642681394E+03 -0.18797714940E+04  0.19823593208E+04  0.10100000352E+00 0.  1.
       -3    1    3    3    0  502 -0.51881357248E+03 -0.35642681394E+03  0.15306543508E+04  0.16550257848E+04  0.10100000352E+00 0. -1.
</event>
<event>
 5   0  0.1468942E-06  0.3629280E+04  0.7818609E-02  0.8083817E-01
        2   -1    0    0  501    0  0.00000000000E+00  0.00000000000E+00  0.24900432539E+04  0.24900432539E+04  0.25500000920E-02 0.  1.
       -2   -1    0    0    0  501  0.00000000000E+00  0.00000000000E+00 -0.13224343305E+04  0.13224343305E+04  0.25500000920E-02 0. -1.
    10030    2    1    2    0    0  0.00000000000E+00  0.00000000000E+00  0.11676089234E+04  0.38124775844E+04  0.36292801950E+04 0.  0.
        2    1    3    3  502    0 -0.14539873400E+04  0.23029387826E+01  0.17243513991E+04  0.22555425591E+04  0.25500000920E-02 0.  1.
       -2    1    3    3    0  502  0.14539873400E+04 -0.23029387826E+01 -0.55674247573E+03  0.15569350252E+04  0.25500000920E-02 0. -1.
</event>
<event>
 5   0  0.1379425E-06  0.3505252E+04  0.7818609E-02  0.8112547E-01
       -2   -1    0    0    0  501  0.00000000000E+00  0.00000000000E+00  0.27666221071E+04  0.27666221071E+04  0.25500000920E-02 0. -1.
        2   -1    0    0  501    0  0.00000000000E+00  0.00000000000E+00 -0.11102699078E+04  0.11102699078E+04  0.25500000920E-02 0.  1.
    10030    2    1    2    0    0  0.00000000000E+00  0.00000000000E+00  0.16563521993E+04  0.38768920150E+04  0.35052516440E+04 0.  0.
        4    1    3    3  502    0  0.84783408847E+03  0.11422293458E+04  0.19605334458E+04  0.24222311048E+04  0.12699999809E+01 0. -1.
       -4    1    3    3    0  502 -0.84783408847E+03 -0.11422293458E+04 -0.30418124649E+03  0.14546609102E+04  0.12699999809E+01 0.  1.
</event>
<event>
 5   0  0.1505671E-06  0.3676367E+04  0.7818609E-02  0.8073220E-01
       -2   -1    0    0    0  501  0.00000000000E+00  0.00000000000E+00  0.16607973414E+04  0.16607973414E+04  0.25500000920E-02 0. -1.
        2   -1    0    0  501    0  0.00000000000E+00  0.00000000000E+00 -0.20345155317E+04  0.20345155317E+04  0.25500000920E-02 0.  1.
    10030    2    1    2    0    0  0.00000000000E+00  0.00000000000E+00 -0.37371819022E+03  0.36953128731E+04  0.36763666771E+04 0.  0.
        3    1    3    3  502    0 -0.16872569841E+04  0.29253798784E+03  0.48479360507E+03  0.17797301634E+04  0.10100000352E+00 0. -1.
       -3    1    3    3    0  502  0.16872569841E+04 -0.29253798784E+03 -0.85851179528E+03  0.19155827097E+04  0.10100000352E+00 0.  1.
</event>
<event>
 5   0  0.1491854E-06  0.3559192E+04  0.7818609E-02  0.8099904E-01
       -2   -1    0    0    0  501  0.00000000000E+00  0.00000000000E+00  0.19914994615E+04  0.19914994615E+04  0.25500000920E-02 0.  1.
        2   -1    0    0  501    0  0.00000000000E+00  0.00000000000E+00 -0.15902395184E+04  0.15902395184E+04  0.25500000920E-02 0. -1.
    10030    2    1    2    0    0  0.00000000000E+00  0.00000000000E+00  0.40125994306E+03  0.35817389799E+04  0.35591915625E+04 0.  0.
        5    1    3    3  502    0 -0.14947507752E+04  0.26278036056E+03 -0.73456100834E+03  0.16861006384E+04  0.46999998093E+01 0. -1.
       -5    1    3    3    0  502  0.14947507752E+04 -0.26278036056E+03  0.11358209514E+04  0.18956383415E+04  0.46999998093E+01 0.  1.
</event>
<event>
 5   0  0.4811500E-07  0.3590153E+04  0.7818609E-02  0.8092751E-01
        1   -1    0    0  501    0  0.00000000000E+00  0.00000000000E+00  0.27471629259E+04  0.27471629259E+04  0.50400001928E-02 0. -1.
       -1   -1    0    0    0  501  0.00000000000E+00  0.00000000000E+00 -0.11729554949E+04  0.11729554949E+04  0.50400001928E-02 0.  1.
    10030    2    1    2    0    0  0.00000000000E+00  0.00000000000E+00  0.15742074310E+04  0.39201184208E+04  0.35901531161E+04 0.  0.
        2    1    3    3  502    0  0.13023306013E+04  0.54667106019E+03 -0.42259363201E+03  0.14742793565E+04  0.25500000920E-02 0.  1.
       -2    1    3    3    0  502 -0.13023306013E+04 -0.54667106019E+03  0.19968010630E+04  0.24458390643E+04  0.25500000920E-02 0. -1.
</event>
<event>
 5   0  0.5071661E-07  0.3675648E+04  0.7818609E-02  0.8073380E-01
       -1   -1    0    0    0  501  0.00000000000E+00  0.00000000000E+00  0.13711007218E+04  0.13711007219E+04  0.50400001928E-02 0. -1.
        1   -1    0    0  501    0  0.00000000000E+00  0.00000000000E+00 -0.24634198285E+04  0.24634198285E+04  0.50400001928E-02 0.  1.
    10030    2    1    2    0    0  0.00000000000E+00  0.00000000000E+00 -0.10923191066E+04  0.38345205503E+04  0.36756478096E+04 0.  0.
        1    1    3    3  502    0 -0.94885208209E+03  0.30361935700E+03 -0.21572863460E+04  0.23762132409E+04  0.50400001928E-02 0.  1.
       -1    1    3    3    0  502  0.94885208209E+03 -0.30361935700E+03  0.10649672394E+04  0.14583073094E+04  0.50400001928E-02 0. -1.
</event>
<event>
 5   0  0.1505671E-06  0.2430528E+04  0.7818609E-02  0.8428162E-01
        2   -1    0    0  501    0  0.00000000000E+00  0.00000000000E+00  0.16891311083E+04  0.16891311083E+04  0.25500000920E-02 0. -1.
       -2   -1    0    0    0  501  0.00000000000E+00  0.00000000000E+00 -0.87433507958E+03  0.87433507958E+03  0.25500000920E-02 0.  1.
    10030    2    1    2    0    0  0.00000000000E+00  0.00000000000E+00  0.81479602871E+03  0.25634661879E+04  0.24305279937E+04 0.  0.
        3    1    3    3  502    0 -0.38768662113E+03  0.62939029459E+03 -0.60995022616E+03  0.95836963000E+03  0.10100000352E+00 0.  1.
       -3    1    3    3    0  502  0.38768662113E+03 -0.62939029459E+03  0.14247462549E+04  0.16050965579E+04  0.10100000352E+00 0. -1.
</event>
<event>
 5   0  0.1444091E-06  0.3576987E+04  0.7818609E-02  0.8095784E-01
       -2   -1    0    0    0  501  0.00000000000E+00  0.00000000000E+00  0.18445702145E+04  0.18445702145E+04  0.25500000920E-02 0.  1.
        2   -1    0    0  501    0  0.00000000000E+00  0.00000000000E+00 -0.17341213914E+04  0.17341213914E+04  0.25500000920E-02 0. -1.
    10030    2    1    2    0    0  0.00000000000E+00  0.00000000000E+00  0.11044882305E+03  0.35786916059E+04  0.35769868140E+04 0.  0.
        1    1    3    3  502    0 -0.50291447266E+03 -0.17026755259E+04 -0.16093816889E+03  0.17826743975E+04  0.50400001928E-02 0.  1.
       -1    1    3    3    0  502  0.50291447266E+03  0.17026755259E+04  0.27138699194E+03  0.17960172084E+04  0.50400001928E-02 0. -1.
</event>
<event>
 5   0  0.4811500E-07  0.3615792E+04  0.7818609E-02  0.8086884E-01
        3   -1    0    0  501    0  0.00000000000E+00  0.00000000000E+00  0.28327799101E+04  0.28327799119E+04  0.10100000352E+00 0.  1.
       -3   -1    0    0    0  501  0.00000000000E+00  0.00000000000E+00 -0.11538093919E+04  0.11538093964E+04  0.10100000352E+00 0. -1.
    10030    2    1    2    0    0  0.00000000000E+00  0.00000000000E+00  0.16789705182E+04  0.39865893083E+04  0.36157920726E+04 0.  0.
        4    1    3    3  502    0 -0.77098249875E+03 -0.27647596443E+03  0.26164834557E+04  0.27416856602E+04  0.12699999809E+01 0.  1.
       -4    1    3    3    0  502  0.77098249875E+03  0.27647596443E+03 -0.93751293749E+03  0.12449036481E+04  0.12699999809E+01 0. -1.
</event>
<event>
 5   0  0.1505671E-06  0.3657417E+04  0.7818609E-02  0.8077465E-01
       -2   -1    0    0    0  501  0.00000000000E+00  0.00000000000E+00  0.16756811721E+04  0.16756811721E+04  0.25500000920E-02 0.  1.
        2   -1    0    0  501    0  0.00000000000E+00  0.00000000000E+00 -0.19957106134E+04  0.19957106134E+04  0.25500000920E-02 0. -1.
    10030    2    1    2    0    0  0.00000000000E+00  0.00000000000E+00 -0.32002944129E+03  0.36713917855E+04  0.36574169573E+04 0.  0.
        3    1    3    3  502    0 -0.13627580564E+04  0.53810708282E+03  0.93847271868E+03  0.17399424722E+04  0.10100000352E+00 0.  1.
       -3    1    3    3    0  502  0.13627580564E+04 -0.53810708282E+03 -0.12585021600E+04  0.19314493132E+04  0.10100000352E+00 0. -1.
</event>
<event>
 5   0  0.4811500E-07  0.3547425E+04  0.7818609E-02  0.8102642E-01
        1   -1    0    0  501    0  0.00000000000E+00  0.00000000000E+00  0.23029207386E+04  0.23029207386E+04  0.50400001928E-02 0.  1.
       -1   -1    0    0    0  501  0.00000000000E+00  0.00000000000E+00 -0.13661153260E+04  0.13661153260E+04  0.50400001928E-02 0. -1.
    10030    2    1    2    0    0  0.00000000000E+00  0.00000000000E+00  0.93680541260E+03  0.36690360646E+04  0.35474245957E+04 0.  0.
        3    1    3    3  502    0 -0.11175075326E+03 -0.14984414564E+04 -0.50637152255E+03  0.15856314698E+04  0.10100000352E+00 0. -1.
       -3    1    3    3    0  502  0.11175075326E+03  0.14984414564E+04  0.14431769352E+04  0.20834045947E+04  0.10100000352E+00 0.  1.
</event>
<event>
 5   0  0.4811500E-07  0.3587468E+04  0.7818609E-02  0.8093368E-01
       -3   -1    0    0    0  501  0.00000000000E+00  0.00000000000E+00  0.24841496233E+04  0.24841496254E+04  0.10100000352E+00 0.  1.
        3   -1    0    0  501    0  0.00000000000E+00  0.00000000000E+00 -0.12952044979E+04  0.12952045018E+04  0.10100000352E+00 0. -1.
    10030    2    1    2    0    0  0.00000000000E+00  0.00000000000E+00  0.11889451254E+04  0.37793541272E+04  0.35874680636E+04 0.  0.
        5    1    3    3  502    0  0.11415123736E+04  0.42984750209E+03  0.19799754758E+04  0.23255417324E+04  0.46999998093E+01 0.  1.
       -5    1    3    3    0  502 -0.11415123736E+04 -0.42984750209E+03 -0.79103035042E+03  0.14538123948E+04  0.46999998093E+01 0. -1.
</event>
<event>
 5   0  0.1468942E-06  0.3615404E+04  0.7818609E-02  0.8086972E-01
        2   -1    0    0  501    0  0.00000000000E+00  0.00000000000E+00  0.21375017471E+04  0.21375017471E+04  0.25500000920E-02 0. -1.
       -2   -1    0    0    0  501  0.00000000000E+00  0.00000000000E+00 -0.15287878798E+04  0.15287878798E+04  0.25500000920E-02 0.  1.
    10030    2    1    2    0    0  0.00000000000E+00  0.00000000000E+00  0.60871386726E+03  0.36662896269E+04  0.36154041345E+04 0.  0.
        2    1    3    3  502    0 -0.88714971081E+03 -0.90143688175E+03 -0.10053956184E+04  0.16156866685E+04  0.25500000920E-02 0.  1.
       -2    1    3    3    0  502  0.88714971081E+03  0.90143688175E+03  0.16141094857E+04  0.20506029584E+04  0.25500000920E-02 0. -1.
</event>
<event>
 5   0  0.5071661E-07  0.3556196E+04  0.7818609E-02  0.8100600E-01
       -1   -1    0    0    0  501  0.00000000000E+00  0.00000000000E+00  0.15216605709E+04  0.15216605709E+04  0.50400001928E-02 0.  1.
        1   -1    0    0  501    0  0.00000000000E+00  0.00000000000E+00 -0.20777520568E+04  0.20777520568E+04  0.50400001928E-02 0. -1.
    10030    2    1    2    0    0  0.00000000000E+00  0.00000000000E+00 -0.55609148595E+03  0.35994126277E+04  0.35561964968E+04 0.  0.
        1    1    3    3  502    0 -0.24848371351E+03  0.17126469079E+04 -0.69133345496E+03  0.18635572256E+04  0.50400001928E-02 0. -1.
       -1    1    3    3    0  502  0.24848371351E+03 -0.17126469079E+04  0.13524196901E+03  0.17358554021E+04  0.50400001928E-02 0.  1.
</event>
<event>
 5   0  0.1444091E-06  0.3413549E+04  0.7818609E-02  0.8134589E-01
       -2   -1    0    0    0  501  0.00000000000E+00  0.00000000000E+00  0.20062208463E+04  0.20062208463E+04  0.25500000920E-02 0. -1.
        2   -1    0    0  501    0  0.00000000000E+00  0.00000000000E+00 -0.14520228551E+04  0.14520228551E+04  0.25500000920E-02 0.  1.
    10030    2    1    2    0    0  0.00000000000E+00  0.00000000000E+00  0.55419799115E+03  0.34582437014E+04  0.34135486059E+04 0.  0.
        1    1    3    3  502    0 -0.44723027761E+03 -0.13797456519E+04 -0.63432793575E+03  0.15830618798E+04  0.50400001928E-02 0.  1.
       -1    1    3    3    0  502  0.44723027761E+03  0.13797456519E+04  0.11885259269E+04  0.18751818216E+04  0.50400001928E-02 0. -1.
</event>
<event>
 5   0  0.1468942E-06  0.3104600E+04  0.7818609E-02  0.8214477E-01
        2   -1    0    0  501    0  0.00000000000E+00  0.00000000000E+00  0.14090039280E+04  0.14090039280E+04  0.25500000920E-02 0.  1.
       -2   -1    0    0    0  501  0.00000000000E+00  0.00000000000E+00 -0.17101695405E+04  0.17101695405E+04  0.25500000920E-02 0. -1.
    10030    2    1    2    0    0  0.00000000000E+00  0.00000000000E+00 -0.30116561247E+03  0.31191734685E+04  0.31046001998E+04 0.  0.
        2    1    3    3  502    0  0.14902008946E+03 -0.11852083137E+04 -0.11465533752E+04  0.16557506987E+04  0.25500000920E-02 0. -1.
       -2    1    3    3    0  502 -0.14902008946E+03  0.11852083137E+04  0.84538776274E+03  0.14634227699E+04  0.25500000920E-02 0.  1.
</event>
<event>
 5   0  0.5071661E-07  0.3570769E+04  0.7818609E-02  0.8097220E-01
       -1   -1    0    0    0  501  0.00000000000E+00  0.00000000000E+00  0.19754202547E+04  0.19754202547E+04  0.50400001928E-02 0. -1.
        1   -1    0    0  501    0  0.00000000000E+00  0.00000000000E+00 -0.16136301953E+04  0.16136301953E+04  0.50400001928E-02 0.  1.
    10030    2    1    2    0    0  0.00000000000E+00  0.00000000000E+00  0.36179005933E+03  0.35890504500E+04  0.35707689768E+04 0.  0.
        1    1    3    3  502    0  0.69180174821E+03  0.40592815286E+03 -0.14223357164E+04  0.16329134130E+04  0.50400001928E-02 0.  1.
       -1    1    3    3    0  502 -0.69180174821E+03 -0.40592815286E+03  0.17841257757E+04  0.19561370370E+04  0.50400001928E-02 0. -1.
</event>
<event>
 5   0  0.1491854E-06  0.3639737E+04  0.7818609E-02  0.8081450E-01
        2   -1    0    0  501    0  0.00000000000E+00  0.00000000000E+00  0.18475309237E+04  0.18475309237E+04  0.25500000920E-02 0.  1.
       -2   -1    0    0    0  501  0.00000000000E+00  0.00000000000E+00 -0.17926202298E+04  0.17926202298E+04  0.25500000920E-02 0. -1.
    10030    2    1    2    0    0  0.00000000000E+00  0.00000000000E+00  0.54910693840E+02  0.36401511535E+04  0.36397369734E+04 0.  0.
        5    1    3    3  502    0  0.57852192422E+03  0.54365650684E+03 -0.16103051821E+04  0.17953704029E+04  0.46999998093E+01 0. -1.
       -5    1    3    3    0  502 -0.57852192422E+03 -0.54365650684E+03  0.16652158759E+04  0.18447807506E+04  0.46999998093E+01 0.  1.
</event>
<event>
 5   0  0.1468942E-06  0.3531139E+04  0.7818609E-02  0.8106450E-01
       -2   -1    0    0    0  501  0.00000000000E+00  0.00000000000E+00  0.15982157367E+04  0.15982157367E+04  0.25500000920E-02 0. -1.
        2   -1    0    0  501    0  0.00000000000E+00  0.00000000000E+00 -0.19504474429E+04  0.19504474429E+04  0.25500000920E-02 0.  1.
    10030    2    1    2    0    0  0.00000000000E+00  0.00000000000E+00 -0.35223170618E+03  0.35486631796E+04  0.35311390779E+04 0.  0.
        2    1    3    3  502    0  0.42389563285E+03 -0.11824211082E+04  0.10707787190E+04  0.16505678567E+04  0.25500000920E-02 0. -1.
       -2    1    3    3    0  502 -0.42389563285E+03  0.11824211082E+04 -0.14230104251E+04  0.18980953229E+04  0.25500000920E-02 0.  1.
</event>
<event>
 5   0  0.1491854E-06  0.3627139E+04  0.7818609E-02  0.8084303E-01
       -2   -1    0    0    0  501  0.00000000000E+00  0.00000000000E+00  0.10867180067E+04  0.10867180067E+04  0.25500000920E-02 0.  1.
        2   -1    0    0  501    0  0.00000000000E+00  0.00000000000E+00 -0.30265752324E+04  0.30265752324E+04  0.25500000920E-02 0. -1.
    10030    2    1    2    0    0  0.00000000000E+00  0.00000000000E+00 -0.19398572257E+04  0.41132932392E+04  0.36271387091E+04 0.  0.
        5    1    3    3  502    0 -0.10975643092E+04 -0.82604675870E+03  0.37284013992E+03  0.14233876915E+04  0.46999998093E+01 0.  1.
       -5    1    3    3    0  502  0.10975643092E+04  0.82604675870E+03 -0.23126973656E+04  0.26899055476E+04  0.46999998093E+01 0. -1.
</event>
<event>
 5   0  0.5071661E-07  0.3384062E+04  0.7818609E-02  0.8141829E-01
        1   -1    0    0  501    0  0.00000000000E+00  0.00000000000E+00  0.16738997335E+04  0.16738997335E+04  0.50400001928E-02 0.  1.
       -1   -1    0    0    0  501  0.00000000000E+00  0.00000000000E+00 -0.17103588298E+04  0.17103588298E+04  0.50400001928E-02 0. -1.
    10030    2    1    2    0    0  0.00000000000E+00  0.00000000000E+00 -0.36459096248E+02  0.33842585633E+04  0.33840621681E+04 0.  0.
        1    1    3    3  502    0 -0.13989852365E+03 -0.33427899926E+03 -0.16710974247E+04  0.17099358611E+04  0.50400001928E-02 0. -1.
       -1    1    3    3    0  502  0.13989852365E+03  0.33427899926E+03  0.16346383284E+04  0.16743227022E+04  0.50400001928E-02 0.  1.
</event>
<event>
 5   0  0.1379425E-06  0.3600657E+04  0.7818609E-02  0.8090341E-01
       -2   -1    0    0    0  501  0.00000000000E+00  0.00000000000E+00  0.18534076002E+04  0.18534076002E+04  0.25500000920E-02 0. -1.
        2   -1    0    0  501    0  0.00000000000E+00  0.00000000000E+00 -0.17487690875E+04  0.17487690875E+04  0.25500000920E-02 0.  1.
    10030    2    1    2    0    0  0.00000000000E+00  0.00000000000E+00  0.10463851265E+03  0.36021766877E+04  0.36006565611E+04 0.  0.
        4    1    3    3  502    0  0.15038646734E+04  0.14206994763E+03  0.10322160464E+04  0.18295530616E+04  0.12699999809E+01 0.  1.
       -4    1    3    3    0  502 -0.15038646734E+04 -0.14206994763E+03 -0.92757753374E+03  0.17726236261E+04  0.12699999809E+01 0. -1.
</event>
<event>
 5   0  0.1505671E-06  0.3587201E+04  0.7818609E-02  0.8093430E-01
       -2   -1    0    0    0  501  0.00000000000E+00  0.00000000000E+00  0.15371807672E+04  0.15371807672E+04  0.25500000920E-02 0. -1.
        2   -1    0    0  501    0  0.00000000000E+00  0.00000000000E+00 -0.20927936971E+04  0.20927936971E+04  0.25500000920E-02 0.  1.
    10030    2    1    2    0    0  0.00000000000E+00  0.00000000000E+00 -0.55561292991E+03  0.36299744644E+04  0.35872007031E+04 0.  0.
        3    1    3    3  502    0  0.41689270072E+03 -0.48596546359E+03  0.14175936735E+04  0.15554850656E+04  0.10100000352E+00 0. -1.
       -3    1    3    3    0  502 -0.41689270072E+03  0.48596546359E+03 -0.19732066034E+04  0.20744893988E+04  0.10100000352E+00 0.  1.
</event>
<event>
 5   0  0.1491854E-06  0.3657582E+04  0.7818609E-02  0.8077428E-01
        2   -1    0    0  501    0  0.00000000000E+00  0.00000000000E+00  0.11382442598E+04  0.11382442598E+04  0.25500000920E-02 0. -1.
       -2   -1    0    0    0  501  0.00000000000E+00  0.00000000000E+00 -0.29382765415E+04  0.29382765415E+04  0.25500000920E-02 0.  1.
    10030    2    1    2    0    0  0.00000000000E+00  0.00000000000E+00 -0.18000322817E+04  0.40765208013E+04  0.36575819374E+04 0.  0.
        5    1    3    3  502    0 -0.83675061144E+03  0.97771664456E+03 -0.23482202798E+04  0.26777307548E+04  0.46999998093E+01 0.  1.
       -5    1    3    3    0  502  0.83675061144E+03 -0.97771664456E+03  0.54818799819E+03  0.13987900465E+04  0.46999998093E+01 0. -1.
</event>
<event>
 5   0  0.1505671E-06  0.3571686E+04  0.7818609E-02  0.8097008E-01
       -2   -1    0    0    0  501  0.00000000000E+00  0.00000000000E+00  0.12859611769E+04  0.12859611769E+04  0.25500000920E-02 0. -1.
        2   -1    0    0  501    0  0.00000000000E+00  0.00000000000E+00 -0.24800395055E+04  0.24800395055E+04  0.25500000920E-02 0.  1.
    10030    2    1    2    0    0  0.00000000000E+00  0.00000000000E+00 -0.11940783286E+04  0.37660006824E+04  0.35716856084E+04 0.  0.
        3    1    3    3  502    0 -0.23582669778E+03 -0.87910057364E+03 -0.22171211581E+04  0.23966765093E+04  0.10100000352E+00 0.  1.
       -3    1    3    3    0  502  0.23582669778E+03  0.87910057364E+03  0.10230428295E+04  0.13693241732E+04  0.10100000352E+00 0. -1.
</event>
<event>
 5   0  0.4811500E-07  0.3519570E+04  0.7818609E-02  0.8109168E-01
       -1   -1    0    0    0  501  0.00000000000E+00  0.00000000000E+00  0.21509615868E+04  0.21509615868E+04  0.50400001928E-02 0.  1.
        1   -1    0    0  501    0  0.00000000000E+00  0.00000000000E+00 -0.14397481950E+04  0.14397481950E+04  0.50400001928E-02 0. -1.
    10030    2    1    2    0    0  0.00000000000E+00  0.00000000000E+00  0.71121339181E+03  0.35907097818E+04  0.35195698954E+04 0.  0.
        3    1    3    3  502    0  0.51258335913E+03 -0.12133816333E+04 -0.83494536225E+03  0.15595417456E+04  0.10100000352E+00 0. -1.
       -3    1    3    3    0  502 -0.51258335913E+03  0.12133816333E+04  0.15461587541E+04  0.20311680362E+04  0.10100000352E+00 0.  1.
</event>
<event>
 5   0  0.4811500E-07  0.3653618E+04  0.7818609E-02  0.8078319E-01
       -1   -1    0    0    0  501  0.00000000000E+00  0.00000000000E+00  0.20967982181E+04  0.20967982181E+04  0.50400001928E-02 0. -1.
        1   -1    0    0  501    0  0.00000000000E+00  0.00000000000E+00 -0.15915838788E+04  0.15915838788E+04  0.50400001928E-02 0.  1.
    10030    2    1    2    0    0  0.00000000000E+00  0.00000000000E+00  0.50521433929E+03  0.36883820969E+04  0.36536175175E+04 0.  0.
        3    1    3    3  502    0  0.11621580323E+04 -0.98684437518E+03 -0.76332678727E+03  0.17050339901E+04  0.10100000352E+00 0.  1.
       -3    1    3    3    0  502 -0.11621580323E+04  0.98684437518E+03  0.12685411266E+04  0.19833481068E+04  0.10100000352E+00 0. -1.
</event>
<event>
 5   0  0.1379425E-06  0.3613936E+04  0.7818609E-02  0.8087307E-01
       -2   -1    0    0    0  501  0.00000000000E+00  0.00000000000E+00  0.24274756858E+04  0.24274756858E+04  0.25500000920E-02 0. -1.
        2   -1    0    0  501    0  0.00000000000E+00  0.00000000000E+00 -0.13450737495E+04  0.13450737495E+04  0.25500000920E-02 0.  1.
    10030    2    1    2    0    0  0.00000000000E+00  0.00000000000E+00  0.10824019363E+04  0.37725494352E+04  0.36139362597E+04 0.  0.
        4    1    3    3  502    0  0.15137139453E+04 -0.90219164265E+03  0.95856423516E+03  0.20060226006E+04  0.12699999809E+01 0. -1.
       -4    1    3    3    0  502 -0.15137139453E+04  0.90219164265E+03  0.12383770114E+03  0.17665268346E+04  0.12699999809E+01 0.  1.
</event>
<event>
 5   0  0.4811500E-07  0.3403927E+04  0.7818609E-02  0.8136943E-01
        1   -1    0    0  501    0  0.00000000000E+00  0.00000000000E+00  0.24292838173E+04  0.24292838173E+04  0.50400001928E-02 0.  1.
       -1   -1    0    0    0  501  0.00000000000E+00  0.00000000000E+00 -0.11924007747E+04  0.11924007747E+04  0.50400001928E-02 0. -1.
    10030    2    1    2    0    0  0.00000000000E+00  0.00000000000E+00  0.12368830425E+04  0.36216845920E+04  0.34039270884E+04 0.  0.
        5    1    3    3  502    0  0.71959267655E+03  0.78907309461E+03 -0.79155594787E+03  0.13292978889E+04  0.46999998093E+01 0. -1.
       -5    1    3    3    0  502 -0.71959267655E+03 -0.78907309461E+03  0.20284389904E+04  0.22923867031E+04  0.46999998093E+01 0.  1.
</event>
<event>
 5   0  0.4811500E-07  0.2449704E+04  0.7818609E-02  0.8421126E-01
       -3   -1    0    0    0  501  0.00000000000E+00  0.00000000000E+00  0.83264913640E+03  0.83264914252E+03  0.10100000352E+00 0. -1.
        3   -1    0    0  501    0  0.00000000000E+00  0.00000000000E+00 -0.18017944244E+04  0.18017944272E+04  0.10100000352E+00 0.  1.
    10030    2    1    2    0    0  0.00000000000E+00  0.00000000000E+00 -0.96914528802E+03  0.26344435698E+04  0.24497041317E+04 0.  0.
        2    1    3    3  502    0 -0.94724684189E+03  0.43601698388E+03 -0.11755831666E+04  0.15714271130E+04  0.25500000920E-02 0.  1.
       -2    1    3    3    0  502  0.94724684189E+03 -0.43601698388E+03  0.20643787861E+03  0.10630164568E+04  0.25500000920E-02 0. -1.
</event>
<event>
 5   0  0.4811500E-07  0.3694103E+04  0.7818609E-02  0.8069270E-01
       -1   -1    0    0    0  501  0.00000000000E+00  0.00000000000E+00  0.16112113956E+04  0.16112113956E+04  0.50400001928E-02 0.  1.
        1   -1    0    0  501    0  0.00000000000E+00  0.00000000000E+00 -0.21174128067E+04  0.21174128068E+04  0.50400001928E-02 0. -1.
    10030    2    1    2    0    0  0.00000000000E+00  0.00000000000E+00 -0.50620141117E+03  0.37286242023E+04  0.36941032164E+04 0.  0.
        3    1    3    3  502    0  0.63265019928E+03  0.16309495695E+04  0.34519213664E+03  0.17830873210E+04  0.10100000352E+00 0.  1.
       -3    1    3    3    0  502 -0.63265019928E+03 -0.16309495695E+04 -0.85139354780E+03  0.19455368813E+04  0.10100000352E+00 0. -1.
</event>
<event>
 5   0  0.4811500E-07  0.3566772E+04  0.7818609E-02  0.8098146E-01
       -1   -1    0    0    0  501  0.00000000000E+00  0.00000000000E+00  0.11902149756E+04  0.11902149756E+04  0.50400001928E-02 0. -1.
        1   -1    0    0  501    0  0.00000000000E+00  0.00000000000E+00 -0.26721780729E+04  0.26721780729E+04  0.50400001928E-02 0.  1.
    10030    2    1    2    0    0  0.00000000000E+00  0.00000000000E+00 -0.14819630974E+04  0.38623930485E+04  0.35667724120E+04 0.  0.
        5    1    3    3  502    0 -0.10409059217E+04 -0.70516919013E+03  0.62863733636E+03  0.14056869193E+04  0.46999998093E+01 0. -1.
       -5    1    3    3    0  502  0.10409059217E+04  0.70516919013E+03 -0.21106004337E+04  0.24567061292E+04  0.46999998093E+01 0.  1.
</event>
<event>
 5   0  0.4811500E-07  0.3621140E+04  0.7818609E-02  0.8085667E-01
       -1   -1    0    0    0  501  0.00000000000E+00  0.00000000000E+00  0.10928789921E+04  0.10928789921E+04  0.50400001928E-02 0.  1.
        1   -1    0    0  501    0  0.00000000000E+00  0.00000000000E+00 -0.29995662578E+04  0.29995662578E+04  0.50400001928E-02 0. -1.
    10030    2    1    2    0    0  0.00000000000E+00  0.00000000000E+00 -0.19066872657E+04  0.40924452499E+04  0.36211395712E+04 0.  0.
        3    1    3    3  502    0 -0.27877994869E+03 -0.17622665243E+04 -0.13014262398E+04  0.22083957595E+04  0.10100000352E+00 0. -1.
       -3    1    3    3    0  502  0.27877994869E+03  0.17622665243E+04 -0.60526102585E+03  0.18840494904E+04  0.10100000352E+00 0.  1.
</event>
<event>
 5   0  0.1444091E-06  0.3686653E+04  0.7818609E-02  0.8070926E-01
       -2   -1    0    0    0  501  0.00000000000E+00  0.00000000000E+00  0.17107411891E+04  0.17107411891E+04  0.25500000920E-02 0. -1.
        2   -1    0    0  501    0  0.00000000000E+00  0.00000000000E+00 -0.19861873155E+04  0.19861873155E+04  0.25500000920E-02 0.  1.
    10030    2    1    2    0    0  0.00000000000E+00  0.00000000000E+00 -0.27544612638E+03  0.36969285046E+04  0.36866529264E+04 0.  0.
        1    1    3    3  502    0  0.57571052256E+03  0.12862358956E+04  0.10538679880E+04  0.17596826762E+04  0.50400001928E-02 0. -1.
       -1    1    3    3    0  502 -0.57571052256E+03 -0.12862358956E+04 -0.13293141143E+04  0.19372458284E+04  0.50400001928E-02 0.  1.
</event>
<event>
 5   0  0.4811500E-07  0.3600560E+04  0.7818609E-02  0.8090364E-01
       -1   -1    0    0    0  501  0.00000000000E+00  0.00000000000E+00  0.14363566826E+04  0.14363566826E+04  0.50400001928E-02 0.  1.
        1   -1    0    0  501    0  0.00000000000E+00  0.00000000000E+00 -0.22564085473E+04  0.22564085473E+04  0.50400001928E-02 0. -1.
    10030    2    1    2    0    0  0.00000000000E+00  0.00000000000E+00 -0.82005186474E+03  0.36927652299E+04  0.36005596763E+04 0.  0.
        2    1    3    3  502    0 -0.13094639481E+04 -0.24879102703E+03 -0.16511457859E+04  0.21219979295E+04  0.25500000920E-02 0. -1.
       -2    1    3    3    0  502  0.13094639481E+04  0.24879102703E+03  0.83109392114E+03  0.15707673004E+04  0.25500000920E-02 0.  1.
</event>
<event>
 5   0  0.4811500E-07  0.3519757E+04  0.7818609E-02  0.8109124E-01
        1   -1    0    0  501    0  0.00000000000E+00  0.00000000000E+00  0.16510483422E+04  0.16510483422E+04  0.50400001928E-02 0. -1.
       -1   -1    0    0    0  501  0.00000000000E+00  0.00000000000E+00 -0.18758823952E+04  0.18758823952E+04  0.50400001928E-02 0.  1.
    10030    2    1    2    0    0  0.00000000000E+00  0.00000000000E+00 -0.22483405299E+03  0.35269307374E+04  0.35197571046E+04 0.  0.
        3    1    3    3  502    0  0.10988414711E+04  0.11000934786E+04  0.71358959154E+03  0.17108092692E+04  0.10100000352E+00 0. -1.
       -3    1    3    3    0  502 -0.10988414711E+04 -0.11000934786E+04 -0.93842364453E+03  0.18161214682E+04  0.10100000352E+00 0.  1.
</event>
<event>
 5   0  0.4811500E-07  0.3637979E+04  0.7818609E-02  0.8081847E-01
       -1   -1    0    0    0  501  0.00000000000E+00  0.00000000000E+00  0.13877691566E+04  0.13877691567E+04  0.50400001928E-02 0. -1.
        1   -1    0    0  501    0  0.00000000000E+00  0.00000000000E+00 -0.23842028864E+04  0.23842028864E+04  0.50400001928E-02 0.  1.
    10030    2    1    2    0    0  0.00000000000E+00  0.00000000000E+00 -0.99643372974E+03  0.37719720430E+04  0.36379792352E+04 0.  0.
        2    1    3    3  502    0  0.63009994618E+03  0.17063675232E+04 -0.49544197862E+03  0.18852529858E+04  0.25500000920E-02 0.  1.
       -2    1    3    3    0  502 -0.63009994618E+03 -0.17063675232E+04 -0.50099175112E+03  0.18867190572E+04  0.25500000920E-02 0. -1.
</event>
<event>
 5   0  0.4811500E-07  0.3549730E+04  0.7818609E-02  0.8102105E-01
        1   -1    0    0  501    0  0.00000000000E+00  0.00000000000E+00  0.15305203768E+04  0.15305203768E+04  0.50400001928E-02 0.  1.
       -1   -1    0    0    0  501  0.00000000000E+00  0.00000000000E+00 -0.20582184937E+04  0.20582184937E+04  0.50400001928E-02 0. -1.
    10030    2    1    2    0    0  0.00000000000E+00  0.00000000000E+00 -0.52769811687E+03  0.35887388705E+04  0.35497297612E+04 0.  0.
        3    1    3    3  502    0  0.92133214762E+03 -0.75073028226E+03 -0.15965525147E+04  0.19903338477E+04  0.10100000352E+00 0.  1.
       -3    1    3    3    0  502 -0.92133214762E+03  0.75073028226E+03  0.10688543978E+04  0.15984050228E+04  0.10100000352E+00 0. -1.
</event>
<event>
 5   0  0.1491854E-06  0.3520639E+04  0.7818609E-02  0.8108916E-01
       -2   -1    0    0    0  501  0.00000000000E+00  0.00000000000E+00  0.17338052934E+04  0.17338052934E+04  0.25500000920E-02 0.  1.
        2   -1    0    0  501    0  0.00000000000E+00  0.00000000000E+00 -0.17872390044E+04  0.17872390044E+04  0.25500000920E-02 0. -1.
    10030    2    1    2    0    0  0.00000000000E+00  0.00000000000E+00 -0.53433711003E+02  0.35210442977E+04  0.35206388319E+04 0.  0.
        5    1    3    3  502    0 -0.59534932349E+02 -0.15087123682E+04 -0.93177684346E+03  0.17742569132E+04  0.46999998093E+01 0.  1.
       -5    1    3    3    0  502  0.59534932349E+02  0.15087123682E+04  0.87834313246E+03  0.17467873845E+04  0.46999998093E+01 0. -1.
</event>
<event>
 5   0  0.1444091E-06  0.2636139E+04  0.7818609E-02  0.8356028E-01
        2   -1    0    0  501    0  0.00000000000E+00  0.00000000000E+00  0.23406267957E+04  0.23406267957E+04  0.25500000920E-02 0. -1.
       -2   -1    0    0    0  501  0.00000000000E+00  0.00000000000E+00 -0.74224026850E+03  0.74224026851E+03  0.25500000920E-02 0.  1.
    10030    2    1    2    0    0  0.00000000000E+00  0.00000000000E+00  0.15983865272E+04  0.30828670642E+04  0.26361391931E+04 0.  0.
        1    1    3    3  502    0 -0.71683337375E+03  0.11050298709E+04  0.74230444976E+03  0.15119381592E+04  0.50400001928E-02 0. -1.
       -1    1    3    3    0  502  0.71683337375E+03 -0.11050298709E+04  0.85608207747E+03  0.15709289050E+04  0.50400001928E-02 0.  1.
</event>
<event>
 5   0  0.5071661E-07  0.3565135E+04  0.7818609E-02  0.8098525E-01
        1   -1    0    0  501    0  0.00000000000E+00  0.00000000000E+00  0.25606237405E+04  0.25606237405E+04  0.50400001928E-02 0.  1.
       -1   -1    0    0    0  501  0.00000000000E+00  0.00000000000E+00 -0.12409271438E+04  0.12409271438E+04  0.50400001928E-02 0. -1.
    10030    2    1    2    0    0  0.00000000000E+00  0.00000000000E+00  0.13196965967E+04  0.38015508844E+04  0.35651353437E+04 0.  0.
        1    1    3    3  502    0  0.14239258881E+04 -0.91297572860E+03  0.12596984176E+04  0.21090115503E+04  0.50400001928E-02 0.  1.
       -1    1    3    3    0  502 -0.14239258881E+04  0.91297572860E+03  0.59998179137E+02  0.16925393341E+04  0.50400001928E-02 0. -1.
</event>
<event>
 5   0  0.1468942E-06  0.3558008E+04  0.7818609E-02  0.8100179E-01
       -2   -1    0    0    0  501  0.00000000000E+00  0.00000000000E+00  0.13935570303E+04  0.13935570303E+04  0.25500000920E-02 0. -1.
        2   -1    0    0  501    0  0.00000000000E+00  0.00000000000E+00 -0.22710619963E+04  0.22710619963E+04  0.25500000920E-02 0.  1.
    10030    2    1    2    0    0  0.00000000000E+00  0.00000000000E+00 -0.87750496597E+03  0.36646190265E+04  0.35580075386E+04 0.  0.
        2    1    3    3  502    0  0.35067678542E+03  0.89009999448E+02  0.13552651575E+04  0.14027261440E+04  0.25500000920E-02 0. -1.
       -2    1    3    3    0  502 -0.35067678542E+03 -0.89009999448E+02 -0.22327701235E+04  0.22618928826E+04  0.25500000920E-02 0.  1.
</event>
<event>
 5   0  0.1491854E-06  0.4031762E+04  0.7818609E-02  0.7998170E-01
       -2   -1    0    0    0  501  0.00000000000E+00  0.00000000000E+00  0.14591689058E+04  0.14591689058E+04  0.25500000920E-02 0. -1.
        2   -1    0    0  501    0  0.00000000000E+00  0.00000000000E+00 -0.27849930414E+04  0.27849930414E+04  0.25500000920E-02 0.  1.
    10030    2    1    2    0    0  0.00000000000E+00  0.00000000000E+00 -0.13258241356E+04  0.42441619472E+04  0.40317615252E+04 0.  0.
        5    1    3    3  502    0 -0.77377453310E+03  0.13477231117E+04 -0.20145606313E+04  0.25443194062E+04  0.46999998093E+01 0.  1.
       -5    1    3    3    0  502  0.77377453310E+03 -0.13477231117E+04  0.68873649564E+03  0.16998425410E+04  0.46999998093E+01 0. -1.
</event>
<event>
 5   0  0.4811500E-07  0.3548518E+04  0.7818609E-02  0.8102387E-01
       -1   -1    0    0    0  501  0.00000000000E+00  0.00000000000E+00  0.20860842925E+04  0.20860842925E+04  0.50400001928E-02 0.  1.
        1   -1    0    0  501    0  0.00000000000E+00  0.00000000000E+00 -0.15090451012E+04  0.15090451012E+04  0.50400001928E-02 0. -1.
    10030    2    1    2    0    0  0.00000000000E+00  0.00000000000E+00  0.57703919137E+03  0.35951293937E+04  0.35485181596E+04 0.  0.
        2    1    3    3  502    0  0.11897828099E+03  0.40381370709E+02  0.20815714369E+04  0.20853599530E+04  0.25500000920E-02 0.  1.
       -2    1    3    3    0  502 -0.11897828099E+03 -0.40381370709E+02 -0.15045322455E+04  0.15097694408E+04  0.25500000920E-02 0. -1.
</event>
<event>
 5   0  0.1468942E-06  0.2966245E+04  0.7818609E-02  0.8253436E-01
        2   -1    0    0  501    0  0.00000000000E+00  0.00000000000E+00  0.15440868034E+04  0.15440868034E+04  0.25500000920E-02 0. -1.
       -2   -1    0    0    0  501  0.00000000000E+00  0.00000000000E+00 -0.14245650693E+04  0.14245650693E+04  0.25500000920E-02 0.  1.
    10030    2    1    2    0    0  0.00000000000E+00  0.00000000000E+00  0.11952173412E+03  0.29686518727E+04  0.29662448477E+04 0.  0.
        2    1    3    3  502    0 -0.76982308850E+03  0.11656756235E+04 -0.43886514100E+03  0.14642506134E+04  0.25500000920E-02 0. -1.
       -2    1    3    3    0  502  0.76982308850E+03 -0.11656756235E+04  0.55838687511E+03  0.15044012593E+04  0.25500000920E-02 0.  1.
</event>
<event>
 5   0  0.1505671E-06  0.3508145E+04  0.7818609E-02  0.8111862E-01
        2   -1    0    0  501    0  0.00000000000E+00  0.00000000000E+00  0.19384073759E+04  0.19384073759E+04  0.25500000920E-02 0.  1.
       -2   -1    0    0    0  501  0.00000000000E+00  0.00000000000E+00 -0.15872674643E+04  0.15872674643E+04  0.25500000920E-02 0. -1.
    10030    2    1    2    0    0  0.00000000000E+00  0.00000000000E+00  0.35113991156E+03  0.35256748402E+04  0.35081453564E+04 0.  0.
        3    1    3    3  502    0 -0.70317124133E+03  0.25404486769E+03 -0.14191108619E+04  0.16040150367E+04  0.10100000352E+00 0. -1.
       -3    1    3    3    0  502  0.70317124133E+03 -0.25404486769E+03  0.17702507734E+04  0.19216598035E+04  0.10100000352E+00 0.  1.
</event>
<event>
 5   0  0.4811500E-07  0.3625652E+04  0.7818609E-02  0.8084641E-01
       -1   -1    0    0    0  501  0.00000000000E+00  0.00000000000E+00  0.17580885956E+04  0.17580885956E+04  0.50400001928E-02 0.  1.
        1   -1    0    0  501    0  0.00000000000E+00  0.00000000000E+00 -0.18692671591E+04  0.18692671591E+04  0.50400001928E-02 0. -1.
    10030    2    1    2    0    0  0.00000000000E+00  0.00000000000E+00 -0.11117856353E+03  0.36273557548E+04  0.36256515412E+04 0.  0.
        5    1    3    3  502    0  0.79644974977E+03 -0.12086975146E+04  0.10362684181E+04  0.17802124059E+04  0.46999998093E+01 0.  1.
       -5    1    3    3    0  502 -0.79644974977E+03  0.12086975146E+04 -0.11474469816E+04  0.18471433489E+04  0.46999998093E+01 0. -1.
</event>
<event>
 5   0  0.4811500E-07  0.3724244E+04  0.7818609E-02  0.8062610E-01
       -1   -1    0    0    0  501  0.00000000000E+00  0.00000000000E+00  0.14266430581E+04  0.14266430581E+04  0.50400001928E-02 0. -1.
        1   -1    0    0  501    0  0.00000000000E+00  0.00000000000E+00 -0.24305301613E+04  0.24305301613E+04  0.50400001928E-02 0.  1.
    10030    2    1    2    0    0  0.00000000000E+00  0.00000000000E+00 -0.10038871032E+04  0.38571732194E+04  0.37242443433E+04 0.  0.
        5    1    3    3  502    0 -0.91161029351E+03 -0.12131067622E+04 -0.16197318414E+04  0.22195077544E+04  0.46999998093E+01 0.  1.
       -5    1    3    3    0  502  0.91161029351E+03  0.12131067622E+04  0.61584473818E+03  0.16376654650E+04  0.46999998093E+01 0. -1.
</event>
<event>
 5   0  0.1444091E-06  0.2297300E+04  0.7818609E-02  0.8478987E-01
       -2   -1    0    0    0  501  0.00000000000E+00  0.00000000000E+00  0.50592310440E+03  0.50592310441E+03  0.25500000920E-02 0. -1.
        2   -1    0    0  501    0  0.00000000000E+00  0.00000000000E+00 -0.26078988872E+04  0.26078988872E+04  0.25500000920E-02 0.  1.
    10030    2    1    2    0    0  0.00000000000E+00  0.00000000000E+00 -0.21019757828E+04  0.31138219916E+04  0.22972995460E+04 0.  0.
        1    1    3    3  502    0 -0.72091396674E+03 -0.48886929185E+03 -0.36057923040E+02  0.87178569947E+03  0.50400001928E-02 0. -1.
       -1    1    3    3    0  502  0.72091396674E+03  0.48886929185E+03 -0.20659178598E+04  0.22420362921E+04  0.50400001928E-02 0.  1.
</event>
<event>
 5   0  0.4811500E-07  0.2846486E+04  0.7818609E-02  0.8288980E-01
        1   -1    0    0  501    0  0.00000000000E+00  0.00000000000E+00  0.18384032859E+04  0.18384032859E+04  0.50400001928E-02 0.  1.
       -1   -1    0    0    0  501  0.00000000000E+00  0.00000000000E+00 -0.11018366180E+04  0.11018366180E+04  0.50400001928E-02 0. -1.
    10030    2    1    2    0    0  0.00000000000E+00  0.00000000000E+00  0.73656666792E+03  0.29402399039E+04  0.28464855939E+04 0.  0.
        4    1    3    3  502    0  0.10395780025E+04 -0.80915122223E+03 -0.18813351620E+03  0.13307306100E+04  0.12699999809E+01 0.  1.
       -4    1    3    3    0  502 -0.10395780025E+04  0.80915122223E+03  0.92470018412E+03  0.16095092939E+04  0.12699999809E+01 0. -1.
</event>
<event>
 5   0  0.4811500E-07  0.3609623E+04  0.7818609E-02  0.8088291E-01
       -1   -1    0    0    0  501  0.00000000000E+00  0.00000000000E+00  0.15208169297E+04  0.15208169297E+04  0.50400001928E-02 0.  1.
        1   -1    0    0  501    0  0.00000000000E+00  0.00000000000E+00 -0.21418384885E+04  0.21418384885E+04  0.50400001928E-02 0. -1.
    10030    2    1    2    0    0  0.00000000000E+00  0.00000000000E+00 -0.62102155875E+03  0.36626554182E+04  0.36096228246E+04 0.  0.
        2    1    3    3  502    0  0.11295268083E+04 -0.10929968448E+04 -0.12106011105E+04  0.19839425299E+04  0.25500000920E-02 0. -1.
       -2    1    3    3    0  502 -0.11295268083E+04  0.10929968448E+04  0.58957955171E+03  0.16787128883E+04  0.25500000920E-02 0.  1.
</event>
<event>
 5   0  0.1379425E-06  0.3546110E+04  0.7818609E-02  0.8102949E-01
        2   -1    0    0  501    0  0.00000000000E+00  0.00000000000E+00  0.11857948042E+04  0.11857948042E+04  0.25500000920E-02 0. -1.
       -2   -1    0    0    0  501  0.00000000000E+00  0.00000000000E+00 -0.26511539765E+04  0.26511539765E+04  0.25500000920E-02 0.  1.
    10030    2    1    2    0    0  0.00000000000E+00  0.00000000000E+00 -0.14653591723E+04  0.38369487807E+04  0.35461103256E+04 0.  0.
        4    1    3    3  502    0  0.30947426756E+03 -0.63531322825E+03 -0.24921875546E+04  0.25904435220E+04  0.12699999809E+01 0.  1.
       -4    1    3    3    0  502 -0.30947426756E+03  0.63531322825E+03  0.10268283823E+04  0.12465052587E+04  0.12699999809E+01 0. -1.
</event>
<event>
 5   0  0.1468942E-06  0.3547915E+04  0.7818609E-02  0.8102528E-01
        2   -1    0    0  501    0  0.00000000000E+00  0.00000000000E+00  0.19446689210E+04  0.19446689210E+04  0.25500000920E-02 0.  1.
       -2   -1    0    0    0  501  0.00000000000E+00  0.00000000000E+00 -0.16182314352E+04  0.16182314352E+04  0.25500000920E-02 0. -1.
    10030    2    1    2    0    0  0.00000000000E+00  0.00000000000E+00  0.32643748581E+03  0.35629003562E+04  0.35479145305E+04 0.  0.
        2    1    3    3  502    0  0.58898523673E+02 -0.17637434127E+04  0.34471540712E+03  0.17980791345E+04  0.25500000920E-02 0.  1.
       -2    1    3    3    0  502 -0.58898523673E+02  0.17637434127E+04 -0.18277921306E+02  0.17648212217E+04  0.25500000920E-02 0. -1.
</event>
<event>
 5   0  0.1505671E-06  0.3588020E+04  0.7818609E-02  0.8093241E-01
        2   -1    0    0  501    0  0.00000000000E+00  0.00000000000E+00  0.19487650101E+04  0.19487650101E+04  0.25500000920E-02 0.  1.
       -2   -1    0    0    0  501  0.00000000000E+00  0.00000000000E+00 -0.16515441299E+04  0.16515441299E+04  0.25500000920E-02 0. -1.
    10030    2    1    2    0    0  0.00000000000E+00  0.00000000000E+00  0.29722088021E+03  0.36003091400E+04  0.35880197396E+04 0.  0.
        3    1    3    3  502    0  0.71179021819E+03  0.35756826177E+03  0.17615897223E+04  0.19333128915E+04  0.10100000352E+00 0.  1.
       -3    1    3    3    0  502 -0.71179021819E+03 -0.35756826177E+03 -0.14643688421E+04  0.16669962485E+04  0.10100000352E+00 0. -1.
</event>
<event>
 5   0  0.1491854E-06  0.3586061E+04  0.7818609E-02  0.8093692E-01
        2   -1    0    0  501    0  0.00000000000E+00  0.00000000000E+00  0.25043027872E+04  0.25043027872E+04  0.25500000920E-02 0. -1.
       -2   -1    0    0    0  501  0.00000000000E+00  0.00000000000E+00 -0.12837740937E+04  0.12837740937E+04  0.25500000920E-02 0.  1.
    10030    2    1    2    0    0  0.00000000000E+00  0.00000000000E+00  0.12205286934E+04  0.37880768809E+04  0.35860613721E+04 0.  0.
        5    1    3    3  502    0 -0.94665558105E+03 -0.14945434631E+04  0.91845316027E+03  0.19933377160E+04  0.46999998093E+01 0.  1.
       -5    1    3    3    0  502  0.94665558105E+03  0.14945434631E+04  0.30207553315E+03  0.17947391649E+04  0.46999998093E+01 0. -1.
</event>
<event>
 5   0  0.1379425E-06  0.2422384E+04  0.7818609E-02  0.8431170E-01
        2   -1    0    0  501    0  0.00000000000E+00  0.00000000000E+00  0.91671118060E+03  0.91671118061E+03  0.25500000920E-02 0. -1.
       -2   -1    0    0    0  501  0.00000000000E+00  0.00000000000E+00 -0.16002713210E+04  0.16002713210E+04  0.25500000920E-02 0.  1.
    10030    2    1    2    0    0  0.00000000000E+00  0.00000000000E+00 -0.68356014041E+03  0.25169825016E+04  0.24223844550E+04 0.  0.
        4    1    3    3  502    0 -0.49904327845E+03  0.56303668399E+03 -0.13280204269E+04  0.15263336360E+04  0.12699999809E+01 0.  1.
       -4    1    3    3    0  502  0.49904327845E+03 -0.56303668399E+03  0.64446028645E+03  0.99064886564E+03  0.12699999809E+01 0. -1.
</event>
<event>
 5   0  0.1505671E-06  0.2388970E+04  0.7818609E-02  0.8443645E-01
       -2   -1    0    0    0  501  0.00000000000E+00  0.00000000000E+00  0.95313144259E+03  0.95313144259E+03  0.25500000920E-02 0.  1.
        2   -1    0    0  501    0  0.00000000000E+00  0.00000000000E+00 -0.14969539832E+04  0.14969539832E+04  0.25500000920E-02 0. -1.
    10030    2    1    2    0    0  0.00000000000E+00  0.00000000000E+00 -0.54382254061E+03  0.24500854258E+04  0.23889695766E+04 0.  0.
        3    1    3    3  502    0 -0.79212076322E+03  0.81670095585E+03 -0.64500085770E+03  0.13078539182E+04  0.10100000352E+00 0. -1.
       -3    1    3    3    0  502  0.79212076322E+03 -0.81670095585E+03  0.10117831710E+03  0.11422315076E+04  0.10100000352E+00 0.  1.
</event>
<event>
 5   0  0.4811500E-07  0.3589939E+04  0.7818609E-02  0.8092800E-01
       -1   -1    0    0    0  501  0.00000000000E+00  0.00000000000E+00  0.13093813031E+04  0.13093813031E+04  0.50400001928E-02 0. -1.
        1   -1    0    0  501    0  0.00000000000E+00  0.00000000000E+00 -0.24606389922E+04  0.24606389922E+04  0.50400001928E-02 0.  1.
    10030    2    1    2    0    0  0.00000000000E+00  0.00000000000E+00 -0.11512576890E+04  0.37700202953E+04  0.35899385455E+04 0.  0.
        3    1    3    3  502    0 -0.17096531518E+04 -0.45595591845E+03 -0.89260583308E+03  0.19818059649E+04  0.10100000352E+00 0.  1.
       -3    1    3    3    0  502  0.17096531518E+04  0.45595591845E+03 -0.25865185595E+03  0.17882143305E+04  0.10100000352E+00 0. -1.
</event>
<event>
 5   0  0.1444091E-06  0.2549419E+04  0.7818609E-02  0.8385588E-01
        2   -1    0    0  501    0  0.00000000000E+00  0.00000000000E+00  0.22736783467E+04  0.22736783467E+04  0.25500000920E-02 0.  1.
       -2   -1    0    0    0  501  0.00000000000E+00  0.00000000000E+00 -0.71464978001E+03  0.71464978002E+03  0.25500000920E-02 0. -1.
    10030    2    1    2    0    0  0.00000000000E+00  0.00000000000E+00  0.15590285667E+04  0.29883281267E+04  0.25494185457E+04 0.  0.
        1    1    3    3  502    0  0.14793638932E+03  0.23924805828E+03  0.22368446774E+04  0.22544620023E+04  0.50400001928E-02 0.  1.
       -1    1    3    3    0  502 -0.14793638932E+03 -0.23924805828E+03 -0.67781611072E+03  0.73386612448E+03  0.50400001928E-02 0. -1.
</event>
<event>
 5   0  0.4811500E-07  0.3171316E+04  0.7818609E-02  0.8196434E-01
       -1   -1    0    0    0  501  0.00000000000E+00  0.00000000000E+00  0.10841863225E+04  0.10841863226E+04  0.50400001928E-02 0.  1.
        1   -1    0    0  501    0  0.00000000000E+00  0.00000000000E+00 -0.23190771987E+04  0.23190771987E+04  0.50400001928E-02 0. -1.
    10030    2    1    2    0    0  0.00000000000E+00  0.00000000000E+00 -0.12348908761E+04  0.34032635213E+04  0.31713163070E+04 0.  0.
        2    1    3    3  502    0  0.30774873883E+03 -0.15543274663E+04 -0.55244632361E+03  0.16780465128E+04  0.25500000920E-02 0.  1.
       -2    1    3    3    0  502 -0.30774873883E+03  0.15543274663E+04 -0.68244455254E+03  0.17252170084E+04  0.25500000920E-02 0. -1.
</event>
<event>
 5   0  0.5071661E-07  0.2259418E+04  0.7818609E-02  0.8494096E-01
        1   -1    0    0  501    0  0.00000000000E+00  0.00000000000E+00  0.87420258389E+03  0.87420258391E+03  0.50400001928E-02 0.  1.
       -1   -1    0    0    0  501  0.00000000000E+00  0.00000000000E+00 -0.14598929720E+04  0.14598929720E+04  0.50400001928E-02 0. -1.
    10030    2    1    2    0    0  0.00000000000E+00  0.00000000000E+00 -0.58569038811E+03  0.23340955559E+04  0.22594178085E+04 0.  0.
        1    1    3    3  502    0  0.46017152367E+03  0.89253270753E+03  0.24182246440E+03  0.10328845867E+04  0.50400001928E-02 0.  1.
       -1    1    3    3    0  502 -0.46017152367E+03 -0.89253270753E+03 -0.82751285251E+03  0.13012109692E+04  0.50400001928E-02 0. -1.
</event>
<event>
 5   0  0.1379425E-06  0.3742183E+04  0.7818609E-02  0.8058677E-01
       -2   -1    0    0    0  501  0.00000000000E+00  0.00000000000E+00  0.21869705509E+04  0.21869705509E+04  0.25500000920E-02 0.  1.
        2   -1    0    0  501    0  0.00000000000E+00  0.00000000000E+00 -0.16008371220E+04  0.16008371220E+04  0.25500000920E-02 0. -1.
    10030    2    1    2    0    0  0.00000000000E+00  0.00000000000E+00  0.58613342890E+03  0.37878076729E+04  0.37421831289E+04 0.  0.
        4    1    3    3  502    0 -0.10400054193E+04  0.10679120854E+04  0.14377544783E+04  0.20710352597E+04  0.12699999809E+01 0.  1.
       -4    1    3    3    0  502  0.10400054193E+04 -0.10679120854E+04 -0.85162104935E+03  0.17167724132E+04  0.12699999809E+01 0. -1.
</event>
<event>
 5   0  0.1379425E-06  0.2508887E+04  0.7818609E-02  0.8399826E-01
        2   -1    0    0  501    0  0.00000000000E+00  0.00000000000E+00  0.14351076754E+04  0.14351076754E+04  0.25500000920E-02 0.  1.
       -2   -1    0    0    0  501  0.00000000000E+00  0.00000000000E+00 -0.10965233325E+04  0.10965233325E+04  0.25500000920E-02 0. -1.
    10030    2    1    2    0    0  0.00000000000E+00  0.00000000000E+00  0.33858434290E+03  0.25316310079E+04  0.25088874433E+04 0.  0.
        4    1    3    3  502    0  0.74644531844E+03  0.34787814823E+03  0.11241406737E+04  0.13935184558E+04  0.12699999809E+01 0.  1.
       -4    1    3    3    0  502 -0.74644531844E+03 -0.34787814823E+03 -0.78555633082E+03  0.11381125521E+04  0.12699999809E+01 0. -1.
</event>
<event>
 5   0  0.1379425E-06  0.2437309E+04  0.7818609E-02  0.8425666E-01
        2   -1    0    0  501    0  0.00000000000E+00  0.00000000000E+00  0.27414073199E+04  0.27414073199E+04  0.25500000920E-02 0. -1.
       -2   -1    0    0    0  501  0.00000000000E+00  0.00000000000E+00 -0.54173604619E+03  0.54173604620E+03  0.25500000920E-02 0.  1.
    10030    2    1    2    0    0  0.00000000000E+00  0.00000000000E+00  0.21996712737E+04  0.32831433661E+04  0.24373093054E+04 0.  0.
        4    1    3    3  502    0  0.48030987157E+03 -0.39486159991E+03  0.25116580769E+04  0.25874777610E+04  0.12699999809E+01 0. -1.
       -4    1    3    3    0  502 -0.48030987157E+03  0.39486159991E+03 -0.31198680317E+03  0.69566560506E+03  0.12699999809E+01 0.  1.
</event>
<event>
 5   0  0.4811500E-07  0.3570773E+04  0.7818609E-02  0.8097219E-01
        3   -1    0    0  501    0  0.00000000000E+00  0.00000000000E+00  0.20106212857E+04  0.20106212882E+04  0.10100000352E+00 0.  1.
       -3   -1    0    0    0  501  0.00000000000E+00  0.00000000000E+00 -0.15853832518E+04  0.15853832550E+04  0.10100000352E+00 0. -1.
    10030    2    1    2    0    0  0.00000000000E+00  0.00000000000E+00  0.42523803386E+03  0.35960045432E+04  0.35707732061E+04 0.  0.
        4    1    3    3  502    0 -0.97494800455E+03 -0.18760830628E+03  0.17069785742E+04  0.19747146512E+04  0.12699999809E+01 0.  1.
       -4    1    3    3    0  502  0.97494800455E+03  0.18760830628E+03 -0.12817405403E+04  0.16212898920E+04  0.12699999809E+01 0. -1.
</event>
<event>
 5   0  0.5071661E-07  0.3151001E+04  0.7818609E-02  0.8201879E-01
       -1   -1    0    0    0  501  0.00000000000E+00  0.00000000000E+00  0.22730994983E+04  0.22730994983E+04  0.50400001928E-02 0.  1.
        1   -1    0    0  501    0  0.00000000000E+00  0.00000000000E+00 -0.10919899966E+04  0.10919899966E+04  0.50400001928E-02 0. -1.
    10030    2    1    2    0    0  0.00000000000E+00  0.00000000000E+00  0.11811095016E+04  0.33650894949E+04  0.31510010559E+04 0.  0.
        1    1    3    3  502    0 -0.89357406114E+02  0.33946411058E+03  0.22308057759E+04  0.22582548656E+04  0.50400001928E-02 0.  1.
       -1    1    3    3    0  502  0.89357406114E+02 -0.33946411058E+03 -0.10496962743E+04  0.11068346293E+04  0.50400001928E-02 0. -1.
</event>
<event>
 5   0  0.4811500E-07  0.3589824E+04  0.7818609E-02  0.8092827E-01
        3   -1    0    0  501    0  0.00000000000E+00  0.00000000000E+00  0.19854693613E+04  0.19854693639E+04  0.10100000352E+00 0. -1.
       -3   -1    0    0    0  501  0.00000000000E+00  0.00000000000E+00 -0.16226435586E+04  0.16226435618E+04  0.10100000352E+00 0.  1.
    10030    2    1    2    0    0  0.00000000000E+00  0.00000000000E+00  0.36282580266E+03  0.36081129256E+04  0.35898239958E+04 0.  0.
        1    1    3    3  502    0  0.24706246025E+03 -0.17262223421E+04  0.60881532329E+03  0.18470353357E+04  0.50400001928E-02 0.  1.
       -1    1    3    3    0  502 -0.24706246025E+03  0.17262223421E+04 -0.24598952063E+03  0.17610775899E+04  0.50400001928E-02 0. -1.
</event>
<event>
 5   0  0.1505671E-06  0.3621101E+04  0.7818609E-02  0.8085675E-01
        2   -1    0    0  501    0  0.00000000000E+00  0.00000000000E+00  0.20524558182E+04  0.20524558182E+04  0.25500000920E-02 0. -1.
       -2   -1    0    0    0  501  0.00000000000E+00  0.00000000000E+00 -0.15971565487E+04  0.15971565487E+04  0.25500000920E-02 0.  1.
    10030    2    1    2    0    0  0.00000000000E+00  0.00000000000E+00  0.45529926946E+03  0.36496123669E+04  0.36211010761E+04 0.  0.
        3    1    3    3  502    0  0.69184764267E+03 -0.56056699338E+03 -0.13612160205E+04  0.16265907843E+04  0.10100000352E+00 0.  1.
       -3    1    3    3    0  502 -0.69184764267E+03  0.56056699338E+03  0.18165152900E+04  0.20230215826E+04  0.10100000352E+00 0. -1.
</event>
<event>
 5   0  0.1444091E-06  0.3608745E+04  0.7818609E-02  0.8088492E-01
        2   -1    0    0  501    0  0.00000000000E+00  0.00000000000E+00  0.18263223801E+04  0.18263223801E+04  0.25500000920E-02 0.  1.
       -2   -1    0    0    0  501  0.00000000000E+00  0.00000000000E+00 -0.17826862805E+04  0.17826862805E+04  0.25500000920E-02 0. -1.
    10030    2    1    2    0    0  0.00000000000E+00  0.00000000000E+00  0.43636099593E+02  0.36090086606E+04  0.36087448515E+04 0.  0.
        1    1    3    3  502    0 -0.94477733299E+03  0.13584044840E+04 -0.69788231930E+03  0.17958025177E+04  0.50400001928E-02 0. -1.
       -1    1    3    3    0  502  0.94477733299E+03 -0.13584044840E+04  0.74151841890E+03  0.18132061429E+04  0.50400001928E-02 0.  1.
</event>
<event>
 5   0  0.1491854E-06  0.3669096E+04  0.7818609E-02  0.8074845E-01
       -2   -1    0    0    0  501  0.00000000000E+00  0.00000000000E+00  0.10830248863E+04  0.10830248863E+04  0.25500000920E-02 0.  1.
        2   -1    0    0  501    0  0.00000000000E+00  0.00000000000E+00 -0.31075617391E+04  0.31075617391E+04  0.25500000920E-02 0. -1.
    10030    2    1    2    0    0  0.00000000000E+00  0.00000000000E+00 -0.20245368528E+04  0.41905866254E+04  0.36690961825E+04 0.  0.
        5    1    3    3  502    0  0.12156749796E+04 -0.92218036524E+03 -0.21754835187E+04  0.26572604149E+04  0.46999998093E+01 0. -1.
       -5    1    3    3    0  502 -0.12156749796E+04  0.92218036524E+03  0.15094666592E+03  0.15333262106E+04  0.46999998093E+01 0.  1.
</event>
<event>
 5   0  0.5071661E-07  0.3667260E+04  0.7818609E-02  0.8075256E-01
       -1   -1    0    0    0  501  0.00000000000E+00  0.00000000000E+00  0.20114573551E+04  0.20114573551E+04  0.50400001928E-02 0.  1.
        1   -1    0    0  501    0  0.00000000000E+00  0.00000000000E+00 -0.16715238907E+04  0.16715238907E+04  0.50400001928E-02 0. -1.
    10030    2    1    2    0    0  0.00000000000E+00  0.00000000000E+00  0.33993346441E+03  0.36829812458E+04  0.36672600257E+04 0.  0.
        1    1    3    3  502    0 -0.46334164276E+03  0.17568128462E+04  0.41825556318E+03  0.18644072974E+04  0.50400001928E-02 0.  1.
       -1    1    3    3    0  502  0.46334164276E+03 -0.17568128462E+04 -0.78322098769E+02  0.18185739484E+04  0.50400001928E-02 0. -1.
</event>
<event>
 5   0  0.4811500E-07  0.2527608E+04  0.7818609E-02  0.8393215E-01
       -1   -1    0    0    0  501  0.00000000000E+00  0.00000000000E+00  0.77680770715E+03  0.77680770717E+03  0.50400001928E-02 0. -1.
        1   -1    0    0  501    0  0.00000000000E+00  0.00000000000E+00 -0.20561083323E+04  0.20561083323E+04  0.50400001928E-02 0.  1.
    10030    2    1    2    0    0  0.00000000000E+00  0.00000000000E+00 -0.12793006252E+04  0.28329160395E+04  0.25276081969E+04 0.  0.
        2    1    3    3  502    0 -0.65006619726E+03 -0.86628702455E+03  0.90293760312E+02  0.10868266802E+04  0.25500000920E-02 0. -1.
       -2    1    3    3    0  502  0.65006619726E+03  0.86628702455E+03 -0.13695943855E+04  0.17460893592E+04  0.25500000920E-02 0.  1.
</event>
<event>
 5   0  0.1505671E-06  0.3737509E+04  0.7818609E-02  0.8059700E-01
       -2   -1    0    0    0  501  0.00000000000E+00  0.00000000000E+00  0.15211260568E+04  0.15211260568E+04  0.25500000920E-02 0.  1.
        2   -1    0    0  501    0  0.00000000000E+00  0.00000000000E+00 -0.22958274370E+04  0.22958274370E+04  0.25500000920E-02 0. -1.
    10030    2    1    2    0    0  0.00000000000E+00  0.00000000000E+00 -0.77470138017E+03  0.38169534938E+04  0.37375087619E+04 0.  0.
        3    1    3    3  502    0 -0.15158467134E+04  0.52589987630E+03  0.59107497511E+03  0.17098922699E+04  0.10100000352E+00 0.  1.
       -3    1    3    3    0  502  0.15158467134E+04 -0.52589987630E+03 -0.13657763553E+04  0.21070612239E+04  0.10100000352E+00 0. -1.
</event>
<event>
 5   0  0.4811500E-07  0.3594414E+04  0.7818609E-02  0.8091772E-01
        1   -1    0    0  501    0  0.00000000000E+00  0.00000000000E+00  0.23766621785E+04  0.23766621785E+04  0.50400001928E-02 0.  1.
       -1   -1    0    0    0  501  0.00000000000E+00  0.00000000000E+00 -0.13590291499E+04  0.13590291499E+04  0.50400001928E-02 0. -1.
    10030    2    1    2    0    0  0.00000000000E+00  0.00000000000E+00  0.10176330286E+04  0.37356913284E+04  0.35944140998E+04 0.  0.
        2    1    3    3  502    0  0.16482196846E+04  0.51479651578E+03  0.10267090233E+04  0.20089238412E+04  0.25500000920E-02 0. -1.
       -2    1    3    3    0  502 -0.16482196846E+04 -0.51479651578E+03 -0.90759946435E+01  0.17267674872E+04  0.25500000920E-02 0.  1.
</event>
<event>
 5   0  0.1468942E-06  0.3387005E+04  0.7818609E-02  0.8141103E-01
       -2   -1    0    0    0  501  0.00000000000E+00  0.00000000000E+00  0.15809434794E+04  0.15809434794E+04  0.25500000920E-02 0.  1.
        2   -1    0    0  501    0  0.00000000000E+00  0.00000000000E+00 -0.18140752287E+04  0.18140752287E+04  0.25500000920E-02 0. -1.
    10030    2    1    2    0    0  0.00000000000E+00  0.00000000000E+00 -0.23313174929E+03  0.33950187081E+04  0.33870048149E+04 0.  0.
        2    1    3    3  502    0  0.32706395639E+03  0.28032392071E+03  0.15251121012E+04  0.15847773513E+04  0.25500000920E-02 0.  1.
       -2    1    3    3    0  502 -0.32706395639E+03 -0.28032392071E+03 -0.17582438505E+04  0.18102413568E+04  0.25500000920E-02 0. -1.
</event>
<event>
 5   0  0.4811500E-07  0.3637004E+04  0.7818609E-02  0.8082068E-01
        1   -1    0    0  501    0  0.00000000000E+00  0.00000000000E+00  0.23271129312E+04  0.23271129313E+04  0.50400001928E-02 0.  1.
       -1   -1    0    0    0  501  0.00000000000E+00  0.00000000000E+00 -0.14210526914E+04  0.14210526914E+04  0.50400001928E-02 0. -1.
    10030    2    1    2    0    0  0.00000000000E+00  0.00000000000E+00  0.90606023981E+03  0.37481656227E+04  0.36370043136E+04 0.  0.
        3    1    3    3  502    0  0.27533447342E+03 -0.12948840326E+02  0.23054594307E+04  0.23218785372E+04  0.10100000352E+00 0.  1.
       -3    1    3    3    0  502 -0.27533447342E+03  0.12948840326E+02 -0.13993991909E+04  0.14262870855E+04  0.10100000352E+00 0. -1.
</event>
<event>
 5   0  0.5071661E-07  0.3632578E+04  0.7818609E-02  0.8083070E-01
        1   -1    0    0  501    0  0.00000000000E+00  0.00000000000E+00  0.20965101625E+04  0.20965101625E+04  0.50400001928E-02 0.  1.
       -1   -1    0    0    0  501  0.00000000000E+00  0.00000000000E+00 -0.15735228234E+04  0.15735228234E+04  0.50400001928E-02 0. -1.
    10030    2    1    2    0    0  0.00000000000E+00  0.00000000000E+00  0.52298733909E+03  0.36700329859E+04  0.36325784727E+04 0.  0.
        1    1    3    3  502    0 -0.16167110201E+04  0.27694584551E+03 -0.52658306171E+03  0.17227139185E+04  0.50400001928E-02 0. -1.
       -1    1    3    3    0  502  0.16167110201E+04 -0.27694584551E+03  0.10495704008E+04  0.19473190674E+04  0.50400001928E-02 0.  1.
</event>
<event>
 5   0  0.1379425E-06  0.3616384E+04  0.7818609E-02  0.8086749E-01
        2   -1    0    0  501    0  0.00000000000E+00  0.00000000000E+00  0.28390622510E+04  0.28390622510E+04  0.25500000920E-02 0.  1.
       -2   -1    0    0    0  501  0.00000000000E+00  0.00000000000E+00 -0.11516332224E+04  0.11516332224E+04  0.25500000920E-02 0. -1.
    10030    2    1    2    0    0  0.00000000000E+00  0.00000000000E+00  0.16874290285E+04  0.39906954734E+04  0.36163840553E+04 0.  0.
        4    1    3    3  502    0  0.62577738981E+03 -0.10799114618E+04  0.22874721639E+04  0.26058274349E+04  0.12699999809E+01 0.  1.
       -4    1    3    3    0  502 -0.62577738981E+03  0.10799114618E+04 -0.60004313539E+03  0.13848680385E+04  0.12699999809E+01 0. -1.
</event>
<event>
 5   0  0.1491854E-06  0.3673328E+04  0.7818609E-02  0.8073899E-01
       -2   -1    0    0    0  501  0.00000000000E+00  0.00000000000E+00  0.17973849975E+04  0.17973849975E+04  0.25500000920E-02 0.  1.
        2   -1    0    0  501    0  0.00000000000E+00  0.00000000000E+00 -0.18768010935E+04  0.18768010935E+04  0.25500000920E-02 0. -1.
    10030    2    1    2    0    0  0.00000000000E+00  0.00000000000E+00 -0.79416095962E+02  0.36741860910E+04  0.36733277168E+04 0.  0.
        5    1    3    3  502    0  0.80779773506E+03 -0.86950396758E+03 -0.14417266091E+04  0.18673971286E+04  0.46999998093E+01 0. -1.
       -5    1    3    3    0  502 -0.80779773506E+03  0.86950396758E+03  0.13623105131E+04  0.18067889624E+04  0.46999998093E+01 0.  1.
</event>
<event>
 5   0  0.4811500E-07  0.3603377E+04  0.7818609E-02  0.8089719E-01
       -1   -1    0    0    0  501  0.00000000000E+00  0.00000000000E+00  0.18405979828E+04  0.18405979829E+04  0.50400001928E-02 0.  1.
        1   -1    0    0  501    0  0.00000000000E+00  0.00000000000E+00 -0.17636015778E+04  0.17636015778E+04  0.50400001928E-02 0. -1.
    10030    2    1    2    0    0  0.00000000000E+00  0.00000000000E+00  0.76996405067E+02  0.36041995606E+04  0.36033770309E+04 0.  0.
        2    1    3    3  502    0  0.10294457697E+04 -0.14519005253E+04 -0.24140094455E+03  0.17961203034E+04  0.25500000920E-02 0.  1.
       -2    1    3    3    0  502 -0.10294457697E+04  0.14519005253E+04  0.31839734962E+03  0.18080792572E+04  0.25500000920E-02 0. -1.
</event>
<event>
 5   0  0.4811500E-07  0.3776006E+04  0.7818609E-02  0.8051324E-01
        1   -1    0    0  501    0  0.00000000000E+00  0.00000000000E+00  0.14269666611E+04  0.14269666611E+04  0.50400001928E-02 0.  1.
       -1   -1    0    0    0  501  0.00000000000E+00  0.00000000000E+00 -0.24979954256E+04  0.24979954256E+04  0.50400001928E-02 0. -1.
    10030    2    1    2    0    0  0.00000000000E+00  0.00000000000E+00 -0.10710287645E+04  0.39249620867E+04  0.37760064575E+04 0.  0.
        2    1    3    3  502    0 -0.75321578202E+03 -0.50170273257E+03  0.11868092884E+04  0.14924998939E+04  0.25500000920E-02 0.  1.
       -2    1    3    3    0  502  0.75321578202E+03  0.50170273257E+03 -0.22578380529E+04  0.24324621928E+04  0.25500000920E-02 0. -1.
</event>
<event>
 5   0  0.5071661E-07  0.3420734E+04  0.7818609E-02  0.8132836E-01
        1   -1    0    0  501    0  0.00000000000E+00  0.00000000000E+00  0.15064393873E+04  0.15064393873E+04  0.50400001928E-02 0. -1.
       -1   -1    0    0    0  501  0.00000000000E+00  0.00000000000E+00 -0.19419008114E+04  0.19419008114E+04  0.50400001928E-02 0.  1.
    10030    2    1    2    0    0  0.00000000000E+00  0.00000000000E+00 -0.43546142415E+03  0.34483401987E+04  0.34207343472E+04 0.  0.
        1    1    3    3  502    0  0.57020149389E+03  0.82577152142E+03  0.11784837594E+04  0.15478541018E+04  0.50400001928E-02 0. -1.
       -1    1    3    3    0  502 -0.57020149389E+03 -0.82577152142E+03 -0.16139451835E+04  0.19004860969E+04  0.50400001928E-02 0.  1.
</event>
<event>
 5   0  0.4811500E-07  0.3572888E+04  0.7818609E-02  0.8096730E-01
       -1   -1    0    0    0  501  0.00000000000E+00  0.00000000000E+00  0.21936496922E+04  0.21936496922E+04  0.50400001928E-02 0.  1.
        1   -1    0    0  501    0  0.00000000000E+00  0.00000000000E+00 -0.14548274883E+04  0.14548274883E+04  0.50400001928E-02 0. -1.
    10030    2    1    2    0    0  0.00000000000E+00  0.00000000000E+00  0.73882220391E+03  0.36484771805E+04  0.35728878358E+04 0.  0.
        5    1    3    3  502    0 -0.99640466818E+03 -0.26833943653E+03  0.18585258278E+04  0.21257865976E+04  0.46999998093E+01 0.  1.
       -5    1    3    3    0  502  0.99640466818E+03  0.26833943653E+03 -0.11197036239E+04  0.15226905829E+04  0.46999998093E+01 0. -1.
</event>
<event>
 5   0  0.4811500E-07  0.3628358E+04  0.7818609E-02  0.8084027E-01
        1   -1    0    0  501    0  0.00000000000E+00  0.00000000000E+00  0.15844334591E+04  0.15844334591E+04  0.50400001928E-02 0.  1.
       -1   -1    0    0    0  501  0.00000000000E+00  0.00000000000E+00 -0.20772383201E+04  0.20772383201E+04  0.50400001928E-02 0. -1.
    10030    2    1    2    0    0  0.00000000000E+00  0.00000000000E+00 -0.49280486103E+03  0.36616717792E+04  0.36283582496E+04 0.  0.
        3    1    3    3  502    0  0.11263060313E+04 -0.52909781003E+03  0.10858455417E+04  0.16515357457E+04  0.10100000352E+00 0.  1.
       -3    1    3    3    0  502 -0.11263060313E+04  0.52909781003E+03 -0.15786504028E+04  0.20101360335E+04  0.10100000352E+00 0. -1.
</event>
<event>
 5   0  0.1444091E-06  0.3634132E+04  0.7818609E-02  0.8082718E-01
       -2   -1    0    0    0  501  0.00000000000E+00  0.00000000000E+00  0.19221789849E+04  0.19221789849E+04  0.25500000920E-02 0.  1.
        2   -1    0    0  501    0  0.00000000000E+00  0.00000000000E+00 -0.17177011553E+04  0.17177011553E+04  0.25500000920E-02 0. -1.
    10030    2    1    2    0    0  0.00000000000E+00  0.00000000000E+00  0.20447782962E+03  0.36398801402E+04  0.36341321181E+04 0.  0.
        1    1    3    3  502    0  0.76311239461E+02 -0.55740009804E+03  0.18327479535E+04  0.19171550109E+04  0.50400001928E-02 0.  1.
       -1    1    3    3    0  502 -0.76311239461E+02  0.55740009804E+03 -0.16282701239E+04  0.17227251293E+04  0.50400001928E-02 0. -1.
</event>
<event>
 5   0  0.4811500E-07  0.3569684E+04  0.7818609E-02  0.8097471E-01
        1   -1    0    0  501    0  0.00000000000E+00  0.00000000000E+00  0.11777034362E+04  0.11777034362E+04  0.50400001928E-02 0.  1.
       -1   -1    0    0    0  501  0.00000000000E+00  0.00000000000E+00 -0.27049776000E+04  0.27049776000E+04  0.50400001928E-02 0. -1.
    10030    2    1    2    0    0  0.00000000000E+00  0.00000000000E+00 -0.15272741637E+04  0.38826810362E+04  0.35696842518E+04 0.  0.
        3    1    3    3  502    0  0.82295517790E+03  0.15501277602E+04 -0.11169413971E+04  0.20803147340E+04  0.10100000352E+00 0.  1.
       -3    1    3    3    0  502 -0.82295517790E+03 -0.15501277602E+04 -0.41033276660E+03  0.18023663022E+04  0.10100000352E+00 0. -1.
</event>
<event>
 5   0  0.5071661E-07  0.3672624E+04  0.7818609E-02  0.8074056E-01
       -1   -1    0    0    0  501  0.00000000000E+00  0.00000000000E+00  0.12671189829E+04  0.12671189829E+04  0.50400001928E-02 0.  1.
        1   -1    0    0  501    0  0.00000000000E+00  0.00000000000E+00 -0.26611875122E+04  0.26611875122E+04  0.50400001928E-02 0. -1.
    10030    2    1    2    0    0  0.00000000000E+00  0.00000000000E+00 -0.13940685293E+04  0.39283064950E+04  0.36726237017E+04 0.  0.
        1    1    3    3  502    0  0.11254630344E+04 -0.10853928536E+04 -0.17270366928E+04  0.23296781810E+04  0.50400001928E-02 0.  1.
       -1    1    3    3    0  502 -0.11254630344E+04  0.10853928536E+04  0.33296816352E+03  0.15986283141E+04  0.50400001928E-02 0. -1.
</event>
<event>
 5   0  0.5071661E-07  0.3628434E+04  0.7818609E-02  0.8084009E-01
       -1   -1    0    0    0  501  0.00000000000E+00  0.00000000000E+00  0.21242986594E+04  0.21242986594E+04  0.50400001928E-02 0.  1.
        1   -1    0    0  501    0  0.00000000000E+00  0.00000000000E+00 -0.15493973772E+04  0.15493973772E+04  0.50400001928E-02 0. -1.
    10030    2    1    2    0    0  0.00000000000E+00  0.00000000000E+00  0.57490128228E+03  0.36736960366E+04  0.36284336958E+04 0.  0.
        1    1    3    3  502    0  0.14666279501E+04 -0.20820888353E+03 -0.77300896181E+03  0.16708953702E+04  0.50400001928E-02 0. -1.
       -1    1    3    3    0  502 -0.14666279501E+04  0.20820888353E+03  0.13479102441E+04  0.20028006664E+04  0.50400001928E-02 0.  1.
</event>
<event>
 5   0  0.4811500E-07  0.3618853E+04  0.7818609E-02  0.8086187E-01
       -1   -1    0    0    0  501  0.00000000000E+00  0.00000000000E+00  0.10672080421E+04  0.10672080421E+04  0.50400001928E-02 0.  1.
        1   -1    0    0  501    0  0.00000000000E+00  0.00000000000E+00 -0.30678406204E+04  0.30678406204E+04  0.50400001928E-02 0. -1.
    10030    2    1    2    0    0  0.00000000000E+00  0.00000000000E+00 -0.20006325783E+04  0.41350486625E+04  0.36188529575E+04 0.  0.
        2    1    3    3  502    0  0.65276654285E+03  0.12418560540E+04  0.30535437219E+03  0.14358105414E+04  0.25500000920E-02 0.  1.
       -2    1    3    3    0  502 -0.65276654285E+03 -0.12418560540E+04 -0.23059869505E+04  0.26992381210E+04  0.25500000920E-02 0. -1.
</event>
<event>
 5   0  0.4811500E-07  0.2841184E+04  0.7818609E-02  0.8290595E-01
       -1   -1    0    0    0  501  0.00000000000E+00  0.00000000000E+00  0.17012384503E+04  0.17012384503E+04  0.50400001928E-02 0.  1.
        1   -1    0    0  501    0  0.00000000000E+00  0.00000000000E+00 -0.11862423869E+04  0.11862423869E+04  0.50400001928E-02 0. -1.
    10030    2    1    2    0    0  0.00000000000E+00  0.00000000000E+00  0.51499606338E+03  0.28874808372E+04  0.28411836688E+04 0.  0.
        3    1    3    3  502    0 -0.93720934544E+03  0.38599936556E+03 -0.75407258267E+03  0.12633219453E+04  0.10100000352E+00 0. -1.
       -3    1    3    3    0  502  0.93720934544E+03 -0.38599936556E+03  0.12690686460E+04  0.16241588918E+04  0.10100000352E+00 0.  1.
</event>
<event>
 5   0  0.1444091E-06  0.3597616E+04  0.7818609E-02  0.8091038E-01
       -2   -1    0    0    0  501  0.00000000000E+00  0.00000000000E+00  0.10832149302E+04  0.10832149302E+04  0.25500000920E-02 0.  1.
        2   -1    0    0  501    0  0.00000000000E+00  0.00000000000E+00 -0.29871366078E+04  0.29871366078E+04  0.25500000920E-02 0. -1.
    10030    2    1    2    0    0  0.00000000000E+00  0.00000000000E+00 -0.19039216776E+04  0.40703515380E+04  0.35976164177E+04 0.  0.
        1    1    3    3  502    0  0.72425566070E+03 -0.16261801798E+04 -0.65975500922E+03  0.18984954336E+04  0.50400001928E-02 0. -1.
       -1    1    3    3    0  502 -0.72425566070E+03  0.16261801798E+04 -0.12441666684E+04  0.21718561044E+04  0.50400001928E-02 0.  1.
</event>
<event>
 5   0  0.1505671E-06  0.3612599E+04  0.7818609E-02  0.8087612E-01
        2   -1    0    0  501    0  0.00000000000E+00  0.00000000000E+00  0.20063292748E+04  0.20063292748E+04  0.25500000920E-02 0.  1.
       -2   -1    0    0    0  501  0.00000000000E+00  0.00000000000E+00 -0.16262125426E+04  0.16262125426E+04  0.25500000920E-02 0. -1.
    10030    2    1    2    0    0  0.00000000000E+00  0.00000000000E+00  0.38011673224E+03  0.36325418173E+04  0.36125989709E+04 0.  0.
        3    1    3    3  502    0  0.16378899028E+04 -0.58406807546E+03 -0.30141275971E+03  0.17648423477E+04  0.10100000352E+00 0. -1.
       -3    1    3    3    0  502 -0.16378899028E+04  0.58406807546E+03  0.68152949195E+03  0.18676994696E+04  0.10100000352E+00 0.  1.
</event>
<event>
 5   0  0.4811500E-07  0.3583104E+04  0.7818609E-02  0.8094373E-01
        1   -1    0    0  501    0  0.00000000000E+00  0.00000000000E+00  0.15887838417E+04  0.15887838417E+04  0.50400001928E-02 0.  1.
       -1   -1    0    0    0  501  0.00000000000E+00  0.00000000000E+00 -0.20201988535E+04  0.20201988535E+04  0.50400001928E-02 0. -1.
    10030    2    1    2    0    0  0.00000000000E+00  0.00000000000E+00 -0.43141501181E+03  0.36089826953E+04  0.35831044057E+04 0.  0.
        3    1    3    3  502    0  0.62055434489E+03  0.12448422160E+04 -0.13529946138E+04  0.19404417726E+04  0.10100000352E+00 0. -1.
       -3    1    3    3    0  502 -0.62055434489E+03 -0.12448422160E+04  0.92157960196E+03  0.16685409227E+04  0.10100000352E+00 0.  1.
</event>
<event>
 5   0  0.1491854E-06  0.2438085E+04  0.7818609E-02  0.8425381E-01
        2   -1    0    0  501    0  0.00000000000E+00  0.00000000000E+00  0.29187304682E+04  0.29187304682E+04  0.25500000920E-02 0. -1.
       -2   -1    0    0    0  501  0.00000000000E+00  0.00000000000E+00 -0.50914774241E+03  0.50914774242E+03  0.25500000920E-02 0.  1.
    10030    2    1    2    0    0  0.00000000000E+00  0.00000000000E+00  0.24095827257E+04  0.34278782106E+04  0.24380853378E+04 0.  0.
        5    1    3    3  502    0 -0.29219660975E+03  0.43706502302E+03 -0.34154595018E+03  0.62696125812E+03  0.46999998093E+01 0.  1.
       -5    1    3    3    0  502  0.29219660975E+03 -0.43706502302E+03  0.27511286759E+04  0.28009169525E+04  0.46999998093E+01 0. -1.
</event>
<event>
 5   0  0.4811500E-07  0.2637447E+04  0.7818609E-02  0.8355591E-01
        1   -1    0    0  501    0  0.00000000000E+00  0.00000000000E+00  0.17260297041E+04  0.17260297041E+04  0.50400001928E-02 0. -1.
       -1   -1    0    0    0  501  0.00000000000E+00  0.00000000000E+00 -0.10075330069E+04  0.10075330069E+04  0.50400001928E-02 0.  1.
    10030    2    1    2    0    0  0.00000000000E+00  0.00000000000E+00  0.71849669727E+03  0.27335627110E+04  0.26374471731E+04 0.  0.
        4    1    3    3  502    0 -0.89760187866E+03 -0.74185210117E+03  0.10006687041E+04  0.15353739417E+04  0.12699999809E+01 0. -1.
       -4    1    3    3    0  502  0.89760187866E+03  0.74185210117E+03 -0.28217200684E+03  0.11981887693E+04  0.12699999809E+01 0.  1.
</event>
<event>
 5   0  0.4811500E-07  0.3579901E+04  0.7818609E-02  0.8095111E-01
        1   -1    0    0  501    0  0.00000000000E+00  0.00000000000E+00  0.27658230422E+04  0.27658230422E+04  0.50400001928E-02 0.  1.
       -1   -1    0    0    0  501  0.00000000000E+00  0.00000000000E+00 -0.11583973329E+04  0.11583973329E+04  0.50400001928E-02 0. -1.
    10030    2    1    2    0    0  0.00000000000E+00  0.00000000000E+00  0.16074257093E+04  0.39242203750E+04  0.35799005770E+04 0.  0.
        2    1    3    3  502    0 -0.17539944029E+04  0.19020689842E+03  0.47258803598E+03  0.18264759734E+04  0.25500000920E-02 0.  1.
       -2    1    3    3    0  502  0.17539944029E+04 -0.19020689842E+03  0.11348376733E+04  0.20977444016E+04  0.25500000920E-02 0. -1.
</event>
<event>
 5   0  0.5071661E-07  0.2795579E+04  0.7818609E-02  0.8304642E-01
        1   -1    0    0  501    0  0.00000000000E+00  0.00000000000E+00  0.15919249377E+04  0.15919249377E+04  0.50400001928E-02 0. -1.
       -1   -1    0    0    0  501  0.00000000000E+00  0.00000000000E+00 -0.12273292955E+04  0.12273292955E+04  0.50400001928E-02 0.  1.
    10030    2    1    2    0    0  0.00000000000E+00  0.00000000000E+00  0.36459564216E+03  0.28192542332E+04  0.27955794478E+04 0.  0.
        1    1    3    3  502    0  0.12567557873E+04  0.33548193182E+03  0.69832727495E+03  0.14763618182E+04  0.50400001928E-02 0. -1.
       -1    1    3    3    0  502 -0.12567557873E+04 -0.33548193182E+03 -0.33373163279E+03  0.13428924150E+04  0.50400001928E-02 0.  1.
</event>
<event>
 5   0  0.4811500E-07  0.2657367E+04  0.7818609E-02  0.8348972E-01
       -1   -1    0    0    0  501  0.00000000000E+00  0.00000000000E+00  0.83083096067E+03  0.83083096068E+03  0.50400001928E-02 0. -1.
        1   -1    0    0  501    0  0.00000000000E+00  0.00000000000E+00 -0.21248610170E+04  0.21248610170E+04  0.50400001928E-02 0.  1.
    10030    2    1    2    0    0  0.00000000000E+00  0.00000000000E+00 -0.12940300563E+04  0.29556919777E+04  0.26573673589E+04 0.  0.
        5    1    3    3  502    0  0.27377495235E+03  0.11146286076E+04  0.97477652631E+02  0.11519000131E+04  0.46999998093E+01 0. -1.
       -5    1    3    3    0  502 -0.27377495235E+03 -0.11146286076E+04 -0.13915077090E+04  0.18037919646E+04  0.46999998093E+01 0.  1.
</event>
<event>
 5   0  0.1491854E-06  0.3588777E+04  0.7818609E-02  0.8093067E-01
       -2   -1    0    0    0  501  0.00000000000E+00  0.00000000000E+00  0.12689286988E+04  0.12689286988E+04  0.25500000920E-02 0. -1.
        2   -1    0    0  501    0  0.00000000000E+00  0.00000000000E+00 -0.25374397262E+04  0.25374397262E+04  0.25500000920E-02 0.  1.
    10030    2    1    2    0    0  0.00000000000E+00  0.00000000000E+00 -0.12685110273E+04  0.38063684250E+04  0.35887770006E+04 0.  0.
        5    1    3    3  502    0  0.10088116892E+04 -0.12684937233E+04  0.18252039398E+03  0.16309853263E+04  0.46999998093E+01 0. -1.
       -5    1    3    3    0  502 -0.10088116892E+04  0.12684937233E+04 -0.14510314213E+04  0.21753830987E+04  0.46999998093E+01 0.  1.
</event>
<event>
 5   0  0.1379425E-06  0.3421251E+04  0.7818609E-02  0.8132710E-01
       -2   -1    0    0    0  501  0.00000000000E+00  0.00000000000E+00  0.28964484536E+04  0.28964484536E+04  0.25500000920E-02 0.  1.
        2   -1    0    0  501    0  0.00000000000E+00  0.00000000000E+00 -0.10102853746E+04  0.10102853746E+04  0.25500000920E-02 0. -1.
    10030    2    1    2    0    0  0.00000000000E+00  0.00000000000E+00  0.18861630790E+04  0.39067338282E+04  0.34212509473E+04 0.  0.
        4    1    3    3  502    0 -0.20272703540E+03 -0.16951359540E+04  0.81981033448E+03  0.18938518292E+04  0.12699999809E+01 0.  1.
       -4    1    3    3    0  502  0.20272703540E+03  0.16951359540E+04  0.10663527445E+04  0.20128819991E+04  0.12699999809E+01 0. -1.
</event>
<event>
 5   0  0.4811500E-07  0.2474265E+04  0.7818609E-02  0.8412211E-01
       -1   -1    0    0    0  501  0.00000000000E+00  0.00000000000E+00  0.17420850158E+04  0.17420850158E+04  0.50400001928E-02 0.  1.
        1   -1    0    0  501    0  0.00000000000E+00  0.00000000000E+00 -0.87854341407E+03  0.87854341408E+03  0.50400001928E-02 0. -1.
    10030    2    1    2    0    0  0.00000000000E+00  0.00000000000E+00  0.86354160169E+03  0.26206284298E+04  0.24742654000E+04 0.  0.
        5    1    3    3  502    0 -0.10401187199E+04 -0.30803808512E+03 -0.19817292024E+03  0.11027370538E+04  0.46999998093E+01 0. -1.
       -5    1    3    3    0  502  0.10401187199E+04  0.30803808512E+03  0.10617145219E+04  0.15178913761E+04  0.46999998093E+01 0.  1.
</event>
<event>
 5   0  0.4811500E-07  0.2251729E+04  0.7818609E-02  0.8497201E-01
        1   -1    0    0  501    0  0.00000000000E+00  0.00000000000E+00  0.19993994594E+04  0.19993994594E+04  0.50400001928E-02 0. -1.
       -1   -1    0    0    0  501  0.00000000000E+00  0.00000000000E+00 -0.63397576057E+03  0.63397576059E+03  0.50400001928E-02 0.  1.
    10030    2    1    2    0    0  0.00000000000E+00  0.00000000000E+00  0.13654236988E+04  0.26333752200E+04  0.22517289295E+04 0.  0.
        5    1    3    3  502    0 -0.46642223174E+03  0.99190975739E+03  0.38200489066E+03  0.11607689225E+04  0.46999998093E+01 0.  1.
       -5    1    3    3    0  502  0.46642223174E+03 -0.99190975739E+03  0.98341880819E+03  0.14726062975E+04  0.46999998093E+01 0. -1.
</event>
<event>
 5   0  0.1444091E-06  0.3499960E+04  0.7818609E-02  0.8113799E-01
       -2   -1    0    0    0  501  0.00000000000E+00  0.00000000000E+00  0.17003477617E+04  0.17003477617E+04  0.25500000920E-02 0.  1.
        2   -1    0    0  501    0  0.00000000000E+00  0.00000000000E+00 -0.18010609841E+04  0.18010609841E+04  0.25500000920E-02 0. -1.
    10030    2    1    2    0    0  0.00000000000E+00  0.00000000000E+00 -0.10071322247E+03  0.35014087458E+04  0.34999600072E+04 0.  0.
        1    1    3    3  502    0  0.60287792660E+03 -0.84333735983E+03 -0.14608161944E+04  0.17912743092E+04  0.50400001928E-02 0. -1.
       -1    1    3    3    0  502 -0.60287792660E+03  0.84333735983E+03  0.13601029720E+04  0.17101344366E+04  0.50400001928E-02 0.  1.
</event>
<event>
 5   0  0.1379425E-06  0.2586321E+04  0.7818609E-02  0.8372863E-01
        2   -1    0    0  501    0  0.00000000000E+00  0.00000000000E+00  0.17734632518E+04  0.17734632518E+04  0.25500000920E-02 0.  1.
       -2   -1    0    0    0  501  0.00000000000E+00  0.00000000000E+00 -0.94293683507E+03  0.94293683507E+03  0.25500000920E-02 0. -1.
    10030    2    1    2    0    0  0.00000000000E+00  0.00000000000E+00  0.83052641672E+03  0.27164000869E+04  0.25863208044E+04 0.  0.
        4    1    3    3  502    0  0.64375837809E+03  0.72103144571E+03  0.13175095098E+04  0.16340575621E+04  0.12699999809E+01 0.  1.
       -4    1    3    3    0  502 -0.64375837809E+03 -0.72103144571E+03 -0.48698309305E+03  0.10823425248E+04  0.12699999809E+01 0. -1.
</event>
<event>
 5   0  0.1379425E-06  0.3571736E+04  0.7818609E-02  0.8096997E-01
       -2   -1    0    0    0  501  0.00000000000E+00  0.00000000000E+00  0.16536702663E+04  0.16536702663E+04  0.25500000920E-02 0. -1.
        2   -1    0    0  501    0  0.00000000000E+00  0.00000000000E+00 -0.19286338462E+04  0.19286338462E+04  0.25500000920E-02 0.  1.
    10030    2    1    2    0    0  0.00000000000E+00  0.00000000000E+00 -0.27496357995E+03  0.35823041125E+04  0.35717359623E+04 0.  0.
        4    1    3    3  502    0  0.85844987390E+03  0.15231276997E+04  0.22755755193E+03  0.17631330715E+04  0.12699999809E+01 0. -1.
       -4    1    3    3    0  502 -0.85844987390E+03 -0.15231276997E+04 -0.50252113188E+03  0.18191710410E+04  0.12699999809E+01 0.  1.
</event>
<event>
 5   0  0.4811500E-07  0.3462652E+04  0.7818609E-02  0.8122699E-01
       -1   -1    0    0    0  501  0.00000000000E+00  0.00000000000E+00  0.28417968424E+04  0.28417968424E+04  0.50400001928E-02 0. -1.
        1   -1    0    0  501    0  0.00000000000E+00  0.00000000000E+00 -0.10547864722E+04  0.10547864722E+04  0.50400001928E-02 0.  1.
    10030    2    1    2    0    0  0.00000000000E+00  0.00000000000E+00  0.17870103701E+04  0.38965833146E+04  0.34626515078E+04 0.  0.
        4    1    3    3  502    0  0.25210167082E+03 -0.24330862321E+03 -0.10144753171E+04  0.10732735534E+04  0.12699999809E+01 0.  1.
       -4    1    3    3    0  502 -0.25210167082E+03  0.24330862321E+03  0.28014856873E+04  0.28233097612E+04  0.12699999809E+01 0. -1.
</event>
<event>
 5   0  0.4811500E-07  0.3610833E+04  0.7818609E-02  0.8088015E-01
        1   -1    0    0  501    0  0.00000000000E+00  0.00000000000E+00  0.20688058728E+04  0.20688058728E+04  0.50400001928E-02 0.  1.
       -1   -1    0    0    0  501  0.00000000000E+00  0.00000000000E+00 -0.15755607485E+04  0.15755607485E+04  0.50400001928E-02 0. -1.
    10030    2    1    2    0    0  0.00000000000E+00  0.00000000000E+00  0.49324512437E+03  0.36443666213E+04  0.36108333273E+04 0.  0.
        3    1    3    3  502    0 -0.96344065109E+03  0.10591837722E+04 -0.86333657764E+03  0.16719564013E+04  0.10100000352E+00 0. -1.
       -3    1    3    3    0  502  0.96344065109E+03 -0.10591837722E+04  0.13565817020E+04  0.19724102200E+04  0.10100000352E+00 0.  1.
</event>
<event>
 5   0  0.4811500E-07  0.3557606E+04  0.7818609E-02  0.8100272E-01
        1   -1    0    0  501    0  0.00000000000E+00  0.00000000000E+00  0.20720618727E+04  0.20720618727E+04  0.50400001928E-02 0. -1.
       -1   -1    0    0    0  501  0.00000000000E+00  0.00000000000E+00 -0.15270488933E+04  0.15270488933E+04  0.50400001928E-02 0.  1.
    10030    2    1    2    0    0  0.00000000000E+00  0.00000000000E+00  0.54501297937E+03  0.35991107661E+04  0.35576058183E+04 0.  0.
        3    1    3    3  502    0  0.15142287689E+03 -0.10037440115E+04  0.17502700913E+04  0.20233329758E+04  0.10100000352E+00 0. -1.
       -3    1    3    3    0  502 -0.15142287689E+03  0.10037440115E+04 -0.12052571119E+04  0.15757777903E+04  0.10100000352E+00 0.  1.
</event>
<event>
 5   0  0.1379425E-06  0.3564286E+04  0.7818609E-02  0.8098722E-01
       -2   -1    0    0    0  501  0.00000000000E+00  0.00000000000E+00  0.29380560098E+04  0.29380560098E+04  0.25500000920E-02 0. -1.
        2   -1    0    0  501    0  0.00000000000E+00  0.00000000000E+00 -0.10809983583E+04  0.10809983583E+04  0.25500000920E-02 0.  1.
    10030    2    1    2    0    0  0.00000000000E+00  0.00000000000E+00  0.18570576515E+04  0.40190543682E+04  0.35642860285E+04 0.  0.
        4    1    3    3  502    0 -0.34086435951E+03  0.17486598901E+04  0.87769729048E+03  0.19860397955E+04  0.12699999809E+01 0. -1.
       -4    1    3    3    0  502  0.34086435951E+03 -0.17486598901E+04  0.97936036107E+03  0.20330145726E+04  0.12699999809E+01 0.  1.
</event>
<event>
 5   0  0.4811500E-07  0.3562224E+04  0.7818609E-02  0.8099200E-01
       -1   -1    0    0    0  501  0.00000000000E+00  0.00000000000E+00  0.16453742647E+04  0.16453742647E+04  0.50400001928E-02 0. -1.
        1   -1    0    0  501    0  0.00000000000E+00  0.00000000000E+00 -0.19280473036E+04  0.19280473036E+04  0.50400001928E-02 0.  1.
    10030    2    1    2    0    0  0.00000000000E+00  0.00000000000E+00 -0.28267303891E+03  0.35734215684E+04  0.35622236957E+04 0.  0.
        4    1    3    3  502    0  0.16736680862E+04 -0.31660975381E+03 -0.66350254060E+03  0.18280163657E+04  0.12699999809E+01 0.  1.
       -4    1    3    3    0  502 -0.16736680862E+04  0.31660975381E+03  0.38082950168E+03  0.17454052026E+04  0.12699999809E+01 0. -1.
</event>
<event>
 5   0  0.1444091E-06  0.3778862E+04  0.7818609E-02  0.8050706E-01
        2   -1    0    0  501    0  0.00000000000E+00  0.00000000000E+00  0.19557080467E+04  0.19557080467E+04  0.25500000920E-02 0.  1.
       -2   -1    0    0    0  501  0.00000000000E+00  0.00000000000E+00 -0.18254002911E+04  0.18254002911E+04  0.25500000920E-02 0. -1.
    10030    2    1    2    0    0  0.00000000000E+00  0.00000000000E+00  0.13030775561E+03  0.37811083379E+04  0.37788622827E+04 0.  0.
        1    1    3    3  502    0  0.11523886438E+04 -0.53415052532E+02  0.15624046231E+04  0.19421536913E+04  0.50400001928E-02 0.  1.
       -1    1    3    3    0  502 -0.11523886438E+04  0.53415052532E+02 -0.14320968675E+04  0.18389546466E+04  0.50400001928E-02 0. -1.
</event>
<event>
 5   0  0.4811500E-07  0.3592085E+04  0.7818609E-02  0.8092307E-01
        1   -1    0    0  501    0  0.00000000000E+00  0.00000000000E+00  0.17469383428E+04  0.17469383428E+04  0.50400001928E-02 0.  1.
       -1   -1    0    0    0  501  0.00000000000E+00  0.00000000000E+00 -0.18465264617E+04  0.18465264617E+04  0.50400001928E-02 0. -1.
    10030    2    1    2    0    0  0.00000000000E+00  0.00000000000E+00 -0.99588118887E+02  0.35934648045E+04  0.35920845630E+04 0.  0.
        5    1    3    3  502    0 -0.14872355182E+04  0.57176786267E+03 -0.87894171428E+03  0.18197111316E+04  0.46999998093E+01 0. -1.
       -5    1    3    3    0  502  0.14872355182E+04 -0.57176786267E+03  0.77935359539E+03  0.17737536729E+04  0.46999998093E+01 0.  1.
</event>
<event>
 5   0  0.1444091E-06  0.3591700E+04  0.7818609E-02  0.8092396E-01
       -2   -1    0    0    0  501  0.00000000000E+00  0.00000000000E+00  0.10939821737E+04  0.10939821737E+04  0.25500000920E-02 0.  1.
        2   -1    0    0  501    0  0.00000000000E+00  0.00000000000E+00 -0.29480166112E+04  0.29480166112E+04  0.25500000920E-02 0. -1.
    10030    2    1    2    0    0  0.00000000000E+00  0.00000000000E+00 -0.18540344375E+04  0.40419987848E+04  0.35917002215E+04 0.  0.
        1    1    3    3  502    0  0.40069785937E+03 -0.96900494118E+03 -0.25677263046E+04  0.27735803082E+04  0.50400001928E-02 0. -1.
       -1    1    3    3    0  502 -0.40069785937E+03  0.96900494118E+03  0.71369186716E+03  0.12684184766E+04  0.50400001928E-02 0.  1.
</event>
<event>
 5   0  0.1444091E-06  0.2543143E+04  0.7818609E-02  0.8387775E-01
        2   -1    0    0  501    0  0.00000000000E+00  0.00000000000E+00  0.18592211792E+04  0.18592211792E+04  0.25500000920E-02 0.  1.
       -2   -1    0    0    0  501  0.00000000000E+00  0.00000000000E+00 -0.86966184200E+03  0.86966184201E+03  0.25500000920E-02 0. -1.
    10030    2    1    2    0    0  0.00000000000E+00  0.00000000000E+00  0.98955933722E+03  0.27288830212E+04  0.25431427136E+04 0.  0.
        1    1    3    3  502    0 -0.12437882132E+04  0.45886086920E+02  0.21542111840E+03  0.12631393076E+04  0.50400001928E-02 0.  1.
       -1    1    3    3    0  502  0.12437882132E+04 -0.45886086920E+02  0.77413821882E+03  0.14657437136E+04  0.50400001928E-02 0. -1.
</event>
<event>
 5   0  0.4811500E-07  0.2353783E+04  0.7818609E-02  0.8457012E-01
       -1   -1    0    0    0  501  0.00000000000E+00  0.00000000000E+00  0.75347311104E+03  0.75347311105E+03  0.50400001928E-02 0.  1.
        1   -1    0    0  501    0  0.00000000000E+00  0.00000000000E+00 -0.18382514798E+04  0.18382514798E+04  0.50400001928E-02 0. -1.
    10030    2    1    2    0    0  0.00000000000E+00  0.00000000000E+00 -0.10847783688E+04  0.25917245909E+04  0.23537825400E+04 0.  0.
        5    1    3    3  502    0  0.99443833403E+02  0.62101010029E+03  0.55290868857E+03  0.83742028191E+03  0.46999998093E+01 0.  1.
       -5    1    3    3    0  502 -0.99443833403E+02 -0.62101010029E+03 -0.16376870573E+04  0.17543043090E+04  0.46999998093E+01 0. -1.
</event>
<event>
 5   0  0.4811500E-07  0.3579532E+04  0.7818609E-02  0.8095196E-01
       -1   -1    0    0    0  501  0.00000000000E+00  0.00000000000E+00  0.12573085141E+04  0.12573085141E+04  0.50400001928E-02 0. -1.
        1   -1    0    0  501    0  0.00000000000E+00  0.00000000000E+00 -0.25477145020E+04  0.25477145020E+04  0.50400001928E-02 0.  1.
    10030    2    1    2    0    0  0.00000000000E+00  0.00000000000E+00 -0.12904059879E+04  0.38050230162E+04  0.35795324471E+04 0.  0.
        2    1    3    3  502    0 -0.57730422303E+03  0.11575965019E+04  0.66962842414E+03  0.14566097809E+04  0.25500000920E-02 0. -1.
       -2    1    3    3    0  502  0.57730422303E+03 -0.11575965019E+04 -0.19600344121E+04  0.23484132353E+04  0.25500000920E-02 0.  1.
</event>
<event>
 5   0  0.1468942E-06  0.3588506E+04  0.7818609E-02  0.8093130E-01
       -2   -1    0    0    0  501  0.00000000000E+00  0.00000000000E+00  0.11506820413E+04  0.11506820413E+04  0.25500000920E-02 0. -1.
        2   -1    0    0  501    0  0.00000000000E+00  0.00000000000E+00 -0.27977704485E+04  0.27977704485E+04  0.25500000920E-02 0.  1.
    10030    2    1    2    0    0  0.00000000000E+00  0.00000000000E+00 -0.16470884072E+04  0.39484524898E+04  0.35885062134E+04 0.  0.
        2    1    3    3  502    0  0.17782692430E+04  0.43667403528E+00 -0.56061377450E+03  0.18645453857E+04  0.25500000920E-02 0.  1.
       -2    1    3    3    0  502 -0.17782692430E+04 -0.43667403528E+00 -0.10864746327E+04  0.20839071041E+04  0.25500000920E-02 0. -1.
</event>
<event>
 5   0  0.1468942E-06  0.2422824E+04  0.7818609E-02  0.8431008E-01
        2   -1    0    0  501    0  0.00000000000E+00  0.00000000000E+00  0.49995391935E+03  0.49995391936E+03  0.25500000920E-02 0. -1.
       -2   -1    0    0    0  501  0.00000000000E+00  0.00000000000E+00 -0.29353077883E+04  0.29353077883E+04  0.25500000920E-02 0.  1.
    10030    2    1    2    0    0  0.00000000000E+00  0.00000000000E+00 -0.24353538690E+04  0.34352617077E+04  0.24228236694E+04 0.  0.
        2    1    3    3  502    0 -0.10513262147E+04 -0.24471762141E+03 -0.19973086439E+04  0.22703337514E+04  0.25500000920E-02 0.  1.
       -2    1    3    3    0  502  0.10513262147E+04  0.24471762141E+03 -0.43804522510E+03  0.11649279562E+04  0.25500000920E-02 0. -1.
</event>
<event>
 5   0  0.5071661E-07  0.3603662E+04  0.7818609E-02  0.8089653E-01
        1   -1    0    0  501    0  0.00000000000E+00  0.00000000000E+00  0.27656121418E+04  0.27656121418E+04  0.50400001928E-02 0. -1.
       -1   -1    0    0    0  501  0.00000000000E+00  0.00000000000E+00 -0.11739155041E+04  0.11739155041E+04  0.50400001928E-02 0.  1.
    10030    2    1    2    0    0  0.00000000000E+00  0.00000000000E+00  0.15916966378E+04  0.39395276459E+04  0.36036620105E+04 0.  0.
        1    1    3    3  502    0 -0.37851452143E+03 -0.17213479648E+04  0.38639679816E+03  0.18043321602E+04  0.50400001928E-02 0.  1.
       -1    1    3    3    0  502  0.37851452143E+03  0.17213479648E+04  0.12052998396E+04  0.21351954857E+04  0.50400001928E-02 0. -1.
</event>
<event>
 5   0  0.4811500E-07  0.3569122E+04  0.7818609E-02  0.8097602E-01
        1   -1    0    0  501    0  0.00000000000E+00  0.00000000000E+00  0.18826681500E+04  0.18826681500E+04  0.50400001928E-02 0. -1.
       -1   -1    0    0    0  501  0.00000000000E+00  0.00000000000E+00 -0.16915659087E+04  0.16915659087E+04  0.50400001928E-02 0.  1.
    10030    2    1    2    0    0  0.00000000000E+00  0.00000000000E+00  0.19110224131E+03  0.35742340587E+04  0.35691216062E+04 0.  0.
        2    1    3    3  502    0 -0.14280253824E+04  0.51698350315E+03 -0.84287645283E+03  0.17369424718E+04  0.25500000920E-02 0.  1.
       -2    1    3    3    0  502  0.14280253824E+04 -0.51698350315E+03  0.10339786941E+04  0.18372915869E+04  0.25500000920E-02 0. -1.
</event>
<event>
 5   0  0.1444091E-06  0.3536585E+04  0.7818609E-02  0.8105174E-01
       -2   -1    0    0    0  501  0.00000000000E+00  0.00000000000E+00  0.16342349874E+04  0.16342349874E+04  0.25500000920E-02 0. -1.
        2   -1    0    0  501    0  0.00000000000E+00  0.00000000000E+00 -0.19133463955E+04  0.19133463955E+04  0.25500000920E-02 0.  1.
    10030    2    1    2    0    0  0.00000000000E+00  0.00000000000E+00 -0.27911140806E+03  0.35475813829E+04  0.35365845798E+04 0.  0.
        1    1    3    3  502    0 -0.57162456126E+03  0.58045239740E+03 -0.17138873176E+04  0.18976536465E+04  0.50400001928E-02 0.  1.
       -1    1    3    3    0  502  0.57162456126E+03 -0.58045239740E+03  0.14347759095E+04  0.16499277364E+04  0.50400001928E-02 0. -1.
</event>
<event>
 5   0  0.4811500E-07  0.3521198E+04  0.7818609E-02  0.8108785E-01
        1   -1    0    0  501    0  0.00000000000E+00  0.00000000000E+00  0.24552262463E+04  0.24552262463E+04  0.50400001928E-02 0. -1.
       -1   -1    0    0    0  501  0.00000000000E+00  0.00000000000E+00 -0.12624939652E+04  0.12624939652E+04  0.50400001928E-02 0.  1.
    10030    2    1    2    0    0  0.00000000000E+00  0.00000000000E+00  0.11927322811E+04  0.37177202116E+04  0.35211977049E+04 0.  0.
        4    1    3    3  502    0  0.23461453361E+03  0.11319763480E+04  0.19983675324E+04  0.23086552014E+04  0.12699999809E+01 0. -1.
       -4    1    3    3    0  502 -0.23461453361E+03 -0.11319763480E+04 -0.80563525128E+03  0.14090650101E+04  0.12699999809E+01 0.  1.
</event>
<event>
 5   0  0.1444091E-06  0.2312872E+04  0.7818609E-02  0.8472863E-01
       -2   -1    0    0    0  501  0.00000000000E+00  0.00000000000E+00  0.11033772266E+04  0.11033772266E+04  0.25500000920E-02 0.  1.
        2   -1    0    0  501    0  0.00000000000E+00  0.00000000000E+00 -0.12120458007E+04  0.12120458007E+04  0.25500000920E-02 0. -1.
    10030    2    1    2    0    0  0.00000000000E+00  0.00000000000E+00 -0.10866857403E+03  0.23154230273E+04  0.23128715780E+04 0.  0.
        1    1    3    3  502    0  0.18911060997E+03 -0.87779116034E+03 -0.78387929884E+03  0.11919508795E+04  0.50400001928E-02 0. -1.
       -1    1    3    3    0  502 -0.18911060997E+03  0.87779116034E+03  0.67521072481E+03  0.11234721478E+04  0.50400001928E-02 0.  1.
</event>
<event>
 5   0  0.5071661E-07  0.3570511E+04  0.7818609E-02  0.8097280E-01
        1   -1    0    0  501    0  0.00000000000E+00  0.00000000000E+00  0.27884613146E+04  0.27884613146E+04  0.50400001928E-02 0. -1.
       -1   -1    0    0    0  501  0.00000000000E+00  0.00000000000E+00 -0.11429731982E+04  0.11429731982E+04  0.50400001928E-02 0.  1.
    10030    2    1    2    0    0  0.00000000000E+00  0.00000000000E+00  0.16454881163E+04  0.39314345128E+04  0.35705106340E+04 0.  0.
        1    1    3    3  502    0  0.14170620566E+04  0.79377124518E+03  0.16385867849E+04  0.23071853661E+04  0.50400001928E-02 0. -1.
       -1    1    3    3    0  502 -0.14170620566E+04 -0.79377124518E+03  0.69013314002E+01  0.16242491466E+04  0.50400001928E-02 0.  1.
</event>
<event>
 5   0  0.1379425E-06  0.3596201E+04  0.7818609E-02  0.8091362E-01
        2   -1    0    0  501    0  0.00000000000E+00  0.00000000000E+00  0.17572523707E+04  0.17572523707E+04  0.25500000920E-02 0. -1.
       -2   -1    0    0    0  501  0.00000000000E+00  0.00000000000E+00 -0.18398985701E+04  0.18398985701E+04  0.25500000920E-02 0.  1.
    10030    2    1    2    0    0  0.00000000000E+00  0.00000000000E+00 -0.82646199379E+02  0.35971509408E+04  0.35962013982E+04 0.  0.
        4    1    3    3  502    0  0.83684188017E+03 -0.53850672243E+03  0.14566940104E+04  0.17641578374E+04  0.12699999809E+01 0. -1.
       -4    1    3    3    0  502 -0.83684188017E+03  0.53850672243E+03 -0.15393402098E+04  0.18329931033E+04  0.12699999809E+01 0.  1.
</event>
<event>
 5   0  0.4811500E-07  0.3595849E+04  0.7818609E-02  0.8091443E-01
        1   -1    0    0  501    0  0.00000000000E+00  0.00000000000E+00  0.32460628922E+04  0.32460628922E+04  0.50400001928E-02 0. -1.
       -1   -1    0    0    0  501  0.00000000000E+00  0.00000000000E+00 -0.99583149337E+03  0.99583149339E+03  0.50400001928E-02 0.  1.
    10030    2    1    2    0    0  0.00000000000E+00  0.00000000000E+00  0.22502313988E+04  0.42418943856E+04  0.35958485272E+04 0.  0.
        5    1    3    3  502    0 -0.30152369577E+03 -0.65929150893E+02 -0.96433811235E+03  0.10125380373E+04  0.46999998093E+01 0.  1.
       -5    1    3    3    0  502  0.30152369577E+03  0.65929150893E+02  0.32145695112E+04  0.32293563483E+04  0.46999998093E+01 0. -1.
</event>
<event>
 5   0  0.1505671E-06  0.2532580E+04  0.7818609E-02  0.8391470E-01
        2   -1    0    0  501    0  0.00000000000E+00  0.00000000000E+00  0.12784372747E+04  0.12784372747E+04  0.25500000920E-02 0. -1.
       -2   -1    0    0    0  501  0.00000000000E+00  0.00000000000E+00 -0.12542582451E+04  0.12542582451E+04  0.25500000920E-02 0.  1.
    10030    2    1    2    0    0  0.00000000000E+00  0.00000000000E+00  0.24179029622E+02  0.25326955198E+04  0.25325801015E+04 0.  0.
        3    1    3    3  502    0  0.32574407170E+03 -0.88577673882E+03 -0.83221245746E+03  0.12582874138E+04  0.10100000352E+00 0.  1.
       -3    1    3    3    0  502 -0.32574407170E+03  0.88577673882E+03  0.85639148708E+03  0.12744081060E+04  0.10100000352E+00 0. -1.
</event>
<event>
 5   0  0.1468942E-06  0.3367065E+04  0.7818609E-02  0.8146037E-01
        2   -1    0    0  501    0  0.00000000000E+00  0.00000000000E+00  0.12259803884E+04  0.12259803884E+04  0.25500000920E-02 0.  1.
       -2   -1    0    0    0  501  0.00000000000E+00  0.00000000000E+00 -0.23118485266E+04  0.23118485266E+04  0.25500000920E-02 0. -1.
    10030    2    1    2    0    0  0.00000000000E+00  0.00000000000E+00 -0.10858681382E+04  0.35378289150E+04  0.33670645699E+04 0.  0.
        2    1    3    3  502    0  0.14740676837E+04  0.62797756525E+03 -0.10859109580E+04  0.19355707084E+04  0.25500000920E-02 0. -1.
       -2    1    3    3    0  502 -0.14740676837E+04 -0.62797756525E+03  0.42819847663E-01  0.16022582065E+04  0.25500000920E-02 0.  1.
</event>
<event>
 5   0  0.1444091E-06  0.2935960E+04  0.7818609E-02  0.8262258E-01
        2   -1    0    0  501    0  0.00000000000E+00  0.00000000000E+00  0.15719132414E+04  0.15719132414E+04  0.25500000920E-02 0. -1.
       -2   -1    0    0    0  501  0.00000000000E+00  0.00000000000E+00 -0.13709185051E+04  0.13709185051E+04  0.25500000920E-02 0.  1.
    10030    2    1    2    0    0  0.00000000000E+00  0.00000000000E+00  0.20099473629E+03  0.29428317464E+04  0.29359597756E+04 0.  0.
        1    1    3    3  502    0 -0.12500622314E+04 -0.64933720281E+03 -0.31359253897E+03  0.14431336271E+04  0.50400001928E-02 0. -1.
       -1    1    3    3    0  502  0.12500622314E+04  0.64933720281E+03  0.51458727526E+03  0.14996981193E+04  0.50400001928E-02 0.  1.
</event>
<event>
 5   0  0.4811500E-07  0.3603888E+04  0.7818609E-02  0.8089602E-01
       -1   -1    0    0    0  501  0.00000000000E+00  0.00000000000E+00  0.11703344142E+04  0.11703344142E+04  0.50400001928E-02 0. -1.
        1   -1    0    0  501    0  0.00000000000E+00  0.00000000000E+00 -0.27744227619E+04  0.27744227620E+04  0.50400001928E-02 0.  1.
    10030    2    1    2    0    0  0.00000000000E+00  0.00000000000E+00 -0.16040883477E+04  0.39447571762E+04  0.36038881436E+04 0.  0.
        2    1    3    3  502    0  0.52937430302E+03  0.28572061307E+03  0.10571792880E+04  0.12163475936E+04  0.25500000920E-02 0. -1.
       -2    1    3    3    0  502 -0.52937430302E+03 -0.28572061307E+03 -0.26612676357E+04  0.27284095826E+04  0.25500000920E-02 0.  1.
</event>
<event>
 5   0  0.1468942E-06  0.3607517E+04  0.7818609E-02  0.8088772E-01
       -2   -1    0    0    0  501  0.00000000000E+00  0.00000000000E+00  0.13389877031E+04  0.13389877031E+04  0.25500000920E-02 0. -1.
        2   -1    0    0  501    0  0.00000000000E+00  0.00000000000E+00 -0.24298535850E+04  0.24298535850E+04  0.25500000920E-02 0.  1.
    10030    2    1    2    0    0  0.00000000000E+00  0.00000000000E+00 -0.10908658819E+04  0.37688412880E+04  0.36075166364E+04 0.  0.
        2    1    3    3  502    0 -0.10635213487E+04  0.28916861684E+03 -0.20371687770E+04  0.23161935960E+04  0.25500000920E-02 0.  1.
       -2    1    3    3    0  502  0.10635213487E+04 -0.28916861684E+03  0.94630289505E+03  0.14526476921E+04  0.25500000920E-02 0. -1.
</event>
<event>
 5   0  0.4811500E-07  0.3607087E+04  0.7818609E-02  0.8088870E-01
        1   -1    0    0  501    0  0.00000000000E+00  0.00000000000E+00  0.18032744900E+04  0.18032744900E+04  0.50400001928E-02 0.  1.
       -1   -1    0    0    0  501  0.00000000000E+00  0.00000000000E+00 -0.18038127772E+04  0.18038127772E+04  0.50400001928E-02 0. -1.
    10030    2    1    2    0    0  0.00000000000E+00  0.00000000000E+00 -0.53828721462E+00  0.36070872672E+04  0.36070872271E+04 0.  0.
        3    1    3    3  502    0 -0.80289853218E+03  0.75425730333E+03  0.14277432753E+04  0.18033305307E+04  0.10100000352E+00 0.  1.
       -3    1    3    3    0  502  0.80289853218E+03 -0.75425730333E+03 -0.14282815625E+04  0.18037567365E+04  0.10100000352E+00 0. -1.
</event>
<event>
 5   0  0.4811500E-07  0.3309972E+04  0.7818609E-02  0.8160363E-01
       -1   -1    0    0    0  501  0.00000000000E+00  0.00000000000E+00  0.18109790240E+04  0.18109790240E+04  0.50400001928E-02 0.  1.
        1   -1    0    0  501    0  0.00000000000E+00  0.00000000000E+00 -0.15124300951E+04  0.15124300952E+04  0.50400001928E-02 0. -1.
    10030    2    1    2    0    0  0.00000000000E+00  0.00000000000E+00  0.29854892884E+03  0.33234091192E+04  0.33099723126E+04 0.  0.
        4    1    3    3  502    0 -0.32856590552E+03  0.13771057425E+03 -0.14734726230E+04  0.15159297280E+04  0.12699999809E+01 0. -1.
       -4    1    3    3    0  502  0.32856590552E+03 -0.13771057425E+03  0.17720215518E+04  0.18074793912E+04  0.12699999809E+01 0.  1.
</event>
<event>
 5   0  0.4811500E-07  0.3518984E+04  0.7818609E-02  0.8109306E-01
       -1   -1    0    0    0  501  0.00000000000E+00  0.00000000000E+00  0.18282958318E+04  0.18282958318E+04  0.50400001928E-02 0.  1.
        1   -1    0    0  501    0  0.00000000000E+00  0.00000000000E+00 -0.16932776070E+04  0.16932776070E+04  0.50400001928E-02 0. -1.
    10030    2    1    2    0    0  0.00000000000E+00  0.00000000000E+00  0.13501822479E+03  0.35215734388E+04  0.35189841664E+04 0.  0.
        2    1    3    3  502    0  0.54726996799E+03 -0.96225055826E+03  0.14361344471E+04  0.18132602419E+04  0.25500000920E-02 0.  1.
       -2    1    3    3    0  502 -0.54726996799E+03  0.96225055826E+03 -0.13011162223E+04  0.17083131969E+04  0.25500000920E-02 0. -1.
</event>
<event>
 5   0  0.4811500E-07  0.3515155E+04  0.7818609E-02  0.8110208E-01
        1   -1    0    0  501    0  0.00000000000E+00  0.00000000000E+00  0.16156356324E+04  0.16156356324E+04  0.50400001928E-02 0.  1.
       -1   -1    0    0    0  501  0.00000000000E+00  0.00000000000E+00 -0.19119893524E+04  0.19119893524E+04  0.50400001928E-02 0. -1.
    10030    2    1    2    0    0  0.00000000000E+00  0.00000000000E+00 -0.29635372004E+03  0.35276249848E+04  0.35151546916E+04 0.  0.
        5    1    3    3  502    0  0.13664641402E+04 -0.28006848269E+02 -0.12571071107E+04  0.18569730768E+04  0.46999998093E+01 0. -1.
       -5    1    3    3    0  502 -0.13664641402E+04  0.28006848269E+02  0.96075339064E+03  0.16706519080E+04  0.46999998093E+01 0.  1.
</event>
<event>
 5   0  0.1444091E-06  0.3587306E+04  0.7818609E-02  0.8093406E-01
        2   -1    0    0  501    0  0.00000000000E+00  0.00000000000E+00  0.18160298688E+04  0.18160298688E+04  0.25500000920E-02 0.  1.
       -2   -1    0    0    0  501  0.00000000000E+00  0.00000000000E+00 -0.17715518199E+04  0.17715518199E+04  0.25500000920E-02 0. -1.
    10030    2    1    2    0    0  0.00000000000E+00  0.00000000000E+00  0.44478048881E+02  0.35875816887E+04  0.35873059636E+04 0.  0.
        1    1    3    3  502    0  0.66994968299E+02  0.11272493264E+04  0.14159069160E+04  0.18110692324E+04  0.50400001928E-02 0.  1.
       -1    1    3    3    0  502 -0.66994968299E+02 -0.11272493264E+04 -0.13714288672E+04  0.17765124563E+04  0.50400001928E-02 0. -1.
</event>
<event>
 5   0  0.1379425E-06  0.3598141E+04  0.7818609E-02  0.8090918E-01
       -2   -1    0    0    0  501  0.00000000000E+00  0.00000000000E+00  0.13303218082E+04  0.13303218082E+04  0.25500000920E-02 0.  1.
        2   -1    0    0  501    0  0.00000000000E+00  0.00000000000E+00 -0.24329864724E+04  0.24329864724E+04  0.25500000920E-02 0. -1.
    10030    2    1    2    0    0  0.00000000000E+00  0.00000000000E+00 -0.11026646643E+04  0.37633082806E+04  0.35981411663E+04 0.  0.
        4    1    3    3  502    0  0.74085202148E+03 -0.15454642547E+04  0.20894314344E+02  0.17139894007E+04  0.12699999809E+01 0.  1.
       -4    1    3    3    0  502 -0.74085202148E+03  0.15454642547E+04 -0.11235589786E+04  0.20493188799E+04  0.12699999809E+01 0. -1.
</event>
<event>
 5   0  0.1505671E-06  0.3588685E+04  0.7818609E-02  0.8093089E-01
        2   -1    0    0  501    0  0.00000000000E+00  0.00000000000E+00  0.13204054042E+04  0.13204054042E+04  0.25500000920E-02 0. -1.
       -2   -1    0    0    0  501  0.00000000000E+00  0.00000000000E+00 -0.24383906247E+04  0.24383906247E+04  0.25500000920E-02 0.  1.
    10030    2    1    2    0    0  0.00000000000E+00  0.00000000000E+00 -0.11179852206E+04  0.37587960289E+04  0.35886845269E+04 0.  0.
        3    1    3    3  502    0  0.61581334594E+03 -0.14552978310E+04 -0.14493129932E+04  0.21442075497E+04  0.10100000352E+00 0.  1.
       -3    1    3    3    0  502 -0.61581334594E+03  0.14552978310E+04  0.33132777262E+03  0.16145884792E+04  0.10100000352E+00 0. -1.
</event>
<event>
 5   0  0.4811500E-07  0.3383470E+04  0.7818609E-02  0.8141975E-01
       -1   -1    0    0    0  501  0.00000000000E+00  0.00000000000E+00  0.11570639198E+04  0.11570639198E+04  0.50400001928E-02 0. -1.
        1   -1    0    0  501    0  0.00000000000E+00  0.00000000000E+00 -0.24734740438E+04  0.24734740438E+04  0.50400001928E-02 0.  1.
    10030    2    1    2    0    0  0.00000000000E+00  0.00000000000E+00 -0.13164101240E+04  0.36305379636E+04  0.33834701551E+04 0.  0.
        2    1    3    3  502    0 -0.43883184652E+03 -0.16145736921E+04 -0.38985091011E+03  0.17179654621E+04  0.25500000920E-02 0. -1.
       -2    1    3    3    0  502  0.43883184652E+03  0.16145736921E+04 -0.92655921391E+03  0.19125725015E+04  0.25500000920E-02 0.  1.
</event>
<event>
 5   0  0.1491854E-06  0.3580581E+04  0.7818609E-02  0.8094954E-01
       -2   -1    0    0    0  501  0.00000000000E+00  0.00000000000E+00  0.28330717659E+04  0.28330717659E+04  0.25500000920E-02 0. -1.
        2   -1    0    0  501    0  0.00000000000E+00  0.00000000000E+00 -0.11313301790E+04  0.11313301790E+04  0.25500000920E-02 0.  1.
    10030    2    1    2    0    0  0.00000000000E+00  0.00000000000E+00  0.17017415869E+04  0.39644019449E+04  0.35805807284E+04 0.  0.
        5    1    3    3  502    0 -0.10708620755E+04 -0.39747111132E+03 -0.67544859941E+03  0.13270198829E+04  0.46999998093E+01 0.  1.
       -5    1    3    3    0  502  0.10708620755E+04  0.39747111132E+03  0.23771901863E+04  0.26373820620E+04  0.46999998093E+01 0. -1.
</event>
<event>
 5   0  0.4811500E-07  0.3479658E+04  0.7818609E-02  0.8118628E-01
       -1   -1    0    0    0  501  0.00000000000E+00  0.00000000000E+00  0.17358803285E+04  0.17358803286E+04  0.50400001928E-02 0.  1.
        1   -1    0    0  501    0  0.00000000000E+00  0.00000000000E+00 -0.17437870057E+04  0.17437870057E+04  0.50400001928E-02 0. -1.
    10030    2    1    2    0    0  0.00000000000E+00  0.00000000000E+00 -0.79066771036E+01  0.34796673342E+04  0.34796583512E+04 0.  0.
        5    1    3    3  502    0 -0.52294022347E+03  0.45147106327E+03  0.15928259312E+04  0.17362053840E+04  0.46999998093E+01 0.  1.
       -5    1    3    3    0  502  0.52294022347E+03 -0.45147106327E+03 -0.16007326084E+04  0.17434619502E+04  0.46999998093E+01 0. -1.
</event>
<event>
 5   0  0.4811500E-07  0.3014545E+04  0.7818609E-02  0.8239590E-01
        1   -1    0    0  501    0  0.00000000000E+00  0.00000000000E+00  0.17959677634E+04  0.17959677634E+04  0.50400001928E-02 0.  1.
       -1   -1    0    0    0  501  0.00000000000E+00  0.00000000000E+00 -0.12649841618E+04  0.12649841619E+04  0.50400001928E-02 0. -1.
    10030    2    1    2    0    0  0.00000000000E+00  0.00000000000E+00  0.53098360158E+03  0.30609519253E+04  0.30145452565E+04 0.  0.
        5    1    3    3  502    0  0.13324650834E+04  0.52531726539E+03  0.74221616665E+03  0.16131733806E+04  0.46999998093E+01 0. -1.
       -5    1    3    3    0  502 -0.13324650834E+04 -0.52531726539E+03 -0.21123256507E+03  0.14477785447E+04  0.46999998093E+01 0.  1.
</event>
<event>
 5   0  0.4811500E-07  0.3561533E+04  0.7818609E-02  0.8099360E-01
       -1   -1    0    0    0  501  0.00000000000E+00  0.00000000000E+00  0.11668830670E+04  0.11668830671E+04  0.50400001928E-02 0. -1.
        1   -1    0    0  501    0  0.00000000000E+00  0.00000000000E+00 -0.27176068980E+04  0.27176068980E+04  0.50400001928E-02 0.  1.
    10030    2    1    2    0    0  0.00000000000E+00  0.00000000000E+00 -0.15507238310E+04  0.38844899651E+04  0.35615330813E+04 0.  0.
        4    1    3    3  502    0 -0.14499373590E+03 -0.16642347206E+04 -0.10264405845E+03  0.16736898770E+04  0.12699999809E+01 0. -1.
       -4    1    3    3    0  502  0.14499373590E+03  0.16642347206E+04 -0.14480797725E+04  0.22108000881E+04  0.12699999809E+01 0.  1.
</event>
<event>
 5   0  0.5071661E-07  0.3550083E+04  0.7818609E-02  0.8102022E-01
       -1   -1    0    0    0  501  0.00000000000E+00  0.00000000000E+00  0.11989581612E+04  0.11989581612E+04  0.50400001928E-02 0.  1.
        1   -1    0    0  501    0  0.00000000000E+00  0.00000000000E+00 -0.26279255658E+04  0.26279255658E+04  0.50400001928E-02 0. -1.
    10030    2    1    2    0    0  0.00000000000E+00  0.00000000000E+00 -0.14289674046E+04  0.38268837270E+04  0.35500832689E+04 0.  0.
        1    1    3    3  502    0  0.66913178860E+02 -0.14946724820E+04  0.31510452653E+03  0.15289911918E+04  0.50400001928E-02 0.  1.
       -1    1    3    3    0  502 -0.66913178860E+02  0.14946724820E+04 -0.17440719311E+04  0.22978925351E+04  0.50400001928E-02 0. -1.
</event>
<event>
 5   0  0.1379425E-06  0.3541478E+04  0.7818609E-02  0.8104030E-01
       -2   -1    0    0    0  501  0.00000000000E+00  0.00000000000E+00  0.16532419703E+04  0.16532419703E+04  0.25500000920E-02 0. -1.
        2   -1    0    0  501    0  0.00000000000E+00  0.00000000000E+00 -0.18965865158E+04  0.18965865158E+04  0.25500000920E-02 0.  1.
    10030    2    1    2    0    0  0.00000000000E+00  0.00000000000E+00 -0.24334454554E+03  0.35498284861E+04  0.35414778996E+04 0.  0.
        4    1    3    3  502    0  0.12612096781E+03 -0.11779207407E+04 -0.14408724464E+04  0.18653468282E+04  0.12699999809E+01 0.  1.
       -4    1    3    3    0  502 -0.12612096781E+03  0.11779207407E+04  0.11975279008E+04  0.16844816579E+04  0.12699999809E+01 0. -1.
</event>
<event>
 5   0  0.1491854E-06  0.3543676E+04  0.7818609E-02  0.8103517E-01
        2   -1    0    0  501    0  0.00000000000E+00  0.00000000000E+00  0.20831672870E+04  0.20831672870E+04  0.25500000920E-02 0. -1.
       -2   -1    0    0    0  501  0.00000000000E+00  0.00000000000E+00 -0.15070371788E+04  0.15070371788E+04  0.25500000920E-02 0.  1.
    10030    2    1    2    0    0  0.00000000000E+00  0.00000000000E+00  0.57613010824E+03  0.35902044658E+04  0.35436763684E+04 0.  0.
        5    1    3    3  502    0  0.60682502530E+03 -0.48824387736E+03  0.19004286610E+04  0.20538427108E+04  0.46999998093E+01 0. -1.
       -5    1    3    3    0  502 -0.60682502530E+03  0.48824387736E+03 -0.13242985528E+04  0.15363617549E+04  0.46999998093E+01 0.  1.
</event>
<event>
 5   0  0.4811500E-07  0.3550923E+04  0.7818609E-02  0.8101827E-01
        1   -1    0    0  501    0  0.00000000000E+00  0.00000000000E+00  0.17912249424E+04  0.17912249424E+04  0.50400001928E-02 0. -1.
       -1   -1    0    0    0  501  0.00000000000E+00  0.00000000000E+00 -0.17598363049E+04  0.17598363049E+04  0.50400001928E-02 0.  1.
    10030    2    1    2    0    0  0.00000000000E+00  0.00000000000E+00  0.31388637460E+02  0.35510612473E+04  0.35509225190E+04 0.  0.
        5    1    3    3  502    0  0.50806498209E+03 -0.16925404499E+04 -0.15582737624E+03  0.17740145044E+04  0.46999998093E+01 0.  1.
       -5    1    3    3    0  502 -0.50806498209E+03  0.16925404499E+04  0.18721601370E+03  0.17770467429E+04  0.46999998093E+01 0. -1.
</event>
<event>
 5   0  0.1444091E-06  0.2516746E+04  0.7818609E-02  0.8397044E-01
        2   -1    0    0  501    0  0.00000000000E+00  0.00000000000E+00  0.11186723533E+04  0.11186723533E+04  0.25500000920E-02 0.  1.
       -2   -1    0    0    0  501  0.00000000000E+00  0.00000000000E+00 -0.14155191014E+04  0.14155191014E+04  0.25500000920E-02 0. -1.
    10030    2    1    2    0    0  0.00000000000E+00  0.00000000000E+00 -0.29684674805E+03  0.25341914547E+04  0.25167455845E+04 0.  0.
        1    1    3    3  502    0 -0.27023539092E+03  0.27289150528E+03  0.10582177001E+04  0.11257538101E+04  0.50400001928E-02 0.  1.
       -1    1    3    3    0  502  0.27023539092E+03 -0.27289150528E+03 -0.13550644481E+04  0.14084376446E+04  0.50400001928E-02 0. -1.
</event>
<event>
 5   0  0.1468942E-06  0.3506652E+04  0.7818609E-02  0.8112215E-01
        2   -1    0    0  501    0  0.00000000000E+00  0.00000000000E+00  0.21647863305E+04  0.21647863305E+04  0.25500000920E-02 0.  1.
       -2   -1    0    0    0  501  0.00000000000E+00  0.00000000000E+00 -0.14200721266E+04  0.14200721266E+04  0.25500000920E-02 0. -1.
    10030    2    1    2    0    0  0.00000000000E+00  0.00000000000E+00  0.74471420384E+03  0.35848584571E+04  0.35066523797E+04 0.  0.
        2    1    3    3  502    0 -0.15423430318E+04  0.37339533749E+03 -0.38986268895E+03  0.16340866018E+04  0.25500000920E-02 0. -1.
       -2    1    3    3    0  502  0.15423430318E+04 -0.37339533749E+03  0.11345768928E+04  0.19507718553E+04  0.25500000920E-02 0.  1.
</event>
<event>
 5   0  0.1468942E-06  0.3547415E+04  0.7818609E-02  0.8102644E-01
       -2   -1    0    0    0  501  0.00000000000E+00  0.00000000000E+00  0.26269949536E+04  0.26269949536E+04  0.25500000920E-02 0.  1.
        2   -1    0    0  501    0  0.00000000000E+00  0.00000000000E+00 -0.11975804099E+04  0.11975804099E+04  0.25500000920E-02 0. -1.
    10030    2    1    2    0    0  0.00000000000E+00  0.00000000000E+00  0.14294145437E+04  0.38245753635E+04  0.35474146605E+04 0.  0.
        2    1    3    3  502    0  0.47490417281E+00 -0.30514297515E+03  0.25984836678E+04  0.26163390134E+04  0.25500000920E-02 0.  1.
       -2    1    3    3    0  502 -0.47490417281E+00  0.30514297515E+03 -0.11690691241E+04  0.12082363502E+04  0.25500000920E-02 0. -1.
</event>
<event>
 5   0  0.4811500E-07  0.2261647E+04  0.7818609E-02  0.8493199E-01
        1   -1    0    0  501    0  0.00000000000E+00  0.00000000000E+00  0.24317690210E+04  0.24317690210E+04  0.50400001928E-02 0. -1.
       -1   -1    0    0    0  501  0.00000000000E+00  0.00000000000E+00 -0.52585640618E+03  0.52585640621E+03  0.50400001928E-02 0.  1.
    10030    2    1    2    0    0  0.00000000000E+00  0.00000000000E+00  0.19059126148E+04  0.29576254272E+04  0.22616465843E+04 0.  0.
        4    1    3    3  502    0 -0.25746679344E+03 -0.13359155890E+03 -0.47637866816E+03  0.55774017491E+03  0.12699999809E+01 0.  1.
       -4    1    3    3    0  502  0.25746679344E+03  0.13359155890E+03  0.23822912829E+04  0.23998852523E+04  0.12699999809E+01 0. -1.
</event>
<event>
 5   0  0.5071661E-07  0.3542611E+04  0.7818609E-02  0.8103765E-01
       -1   -1    0    0    0  501  0.00000000000E+00  0.00000000000E+00  0.12726185306E+04  0.12726185306E+04  0.50400001928E-02 0. -1.
        1   -1    0    0  501    0  0.00000000000E+00  0.00000000000E+00 -0.24654081148E+04  0.24654081148E+04  0.50400001928E-02 0.  1.
    10030    2    1    2    0    0  0.00000000000E+00  0.00000000000E+00 -0.11927895842E+04  0.37380266454E+04  0.35426114957E+04 0.  0.
        1    1    3    3  502    0 -0.39787767444E+03 -0.16484334185E+04 -0.11363701068E+04  0.20413173195E+04  0.50400001928E-02 0. -1.
       -1    1    3    3    0  502  0.39787767444E+03  0.16484334185E+04 -0.56419477366E+02  0.16967093259E+04  0.50400001928E-02 0.  1.
</event>
<event>
 5   0  0.1491854E-06  0.3624302E+04  0.7818609E-02  0.8084948E-01
        2   -1    0    0  501    0  0.00000000000E+00  0.00000000000E+00  0.18635201577E+04  0.18635201577E+04  0.25500000920E-02 0. -1.
       -2   -1    0    0    0  501  0.00000000000E+00  0.00000000000E+00 -0.17621979952E+04  0.17621979952E+04  0.25500000920E-02 0.  1.
    10030    2    1    2    0    0  0.00000000000E+00  0.00000000000E+00  0.10132216245E+03  0.36257181529E+04  0.36243021320E+04 0.  0.
        5    1    3    3  502    0 -0.16967497161E+04  0.62272788940E+03  0.18155475113E+03  0.18165169531E+04  0.46999998093E+01 0. -1.
       -5    1    3    3    0  502  0.16967497161E+04 -0.62272788940E+03 -0.80232588673E+02  0.18092011998E+04  0.46999998093E+01 0.  1.
</event>
<event>
 5   0  0.4811500E-07  0.3648314E+04  0.7818609E-02  0.8079514E-01
       -1   -1    0    0    0  501  0.00000000000E+00  0.00000000000E+00  0.20155655202E+04  0.20155655202E+04  0.50400001928E-02 0. -1.
        1   -1    0    0  501    0  0.00000000000E+00  0.00000000000E+00 -0.16509253890E+04  0.16509253890E+04  0.50400001928E-02 0.  1.
    10030    2    1    2    0    0  0.00000000000E+00  0.00000000000E+00  0.36464013119E+03  0.36664909092E+04  0.36483137423E+04 0.  0.
        5    1    3    3  502    0 -0.98723311814E+03  0.47401358964E+03 -0.12837862957E+04  0.16874381339E+04  0.46999998093E+01 0.  1.
       -5    1    3    3    0  502  0.98723311814E+03 -0.47401358964E+03  0.16484264269E+04  0.19790527753E+04  0.46999998093E+01 0. -1.
</event>
<event>
 5   0  0.1468942E-06  0.3621455E+04  0.7818609E-02  0.8085595E-01
        2   -1    0    0  501    0  0.00000000000E+00  0.00000000000E+00  0.21287661992E+04  0.21287661992E+04  0.25500000920E-02 0.  1.
       -2   -1    0    0    0  501  0.00000000000E+00  0.00000000000E+00 -0.15402038893E+04  0.15402038893E+04  0.25500000920E-02 0. -1.
    10030    2    1    2    0    0  0.00000000000E+00  0.00000000000E+00  0.58856230990E+03  0.36689700884E+04  0.36214549448E+04 0.  0.
        2    1    3    3  502    0  0.39173558147E+03  0.15766230785E+04  0.11044842209E+04  0.19644547568E+04  0.25500000920E-02 0.  1.
       -2    1    3    3    0  502 -0.39173558147E+03 -0.15766230785E+04 -0.51592191098E+03  0.17045153316E+04  0.25500000920E-02 0. -1.
</event>
<event>
 5   0  0.1379425E-06  0.3484538E+04  0.7818609E-02  0.8117464E-01
        2   -1    0    0  501    0  0.00000000000E+00  0.00000000000E+00  0.21495343043E+04  0.21495343043E+04  0.25500000920E-02 0. -1.
       -2   -1    0    0    0  501  0.00000000000E+00  0.00000000000E+00 -0.14121673158E+04  0.14121673158E+04  0.25500000920E-02 0.  1.
    10030    2    1    2    0    0  0.00000000000E+00  0.00000000000E+00  0.73736698851E+03  0.35617016200E+04  0.34845384708E+04 0.  0.
        4    1    3    3  502    0  0.15353775422E+04  0.74410490891E+03  0.72923277569E+03  0.18554941031E+04  0.12699999809E+01 0.  1.
       -4    1    3    3    0  502 -0.15353775422E+04 -0.74410490891E+03  0.81342128225E+01  0.17062075169E+04  0.12699999809E+01 0. -1.
</event>
<event>
 5   0  0.4811500E-07  0.3492406E+04  0.7818609E-02  0.8115592E-01
        1   -1    0    0  501    0  0.00000000000E+00  0.00000000000E+00  0.22112016212E+04  0.22112016212E+04  0.50400001928E-02 0. -1.
       -1   -1    0    0    0  501  0.00000000000E+00  0.00000000000E+00 -0.13789896952E+04  0.13789896952E+04  0.50400001928E-02 0.  1.
    10030    2    1    2    0    0  0.00000000000E+00  0.00000000000E+00  0.83221192606E+03  0.35901913164E+04  0.34924056177E+04 0.  0.
        4    1    3    3  502    0 -0.10343713618E+04 -0.29731546482E+03 -0.99749694155E+03  0.14674203083E+04  0.12699999809E+01 0.  1.
       -4    1    3    3    0  502  0.10343713618E+04  0.29731546482E+03  0.18297088676E+04  0.21227710081E+04  0.12699999809E+01 0. -1.
</event>
<event>
 5   0  0.1491854E-06  0.3462121E+04  0.7818609E-02  0.8122826E-01
       -2   -1    0    0    0  501  0.00000000000E+00  0.00000000000E+00  0.11646875098E+04  0.11646875098E+04  0.25500000920E-02 0.  1.
        2   -1    0    0  501    0  0.00000000000E+00  0.00000000000E+00 -0.25728538280E+04  0.25728538280E+04  0.25500000920E-02 0. -1.
    10030    2    1    2    0    0  0.00000000000E+00  0.00000000000E+00 -0.14081663182E+04  0.37375413378E+04  0.34621211521E+04 0.  0.
        5    1    3    3  502    0  0.62167734891E+02 -0.99838313733E+03  0.82107455190E+03  0.12941480696E+04  0.46999998093E+01 0.  1.
       -5    1    3    3    0  502 -0.62167734891E+02  0.99838313733E+03 -0.22292408701E+04  0.24433932682E+04  0.46999998093E+01 0. -1.
</event>
<event>
 5   0  0.1505671E-06  0.3373997E+04  0.7818609E-02  0.8144318E-01
        2   -1    0    0  501    0  0.00000000000E+00  0.00000000000E+00  0.24795812213E+04  0.24795812213E+04  0.25500000920E-02 0.  1.
       -2   -1    0    0    0  501  0.00000000000E+00  0.00000000000E+00 -0.11477596665E+04  0.11477596665E+04  0.25500000920E-02 0. -1.
    10030    2    1    2    0    0  0.00000000000E+00  0.00000000000E+00  0.13318215549E+04  0.36273408878E+04  0.33739966305E+04 0.  0.
        3    1    3    3  502    0 -0.31133407698E+03  0.12492501624E+04  0.18379080166E+04  0.22439832360E+04  0.10100000352E+00 0.  1.
       -3    1    3    3    0  502  0.31133407698E+03 -0.12492501624E+04 -0.50608646179E+03  0.13833576518E+04  0.10100000352E+00 0. -1.
</event>
<event>
 5   0  0.1379425E-06  0.3522089E+04  0.7818609E-02  0.8108575E-01
        2   -1    0    0  501    0  0.00000000000E+00  0.00000000000E+00  0.10706085292E+04  0.10706085292E+04  0.25500000920E-02 0. -1.
       -2   -1    0    0    0  501  0.00000000000E+00  0.00000000000E+00 -0.28967428004E+04  0.28967428004E+04  0.25500000920E-02 0.  1.
    10030    2    1    2    0    0  0.00000000000E+00  0.00000000000E+00 -0.18261342713E+04  0.39673513296E+04  0.35220888967E+04 0.  0.
        4    1    3    3  502    0  0.30040607468E+03 -0.14879508839E+04  0.92564325861E+02  0.15207930201E+04  0.12699999809E+01 0. -1.
       -4    1    3    3    0  502 -0.30040607468E+03  0.14879508839E+04 -0.19186985971E+04  0.24465583096E+04  0.12699999809E+01 0.  1.
</event>
<event>
 5   0  0.4811500E-07  0.3514444E+04  0.7818609E-02  0.8110375E-01
        1   -1    0    0  501    0  0.00000000000E+00  0.00000000000E+00  0.14433228621E+04  0.14433228621E+04  0.50400001928E-02 0.  1.
       -1   -1    0    0    0  501  0.00000000000E+00  0.00000000000E+00 -0.21393887650E+04  0.21393887650E+04  0.50400001928E-02 0. -1.
    10030    2    1    2    0    0  0.00000000000E+00  0.00000000000E+00 -0.69606590290E+03  0.35827116270E+04  0.35144437485E+04 0.  0.
        2    1    3    3  502    0 -0.10648537908E+04 -0.10444321699E+04 -0.12950982375E+04  0.19753560686E+04  0.25500000920E-02 0. -1.
       -2    1    3    3    0  502  0.10648537908E+04  0.10444321699E+04  0.59903233458E+03  0.16073555584E+04  0.25500000920E-02 0.  1.
</event>
<event>
 5   0  0.1505671E-06  0.3741291E+04  0.7818609E-02  0.8058872E-01
        2   -1    0    0  501    0  0.00000000000E+00  0.00000000000E+00  0.19632770476E+04  0.19632770476E+04  0.25500000920E-02 0. -1.
       -2   -1    0    0    0  501  0.00000000000E+00  0.00000000000E+00 -0.17823840455E+04  0.17823840455E+04  0.25500000920E-02 0.  1.
    10030    2    1    2    0    0  0.00000000000E+00  0.00000000000E+00  0.18089300212E+03  0.37456610931E+04  0.37412905188E+04 0.  0.
        3    1    3    3  502    0 -0.10890014962E+03 -0.15496704741E+04  0.11337655369E+04  0.19232166087E+04  0.10100000352E+00 0.  1.
       -3    1    3    3    0  502  0.10890014962E+03  0.15496704741E+04 -0.95287253479E+03  0.18224444844E+04  0.10100000352E+00 0. -1.
</event>
<event>
 5   0  0.4811500E-07  0.3679914E+04  0.7818609E-02  0.8072428E-01
        1   -1    0    0  501    0  0.00000000000E+00  0.00000000000E+00  0.16096526953E+04  0.16096526953E+04  0.50400001928E-02 0.  1.
       -1   -1    0    0    0  501  0.00000000000E+00  0.00000000000E+00 -0.21032122018E+04  0.21032122018E+04  0.50400001928E-02 0. -1.
    10030    2    1    2    0    0  0.00000000000E+00  0.00000000000E+00 -0.49355950649E+03  0.37128648971E+04  0.36799136889E+04 0.  0.
        3    1    3    3  502    0 -0.97580007045E+02  0.30882066003E+03  0.15806672306E+04  0.16135057985E+04  0.10100000352E+00 0.  1.
       -3    1    3    3    0  502  0.97580007045E+02 -0.30882066003E+03 -0.20742267371E+04  0.20993590986E+04  0.10100000352E+00 0. -1.
</event>
<event>
 5   0  0.1379425E-06  0.3657723E+04  0.7818609E-02  0.8077396E-01
        2   -1    0    0  501    0  0.00000000000E+00  0.00000000000E+00  0.28768552155E+04  0.28768552155E+04  0.25500000920E-02 0. -1.
       -2   -1    0    0    0  501  0.00000000000E+00  0.00000000000E+00 -0.11626355883E+04  0.11626355883E+04  0.25500000920E-02 0.  1.
    10030    2    1    2    0    0  0.00000000000E+00  0.00000000000E+00  0.17142196272E+04  0.40394908038E+04  0.36577229288E+04 0.  0.
        4    1    3    3  502    0  0.31232616616E+02 -0.13258606713E+04 -0.53363343685E+03  0.14295622595E+04  0.12699999809E+01 0.  1.
       -4    1    3    3    0  502 -0.31232616616E+02  0.13258606713E+04  0.22478530640E+04  0.26099285443E+04  0.12699999809E+01 0. -1.
</event>
<event>
 5   0  0.5071661E-07  0.3587799E+04  0.7818609E-02  0.8093292E-01
       -1   -1    0    0    0  501  0.00000000000E+00  0.00000000000E+00  0.17871614708E+04  0.17871614708E+04  0.50400001928E-02 0. -1.
        1   -1    0    0  501    0  0.00000000000E+00  0.00000000000E+00 -0.18006627537E+04  0.18006627537E+04  0.50400001928E-02 0.  1.
    10030    2    1    2    0    0  0.00000000000E+00  0.00000000000E+00 -0.13501282886E+02  0.35878242245E+04  0.35877988212E+04 0.  0.
        1    1    3    3  502    0  0.14146634758E+04 -0.31101772385E+02 -0.11094075430E+04  0.17980615025E+04  0.50400001928E-02 0.  1.
       -1    1    3    3    0  502 -0.14146634758E+04  0.31101772385E+02  0.10959062601E+04  0.17897627220E+04  0.50400001928E-02 0. -1.
</event>
<event>
 5   0  0.1491854E-06  0.3486734E+04  0.7818609E-02  0.8116941E-01
       -2   -1    0    0    0  501  0.00000000000E+00  0.00000000000E+00  0.16174849699E+04  0.16174849699E+04  0.25500000920E-02 0.  1.
        2   -1    0    0  501    0  0.00000000000E+00  0.00000000000E+00 -0.18790453925E+04  0.18790453925E+04  0.25500000920E-02 0. -1.
    10030    2    1    2    0    0  0.00000000000E+00  0.00000000000E+00 -0.26156042260E+03  0.34965303624E+04  0.34867335316E+04 0.  0.
        5    1    3    3  502    0 -0.14224866428E+04 -0.99520574716E+03  0.29050366567E+02  0.17363089420E+04  0.46999998093E+01 0.  1.
       -5    1    3    3    0  502  0.14224866428E+04  0.99520574716E+03 -0.29061078917E+03  0.17602214204E+04  0.46999998093E+01 0. -1.
</event>
<event>
 5   0  0.4811500E-07  0.3392365E+04  0.7818609E-02  0.8139783E-01
        1   -1    0    0  501    0  0.00000000000E+00  0.00000000000E+00  0.30464701145E+04  0.30464701145E+04  0.50400001928E-02 0.  1.
       -1   -1    0    0    0  501  0.00000000000E+00  0.00000000000E+00 -0.94438305203E+03  0.94438305205E+03  0.50400001928E-02 0. -1.
    10030    2    1    2    0    0  0.00000000000E+00  0.00000000000E+00  0.21020870624E+04  0.39908531665E+04  0.33923648063E+04 0.  0.
        5    1    3    3  502    0  0.38497636136E+03 -0.11196847973E+04  0.24798574439E+04  0.27480203559E+04  0.46999998093E+01 0.  1.
       -5    1    3    3    0  502 -0.38497636136E+03  0.11196847973E+04 -0.37777038143E+03  0.12428328107E+04  0.46999998093E+01 0. -1.
</event>
<event>
 5   0  0.4811500E-07  0.3585414E+04  0.7818609E-02  0.8093841E-01
       -1   -1    0    0    0  501  0.00000000000E+00  0.00000000000E+00  0.11610811176E+04  0.11610811176E+04  0.50400001928E-02 0.  1.
        1   -1    0    0  501    0  0.00000000000E+00  0.00000000000E+00 -0.27679359056E+04  0.27679359056E+04  0.50400001928E-02 0. -1.
    10030    2    1    2    0    0  0.00000000000E+00  0.00000000000E+00 -0.16068547880E+04  0.39290170232E+04  0.35854138477E+04 0.  0.
        5    1    3    3  502    0  0.16907610401E+04 -0.55875310555E+03 -0.10303948728E+04  0.20573316727E+04  0.46999998093E+01 0. -1.
       -5    1    3    3    0  502 -0.16907610401E+04  0.55875310555E+03 -0.57645991516E+03  0.18716853505E+04  0.46999998093E+01 0.  1.
</event>
<event>
 5   0  0.1491854E-06  0.3574641E+04  0.7818609E-02  0.8096325E-01
        2   -1    0    0  501    0  0.00000000000E+00  0.00000000000E+00  0.22536167444E+04  0.22536167444E+04  0.25500000920E-02 0. -1.
       -2   -1    0    0    0  501  0.00000000000E+00  0.00000000000E+00 -0.14175053179E+04  0.14175053179E+04  0.25500000920E-02 0.  1.
    10030    2    1    2    0    0  0.00000000000E+00  0.00000000000E+00  0.83611142652E+03  0.36711220623E+04  0.35746405244E+04 0.  0.
        5    1    3    3  502    0  0.16839379708E+04  0.36395062316E+03 -0.70585146274E+02  0.17242712949E+04  0.46999998093E+01 0.  1.
       -5    1    3    3    0  502 -0.16839379708E+04 -0.36395062316E+03  0.90669657279E+03  0.19468507674E+04  0.46999998093E+01 0. -1.
</event>
<event>
 5   0  0.4811500E-07  0.3614084E+04  0.7818609E-02  0.8087273E-01
        1   -1    0    0  501    0  0.00000000000E+00  0.00000000000E+00  0.15801849310E+04  0.15801849310E+04  0.50400001928E-02 0.  1.
       -1   -1    0    0    0  501  0.00000000000E+00  0.00000000000E+00 -0.20664669660E+04  0.20664669660E+04  0.50400001928E-02 0. -1.
    10030    2    1    2    0    0  0.00000000000E+00  0.00000000000E+00 -0.48628203501E+03  0.36466518970E+04  0.36140835409E+04 0.  0.
        4    1    3    3  502    0  0.86863198442E+02 -0.38444401799E+02  0.15776635649E+04  0.15805211559E+04  0.12699999809E+01 0.  1.
       -4    1    3    3    0  502 -0.86863198442E+02  0.38444401799E+02 -0.20639455999E+04  0.20661307411E+04  0.12699999809E+01 0. -1.
</event>
<event>
 5   0  0.4811500E-07  0.3640186E+04  0.7818609E-02  0.8081348E-01
       -1   -1    0    0    0  501  0.00000000000E+00  0.00000000000E+00  0.16871722717E+04  0.16871722717E+04  0.50400001928E-02 0. -1.
        1   -1    0    0  501    0  0.00000000000E+00  0.00000000000E+00 -0.19634851997E+04  0.19634851997E+04  0.50400001928E-02 0.  1.
    10030    2    1    2    0    0  0.00000000000E+00  0.00000000000E+00 -0.27631292799E+03  0.36506574714E+04  0.36401855914E+04 0.  0.
        4    1    3    3  502    0 -0.14551342228E+04 -0.75823602382E+03  0.65176333425E+03  0.17655408608E+04  0.12699999809E+01 0. -1.
       -4    1    3    3    0  502  0.14551342228E+04  0.75823602382E+03 -0.92807626224E+03  0.18851166107E+04  0.12699999809E+01 0.  1.
</event>
<event>
 5   0  0.4811500E-07  0.3497536E+04  0.7818609E-02  0.8114374E-01
       -1   -1    0    0    0  501  0.00000000000E+00  0.00000000000E+00  0.10711289287E+04  0.10711289287E+04  0.50400001928E-02 0.  1.
        1   -1    0    0  501    0  0.00000000000E+00  0.00000000000E+00 -0.28551095098E+04  0.28551095098E+04  0.50400001928E-02 0. -1.
    10030    2    1    2    0    0  0.00000000000E+00  0.00000000000E+00 -0.17839805811E+04  0.39262384385E+04  0.34975364990E+04 0.  0.
        5    1    3    3  502    0 -0.12452205296E+04 -0.12274941886E+04 -0.85922058723E+03  0.19482295188E+04  0.46999998093E+01 0. -1.
       -5    1    3    3    0  502  0.12452205296E+04  0.12274941886E+04 -0.92475999384E+03  0.19780089197E+04  0.46999998093E+01 0.  1.
</event>
<event>
 5   0  0.4811500E-07  0.3262909E+04  0.7818609E-02  0.8172398E-01
        1   -1    0    0  501    0  0.00000000000E+00  0.00000000000E+00  0.29569705730E+04  0.29569705730E+04  0.50400001928E-02 0.  1.
       -1   -1    0    0    0  501  0.00000000000E+00  0.00000000000E+00 -0.90012520991E+03  0.90012520993E+03  0.50400001928E-02 0. -1.
    10030    2    1    2    0    0  0.00000000000E+00  0.00000000000E+00  0.20568453631E+04  0.38570957829E+04  0.32629089830E+04 0.  0.
        2    1    3    3  502    0  0.43592036616E+03  0.97149089041E+03 -0.43271767197E+03  0.11493762219E+04  0.25500000920E-02 0. -1.
       -2    1    3    3    0  502 -0.43592036616E+03 -0.97149089041E+03  0.24895630351E+04  0.27077195611E+04  0.25500000920E-02 0.  1.
</event>
<event>
 5   0  0.4811500E-07  0.3675006E+04  0.7818609E-02  0.8073524E-01
        1   -1    0    0  501    0  0.00000000000E+00  0.00000000000E+00  0.22792494324E+04  0.22792494324E+04  0.50400001928E-02 0.  1.
       -1   -1    0    0    0  501  0.00000000000E+00  0.00000000000E+00 -0.14813721476E+04  0.14813721476E+04  0.50400001928E-02 0. -1.
    10030    2    1    2    0    0  0.00000000000E+00  0.00000000000E+00  0.79787728474E+03  0.37606215800E+04  0.36750056471E+04 0.  0.
        4    1    3    3  502    0 -0.17745008298E+03 -0.13937975353E+04 -0.81281716053E+03  0.16232170066E+04  0.12699999809E+01 0. -1.
       -4    1    3    3    0  502  0.17745008298E+03  0.13937975353E+04  0.16106944453E+04  0.21374045734E+04  0.12699999809E+01 0.  1.
</event>
<event>
 5   0  0.4811500E-07  0.3235717E+04  0.7818609E-02  0.8179448E-01
       -1   -1    0    0    0  501  0.00000000000E+00  0.00000000000E+00  0.11949320827E+04  0.11949320827E+04  0.50400001928E-02 0. -1.
        1   -1    0    0  501    0  0.00000000000E+00  0.00000000000E+00 -0.21904731115E+04  0.21904731115E+04  0.50400001928E-02 0.  1.
    10030    2    1    2    0    0  0.00000000000E+00  0.00000000000E+00 -0.99554102880E+03  0.33854051942E+04  0.32357172912E+04 0.  0.
        4    1    3    3  502    0 -0.43267199015E+03 -0.51320254648E+03  0.10423610641E+04  0.12397984133E+04  0.12699999809E+01 0. -1.
       -4    1    3    3    0  502  0.43267199015E+03  0.51320254648E+03 -0.20379020929E+04  0.21456067808E+04  0.12699999809E+01 0.  1.
</event>
<event>
 5   0  0.5071661E-07  0.3597895E+04  0.7818609E-02  0.8090974E-01
        1   -1    0    0  501    0  0.00000000000E+00  0.00000000000E+00  0.19146655712E+04  0.19146655712E+04  0.50400001928E-02 0.  1.
       -1   -1    0    0    0  501  0.00000000000E+00  0.00000000000E+00 -0.16902231585E+04  0.16902231585E+04  0.50400001928E-02 0. -1.
    10030    2    1    2    0    0  0.00000000000E+00  0.00000000000E+00  0.22444241273E+03  0.36048887297E+04  0.35978949897E+04 0.  0.
        1    1    3    3  502    0 -0.51688316794E+02 -0.10248234868E+04 -0.13682426974E+04  0.17102698442E+04  0.50400001928E-02 0. -1.
       -1    1    3    3    0  502  0.51688316794E+02  0.10248234868E+04  0.15926851101E+04  0.18946188855E+04  0.50400001928E-02 0.  1.
</event>
<event>
 5   0  0.1468942E-06  0.3755007E+04  0.7818609E-02  0.8055880E-01
        2   -1    0    0  501    0  0.00000000000E+00  0.00000000000E+00  0.32632830642E+04  0.32632830642E+04  0.25500000920E-02 0. -1.
       -2   -1    0    0    0  501  0.00000000000E+00  0.00000000000E+00 -0.10802065315E+04  0.10802065315E+04  0.25500000920E-02 0.  1.
    10030    2    1    2    0    0  0.00000000000E+00  0.00000000000E+00  0.21830765328E+04  0.43434895957E+04  0.37550071531E+04 0.  0.
        2    1    3    3  502    0  0.47769486891E+03  0.17611996769E+04  0.16023356365E+04  0.24284761027E+04  0.25500000920E-02 0. -1.
       -2    1    3    3    0  502 -0.47769486891E+03 -0.17611996769E+04  0.58074089628E+03  0.19150134930E+04  0.25500000920E-02 0.  1.
</event>
<event>
 5   0  0.5071661E-07  0.3598322E+04  0.7818609E-02  0.8090876E-01
        1   -1    0    0  501    0  0.00000000000E+00  0.00000000000E+00  0.28254754296E+04  0.28254754296E+04  0.50400001928E-02 0. -1.
       -1   -1    0    0    0  501  0.00000000000E+00  0.00000000000E+00 -0.11456411118E+04  0.11456411119E+04  0.50400001928E-02 0.  1.
    10030    2    1    2    0    0  0.00000000000E+00  0.00000000000E+00  0.16798343178E+04  0.39711165415E+04  0.35983222828E+04 0.  0.
        1    1    3    3  502    0  0.14928522457E+04 -0.23069296586E+02 -0.26800319427E+03  0.15168934478E+04  0.50400001928E-02 0.  1.
       -1    1    3    3    0  502 -0.14928522457E+04  0.23069296586E+02  0.19478375120E+04  0.24542230936E+04  0.50400001928E-02 0. -1.
</event>
<event>
 5   0  0.4811500E-07  0.3631872E+04  0.7818609E-02  0.8083230E-01
        1   -1    0    0  501    0  0.00000000000E+00  0.00000000000E+00  0.15821050784E+04  0.15821050784E+04  0.50400001928E-02 0.  1.
       -1   -1    0    0    0  501  0.00000000000E+00  0.00000000000E+00 -0.20843269658E+04  0.20843269658E+04  0.50400001928E-02 0. -1.
    10030    2    1    2    0    0  0.00000000000E+00  0.00000000000E+00 -0.50222188739E+03  0.36664320442E+04  0.36318723973E+04 0.  0.
        4    1    3    3  502    0  0.12468924335E+04 -0.13194163419E+04 -0.20571145597E+03  0.18269972742E+04  0.12699999809E+01 0. -1.
       -4    1    3    3    0  502 -0.12468924335E+04  0.13194163419E+04 -0.29651043142E+03  0.18394347700E+04  0.12699999809E+01 0.  1.
</event>
<event>
 5   0  0.1491854E-06  0.3460013E+04  0.7818609E-02  0.8123332E-01
        2   -1    0    0  501    0  0.00000000000E+00  0.00000000000E+00  0.23327548876E+04  0.23327548876E+04  0.25500000920E-02 0.  1.
       -2   -1    0    0    0  501  0.00000000000E+00  0.00000000000E+00 -0.12829989179E+04  0.12829989179E+04  0.25500000920E-02 0. -1.
    10030    2    1    2    0    0  0.00000000000E+00  0.00000000000E+00  0.10497559697E+04  0.36157538054E+04  0.34600127147E+04 0.  0.
        5    1    3    3  502    0  0.10186447012E+04  0.36519320948E+02 -0.93587092492E+03  0.13837800281E+04  0.46999998093E+01 0. -1.
       -5    1    3    3    0  502 -0.10186447012E+04 -0.36519320948E+02  0.19856268946E+04  0.22319737773E+04  0.46999998093E+01 0.  1.
</event>
<event>
 5   0  0.1491854E-06  0.2227725E+04  0.7818609E-02  0.8506976E-01
        2   -1    0    0  501    0  0.00000000000E+00  0.00000000000E+00  0.17317788239E+04  0.17317788239E+04  0.25500000920E-02 0. -1.
       -2   -1    0    0    0  501  0.00000000000E+00  0.00000000000E+00 -0.71642514498E+03  0.71642514499E+03  0.25500000920E-02 0.  1.
    10030    2    1    2    0    0  0.00000000000E+00  0.00000000000E+00  0.10153536789E+04  0.24482039689E+04  0.22277252030E+04 0.  0.
        5    1    3    3  502    0  0.77620198891E+02 -0.46685105484E+02 -0.71236014696E+03  0.71811103830E+03  0.46999998093E+01 0.  1.
       -5    1    3    3    0  502 -0.77620198891E+02  0.46685105484E+02  0.17277138259E+04  0.17300929306E+04  0.46999998093E+01 0. -1.
</event>
<event>
 5   0  0.4811500E-07  0.3601055E+04  0.7818609E-02  0.8090250E-01
       -1   -1    0    0    0  501  0.00000000000E+00  0.00000000000E+00  0.14600160967E+04  0.14600160967E+04  0.50400001928E-02 0. -1.
        1   -1    0    0  501    0  0.00000000000E+00  0.00000000000E+00 -0.22204539972E+04  0.22204539972E+04  0.50400001928E-02 0.  1.
    10030    2    1    2    0    0  0.00000000000E+00  0.00000000000E+00 -0.76043790047E+03  0.36804700938E+04  0.36010546110E+04 0.  0.
        3    1    3    3  502    0  0.44403853547E+03  0.47168403921E+03 -0.20972207501E+04  0.21949922411E+04  0.10100000352E+00 0.  1.
       -3    1    3    3    0  502 -0.44403853547E+03 -0.47168403921E+03  0.13367828496E+04  0.14854778527E+04  0.10100000352E+00 0. -1.
</event>
<event>
 5   0  0.4811500E-07  0.3665975E+04  0.7818609E-02  0.8075544E-01
        1   -1    0    0  501    0  0.00000000000E+00  0.00000000000E+00  0.13693417460E+04  0.13693417460E+04  0.50400001928E-02 0. -1.
       -1   -1    0    0    0  501  0.00000000000E+00  0.00000000000E+00 -0.24536193889E+04  0.24536193889E+04  0.50400001928E-02 0.  1.
    10030    2    1    2    0    0  0.00000000000E+00  0.00000000000E+00 -0.10842776429E+04  0.38229611350E+04  0.36659751544E+04 0.  0.
        4    1    3    3  502    0  0.13857497572E+04  0.36666684039E+03  0.64918934325E+03  0.15735931423E+04  0.12699999809E+01 0. -1.
       -4    1    3    3    0  502 -0.13857497572E+04 -0.36666684039E+03 -0.17334669861E+04  0.22493679926E+04  0.12699999809E+01 0.  1.
</event>
<event>
 5   0  0.4811500E-07  0.3444546E+04  0.7818609E-02  0.8127059E-01
       -1   -1    0    0    0  501  0.00000000000E+00  0.00000000000E+00  0.22723097051E+04  0.22723097051E+04  0.50400001928E-02 0.  1.
        1   -1    0    0  501    0  0.00000000000E+00  0.00000000000E+00 -0.13053785379E+04  0.13053785379E+04  0.50400001928E-02 0. -1.
    10030    2    1    2    0    0  0.00000000000E+00  0.00000000000E+00  0.96693116714E+03  0.35776882430E+04  0.34445460197E+04 0.  0.
        4    1    3    3  502    0  0.15654415302E+04 -0.52894625562E+03  0.98786119603E+03  0.19251656244E+04  0.12699999809E+01 0.  1.
       -4    1    3    3    0  502 -0.15654415302E+04  0.52894625562E+03 -0.20930028891E+02  0.16525226186E+04  0.12699999809E+01 0. -1.
</event>
<event>
 5   0  0.1379425E-06  0.3655051E+04  0.7818609E-02  0.8077997E-01
        2   -1    0    0  501    0  0.00000000000E+00  0.00000000000E+00  0.23639204329E+04  0.23639204329E+04  0.25500000920E-02 0.  1.
       -2   -1    0    0    0  501  0.00000000000E+00  0.00000000000E+00 -0.14128432026E+04  0.14128432026E+04  0.25500000920E-02 0. -1.
    10030    2    1    2    0    0  0.00000000000E+00  0.00000000000E+00  0.95107723022E+03  0.37767636355E+04  0.36550507056E+04 0.  0.
        4    1    3    3  502    0 -0.15804163547E+04 -0.90206372929E+03  0.64971165970E+03  0.19322426554E+04  0.12699999809E+01 0. -1.
       -4    1    3    3    0  502  0.15804163547E+04  0.90206372929E+03  0.30136557053E+03  0.18445209801E+04  0.12699999809E+01 0.  1.
</event>
<event>
 5   0  0.4811500E-07  0.3361356E+04  0.7818609E-02  0.8147456E-01
       -1   -1    0    0    0  501  0.00000000000E+00  0.00000000000E+00  0.15823113171E+04  0.15823113171E+04  0.50400001928E-02 0.  1.
        1   -1    0    0  501    0  0.00000000000E+00  0.00000000000E+00 -0.17851599679E+04  0.17851599679E+04  0.50400001928E-02 0. -1.
    10030    2    1    2    0    0  0.00000000000E+00  0.00000000000E+00 -0.20284865078E+03  0.33674712851E+04  0.33613561669E+04 0.  0.
        5    1    3    3  502    0 -0.16606631330E+03 -0.15228724795E+04 -0.79401271135E+03  0.17254555587E+04  0.46999998093E+01 0. -1.
       -5    1    3    3    0  502  0.16606631330E+03  0.15228724795E+04  0.59116406057E+03  0.16420157264E+04  0.46999998093E+01 0.  1.
</event>
<event>
 5   0  0.4811500E-07  0.3587494E+04  0.7818609E-02  0.8093362E-01
        1   -1    0    0  501    0  0.00000000000E+00  0.00000000000E+00  0.20468893447E+04  0.20468893447E+04  0.50400001928E-02 0.  1.
       -1   -1    0    0    0  501  0.00000000000E+00  0.00000000000E+00 -0.15719108413E+04  0.15719108413E+04  0.50400001928E-02 0. -1.
    10030    2    1    2    0    0  0.00000000000E+00  0.00000000000E+00  0.47497850333E+03  0.36188001860E+04  0.35874935829E+04 0.  0.
        3    1    3    3  502    0 -0.10326705566E+04  0.66232524739E+03 -0.10825343672E+04  0.16361429883E+04  0.10100000352E+00 0. -1.
       -3    1    3    3    0  502  0.10326705566E+04 -0.66232524739E+03  0.15575128705E+04  0.19826571977E+04  0.10100000352E+00 0.  1.
</event>
<event>
 5   0  0.1468942E-06  0.2289854E+04  0.7818609E-02  0.8481932E-01
       -2   -1    0    0    0  501  0.00000000000E+00  0.00000000000E+00  0.66926244156E+03  0.66926244156E+03  0.25500000920E-02 0. -1.
        2   -1    0    0  501    0  0.00000000000E+00  0.00000000000E+00 -0.19586610044E+04  0.19586610044E+04  0.25500000920E-02 0.  1.
    10030    2    1    2    0    0  0.00000000000E+00  0.00000000000E+00 -0.12893985628E+04  0.26279234459E+04  0.22898543587E+04 0.  0.
        2    1    3    3  502    0 -0.10194398666E+04 -0.39928311934E+03 -0.26032867572E+03  0.11253691263E+04  0.25500000920E-02 0. -1.
       -2    1    3    3    0  502  0.10194398666E+04  0.39928311934E+03 -0.10290698871E+04  0.15025543197E+04  0.25500000920E-02 0.  1.
</event>
<event>
 5   0  0.1491854E-06  0.3633178E+04  0.7818609E-02  0.8082934E-01
       -2   -1    0    0    0  501  0.00000000000E+00  0.00000000000E+00  0.15594419167E+04  0.15594419167E+04  0.25500000920E-02 0.  1.
        2   -1    0    0  501    0  0.00000000000E+00  0.00000000000E+00 -0.21161383897E+04  0.21161383897E+04  0.25500000920E-02 0. -1.
    10030    2    1    2    0    0  0.00000000000E+00  0.00000000000E+00 -0.55669647300E+03  0.36755803064E+04  0.36331776210E+04 0.  0.
        5    1    3    3  502    0  0.91316449362E+03  0.50923421769E+01  0.13103545058E+04  0.15971682270E+04  0.46999998093E+01 0.  1.
       -5    1    3    3    0  502 -0.91316449362E+03 -0.50923421769E+01 -0.18670509788E+04  0.20784120794E+04  0.46999998093E+01 0. -1.
</event>
<event>
 5   0  0.1505671E-06  0.3516769E+04  0.7818609E-02  0.8109827E-01
       -2   -1    0    0    0  501  0.00000000000E+00  0.00000000000E+00  0.22123073546E+04  0.22123073546E+04  0.25500000920E-02 0.  1.
        2   -1    0    0  501    0  0.00000000000E+00  0.00000000000E+00 -0.13975979186E+04  0.13975979186E+04  0.25500000920E-02 0. -1.
    10030    2    1    2    0    0  0.00000000000E+00  0.00000000000E+00  0.81470943604E+03  0.36099052732E+04  0.35167690593E+04 0.  0.
        3    1    3    3  502    0 -0.10733576586E+04 -0.11148174363E+04  0.12643310592E+04  0.19983612329E+04  0.10100000352E+00 0.  1.
       -3    1    3    3    0  502  0.10733576586E+04  0.11148174363E+04 -0.44962162317E+03  0.16115440403E+04  0.10100000352E+00 0. -1.
</event>
<event>
 5   0  0.4811500E-07  0.3372514E+04  0.7818609E-02  0.8144685E-01
       -1   -1    0    0    0  501  0.00000000000E+00  0.00000000000E+00  0.28974207899E+04  0.28974207899E+04  0.50400001928E-02 0. -1.
        1   -1    0    0  501    0  0.00000000000E+00  0.00000000000E+00 -0.98137711599E+03  0.98137711600E+03  0.50400001928E-02 0.  1.
    10030    2    1    2    0    0  0.00000000000E+00  0.00000000000E+00  0.19160436740E+04  0.38787979059E+04  0.33725138746E+04 0.  0.
        2    1    3    3  502    0 -0.74807866997E+02  0.10584623237E+04  0.24653047752E+04  0.26839646686E+04  0.25500000920E-02 0. -1.
       -2    1    3    3    0  502  0.74807866997E+02 -0.10584623237E+04 -0.54926110127E+03  0.11948332373E+04  0.25500000920E-02 0.  1.
</event>
<event>
 5   0  0.1505671E-06  0.2291681E+04  0.7818609E-02  0.8481208E-01
       -2   -1    0    0    0  501  0.00000000000E+00  0.00000000000E+00  0.60820905431E+03  0.60820905431E+03  0.25500000920E-02 0. -1.
        2   -1    0    0  501    0  0.00000000000E+00  0.00000000000E+00 -0.21587156217E+04  0.21587156217E+04  0.25500000920E-02 0.  1.
    10030    2    1    2    0    0  0.00000000000E+00  0.00000000000E+00 -0.15505065674E+04  0.27669246760E+04  0.22916809436E+04 0.  0.
        3    1    3    3  502    0 -0.64450314361E+03 -0.19223184512E+02  0.36838050739E+03  0.74260220938E+03  0.10100000352E+00 0. -1.
       -3    1    3    3    0  502  0.64450314361E+03  0.19223184512E+02 -0.19188870748E+04  0.20243224666E+04  0.10100000352E+00 0.  1.
</event>
<event>
 5   0  0.4811500E-07  0.2404014E+04  0.7818609E-02  0.8438002E-01
       -1   -1    0    0    0  501  0.00000000000E+00  0.00000000000E+00  0.88397712571E+03  0.88397712573E+03  0.50400001928E-02 0. -1.
        1   -1    0    0  501    0  0.00000000000E+00  0.00000000000E+00 -0.16344548718E+04  0.16344548718E+04  0.50400001928E-02 0.  1.
    10030    2    1    2    0    0  0.00000000000E+00  0.00000000000E+00 -0.75047774610E+03  0.25184319976E+04  0.24040139099E+04 0.  0.
        5    1    3    3  502    0 -0.33277691344E+02 -0.25898392418E+03 -0.16043752198E+04  0.16254913146E+04  0.46999998093E+01 0.  1.
       -5    1    3    3    0  502  0.33277691344E+02  0.25898392418E+03  0.85389747372E+03  0.89294068300E+03  0.46999998093E+01 0. -1.
</event>
<event>
 5   0  0.4811500E-07  0.3698794E+04  0.7818609E-02  0.8068229E-01
       -1   -1    0    0    0  501  0.00000000000E+00  0.00000000000E+00  0.15095850270E+04  0.15095850270E+04  0.50400001928E-02 0.  1.
        1   -1    0    0  501    0  0.00000000000E+00  0.00000000000E+00 -0.22657017210E+04  0.22657017210E+04  0.50400001928E-02 0. -1.
    10030    2    1    2    0    0  0.00000000000E+00  0.00000000000E+00 -0.75611669400E+03  0.37752867479E+04  0.36987940703E+04 0.  0.
        3    1    3    3  502    0  0.16579117886E+04 -0.62266089074E+03 -0.92189169173E+03  0.19965626424E+04  0.10100000352E+00 0. -1.
       -3    1    3    3    0  502 -0.16579117886E+04  0.62266089074E+03  0.16577499773E+03  0.17787241055E+04  0.10100000352E+00 0.  1.
</event>
<event>
 5   0  0.4811500E-07  0.3552142E+04  0.7818609E-02  0.8101543E-01
       -1   -1    0    0    0  501  0.00000000000E+00  0.00000000000E+00  0.10995323488E+04  0.10995323488E+04  0.50400001928E-02 0.  1.
        1   -1    0    0  501    0  0.00000000000E+00  0.00000000000E+00 -0.28688813538E+04  0.28688813538E+04  0.50400001928E-02 0. -1.
    10030    2    1    2    0    0  0.00000000000E+00  0.00000000000E+00 -0.17693490050E+04  0.39684137026E+04  0.35521418065E+04 0.  0.
        4    1    3    3  502    0 -0.39981351131E+03  0.71603707963E+03  0.87533833767E+03  0.11994910427E+04  0.12699999809E+01 0.  1.
       -4    1    3    3    0  502  0.39981351131E+03 -0.71603707963E+03 -0.26446873427E+04  0.27689226599E+04  0.12699999809E+01 0. -1.
</event>
<event>
 5   0  0.1379425E-06  0.3545872E+04  0.7818609E-02  0.8103004E-01
        2   -1    0    0  501    0  0.00000000000E+00  0.00000000000E+00  0.17129751880E+04  0.17129751880E+04  0.25500000920E-02 0. -1.
       -2   -1    0    0    0  501  0.00000000000E+00  0.00000000000E+00 -0.18349961071E+04  0.18349961071E+04  0.25500000920E-02 0.  1.
    10030    2    1    2    0    0  0.00000000000E+00  0.00000000000E+00 -0.12202091910E+03  0.35479712952E+04  0.35458724183E+04 0.  0.
        4    1    3    3  502    0  0.14056888111E+04 -0.31648489403E+03 -0.10946647589E+04  0.18095348212E+04  0.12699999809E+01 0.  1.
       -4    1    3    3    0  502 -0.14056888111E+04  0.31648489403E+03  0.97264383984E+03  0.17384364740E+04  0.12699999809E+01 0. -1.
</event>
<event>
 5   0  0.4811500E-07  0.3624570E+04  0.7818609E-02  0.8084887E-01
       -1   -1    0    0    0  501  0.00000000000E+00  0.00000000000E+00  0.11396074474E+04  0.11396074474E+04  0.50400001928E-02 0. -1.
        1   -1    0    0  501    0  0.00000000000E+00  0.00000000000E+00 -0.28820254012E+04  0.28820254012E+04  0.50400001928E-02 0.  1.
    10030    2    1    2    0    0  0.00000000000E+00  0.00000000000E+00 -0.17424179538E+04  0.40216328487E+04  0.36245703806E+04 0.  0.
        4    1    3    3  502    0  0.11102114668E+03  0.17315067260E+04 -0.29048540431E+03  0.17592113631E+04  0.12699999809E+01 0. -1.
       -4    1    3    3    0  502 -0.11102114668E+03 -0.17315067260E+04 -0.14519325495E+04  0.22624214856E+04  0.12699999809E+01 0.  1.
</event>
<event>
 5   0  0.1491854E-06  0.3632802E+04  0.7818609E-02  0.8083019E-01
        2   -1    0    0  501    0  0.00000000000E+00  0.00000000000E+00  0.24859232126E+04  0.24859232126E+04  0.25500000920E-02 0.  1.
       -2   -1    0    0    0  501  0.00000000000E+00  0.00000000000E+00 -0.13271981674E+04  0.13271981674E+04  0.25500000920E-02 0. -1.
    10030    2    1    2    0    0  0.00000000000E+00  0.00000000000E+00  0.11587250452E+04  0.38131213801E+04  0.36328020767E+04 0.  0.
        5    1    3    3  502    0 -0.61267591696E+03 -0.47397617490E+03  0.23038565346E+04  0.24305970904E+04  0.46999998093E+01 0.  1.
       -5    1    3    3    0  502  0.61267591696E+03  0.47397617490E+03 -0.11451314894E+04  0.13825242897E+04  0.46999998093E+01 0. -1.
</event>
<event>
 5   0  0.4811500E-07  0.3553140E+04  0.7818609E-02  0.8101311E-01
       -1   -1    0    0    0  501  0.00000000000E+00  0.00000000000E+00  0.20829918610E+04  0.20829918610E+04  0.50400001928E-02 0. -1.
        1   -1    0    0  501    0  0.00000000000E+00  0.00000000000E+00 -0.15152247064E+04  0.15152247064E+04  0.50400001928E-02 0.  1.
    10030    2    1    2    0    0  0.00000000000E+00  0.00000000000E+00  0.56776715457E+03  0.35982165674E+04  0.35531398684E+04 0.  0.
        3    1    3    3  502    0 -0.14277698060E+04  0.99600370583E+03  0.64285302402E+03  0.18557505279E+04  0.10100000352E+00 0. -1.
       -3    1    3    3    0  502  0.14277698060E+04 -0.99600370583E+03 -0.75085869445E+02  0.17424660395E+04  0.10100000352E+00 0.  1.
</event>
<event>
 5   0  0.1468942E-06  0.3641860E+04  0.7818609E-02  0.8080970E-01
       -2   -1    0    0    0  501  0.00000000000E+00  0.00000000000E+00  0.13620950893E+04  0.13620950893E+04  0.25500000920E-02 0. -1.
        2   -1    0    0  501    0  0.00000000000E+00  0.00000000000E+00 -0.24343279457E+04  0.24343279457E+04  0.25500000920E-02 0.  1.
    10030    2    1    2    0    0  0.00000000000E+00  0.00000000000E+00 -0.10722328564E+04  0.37964230350E+04  0.36418600416E+04 0.  0.
        2    1    3    3  502    0 -0.12439115933E+04 -0.28162045107E+03 -0.18909524777E+04  0.22808611100E+04  0.25500000920E-02 0.  1.
       -2    1    3    3    0  502  0.12439115933E+04  0.28162045107E+03  0.81871962125E+03  0.15155619250E+04  0.25500000920E-02 0. -1.
</event>
<event>
 5   0  0.1379425E-06  0.3647303E+04  0.7818609E-02  0.8079741E-01
       -2   -1    0    0    0  501  0.00000000000E+00  0.00000000000E+00  0.15879362335E+04  0.15879362335E+04  0.25500000920E-02 0. -1.
        2   -1    0    0  501    0  0.00000000000E+00  0.00000000000E+00 -0.20943567722E+04  0.20943567722E+04  0.25500000920E-02 0.  1.
    10030    2    1    2    0    0  0.00000000000E+00  0.00000000000E+00 -0.50642053862E+03  0.36822930057E+04  0.36473031157E+04 0.  0.
        4    1    3    3  502    0  0.15043770808E+04 -0.93459331686E+03  0.18580420547E+03  0.17807694643E+04  0.12699999809E+01 0. -1.
       -4    1    3    3    0  502 -0.15043770808E+04  0.93459331686E+03 -0.69222474408E+03  0.19015235414E+04  0.12699999809E+01 0.  1.
</event>
<event>
 5   0  0.1468942E-06  0.3664630E+04  0.7818609E-02  0.8075846E-01
       -2   -1    0    0    0  501  0.00000000000E+00  0.00000000000E+00  0.28515604081E+04  0.28515604081E+04  0.25500000920E-02 0. -1.
        2   -1    0    0  501    0  0.00000000000E+00  0.00000000000E+00 -0.11773828344E+04  0.11773828344E+04  0.25500000920E-02 0.  1.
    10030    2    1    2    0    0  0.00000000000E+00  0.00000000000E+00  0.16741775737E+04  0.40289432425E+04  0.36646300090E+04 0.  0.
        2    1    3    3  502    0 -0.48296738391E+03  0.33280978809E+03  0.27455635080E+04  0.28075147062E+04  0.25500000920E-02 0. -1.
       -2    1    3    3    0  502  0.48296738391E+03 -0.33280978809E+03 -0.10713859343E+04  0.12214285363E+04  0.25500000920E-02 0.  1.
</event>
<event>
 5   0  0.4811500E-07  0.2946224E+04  0.7818609E-02  0.8259256E-01
       -1   -1    0    0    0  501  0.00000000000E+00  0.00000000000E+00  0.13049606409E+04  0.13049606409E+04  0.50400001928E-02 0. -1.
        1   -1    0    0  501    0  0.00000000000E+00  0.00000000000E+00 -0.16629310740E+04  0.16629310740E+04  0.50400001928E-02 0.  1.
    10030    2    1    2    0    0  0.00000000000E+00  0.00000000000E+00 -0.35797043312E+03  0.29678917149E+04  0.29462244314E+04 0.  0.
        4    1    3    3  502    0  0.88087630635E+03  0.10537831876E+04  0.35752518460E+03  0.14192349855E+04  0.12699999809E+01 0. -1.
       -4    1    3    3    0  502 -0.88087630635E+03 -0.10537831876E+04 -0.71549561772E+03  0.15486567294E+04  0.12699999809E+01 0.  1.
</event>
<event>
 5   0  0.1491854E-06  0.3357425E+04  0.7818609E-02  0.8148435E-01
       -2   -1    0    0    0  501  0.00000000000E+00  0.00000000000E+00  0.15921694410E+04  0.15921694410E+04  0.25500000920E-02 0.  1.
        2   -1    0    0  501    0  0.00000000000E+00  0.00000000000E+00 -0.17699597967E+04  0.17699597967E+04  0.25500000920E-02 0. -1.
    10030    2    1    2    0    0  0.00000000000E+00  0.00000000000E+00 -0.17779035569E+03  0.33621292377E+04  0.33574251444E+04 0.  0.
        5    1    3    3  502    0  0.43841595347E+03  0.40694850981E+03  0.14818171091E+04  0.15980049039E+04  0.46999998093E+01 0.  1.
       -5    1    3    3    0  502 -0.43841595347E+03 -0.40694850981E+03 -0.16596074648E+04  0.17641243338E+04  0.46999998093E+01 0. -1.
</event>
<event>
 5   0  0.4811500E-07  0.3022423E+04  0.7818609E-02  0.8237357E-01
        1   -1    0    0  501    0  0.00000000000E+00  0.00000000000E+00  0.14022668599E+04  0.14022668599E+04  0.50400001928E-02 0.  1.
       -1   -1    0    0    0  501  0.00000000000E+00  0.00000000000E+00 -0.16286199891E+04  0.16286199891E+04  0.50400001928E-02 0. -1.
    10030    2    1    2    0    0  0.00000000000E+00  0.00000000000E+00 -0.22635312919E+03  0.30308868490E+04  0.30224227620E+04 0.  0.
        2    1    3    3  502    0  0.16802116728E+02  0.13164628939E+04 -0.85714566596E+03  0.15710046323E+04  0.25500000920E-02 0. -1.
       -2    1    3    3    0  502 -0.16802116728E+02 -0.13164628939E+04  0.63079253677E+03  0.14598822167E+04  0.25500000920E-02 0.  1.
</event>
<event>
 5   0  0.5071661E-07  0.3579428E+04  0.7818609E-02  0.8095220E-01
        1   -1    0    0  501    0  0.00000000000E+00  0.00000000000E+00  0.18565982545E+04  0.18565982545E+04  0.50400001928E-02 0. -1.
       -1   -1    0    0    0  501  0.00000000000E+00  0.00000000000E+00 -0.17252394066E+04  0.17252394066E+04  0.50400001928E-02 0.  1.
    10030    2    1    2    0    0  0.00000000000E+00  0.00000000000E+00  0.13135884792E+03  0.35818376611E+04  0.35794281503E+04 0.  0.
        1    1    3    3  502    0 -0.30983395764E+03 -0.15620886897E+04  0.88290433188E+03  0.18208894022E+04  0.50400001928E-02 0. -1.
       -1    1    3    3    0  502  0.30983395764E+03  0.15620886897E+04 -0.75154548395E+03  0.17609482588E+04  0.50400001928E-02 0.  1.
</event>
<event>
 5   0  0.4979829E-07  0.2314351E+04  0.7818609E-02  0.8472284E-01
        1   -1    0    0  501    0  0.00000000000E+00  0.00000000000E+00  0.11237277987E+04  0.11237277987E+04  0.50400001928E-02 0.  1.
       -1   -1    0    0    0  501  0.00000000000E+00  0.00000000000E+00 -0.11916184736E+04  0.11916184736E+04  0.50400001928E-02 0. -1.
    10030    2    1    2    0    0  0.00000000000E+00  0.00000000000E+00 -0.67890674865E+02  0.23153462723E+04  0.23143507117E+04 0.  0.
        5    1    3    3  502    0  0.50249466948E+03  0.17195880458E+03 -0.10624741556E+04  0.11878316988E+04  0.46999998093E+01 0. -1.
       -5    1    3    3    0  502 -0.50249466948E+03 -0.17195880458E+03  0.99458348074E+03  0.11275145735E+04  0.46999998093E+01 0.  1.
</event>
<event>
 5   0  0.4811500E-07  0.3483797E+04  0.7818609E-02  0.8117641E-01
        1   -1    0    0  501    0  0.00000000000E+00  0.00000000000E+00  0.19299843732E+04  0.19299843732E+04  0.50400001928E-02 0.  1.
       -1   -1    0    0    0  501  0.00000000000E+00  0.00000000000E+00 -0.15721426238E+04  0.15721426238E+04  0.50400001928E-02 0. -1.
    10030    2    1    2    0    0  0.00000000000E+00  0.00000000000E+00  0.35784174939E+03  0.35021269971E+04  0.34837971792E+04 0.  0.
        4    1    3    3  502    0 -0.74933901511E+03  0.15579616299E+04  0.39324601924E+03  0.17729628999E+04  0.12699999809E+01 0.  1.
       -4    1    3    3    0  502  0.74933901511E+03 -0.15579616299E+04 -0.35404269846E+02  0.17291640972E+04  0.12699999809E+01 0. -1.
</event>
<event>
 5   0  0.1444091E-06  0.2376219E+04  0.7818609E-02  0.8448461E-01
        2   -1    0    0  501    0  0.00000000000E+00  0.00000000000E+00  0.20588713935E+04  0.20588713935E+04  0.25500000920E-02 0.  1.
       -2   -1    0    0    0  501  0.00000000000E+00  0.00000000000E+00 -0.68562062443E+03  0.68562062443E+03  0.25500000920E-02 0. -1.
    10030    2    1    2    0    0  0.00000000000E+00  0.00000000000E+00  0.13732507691E+04  0.27444920179E+04  0.23762194263E+04 0.  0.
        1    1    3    3  502    0  0.95976164730E+03  0.66756801232E+03  0.44212013099E+03  0.12499038687E+04  0.50400001928E-02 0. -1.
       -1    1    3    3    0  502 -0.95976164730E+03 -0.66756801232E+03  0.93113063809E+03  0.14945881493E+04  0.50400001928E-02 0.  1.
</event>
<event>
 5   0  0.5071661E-07  0.3633523E+04  0.7818609E-02  0.8082856E-01
        1   -1    0    0  501    0  0.00000000000E+00  0.00000000000E+00  0.17217619108E+04  0.17217619108E+04  0.50400001928E-02 0. -1.
       -1   -1    0    0    0  501  0.00000000000E+00  0.00000000000E+00 -0.19170027206E+04  0.19170027206E+04  0.50400001928E-02 0.  1.
    10030    2    1    2    0    0  0.00000000000E+00  0.00000000000E+00 -0.19524080980E+03  0.36387646315E+04  0.36335229557E+04 0.  0.
        1    1    3    3  502    0  0.18038101742E+04 -0.76629789774E+02  0.10520323900E+03  0.18084996518E+04  0.50400001928E-02 0. -1.
       -1    1    3    3    0  502 -0.18038101742E+04  0.76629789774E+02 -0.30044404880E+03  0.18302649796E+04  0.50400001928E-02 0.  1.
</event>
<event>
 5   0  0.1505671E-06  0.3706439E+04  0.7818609E-02  0.8066536E-01
       -2   -1    0    0    0  501  0.00000000000E+00  0.00000000000E+00  0.16914579629E+04  0.16914579629E+04  0.25500000920E-02 0. -1.
        2   -1    0    0  501    0  0.00000000000E+00  0.00000000000E+00 -0.20304505034E+04  0.20304505034E+04  0.25500000920E-02 0.  1.
    10030    2    1    2    0    0  0.00000000000E+00  0.00000000000E+00 -0.33899254046E+03  0.37219084663E+04  0.37064385451E+04 0.  0.
        3    1    3    3  502    0  0.32592550154E+03 -0.44347322523E+03 -0.19464940149E+04  0.20228037212E+04  0.10100000352E+00 0.  1.
       -3    1    3    3    0  502 -0.32592550154E+03  0.44347322523E+03  0.16075014745E+04  0.16991047451E+04  0.10100000352E+00 0. -1.
</event>
<event>
 5   0  0.1444091E-06  0.2897202E+04  0.7818609E-02  0.8273710E-01
       -2   -1    0    0    0  501  0.00000000000E+00  0.00000000000E+00  0.16136416026E+04  0.16136416026E+04  0.25500000920E-02 0.  1.
        2   -1    0    0  501    0  0.00000000000E+00  0.00000000000E+00 -0.13004409081E+04  0.13004409081E+04  0.25500000920E-02 0. -1.
    10030    2    1    2    0    0  0.00000000000E+00  0.00000000000E+00  0.31320069454E+03  0.29140825108E+04  0.28972024790E+04 0.  0.
        1    1    3    3  502    0  0.13903384533E+04  0.24627299243E+03  0.48214353658E+03  0.14920300907E+04  0.50400001928E-02 0.  1.
       -1    1    3    3    0  502 -0.13903384533E+04 -0.24627299243E+03 -0.16894284204E+03  0.14220524201E+04  0.50400001928E-02 0. -1.
</event>
<event>
 5   0  0.1444091E-06  0.2845747E+04  0.7818609E-02  0.8289205E-01
        2   -1    0    0  501    0  0.00000000000E+00  0.00000000000E+00  0.13357031436E+04  0.13357031436E+04  0.25500000920E-02 0.  1.
       -2   -1    0    0    0  501  0.00000000000E+00  0.00000000000E+00 -0.15157323725E+04  0.15157323725E+04  0.25500000920E-02 0. -1.
    10030    2    1    2    0    0  0.00000000000E+00  0.00000000000E+00 -0.18002922898E+03  0.28514355161E+04  0.28457466470E+04 0.  0.
        1    1    3    3  502    0 -0.13971224924E+04 -0.36676084840E+02 -0.35751665646E+03  0.14426068604E+04  0.50400001928E-02 0. -1.
       -1    1    3    3    0  502  0.13971224924E+04  0.36676084840E+02  0.17748742748E+03  0.14088286557E+04  0.50400001928E-02 0.  1.
</event>
<event>
 5   0  0.1491854E-06  0.3076570E+04  0.7818609E-02  0.8222198E-01
        2   -1    0    0  501    0  0.00000000000E+00  0.00000000000E+00  0.13283364920E+04  0.13283364920E+04  0.25500000920E-02 0. -1.
       -2   -1    0    0    0  501  0.00000000000E+00  0.00000000000E+00 -0.17814170202E+04  0.17814170202E+04  0.25500000920E-02 0.  1.
    10030    2    1    2    0    0  0.00000000000E+00  0.00000000000E+00 -0.45308052817E+03  0.31097535122E+04  0.30765703212E+04 0.  0.
        5    1    3    3  502    0  0.13072680484E+04 -0.17774955967E+03 -0.10261187639E+04  0.16713726287E+04  0.46999998093E+01 0.  1.
       -5    1    3    3    0  502 -0.13072680484E+04  0.17774955967E+03  0.57303823577E+03  0.14383808835E+04  0.46999998093E+01 0. -1.
</event>
<event>
 5   0  0.4811500E-07  0.3505239E+04  0.7818609E-02  0.8112550E-01
       -1   -1    0    0    0  501  0.00000000000E+00  0.00000000000E+00  0.20982360971E+04  0.20982360971E+04  0.50400001928E-02 0.  1.
        1   -1    0    0  501    0  0.00000000000E+00  0.00000000000E+00 -0.14639319708E+04  0.14639319708E+04  0.50400001928E-02 0. -1.
    10030    2    1    2    0    0  0.00000000000E+00  0.00000000000E+00  0.63430412625E+03  0.35621680679E+04  0.35052388820E+04 0.  0.
        5    1    3    3  502    0  0.17550835112E+03  0.32738728915E+03  0.20577650042E+04  0.20910295362E+04  0.46999998093E+01 0.  1.
       -5    1    3    3    0  502 -0.17550835112E+03 -0.32738728915E+03 -0.14234608780E+04  0.14711385318E+04  0.46999998093E+01 0. -1.
</event>
<event>
 5   0  0.1505671E-06  0.3470384E+04  0.7818609E-02  0.8120845E-01
       -2   -1    0    0    0  501  0.00000000000E+00  0.00000000000E+00  0.17864784126E+04  0.17864784126E+04  0.25500000920E-02 0. -1.
        2   -1    0    0  501    0  0.00000000000E+00  0.00000000000E+00 -0.16853783796E+04  0.16853783796E+04  0.25500000920E-02 0.  1.
    10030    2    1    2    0    0  0.00000000000E+00  0.00000000000E+00  0.10110003300E+03  0.34718567922E+04  0.34703844699E+04 0.  0.
        3    1    3    3  502    0 -0.29213634124E+03 -0.34588121550E+03  0.17263471306E+04  0.17847273973E+04  0.10100000352E+00 0. -1.
       -3    1    3    3    0  502  0.29213634124E+03  0.34588121550E+03 -0.16252470976E+04  0.16871293950E+04  0.10100000352E+00 0.  1.
</event>
<event>
 5   0  0.4811500E-07  0.2770944E+04  0.7818609E-02  0.8312346E-01
       -1   -1    0    0    0  501  0.00000000000E+00  0.00000000000E+00  0.98652513571E+03  0.98652513573E+03  0.50400001928E-02 0.  1.
        1   -1    0    0  501    0  0.00000000000E+00  0.00000000000E+00 -0.19457510580E+04  0.19457510580E+04  0.50400001928E-02 0. -1.
    10030    2    1    2    0    0  0.00000000000E+00  0.00000000000E+00 -0.95922592230E+03  0.29322761937E+04  0.27709437573E+04 0.  0.
        2    1    3    3  502    0  0.61813647469E+03 -0.49657300060E+03  0.72269541888E+03  0.10728308882E+04  0.25500000920E-02 0.  1.
       -2    1    3    3    0  502 -0.61813647469E+03  0.49657300060E+03 -0.16819213412E+04  0.18594453055E+04  0.25500000920E-02 0. -1.
</event>
<event>
 5   0  0.5071661E-07  0.3603784E+04  0.7818609E-02  0.8089625E-01
       -1   -1    0    0    0  501  0.00000000000E+00  0.00000000000E+00  0.12490126730E+04  0.12490126730E+04  0.50400001928E-02 0. -1.
        1   -1    0    0  501    0  0.00000000000E+00  0.00000000000E+00 -0.25995052255E+04  0.25995052255E+04  0.50400001928E-02 0.  1.
    10030    2    1    2    0    0  0.00000000000E+00  0.00000000000E+00 -0.13504925525E+04  0.38485178985E+04  0.36037841057E+04 0.  0.
        1    1    3    3  502    0 -0.31424368482E+03 -0.91729833360E+03  0.94665225201E+03  0.13551146861E+04  0.50400001928E-02 0. -1.
       -1    1    3    3    0  502  0.31424368482E+03  0.91729833360E+03 -0.22971448045E+04  0.24934032123E+04  0.50400001928E-02 0.  1.
</event>
<event>
 5   0  0.4811500E-07  0.3604907E+04  0.7818609E-02  0.8089369E-01
       -1   -1    0    0    0  501  0.00000000000E+00  0.00000000000E+00  0.18837439852E+04  0.18837439852E+04  0.50400001928E-02 0. -1.
        1   -1    0    0  501    0  0.00000000000E+00  0.00000000000E+00 -0.17246706943E+04  0.17246706943E+04  0.50400001928E-02 0.  1.
    10030    2    1    2    0    0  0.00000000000E+00  0.00000000000E+00  0.15907329085E+03  0.36084146795E+04  0.36049066822E+04 0.  0.
        3    1    3    3  502    0 -0.15119999470E+04 -0.40892683310E+03 -0.81322422545E+03  0.17648508848E+04  0.10100000352E+00 0.  1.
       -3    1    3    3    0  502  0.15119999470E+04  0.40892683310E+03  0.97229751630E+03  0.18435637947E+04  0.10100000352E+00 0. -1.
</event>
<event>
 5   0  0.4811500E-07  0.3249385E+04  0.7818609E-02  0.8175895E-01
        1   -1    0    0  501    0  0.00000000000E+00  0.00000000000E+00  0.87020775129E+03  0.87020775131E+03  0.50400001928E-02 0.  1.
       -1   -1    0    0    0  501  0.00000000000E+00  0.00000000000E+00 -0.30333285486E+04  0.30333285486E+04  0.50400001928E-02 0. -1.
    10030    2    1    2    0    0  0.00000000000E+00  0.00000000000E+00 -0.21631207973E+04  0.39035362999E+04  0.32493851820E+04 0.  0.
        3    1    3    3  502    0 -0.13522574639E+04  0.32644001422E+03 -0.20898516989E+04  0.25105066152E+04  0.10100000352E+00 0. -1.
       -3    1    3    3    0  502  0.13522574639E+04 -0.32644001422E+03 -0.73269098476E+02  0.13930296847E+04  0.10100000352E+00 0.  1.
</event>
<event>
 5   0  0.1468942E-06  0.2205406E+04  0.7818609E-02  0.8516181E-01
        2   -1    0    0  501    0  0.00000000000E+00  0.00000000000E+00  0.98396165647E+03  0.98396165647E+03  0.25500000920E-02 0. -1.
       -2   -1    0    0    0  501  0.00000000000E+00  0.00000000000E+00 -0.12357736341E+04  0.12357736341E+04  0.25500000920E-02 0.  1.
    10030    2    1    2    0    0  0.00000000000E+00  0.00000000000E+00 -0.25181197764E+03  0.22197352906E+04  0.22054059690E+04 0.  0.
        2    1    3    3  502    0 -0.31077266902E+02 -0.11018777476E+04 -0.15531061289E+03  0.11132033748E+04  0.25500000920E-02 0.  1.
       -2    1    3    3    0  502  0.31077266902E+02  0.11018777476E+04 -0.96501364751E+02  0.11065319158E+04  0.25500000920E-02 0. -1.
</event>
<event>
 5   0  0.4811500E-07  0.3647352E+04  0.7818609E-02  0.8079731E-01
       -1   -1    0    0    0  501  0.00000000000E+00  0.00000000000E+00  0.17344024461E+04  0.17344024461E+04  0.50400001928E-02 0. -1.
        1   -1    0    0  501    0  0.00000000000E+00  0.00000000000E+00 -0.19175441665E+04  0.19175441665E+04  0.50400001928E-02 0.  1.
    10030    2    1    2    0    0  0.00000000000E+00  0.00000000000E+00 -0.18314172039E+03  0.36519466126E+04  0.36473515284E+04 0.  0.
        5    1    3    3  502    0  0.66560997153E+03 -0.40498931782E+03 -0.17425017623E+04  0.19087659530E+04  0.46999998093E+01 0.  1.
       -5    1    3    3    0  502 -0.66560997153E+03  0.40498931782E+03  0.15593600419E+04  0.17431806596E+04  0.46999998093E+01 0. -1.
</event>
<event>
 5   0  0.1491854E-06  0.3403464E+04  0.7818609E-02  0.8137057E-01
        2   -1    0    0  501    0  0.00000000000E+00  0.00000000000E+00  0.19545743062E+04  0.19545743062E+04  0.25500000920E-02 0. -1.
       -2   -1    0    0    0  501  0.00000000000E+00  0.00000000000E+00 -0.14815969942E+04  0.14815969942E+04  0.25500000920E-02 0.  1.
    10030    2    1    2    0    0  0.00000000000E+00  0.00000000000E+00  0.47297731197E+03  0.34361713004E+04  0.34034637751E+04 0.  0.
        5    1    3    3  502    0 -0.90479179268E+03 -0.76182432257E+03 -0.99872494776E+03  0.15480626918E+04  0.46999998093E+01 0.  1.
       -5    1    3    3    0  502  0.90479179268E+03  0.76182432257E+03  0.14717022597E+04  0.18881086086E+04  0.46999998093E+01 0. -1.
</event>
<event>
 5   0  0.4811500E-07  0.3513583E+04  0.7818609E-02  0.8110579E-01
       -1   -1    0    0    0  501  0.00000000000E+00  0.00000000000E+00  0.31840380349E+04  0.31840380349E+04  0.50400001928E-02 0. -1.
        1   -1    0    0  501    0  0.00000000000E+00  0.00000000000E+00 -0.96930869984E+03  0.96930869986E+03  0.50400001928E-02 0.  1.
    10030    2    1    2    0    0  0.00000000000E+00  0.00000000000E+00  0.22147293350E+04  0.41533467347E+04  0.35135826547E+04 0.  0.
        2    1    3    3  502    0  0.13673572466E+04 -0.61440960779E+03  0.24515390211E+02  0.14992551519E+04  0.25500000920E-02 0.  1.
       -2    1    3    3    0  502 -0.13673572466E+04  0.61440960779E+03  0.21902139448E+04  0.26540915829E+04  0.25500000920E-02 0. -1.
</event>
<event>
 5   0  0.1491854E-06  0.3600461E+04  0.7818609E-02  0.8090386E-01
       -2   -1    0    0    0  501  0.00000000000E+00  0.00000000000E+00  0.16753514407E+04  0.16753514407E+04  0.25500000920E-02 0.  1.
        2   -1    0    0  501    0  0.00000000000E+00  0.00000000000E+00 -0.19344177624E+04  0.19344177624E+04  0.25500000920E-02 0. -1.
    10030    2    1    2    0    0  0.00000000000E+00  0.00000000000E+00 -0.25906632169E+03  0.36097692031E+04  0.36004608512E+04 0.  0.
        5    1    3    3  502    0  0.34404677189E+03 -0.16783681439E+04 -0.68370052111E+03  0.18446561469E+04  0.46999998093E+01 0. -1.
       -5    1    3    3    0  502 -0.34404677189E+03  0.16783681439E+04  0.42463419942E+03  0.17651130562E+04  0.46999998093E+01 0.  1.
</event>
<event>
 5   0  0.5071661E-07  0.3208466E+04  0.7818609E-02  0.8186585E-01
       -1   -1    0    0    0  501  0.00000000000E+00  0.00000000000E+00  0.10114215665E+04  0.10114215665E+04  0.50400001928E-02 0.  1.
        1   -1    0    0  501    0  0.00000000000E+00  0.00000000000E+00 -0.25445009066E+04  0.25445009066E+04  0.50400001928E-02 0. -1.
    10030    2    1    2    0    0  0.00000000000E+00  0.00000000000E+00 -0.15330793401E+04  0.35559224732E+04  0.32084657349E+04 0.  0.
        1    1    3    3  502    0  0.18846153611E+03 -0.75403639061E+03  0.78881721266E+03  0.11073938884E+04  0.50400001928E-02 0.  1.
       -1    1    3    3    0  502 -0.18846153611E+03  0.75403639061E+03 -0.23218965527E+04  0.24485285848E+04  0.50400001928E-02 0. -1.
</event>
<event>
 5   0  0.4811500E-07  0.2277439E+04  0.7818609E-02  0.8486870E-01
        1   -1    0    0  501    0  0.00000000000E+00  0.00000000000E+00  0.15565255664E+04  0.15565255664E+04  0.50400001928E-02 0. -1.
       -1   -1    0    0    0  501  0.00000000000E+00  0.00000000000E+00 -0.83306173012E+03  0.83306173013E+03  0.50400001928E-02 0.  1.
    10030    2    1    2    0    0  0.00000000000E+00  0.00000000000E+00  0.72346383625E+03  0.23895872965E+04  0.22774388082E+04 0.  0.
        2    1    3    3  502    0  0.46661194106E-01  0.84217067185E+03  0.11659140275E+04  0.14382652614E+04  0.25500000920E-02 0. -1.
       -2    1    3    3    0  502 -0.46661194106E-01 -0.84217067185E+03 -0.44245019124E+03  0.95132203509E+03  0.25500000920E-02 0.  1.
</event>
<event>
 5   0  0.1444091E-06  0.3627013E+04  0.7818609E-02  0.8084332E-01
        2   -1    0    0  501    0  0.00000000000E+00  0.00000000000E+00  0.23872745522E+04  0.23872745522E+04  0.25500000920E-02 0. -1.
       -2   -1    0    0    0  501  0.00000000000E+00  0.00000000000E+00 -0.13776407145E+04  0.13776407145E+04  0.25500000920E-02 0.  1.
    10030    2    1    2    0    0  0.00000000000E+00  0.00000000000E+00  0.10096338377E+04  0.37649152667E+04  0.36270134379E+04 0.  0.
        1    1    3    3  502    0  0.12038102045E+03  0.13436495653E+04  0.17628881845E+04  0.22198334387E+04  0.50400001928E-02 0.  1.
       -1    1    3    3    0  502 -0.12038102045E+03 -0.13436495653E+04 -0.75325434679E+03  0.15450818280E+04  0.50400001928E-02 0. -1.
</event>
<event>
 5   0  0.1444091E-06  0.3552643E+04  0.7818609E-02  0.8101426E-01
       -2   -1    0    0    0  501  0.00000000000E+00  0.00000000000E+00  0.15847458902E+04  0.15847458902E+04  0.25500000920E-02 0. -1.
        2   -1    0    0  501    0  0.00000000000E+00  0.00000000000E+00 -0.19910556437E+04  0.19910556437E+04  0.25500000920E-02 0.  1.
    10030    2    1    2    0    0  0.00000000000E+00  0.00000000000E+00 -0.40630975351E+03  0.35758015338E+04  0.35526425367E+04 0.  0.
        1    1    3    3  502    0  0.15886218152E+04 -0.45540667579E+03  0.45239935879E+03  0.17134117111E+04  0.50400001928E-02 0. -1.
       -1    1    3    3    0  502 -0.15886218152E+04  0.45540667579E+03 -0.85870911231E+03  0.18623898227E+04  0.50400001928E-02 0.  1.
</event>
<event>
 5   0  0.4811500E-07  0.2661706E+04  0.7818609E-02  0.8347538E-01
        1   -1    0    0  501    0  0.00000000000E+00  0.00000000000E+00  0.22645168951E+04  0.22645168951E+04  0.50400001928E-02 0. -1.
       -1   -1    0    0    0  501  0.00000000000E+00  0.00000000000E+00 -0.78214020160E+03  0.78214020162E+03  0.50400001928E-02 0.  1.
    10030    2    1    2    0    0  0.00000000000E+00  0.00000000000E+00  0.14823766935E+04  0.30466570967E+04  0.26617059949E+04 0.  0.
        5    1    3    3  502    0  0.80135099575E+03  0.89342664051E+03  0.13994954484E+04  0.18436334181E+04  0.46999998093E+01 0.  1.
       -5    1    3    3    0  502 -0.80135099575E+03 -0.89342664051E+03  0.82881245063E+02  0.12030236786E+04  0.46999998093E+01 0. -1.
</event>
<event>
 5   0  0.4811500E-07  0.3052599E+04  0.7818609E-02  0.8228869E-01
       -1   -1    0    0    0  501  0.00000000000E+00  0.00000000000E+00  0.11677975060E+04  0.11677975061E+04  0.50400001928E-02 0.  1.
        1   -1    0    0  501    0  0.00000000000E+00  0.00000000000E+00 -0.19948575370E+04  0.19948575370E+04  0.50400001928E-02 0. -1.
    10030    2    1    2    0    0  0.00000000000E+00  0.00000000000E+00 -0.82706003091E+03  0.31626550430E+04  0.30525986678E+04 0.  0.
        4    1    3    3  502    0  0.75214926174E+03 -0.12470349226E+04  0.59849358000E+02  0.14575349631E+04  0.12699999809E+01 0. -1.
       -4    1    3    3    0  502 -0.75214926174E+03  0.12470349226E+04 -0.88690938891E+03  0.17051200799E+04  0.12699999809E+01 0.  1.
</event>
<event>
 5   0  0.1491854E-06  0.3622639E+04  0.7818609E-02  0.8085326E-01
       -2   -1    0    0    0  501  0.00000000000E+00  0.00000000000E+00  0.16574475015E+04  0.16574475015E+04  0.25500000920E-02 0.  1.
        2   -1    0    0  501    0  0.00000000000E+00  0.00000000000E+00 -0.19794763183E+04  0.19794763183E+04  0.25500000920E-02 0. -1.
    10030    2    1    2    0    0  0.00000000000E+00  0.00000000000E+00 -0.32202881678E+03  0.36369238198E+04  0.36226388603E+04 0.  0.
        5    1    3    3  502    0 -0.17595041532E+04 -0.17612978607E+03 -0.55496386395E+03  0.18533438825E+04  0.46999998093E+01 0. -1.
       -5    1    3    3    0  502  0.17595041532E+04  0.17612978607E+03  0.23293504718E+03  0.17835799373E+04  0.46999998093E+01 0.  1.
</event>
<event>
 5   0  0.4811500E-07  0.3674720E+04  0.7818609E-02  0.8073587E-01
        1   -1    0    0  501    0  0.00000000000E+00  0.00000000000E+00  0.11808694204E+04  0.11808694204E+04  0.50400001928E-02 0.  1.
       -1   -1    0    0    0  501  0.00000000000E+00  0.00000000000E+00 -0.28588182047E+04  0.28588182047E+04  0.50400001928E-02 0. -1.
    10030    2    1    2    0    0  0.00000000000E+00  0.00000000000E+00 -0.16779487843E+04  0.40396876251E+04  0.36747195792E+04 0.  0.
        5    1    3    3  502    0  0.64814150672E+03 -0.28614238465E+03 -0.27026044707E+04  0.27939323350E+04  0.46999998093E+01 0. -1.
       -5    1    3    3    0  502 -0.64814150672E+03  0.28614238465E+03  0.10246556865E+04  0.12457552901E+04  0.46999998093E+01 0.  1.
</event>
<event>
 5   0  0.4811500E-07  0.3659182E+04  0.7818609E-02  0.8077068E-01
       -1   -1    0    0    0  501  0.00000000000E+00  0.00000000000E+00  0.18102551278E+04  0.18102551278E+04  0.50400001928E-02 0. -1.
        1   -1    0    0  501    0  0.00000000000E+00  0.00000000000E+00 -0.18491334150E+04  0.18491334150E+04  0.50400001928E-02 0.  1.
    10030    2    1    2    0    0  0.00000000000E+00  0.00000000000E+00 -0.38878287198E+02  0.36593885428E+04  0.36591820105E+04 0.  0.
        2    1    3    3  502    0  0.12664943995E+04  0.11062202239E+04  0.70148433589E+03  0.18220349945E+04  0.25500000920E-02 0. -1.
       -2    1    3    3    0  502 -0.12664943995E+04 -0.11062202239E+04 -0.74036262308E+03  0.18373535483E+04  0.25500000920E-02 0.  1.
</event>
<event>
 5   0  0.1491854E-06  0.3712291E+04  0.7818609E-02  0.8065243E-01
        2   -1    0    0  501    0  0.00000000000E+00  0.00000000000E+00  0.24375621769E+04  0.24375621769E+04  0.25500000920E-02 0.  1.
       -2   -1    0    0    0  501  0.00000000000E+00  0.00000000000E+00 -0.14134104754E+04  0.14134104754E+04  0.25500000920E-02 0. -1.
    10030    2    1    2    0    0  0.00000000000E+00  0.00000000000E+00  0.10241517016E+04  0.38509726523E+04  0.37122908912E+04 0.  0.
        5    1    3    3  502    0 -0.10475460434E+04 -0.71997863095E+03  0.19152075167E+04  0.22986439185E+04  0.46999998093E+01 0.  1.
       -5    1    3    3    0  502  0.10475460434E+04  0.71997863095E+03 -0.89105581516E+03  0.15523287338E+04  0.46999998093E+01 0. -1.
</event>
<event>
 5   0  0.1444091E-06  0.2337723E+04  0.7818609E-02  0.8463194E-01
       -2   -1    0    0    0  501  0.00000000000E+00  0.00000000000E+00  0.10314543811E+04  0.10314543811E+04  0.25500000920E-02 0. -1.
        2   -1    0    0  501    0  0.00000000000E+00  0.00000000000E+00 -0.13245740280E+04  0.13245740280E+04  0.25500000920E-02 0.  1.
    10030    2    1    2    0    0  0.00000000000E+00  0.00000000000E+00 -0.29311964692E+03  0.23560284091E+04  0.23377234090E+04 0.  0.
        1    1    3    3  502    0  0.41419415839E+03  0.49893211087E+03 -0.11266702933E+04  0.12999523076E+04  0.50400001928E-02 0.  1.
       -1    1    3    3    0  502 -0.41419415839E+03 -0.49893211087E+03  0.83355064639E+03  0.10560761015E+04  0.50400001928E-02 0. -1.
</event>
<event>
 5   0  0.4811500E-07  0.3685037E+04  0.7818609E-02  0.8071286E-01
       -1   -1    0    0    0  501  0.00000000000E+00  0.00000000000E+00  0.21574581522E+04  0.21574581522E+04  0.50400001928E-02 0. -1.
        1   -1    0    0  501    0  0.00000000000E+00  0.00000000000E+00 -0.15735527267E+04  0.15735527267E+04  0.50400001928E-02 0.  1.
    10030    2    1    2    0    0  0.00000000000E+00  0.00000000000E+00  0.58390542544E+03  0.37310108789E+04  0.36850368563E+04 0.  0.
        2    1    3    3  502    0 -0.55921910916E+02 -0.12557835247E+04 -0.10719821708E+04  0.16520488176E+04  0.25500000920E-02 0.  1.
       -2    1    3    3    0  502  0.55921910916E+02  0.12557835247E+04  0.16558875963E+04  0.20789620613E+04  0.25500000920E-02 0. -1.
</event>
<event>
 5   0  0.4811500E-07  0.3613606E+04  0.7818609E-02  0.8087382E-01
       -1   -1    0    0    0  501  0.00000000000E+00  0.00000000000E+00  0.11471105254E+04  0.11471105254E+04  0.50400001928E-02 0.  1.
        1   -1    0    0  501    0  0.00000000000E+00  0.00000000000E+00 -0.28458786883E+04  0.28458786883E+04  0.50400001928E-02 0. -1.
    10030    2    1    2    0    0  0.00000000000E+00  0.00000000000E+00 -0.16987681629E+04  0.39929892137E+04  0.36136061752E+04 0.  0.
        5    1    3    3  502    0  0.11831603110E+04  0.13629521080E+04 -0.75687784722E+03  0.19571389670E+04  0.46999998093E+01 0.  1.
       -5    1    3    3    0  502 -0.11831603110E+04 -0.13629521080E+04 -0.94189031569E+03  0.20358502467E+04  0.46999998093E+01 0. -1.
</event>
<event>
 5   0  0.4811500E-07  0.3590678E+04  0.7818609E-02  0.8092630E-01
       -1   -1    0    0    0  501  0.00000000000E+00  0.00000000000E+00  0.14871683667E+04  0.14871683668E+04  0.50400001928E-02 0. -1.
        1   -1    0    0  501    0  0.00000000000E+00  0.00000000000E+00 -0.21673690189E+04  0.21673690189E+04  0.50400001928E-02 0.  1.
    10030    2    1    2    0    0  0.00000000000E+00  0.00000000000E+00 -0.68020065219E+03  0.36545373857E+04  0.35906782891E+04 0.  0.
        3    1    3    3  502    0 -0.38749219314E+03  0.17517451943E+04 -0.40823269289E+03  0.18399498274E+04  0.10100000352E+00 0. -1.
       -3    1    3    3    0  502  0.38749219314E+03 -0.17517451943E+04 -0.27196795929E+03  0.18145875583E+04  0.10100000352E+00 0.  1.
</event>
<event>
 5   0  0.4811500E-07  0.3674054E+04  0.7818609E-02  0.8073736E-01
        1   -1    0    0  501    0  0.00000000000E+00  0.00000000000E+00  0.13152525164E+04  0.13152525164E+04  0.50400001928E-02 0.  1.
       -1   -1    0    0    0  501  0.00000000000E+00  0.00000000000E+00 -0.25657952791E+04  0.25657952791E+04  0.50400001928E-02 0. -1.
    10030    2    1    2    0    0  0.00000000000E+00  0.00000000000E+00 -0.12505427627E+04  0.38810477955E+04  0.36740542715E+04 0.  0.
        3    1    3    3  502    0  0.10875848097E+04  0.15476154944E+03 -0.21805948526E+04  0.24416768372E+04  0.10100000352E+00 0. -1.
       -3    1    3    3    0  502 -0.10875848097E+04 -0.15476154944E+03  0.93005208995E+03  0.14393709584E+04  0.10100000352E+00 0.  1.
</event>
<event>
 5   0  0.4811500E-07  0.3581064E+04  0.7818609E-02  0.8094843E-01
       -1   -1    0    0    0  501  0.00000000000E+00  0.00000000000E+00  0.16059351627E+04  0.16059351627E+04  0.50400001928E-02 0. -1.
        1   -1    0    0  501    0  0.00000000000E+00  0.00000000000E+00 -0.19963471281E+04  0.19963471281E+04  0.50400001928E-02 0.  1.
    10030    2    1    2    0    0  0.00000000000E+00  0.00000000000E+00 -0.39041196534E+03  0.36022822908E+04  0.35810635571E+04 0.  0.
        5    1    3    3  502    0 -0.44289056214E+03 -0.92694830976E+03 -0.16703866281E+04  0.19610198358E+04  0.46999998093E+01 0.  1.
       -5    1    3    3    0  502  0.44289056214E+03  0.92694830976E+03  0.12799746628E+04  0.16412624550E+04  0.46999998093E+01 0. -1.
</event>
<event>
 5   0  0.4811500E-07  0.2310963E+04  0.7818609E-02  0.8473611E-01
        1   -1    0    0  501    0  0.00000000000E+00  0.00000000000E+00  0.26271657328E+04  0.26271657328E+04  0.50400001928E-02 0.  1.
       -1   -1    0    0    0  501  0.00000000000E+00  0.00000000000E+00 -0.50820458391E+03  0.50820458393E+03  0.50400001928E-02 0. -1.
    10030    2    1    2    0    0  0.00000000000E+00  0.00000000000E+00  0.21189611489E+04  0.31353703168E+04  0.23109631483E+04 0.  0.
        4    1    3    3  502    0 -0.42982257844E+03 -0.27737942062E+03  0.24651609558E+04  0.25176788800E+04  0.12699999809E+01 0.  1.
       -4    1    3    3    0  502  0.42982257844E+03  0.27737942062E+03 -0.34619980685E+03  0.61769143679E+03  0.12699999809E+01 0. -1.
</event>
<event>
 5   0  0.4811500E-07  0.3594770E+04  0.7818609E-02  0.8091691E-01
        1   -1    0    0  501    0  0.00000000000E+00  0.00000000000E+00  0.20525043460E+04  0.20525043460E+04  0.50400001928E-02 0. -1.
       -1   -1    0    0    0  501  0.00000000000E+00  0.00000000000E+00 -0.15739760807E+04  0.15739760807E+04  0.50400001928E-02 0.  1.
    10030    2    1    2    0    0  0.00000000000E+00  0.00000000000E+00  0.47852826532E+03  0.36264804267E+04  0.35947699487E+04 0.  0.
        3    1    3    3  502    0  0.43490872434E+02  0.16760113440E+04 -0.41428331887E+03  0.17270020729E+04  0.10100000352E+00 0.  1.
       -3    1    3    3    0  502 -0.43490872434E+02 -0.16760113440E+04  0.89281158419E+03  0.18994783538E+04  0.10100000352E+00 0. -1.
</event>
<event>
 5   0  0.1379425E-06  0.2850208E+04  0.7818609E-02  0.8287848E-01
        2   -1    0    0  501    0  0.00000000000E+00  0.00000000000E+00  0.14451151674E+04  0.14451151674E+04  0.25500000920E-02 0. -1.
       -2   -1    0    0    0  501  0.00000000000E+00  0.00000000000E+00 -0.14053696702E+04  0.14053696702E+04  0.25500000920E-02 0.  1.
    10030    2    1    2    0    0  0.00000000000E+00  0.00000000000E+00  0.39745497222E+02  0.28504848377E+04  0.28502077302E+04 0.  0.
        4    1    3    3  502    0  0.11757956663E+04 -0.51943376378E+03  0.63524755578E+03  0.14338228461E+04  0.12699999809E+01 0.  1.
       -4    1    3    3    0  502 -0.11757956663E+04  0.51943376378E+03 -0.59550205855E+03  0.14166619916E+04  0.12699999809E+01 0. -1.
</event>
<event>
 5   0  0.4811500E-07  0.2524318E+04  0.7818609E-02  0.8394373E-01
       -1   -1    0    0    0  501  0.00000000000E+00  0.00000000000E+00  0.88288684151E+03  0.88288684152E+03  0.50400001928E-02 0.  1.
        1   -1    0    0  501    0  0.00000000000E+00  0.00000000000E+00 -0.18043594774E+04  0.18043594774E+04  0.50400001928E-02 0. -1.
    10030    2    1    2    0    0  0.00000000000E+00  0.00000000000E+00 -0.92147263592E+03  0.26872463190E+04  0.25243179198E+04 0.  0.
        3    1    3    3  502    0  0.28275517385E+03  0.12299673361E+04 -0.44307985671E+03  0.13375686546E+04  0.10100000352E+00 0.  1.
       -3    1    3    3    0  502 -0.28275517385E+03 -0.12299673361E+04 -0.47839277921E+03  0.13496776643E+04  0.10100000352E+00 0. -1.
</event>
<event>
 5   0  0.1505671E-06  0.3503650E+04  0.7818609E-02  0.8112926E-01
        2   -1    0    0  501    0  0.00000000000E+00  0.00000000000E+00  0.24380170280E+04  0.24380170280E+04  0.25500000920E-02 0.  1.
       -2   -1    0    0    0  501  0.00000000000E+00  0.00000000000E+00 -0.12587649194E+04  0.12587649194E+04  0.25500000920E-02 0. -1.
    10030    2    1    2    0    0  0.00000000000E+00  0.00000000000E+00  0.11792521087E+04  0.36967819474E+04  0.35036497015E+04 0.  0.
        3    1    3    3  502    0 -0.18845800684E+02  0.35356249476E+02 -0.12582814389E+04  0.12589191468E+04  0.10100000352E+00 0. -1.
       -3    1    3    3    0  502  0.18845800684E+02 -0.35356249476E+02  0.24375335476E+04  0.24378628006E+04  0.10100000352E+00 0.  1.
</event>
<event>
 5   0  0.1505671E-06  0.3551523E+04  0.7818609E-02  0.8101687E-01
        2   -1    0    0  501    0  0.00000000000E+00  0.00000000000E+00  0.12788192336E+04  0.12788192336E+04  0.25500000920E-02 0. -1.
       -2   -1    0    0    0  501  0.00000000000E+00  0.00000000000E+00 -0.24658129368E+04  0.24658129368E+04  0.25500000920E-02 0.  1.
    10030    2    1    2    0    0  0.00000000000E+00  0.00000000000E+00 -0.11869937032E+04  0.37446321705E+04  0.35515230593E+04 0.  0.
        3    1    3    3  502    0  0.12575883877E+04  0.71663246136E+03  0.49114479490E+03  0.15285005258E+04  0.10100000352E+00 0. -1.
       -3    1    3    3    0  502 -0.12575883877E+04 -0.71663246136E+03 -0.16781384981E+04  0.22161316447E+04  0.10100000352E+00 0.  1.
</event>
<event>
 5   0  0.1491854E-06  0.3532313E+04  0.7818609E-02  0.8106175E-01
        2   -1    0    0  501    0  0.00000000000E+00  0.00000000000E+00  0.24384035398E+04  0.24384035398E+04  0.25500000920E-02 0.  1.
       -2   -1    0    0    0  501  0.00000000000E+00  0.00000000000E+00 -0.12792422206E+04  0.12792422206E+04  0.25500000920E-02 0. -1.
    10030    2    1    2    0    0  0.00000000000E+00  0.00000000000E+00  0.11591613192E+04  0.37176457604E+04  0.35323129866E+04 0.  0.
        5    1    3    3  502    0 -0.14857044028E+04  0.87715931821E+03  0.97696305691E+03  0.19827266444E+04  0.46999998093E+01 0. -1.
       -5    1    3    3    0  502  0.14857044028E+04 -0.87715931821E+03  0.18219826230E+03  0.17349191159E+04  0.46999998093E+01 0.  1.
</event>
<event>
 5   0  0.1491854E-06  0.3609328E+04  0.7818609E-02  0.8088358E-01
       -2   -1    0    0    0  501  0.00000000000E+00  0.00000000000E+00  0.12940885261E+04  0.12940885261E+04  0.25500000920E-02 0. -1.
        2   -1    0    0  501    0  0.00000000000E+00  0.00000000000E+00 -0.25166841798E+04  0.25166841798E+04  0.25500000920E-02 0.  1.
    10030    2    1    2    0    0  0.00000000000E+00  0.00000000000E+00 -0.12225956537E+04  0.38107727059E+04  0.36093279823E+04 0.  0.
        5    1    3    3  502    0 -0.12125325620E+04  0.17248089751E+03  0.78812352619E+03  0.14564153447E+04  0.46999998093E+01 0. -1.
       -5    1    3    3    0  502  0.12125325620E+04 -0.17248089751E+03 -0.20107191799E+04  0.23543573612E+04  0.46999998093E+01 0.  1.
</event>
<event>
 5   0  0.4811500E-07  0.3570643E+04  0.7818609E-02  0.8097249E-01
       -1   -1    0    0    0  501  0.00000000000E+00  0.00000000000E+00  0.30909942201E+04  0.30909942201E+04  0.50400001928E-02 0. -1.
        1   -1    0    0  501    0  0.00000000000E+00  0.00000000000E+00 -0.10311806143E+04  0.10311806143E+04  0.50400001928E-02 0.  1.
    10030    2    1    2    0    0  0.00000000000E+00  0.00000000000E+00  0.20598136059E+04  0.41221748344E+04  0.35706432578E+04 0.  0.
        5    1    3    3  502    0 -0.15466159494E+04 -0.44661289874E+03  0.13874881420E+03  0.16157838035E+04  0.46999998093E+01 0.  1.
       -5    1    3    3    0  502  0.15466159494E+04  0.44661289874E+03  0.19210647917E+04  0.25063910309E+04  0.46999998093E+01 0. -1.
</event>
<event>
 5   0  0.4811500E-07  0.2660623E+04  0.7818609E-02  0.8347896E-01
       -1   -1    0    0    0  501  0.00000000000E+00  0.00000000000E+00  0.81131650130E+03  0.81131650131E+03  0.50400001928E-02 0.  1.
        1   -1    0    0  501    0  0.00000000000E+00  0.00000000000E+00 -0.21813043108E+04  0.21813043108E+04  0.50400001928E-02 0. -1.
    10030    2    1    2    0    0  0.00000000000E+00  0.00000000000E+00 -0.13699878095E+04  0.29926208121E+04  0.26606226202E+04 0.  0.
        2    1    3    3  502    0 -0.56227936794E+02 -0.31383816856E+03  0.76770575803E+03  0.83128100413E+03  0.25500000920E-02 0.  1.
       -2    1    3    3    0  502  0.56227936794E+02  0.31383816856E+03 -0.21376935675E+04  0.21613398080E+04  0.25500000920E-02 0. -1.
</event>
<event>
 5   0  0.1491854E-06  0.3672623E+04  0.7818609E-02  0.8074056E-01
        2   -1    0    0  501    0  0.00000000000E+00  0.00000000000E+00  0.26182192988E+04  0.26182192988E+04  0.25500000920E-02 0. -1.
       -2   -1    0    0    0  501  0.00000000000E+00  0.00000000000E+00 -0.12879138215E+04  0.12879138215E+04  0.25500000920E-02 0.  1.
    10030    2    1    2    0    0  0.00000000000E+00  0.00000000000E+00  0.13303054773E+04  0.39061331203E+04  0.36726234889E+04 0.  0.
        5    1    3    3  502    0  0.14026781247E+04  0.11840556423E+04  0.71859752722E+03  0.19712681659E+04  0.46999998093E+01 0. -1.
       -5    1    3    3    0  502 -0.14026781247E+04 -0.11840556423E+04  0.61170795007E+03  0.19348649544E+04  0.46999998093E+01 0.  1.
</event>
<event>
 5   0  0.1444091E-06  0.3590134E+04  0.7818609E-02  0.8092755E-01
        2   -1    0    0  501    0  0.00000000000E+00  0.00000000000E+00  0.20872541201E+04  0.20872541201E+04  0.25500000920E-02 0. -1.
       -2   -1    0    0    0  501  0.00000000000E+00  0.00000000000E+00 -0.15437824852E+04  0.15437824852E+04  0.25500000920E-02 0.  1.
    10030    2    1    2    0    0  0.00000000000E+00  0.00000000000E+00  0.54347163498E+03  0.36310366053E+04  0.35901344559E+04 0.  0.
        1    1    3    3  502    0 -0.12329658994E+04  0.66382054993E+03 -0.86418214509E+03  0.16455009607E+04  0.50400001928E-02 0. -1.
       -1    1    3    3    0  502  0.12329658994E+04 -0.66382054993E+03  0.14076537801E+04  0.19855356447E+04  0.50400001928E-02 0.  1.
</event>
<event>
 5   0  0.4811500E-07  0.2298873E+04  0.7818609E-02  0.8478366E-01
       -1   -1    0    0    0  501  0.00000000000E+00  0.00000000000E+00  0.10356835990E+04  0.10356835990E+04  0.50400001928E-02 0. -1.
        1   -1    0    0  501    0  0.00000000000E+00  0.00000000000E+00 -0.12756835684E+04  0.12756835684E+04  0.50400001928E-02 0.  1.
    10030    2    1    2    0    0  0.00000000000E+00  0.00000000000E+00 -0.23999996937E+03  0.23113671674E+04  0.22988732451E+04 0.  0.
        2    1    3    3  502    0  0.12642697805E+01 -0.93529851680E+03 -0.79177764618E+03  0.12254373729E+04  0.25500000920E-02 0.  1.
       -2    1    3    3    0  502 -0.12642697805E+01  0.93529851680E+03  0.55177767682E+03  0.10859297945E+04  0.25500000920E-02 0. -1.
</event>
<event>
 5   0  0.1444091E-06  0.2971819E+04  0.7818609E-02  0.8251824E-01
       -2   -1    0    0    0  501  0.00000000000E+00  0.00000000000E+00  0.15688051129E+04  0.15688051130E+04  0.25500000920E-02 0.  1.
        2   -1    0    0  501    0  0.00000000000E+00  0.00000000000E+00 -0.14073942859E+04  0.14073942859E+04  0.25500000920E-02 0. -1.
    10030    2    1    2    0    0  0.00000000000E+00  0.00000000000E+00  0.16141082707E+03  0.29761993988E+04  0.29718192083E+04 0.  0.
        1    1    3    3  502    0 -0.33927368862E+03 -0.13662900961E+04  0.55687660079E+03  0.15139243082E+04  0.50400001928E-02 0. -1.
       -1    1    3    3    0  502  0.33927368862E+03  0.13662900961E+04 -0.39546577372E+03  0.14622750906E+04  0.50400001928E-02 0.  1.
</event>
<event>
 5   0  0.4811500E-07  0.3558069E+04  0.7818609E-02  0.8100164E-01
        1   -1    0    0  501    0  0.00000000000E+00  0.00000000000E+00  0.14729576726E+04  0.14729576726E+04  0.50400001928E-02 0.  1.
       -1   -1    0    0    0  501  0.00000000000E+00  0.00000000000E+00 -0.21487137879E+04  0.21487137879E+04  0.50400001928E-02 0. -1.
    10030    2    1    2    0    0  0.00000000000E+00  0.00000000000E+00 -0.67575611534E+03  0.36216714605E+04  0.35580693979E+04 0.  0.
        4    1    3    3  502    0  0.42945718418E+02 -0.16228366999E+04 -0.10785666213E+04  0.19490384446E+04  0.12699999809E+01 0. -1.
       -4    1    3    3    0  502 -0.42945718418E+02  0.16228366999E+04  0.40281050593E+03  0.16726330159E+04  0.12699999809E+01 0.  1.
</event>
<event>
 5   0  0.1505671E-06  0.3590421E+04  0.7818609E-02  0.8092689E-01
        2   -1    0    0  501    0  0.00000000000E+00  0.00000000000E+00  0.17274916529E+04  0.17274916529E+04  0.25500000920E-02 0.  1.
       -2   -1    0    0    0  501  0.00000000000E+00  0.00000000000E+00 -0.18655839480E+04  0.18655839480E+04  0.25500000920E-02 0. -1.
    10030    2    1    2    0    0  0.00000000000E+00  0.00000000000E+00 -0.13809229514E+03  0.35930756008E+04  0.35904209769E+04 0.  0.
        3    1    3    3  502    0  0.12623284779E+04  0.12727676934E+04  0.27823665544E+02  0.17928148131E+04  0.10100000352E+00 0.  1.
       -3    1    3    3    0  502 -0.12623284779E+04 -0.12727676934E+04 -0.16591596068E+03  0.18002607877E+04  0.10100000352E+00 0. -1.
</event>
<event>
 5   0  0.4811500E-07  0.3635236E+04  0.7818609E-02  0.8082468E-01
        1   -1    0    0  501    0  0.00000000000E+00  0.00000000000E+00  0.11547335513E+04  0.11547335513E+04  0.50400001928E-02 0.  1.
       -1   -1    0    0    0  501  0.00000000000E+00  0.00000000000E+00 -0.28610366907E+04  0.28610366907E+04  0.50400001928E-02 0. -1.
    10030    2    1    2    0    0  0.00000000000E+00  0.00000000000E+00 -0.17063031394E+04  0.40157702421E+04  0.36352359254E+04 0.  0.
        4    1    3    3  502    0 -0.26993791447E+03  0.14179413099E+03 -0.28325821326E+04  0.28489463322E+04  0.12699999809E+01 0. -1.
       -4    1    3    3    0  502  0.26993791447E+03 -0.14179413099E+03  0.11262789932E+04  0.11668239098E+04  0.12699999809E+01 0.  1.
</event>
<event>
 5   0  0.1505671E-06  0.3217081E+04  0.7818609E-02  0.8184321E-01
        2   -1    0    0  501    0  0.00000000000E+00  0.00000000000E+00  0.21138539876E+04  0.21138539876E+04  0.25500000920E-02 0. -1.
       -2   -1    0    0    0  501  0.00000000000E+00  0.00000000000E+00 -0.12240211137E+04  0.12240211137E+04  0.25500000920E-02 0.  1.
    10030    2    1    2    0    0  0.00000000000E+00  0.00000000000E+00  0.88983287393E+03  0.33378751012E+04  0.32170806095E+04 0.  0.
        3    1    3    3  502    0 -0.13337071925E+04 -0.56998059516E+03  0.11665525280E+04  0.18613160841E+04  0.10100000352E+00 0. -1.
       -3    1    3    3    0  502  0.13337071925E+04  0.56998059516E+03 -0.27671965405E+03  0.14765590172E+04  0.10100000352E+00 0.  1.
</event>
<event>
 5   0  0.1379425E-06  0.3635136E+04  0.7818609E-02  0.8082490E-01
        2   -1    0    0  501    0  0.00000000000E+00  0.00000000000E+00  0.14363825138E+04  0.14363825138E+04  0.25500000920E-02 0. -1.
       -2   -1    0    0    0  501  0.00000000000E+00  0.00000000000E+00 -0.22999122355E+04  0.22999122355E+04  0.25500000920E-02 0.  1.
    10030    2    1    2    0    0  0.00000000000E+00  0.00000000000E+00 -0.86352972173E+03  0.37362947493E+04  0.36351361561E+04 0.  0.
        4    1    3    3  502    0  0.78335038099E+03 -0.16288005343E+04 -0.23426374254E+03  0.18225010600E+04  0.12699999809E+01 0.  1.
       -4    1    3    3    0  502 -0.78335038099E+03  0.16288005343E+04 -0.62926597918E+03  0.19137936893E+04  0.12699999809E+01 0. -1.
</event>
<event>
 5   0  0.1468942E-06  0.3560249E+04  0.7818609E-02  0.8099658E-01
        2   -1    0    0  501    0  0.00000000000E+00  0.00000000000E+00  0.16275267312E+04  0.16275267312E+04  0.25500000920E-02 0.  1.
       -2   -1    0    0    0  501  0.00000000000E+00  0.00000000000E+00 -0.19470301275E+04  0.19470301275E+04  0.25500000920E-02 0. -1.
    10030    2    1    2    0    0  0.00000000000E+00  0.00000000000E+00 -0.31950339630E+03  0.35745568586E+04  0.35602491929E+04 0.  0.
        2    1    3    3  502    0 -0.73826427920E+03 -0.15341461387E+04 -0.68165320423E+03  0.18339273736E+04  0.25500000920E-02 0.  1.
       -2    1    3    3    0  502  0.73826427920E+03  0.15341461387E+04  0.36214980793E+03  0.17406294850E+04  0.25500000920E-02 0. -1.
</event>
<event>
 5   0  0.1468942E-06  0.3616215E+04  0.7818609E-02  0.8086787E-01
       -2   -1    0    0    0  501  0.00000000000E+00  0.00000000000E+00  0.24142127460E+04  0.24142127460E+04  0.25500000920E-02 0. -1.
        2   -1    0    0  501    0  0.00000000000E+00  0.00000000000E+00 -0.13541695709E+04  0.13541695709E+04  0.25500000920E-02 0.  1.
    10030    2    1    2    0    0  0.00000000000E+00  0.00000000000E+00  0.10600431751E+04  0.37683823169E+04  0.36162153909E+04 0.  0.
        2    1    3    3  502    0  0.39753453615E+03  0.95715011884E+03  0.20739465102E+04  0.23184961040E+04  0.25500000920E-02 0. -1.
       -2    1    3    3    0  502 -0.39753453615E+03 -0.95715011884E+03 -0.10139033351E+04  0.14498862129E+04  0.25500000920E-02 0.  1.
</event>
<event>
 5   0  0.4811500E-07  0.3590905E+04  0.7818609E-02  0.8092578E-01
       -1   -1    0    0    0  501  0.00000000000E+00  0.00000000000E+00  0.19111709139E+04  0.19111709139E+04  0.50400001928E-02 0.  1.
        1   -1    0    0  501    0  0.00000000000E+00  0.00000000000E+00 -0.16867409407E+04  0.16867409407E+04  0.50400001928E-02 0. -1.
    10030    2    1    2    0    0  0.00000000000E+00  0.00000000000E+00  0.22442997323E+03  0.35979118546E+04  0.35909053037E+04 0.  0.
        2    1    3    3  502    0 -0.56477608019E+03  0.10159970030E+04  0.14832519527E+04  0.18844782530E+04  0.25500000920E-02 0.  1.
       -2    1    3    3    0  502  0.56477608019E+03 -0.10159970030E+04 -0.12588219795E+04  0.17134336015E+04  0.25500000920E-02 0. -1.
</event>
<event>
 5   0  0.1468942E-06  0.3927241E+04  0.7818609E-02  0.8019387E-01
       -2   -1    0    0    0  501  0.00000000000E+00  0.00000000000E+00  0.18756898332E+04  0.18756898332E+04  0.25500000920E-02 0.  1.
        2   -1    0    0  501    0  0.00000000000E+00  0.00000000000E+00 -0.20556735914E+04  0.20556735914E+04  0.25500000920E-02 0. -1.
    10030    2    1    2    0    0  0.00000000000E+00  0.00000000000E+00 -0.17998375825E+03  0.39313634246E+04  0.39272412993E+04 0.  0.
        2    1    3    3  502    0 -0.54798857107E+03  0.18535051472E+04  0.25682992342E+03  0.19498036861E+04  0.25500000920E-02 0.  1.
       -2    1    3    3    0  502  0.54798857107E+03 -0.18535051472E+04 -0.43681368167E+03  0.19815597385E+04  0.25500000920E-02 0. -1.
</event>
<event>
 5   0  0.1491854E-06  0.3145925E+04  0.7818609E-02  0.8203246E-01
       -2   -1    0    0    0  501  0.00000000000E+00  0.00000000000E+00  0.19227353395E+04  0.19227353395E+04  0.25500000920E-02 0. -1.
        2   -1    0    0  501    0  0.00000000000E+00  0.00000000000E+00 -0.12868186115E+04  0.12868186115E+04  0.25500000920E-02 0.  1.
    10030    2    1    2    0    0  0.00000000000E+00  0.00000000000E+00  0.63591672795E+03  0.32095539510E+04  0.31459253773E+04 0.  0.
        5    1    3    3  502    0  0.15922524786E+03  0.53351781363E+03 -0.11829166157E+04  0.13074049666E+04  0.46999998093E+01 0.  1.
       -5    1    3    3    0  502 -0.15922524786E+03 -0.53351781363E+03  0.18188333436E+04  0.19021489844E+04  0.46999998093E+01 0. -1.
</event>
<event>
 5   0  0.1491854E-06  0.3599289E+04  0.7818609E-02  0.8090655E-01
        2   -1    0    0  501    0  0.00000000000E+00  0.00000000000E+00  0.20269830309E+04  0.20269830309E+04  0.25500000920E-02 0.  1.
       -2   -1    0    0    0  501  0.00000000000E+00  0.00000000000E+00 -0.15978031645E+04  0.15978031645E+04  0.25500000920E-02 0. -1.
    10030    2    1    2    0    0  0.00000000000E+00  0.00000000000E+00  0.42917986636E+03  0.36247861954E+04  0.35992887637E+04 0.  0.
        5    1    3    3  502    0 -0.74955542015E+02  0.10126311915E+04 -0.12817544501E+04  0.16352237840E+04  0.46999998093E+01 0. -1.
       -5    1    3    3    0  502  0.74955542015E+02 -0.10126311915E+04  0.17109343165E+04  0.19895624114E+04  0.46999998093E+01 0.  1.
</event>
<event>
 5   0  0.1505671E-06  0.3572129E+04  0.7818609E-02  0.8096906E-01
        2   -1    0    0  501    0  0.00000000000E+00  0.00000000000E+00  0.23691056986E+04  0.23691056986E+04  0.25500000920E-02 0.  1.
       -2   -1    0    0    0  501  0.00000000000E+00  0.00000000000E+00 -0.13465110783E+04  0.13465110783E+04  0.25500000920E-02 0. -1.
    10030    2    1    2    0    0  0.00000000000E+00  0.00000000000E+00  0.10225946203E+04  0.37156167769E+04  0.35721293754E+04 0.  0.
        3    1    3    3  502    0 -0.14665399786E+04 -0.96205393288E+03  0.86209758692E+03  0.19543539951E+04  0.10100000352E+00 0.  1.
       -3    1    3    3    0  502  0.14665399786E+04  0.96205393288E+03  0.16049703343E+03  0.17612627818E+04  0.10100000352E+00 0. -1.
</event>
<event>
 5   0  0.4811500E-07  0.3505230E+04  0.7818609E-02  0.8112552E-01
       -1   -1    0    0    0  501  0.00000000000E+00  0.00000000000E+00  0.10865553786E+04  0.10865553786E+04  0.50400001928E-02 0.  1.
        1   -1    0    0  501    0  0.00000000000E+00  0.00000000000E+00 -0.28269702315E+04  0.28269702315E+04  0.50400001928E-02 0. -1.
    10030    2    1    2    0    0  0.00000000000E+00  0.00000000000E+00 -0.17404148529E+04  0.39135256102E+04  0.35052302123E+04 0.  0.
        5    1    3    3  502    0  0.45364967713E+03 -0.16684633654E+04 -0.55036007141E+03  0.18145209641E+04  0.46999998093E+01 0.  1.
       -5    1    3    3    0  502 -0.45364967713E+03  0.16684633654E+04 -0.11900547815E+04  0.20990046460E+04  0.46999998093E+01 0. -1.
</event>
<event>
 5   0  0.5071661E-07  0.3572675E+04  0.7818609E-02  0.8096780E-01
        1   -1    0    0  501    0  0.00000000000E+00  0.00000000000E+00  0.20970626234E+04  0.20970626234E+04  0.50400001928E-02 0. -1.
       -1   -1    0    0    0  501  0.00000000000E+00  0.00000000000E+00 -0.15216533105E+04  0.15216533105E+04  0.50400001928E-02 0.  1.
    10030    2    1    2    0    0  0.00000000000E+00  0.00000000000E+00  0.57540931285E+03  0.36187159339E+04  0.35726753467E+04 0.  0.
        1    1    3    3  502    0 -0.11794311566E+04 -0.33592000616E+03 -0.10279188753E+04  0.16001616536E+04  0.50400001928E-02 0.  1.
       -1    1    3    3    0  502  0.11794311566E+04  0.33592000616E+03  0.16033281881E+04  0.20185542803E+04  0.50400001928E-02 0. -1.
</event>
<event>
 5   0  0.1505671E-06  0.3607151E+04  0.7818609E-02  0.8088856E-01
        2   -1    0    0  501    0  0.00000000000E+00  0.00000000000E+00  0.25095711900E+04  0.25095711900E+04  0.25500000920E-02 0. -1.
       -2   -1    0    0    0  501  0.00000000000E+00  0.00000000000E+00 -0.12961912893E+04  0.12961912893E+04  0.25500000920E-02 0.  1.
    10030    2    1    2    0    0  0.00000000000E+00  0.00000000000E+00  0.12133799007E+04  0.38057624793E+04  0.36071508516E+04 0.  0.
        3    1    3    3  502    0 -0.18864817887E+03 -0.16802495547E+04  0.12689937275E+04  0.21140415776E+04  0.10100000352E+00 0. -1.
       -3    1    3    3    0  502  0.18864817887E+03  0.16802495547E+04 -0.55613826795E+02  0.16917209017E+04  0.10100000352E+00 0.  1.
</event>
<event>
 5   0  0.4811500E-07  0.3193676E+04  0.7818609E-02  0.8190489E-01
       -4   -1    0    0    0  501  0.00000000000E+00  0.00000000000E+00  0.15706048130E+04  0.15706053265E+04  0.12699999809E+01 0. -1.
        4   -1    0    0  501    0  0.00000000000E+00  0.00000000000E+00 -0.16235082259E+04  0.16235087226E+04  0.12699999809E+01 0.  1.
    10030    2    1    2    0    0  0.00000000000E+00  0.00000000000E+00 -0.52903412868E+02  0.31941140491E+04  0.31936759053E+04 0.  0.
        1    1    3    3  502    0 -0.50442756208E+03  0.66244822357E+03  0.13363087594E+04  0.15744859208E+04  0.50400001928E-02 0. -1.
       -1    1    3    3    0  502  0.50442756208E+03 -0.66244822357E+03 -0.13892121723E+04  0.16196281283E+04  0.50400001928E-02 0.  1.
</event>
<event>
 5   0  0.1379425E-06  0.3557687E+04  0.7818609E-02  0.8100253E-01
        2   -1    0    0  501    0  0.00000000000E+00  0.00000000000E+00  0.97545962631E+03  0.97545962631E+03  0.25500000920E-02 0.  1.
       -2   -1    0    0    0  501  0.00000000000E+00  0.00000000000E+00 -0.32438905414E+04  0.32438905414E+04  0.25500000920E-02 0. -1.
    10030    2    1    2    0    0  0.00000000000E+00  0.00000000000E+00 -0.22684309151E+04  0.42193501677E+04  0.35576870325E+04 0.  0.
        4    1    3    3  502    0  0.17611171607E+04 -0.23167805481E+03 -0.10212401266E+04  0.20489366471E+04  0.12699999809E+01 0.  1.
       -4    1    3    3    0  502 -0.17611171607E+04  0.23167805481E+03 -0.12471907885E+04  0.21704135206E+04  0.12699999809E+01 0. -1.
</event>
<event>
 5   0  0.4811500E-07  0.3539846E+04  0.7818609E-02  0.8104411E-01
        3   -1    0    0  501    0  0.00000000000E+00  0.00000000000E+00  0.11078790562E+04  0.11078790608E+04  0.10100000352E+00 0.  1.
       -3   -1    0    0    0  501  0.00000000000E+00  0.00000000000E+00 -0.28275900563E+04  0.28275900581E+04  0.10100000352E+00 0. -1.
    10030    2    1    2    0    0  0.00000000000E+00  0.00000000000E+00 -0.17197110001E+04  0.39354691189E+04  0.35398462201E+04 0.  0.
        3    1    3    3  502    0  0.62763557486E+03 -0.24317418648E+03 -0.26797427434E+04  0.27629841261E+04  0.10100000352E+00 0. -1.
       -3    1    3    3    0  502 -0.62763557486E+03  0.24317418648E+03  0.96003174339E+03  0.11724849928E+04  0.10100000352E+00 0.  1.
</event>
<event>
 5   0  0.4811500E-07  0.3627701E+04  0.7818609E-02  0.8084176E-01
       -1   -1    0    0    0  501  0.00000000000E+00  0.00000000000E+00  0.18210935825E+04  0.18210935825E+04  0.50400001928E-02 0.  1.
        1   -1    0    0  501    0  0.00000000000E+00  0.00000000000E+00 -0.18066359430E+04  0.18066359430E+04  0.50400001928E-02 0. -1.
    10030    2    1    2    0    0  0.00000000000E+00  0.00000000000E+00  0.14457639536E+02  0.36277295256E+04  0.36277007163E+04 0.  0.
        4    1    3    3  502    0  0.25916588228E+03 -0.88792771342E+03 -0.15530620495E+04  0.18076465145E+04  0.12699999809E+01 0. -1.
       -4    1    3    3    0  502 -0.25916588228E+03  0.88792771342E+03  0.15675196890E+04  0.18200830111E+04  0.12699999809E+01 0.  1.
</event>
<event>
 5   0  0.1379425E-06  0.2487456E+04  0.7818609E-02  0.8407468E-01
       -2   -1    0    0    0  501  0.00000000000E+00  0.00000000000E+00  0.78375034790E+03  0.78375034790E+03  0.25500000920E-02 0.  1.
        2   -1    0    0  501    0  0.00000000000E+00  0.00000000000E+00 -0.19736637079E+04  0.19736637079E+04  0.25500000920E-02 0. -1.
    10030    2    1    2    0    0  0.00000000000E+00  0.00000000000E+00 -0.11899133600E+04  0.27574140558E+04  0.24874562249E+04 0.  0.
        4    1    3    3  502    0  0.28471812490E+03 -0.10686542461E+04  0.35805984071E+02  0.11065125349E+04  0.12699999809E+01 0. -1.
       -4    1    3    3    0  502 -0.28471812490E+03  0.10686542461E+04 -0.12257193441E+04  0.16509015210E+04  0.12699999809E+01 0.  1.
</event>
<event>
 5   0  0.1444091E-06  0.3611421E+04  0.7818609E-02  0.8087881E-01
        2   -1    0    0  501    0  0.00000000000E+00  0.00000000000E+00  0.24855617423E+04  0.24855617423E+04  0.25500000920E-02 0.  1.
       -2   -1    0    0    0  501  0.00000000000E+00  0.00000000000E+00 -0.13118123508E+04  0.13118123508E+04  0.25500000920E-02 0. -1.
    10030    2    1    2    0    0  0.00000000000E+00  0.00000000000E+00  0.11737493915E+04  0.37973740930E+04  0.36114211010E+04 0.  0.
        1    1    3    3  502    0  0.17781695310E+03 -0.12477129143E+04  0.19465878862E+04  0.23189676117E+04  0.50400001928E-02 0. -1.
       -1    1    3    3    0  502 -0.17781695310E+03  0.12477129143E+04 -0.77283849471E+03  0.14784064814E+04  0.50400001928E-02 0.  1.
</event>
<event>
 5   0  0.1468942E-06  0.3478837E+04  0.7818609E-02  0.8118824E-01
       -2   -1    0    0    0  501  0.00000000000E+00  0.00000000000E+00  0.16466337218E+04  0.16466337218E+04  0.25500000920E-02 0. -1.
        2   -1    0    0  501    0  0.00000000000E+00  0.00000000000E+00 -0.18374319086E+04  0.18374319086E+04  0.25500000920E-02 0.  1.
    10030    2    1    2    0    0  0.00000000000E+00  0.00000000000E+00 -0.19079818673E+03  0.34840656304E+04  0.34788373588E+04 0.  0.
        2    1    3    3  502    0  0.34898831606E+03 -0.16590236941E+04  0.29431922593E+03  0.17206906372E+04  0.25500000920E-02 0.  1.
       -2    1    3    3    0  502 -0.34898831606E+03  0.16590236941E+04 -0.48511741266E+03  0.17633749931E+04  0.25500000920E-02 0. -1.
</event>
<event>
 5   0  0.4811500E-07  0.3572739E+04  0.7818609E-02  0.8096765E-01
       -1   -1    0    0    0  501  0.00000000000E+00  0.00000000000E+00  0.13714031780E+04  0.13714031780E+04  0.50400001928E-02 0. -1.
        1   -1    0    0  501    0  0.00000000000E+00  0.00000000000E+00 -0.23268982946E+04  0.23268982946E+04  0.50400001928E-02 0.  1.
    10030    2    1    2    0    0  0.00000000000E+00  0.00000000000E+00 -0.95549511660E+03  0.36983014726E+04  0.35727388464E+04 0.  0.
        3    1    3    3  502    0  0.29750658214E+03  0.16657123078E+04 -0.10705954609E+04  0.20023192327E+04  0.10100000352E+00 0.  1.
       -3    1    3    3    0  502 -0.29750658214E+03 -0.16657123078E+04  0.11510034428E+03  0.16959822399E+04  0.10100000352E+00 0. -1.
</event>
<event>
 5   0  0.4811500E-07  0.2873678E+04  0.7818609E-02  0.8280752E-01
       -3   -1    0    0    0  501  0.00000000000E+00  0.00000000000E+00  0.14925969382E+04  0.14925969416E+04  0.10100000352E+00 0. -1.
        3   -1    0    0  501    0  0.00000000000E+00  0.00000000000E+00 -0.13831639054E+04  0.13831639091E+04  0.10100000352E+00 0.  1.
    10030    2    1    2    0    0  0.00000000000E+00  0.00000000000E+00  0.10943303285E+03  0.28757608507E+04  0.28736779363E+04 0.  0.
        1    1    3    3  502    0 -0.10789954707E+03 -0.30309921124E+03  0.14560867615E+04  0.14912075982E+04  0.50400001928E-02 0. -1.
       -1    1    3    3    0  502  0.10789954707E+03  0.30309921124E+03 -0.13466537286E+04  0.13845532525E+04  0.50400001928E-02 0.  1.
</event>
<event>
 5   0  0.5071661E-07  0.3504165E+04  0.7818609E-02  0.8112803E-01
        1   -1    0    0  501    0  0.00000000000E+00  0.00000000000E+00  0.23990162933E+04  0.23990162933E+04  0.50400001928E-02 0.  1.
       -1   -1    0    0    0  501  0.00000000000E+00  0.00000000000E+00 -0.12796052863E+04  0.12796052863E+04  0.50400001928E-02 0. -1.
    10030    2    1    2    0    0  0.00000000000E+00  0.00000000000E+00  0.11194110070E+04  0.36786215797E+04  0.35041654818E+04 0.  0.
        1    1    3    3  502    0  0.66781759149E+03 -0.14728866161E+04 -0.14796087416E+03  0.16239666683E+04  0.50400001928E-02 0. -1.
       -1    1    3    3    0  502 -0.66781759149E+03  0.14728866161E+04  0.12673718811E+04  0.20546549113E+04  0.50400001928E-02 0.  1.
</event>
<event>
 5   0  0.4811500E-07  0.3590279E+04  0.7818609E-02  0.8092722E-01
       -1   -1    0    0    0  501  0.00000000000E+00  0.00000000000E+00  0.17997259087E+04  0.17997259087E+04  0.50400001928E-02 0. -1.
        1   -1    0    0  501    0  0.00000000000E+00  0.00000000000E+00 -0.17905649432E+04  0.17905649432E+04  0.50400001928E-02 0.  1.
    10030    2    1    2    0    0  0.00000000000E+00  0.00000000000E+00  0.91609655043E+01  0.35902908519E+04  0.35902791643E+04 0.  0.
        2    1    3    3  502    0  0.83394317208E+03 -0.10593408206E+04  0.11898530580E+04  0.17981697606E+04  0.25500000920E-02 0. -1.
       -2    1    3    3    0  502 -0.83394317208E+03  0.10593408206E+04 -0.11806920925E+04  0.17921210913E+04  0.25500000920E-02 0.  1.
</event>
<event>
 5   0  0.1468942E-06  0.3600109E+04  0.7818609E-02  0.8090467E-01
       -2   -1    0    0    0  501  0.00000000000E+00  0.00000000000E+00  0.15729613450E+04  0.15729613450E+04  0.25500000920E-02 0. -1.
        2   -1    0    0  501    0  0.00000000000E+00  0.00000000000E+00 -0.20599340966E+04  0.20599340966E+04  0.25500000920E-02 0.  1.
    10030    2    1    2    0    0  0.00000000000E+00  0.00000000000E+00 -0.48697275163E+03  0.36328954415E+04  0.36001092801E+04 0.  0.
        2    1    3    3  502    0 -0.10336244126E+04  0.37021077217E+03  0.11959548790E+04  0.16234973097E+04  0.25500000920E-02 0. -1.
       -2    1    3    3    0  502  0.10336244126E+04 -0.37021077217E+03 -0.16829276306E+04  0.20093981318E+04  0.25500000920E-02 0.  1.
</event>
<event>
 5   0  0.1491854E-06  0.3416083E+04  0.7818609E-02  0.8133970E-01
       -2   -1    0    0    0  501  0.00000000000E+00  0.00000000000E+00  0.15408665764E+04  0.15408665764E+04  0.25500000920E-02 0.  1.
        2   -1    0    0  501    0  0.00000000000E+00  0.00000000000E+00 -0.18933537912E+04  0.18933537912E+04  0.25500000920E-02 0. -1.
    10030    2    1    2    0    0  0.00000000000E+00  0.00000000000E+00 -0.35248721475E+03  0.34342203676E+04  0.34160828879E+04 0.  0.
        5    1    3    3  502    0 -0.58955541615E+03  0.12721715924E+04  0.80432603250E+03  0.16164648483E+04  0.46999998093E+01 0.  1.
       -5    1    3    3    0  502  0.58955541615E+03 -0.12721715924E+04 -0.11568132472E+04  0.18177555194E+04  0.46999998093E+01 0. -1.
</event>
<event>
 5   0  0.5071661E-07  0.3518574E+04  0.7818609E-02  0.8109402E-01
       -1   -1    0    0    0  501  0.00000000000E+00  0.00000000000E+00  0.13748838271E+04  0.13748838271E+04  0.50400001928E-02 0. -1.
        1   -1    0    0  501    0  0.00000000000E+00  0.00000000000E+00 -0.22511656451E+04  0.22511656451E+04  0.50400001928E-02 0.  1.
    10030    2    1    2    0    0  0.00000000000E+00  0.00000000000E+00 -0.87628181806E+03  0.36260494722E+04  0.35185742781E+04 0.  0.
        1    1    3    3  502    0  0.46036170178E+03 -0.92565101336E+03  0.10288314556E+04  0.14585118646E+04  0.50400001928E-02 0. -1.
       -1    1    3    3    0  502 -0.46036170178E+03  0.92565101336E+03 -0.19051132737E+04  0.21675376077E+04  0.50400001928E-02 0.  1.
</event>
<event>
 5   0  0.1379425E-06  0.2283938E+04  0.7818609E-02  0.8484281E-01
        2   -1    0    0  501    0  0.00000000000E+00  0.00000000000E+00  0.81382149110E+03  0.81382149110E+03  0.25500000920E-02 0. -1.
       -2   -1    0    0    0  501  0.00000000000E+00  0.00000000000E+00 -0.16024319821E+04  0.16024319821E+04  0.25500000920E-02 0.  1.
    10030    2    1    2    0    0  0.00000000000E+00  0.00000000000E+00 -0.78861049103E+03  0.24162534732E+04  0.22839383399E+04 0.  0.
        4    1    3    3  502    0 -0.59916817016E+03  0.74543924312E+02 -0.14197542355E+04  0.15428100968E+04  0.12699999809E+01 0.  1.
       -4    1    3    3    0  502  0.59916817016E+03 -0.74543924312E+02  0.63114374444E+03  0.87344337643E+03  0.12699999809E+01 0. -1.
</event>
<event>
 5   0  0.4811500E-07  0.3560307E+04  0.7818609E-02  0.8099645E-01
       -1   -1    0    0    0  501  0.00000000000E+00  0.00000000000E+00  0.18628871854E+04  0.18628871854E+04  0.50400001928E-02 0.  1.
        1   -1    0    0  501    0  0.00000000000E+00  0.00000000000E+00 -0.17010943132E+04  0.17010943132E+04  0.50400001928E-02 0. -1.
    10030    2    1    2    0    0  0.00000000000E+00  0.00000000000E+00  0.16179287223E+03  0.35639814987E+04  0.35603071762E+04 0.  0.
        4    1    3    3  502    0 -0.13531438593E+04 -0.46479761729E+03  0.11411921150E+04  0.18301246365E+04  0.12699999809E+01 0.  1.
       -4    1    3    3    0  502  0.13531438593E+04  0.46479761729E+03 -0.97939924273E+03  0.17338568622E+04  0.12699999809E+01 0. -1.
</event>
<event>
 5   0  0.1491854E-06  0.3147780E+04  0.7818609E-02  0.8202746E-01
        2   -1    0    0  501    0  0.00000000000E+00  0.00000000000E+00  0.20351091673E+04  0.20351091673E+04  0.25500000920E-02 0.  1.
       -2   -1    0    0    0  501  0.00000000000E+00  0.00000000000E+00 -0.12171973980E+04  0.12171973980E+04  0.25500000920E-02 0. -1.
    10030    2    1    2    0    0  0.00000000000E+00  0.00000000000E+00  0.81791176934E+03  0.32523065653E+04  0.31477799053E+04 0.  0.
        5    1    3    3  502    0 -0.10259624931E+04 -0.39307415685E+03 -0.75540920699E+03  0.13333309754E+04  0.46999998093E+01 0. -1.
       -5    1    3    3    0  502  0.10259624931E+04  0.39307415685E+03  0.15733209763E+04  0.19189755899E+04  0.46999998093E+01 0.  1.
</event>
<event>
 5   0  0.1379425E-06  0.3553166E+04  0.7818609E-02  0.8101305E-01
        2   -1    0    0  501    0  0.00000000000E+00  0.00000000000E+00  0.29333645526E+04  0.29333645526E+04  0.25500000920E-02 0.  1.
       -2   -1    0    0    0  501  0.00000000000E+00  0.00000000000E+00 -0.10759819550E+04  0.10759819551E+04  0.25500000920E-02 0. -1.
    10030    2    1    2    0    0  0.00000000000E+00  0.00000000000E+00  0.18573825975E+04  0.40093465076E+04  0.35531660958E+04 0.  0.
        4    1    3    3  502    0 -0.10858867810E+04  0.29173866704E+03 -0.62339845046E+03  0.12856472269E+04  0.12699999809E+01 0. -1.
       -4    1    3    3    0  502  0.10858867810E+04 -0.29173866704E+03  0.24807810480E+04  0.27236992808E+04  0.12699999809E+01 0.  1.
</event>
<event>
 5   0  0.1491854E-06  0.3660211E+04  0.7818609E-02  0.8076837E-01
        2   -1    0    0  501    0  0.00000000000E+00  0.00000000000E+00  0.22862465426E+04  0.22862465426E+04  0.25500000920E-02 0. -1.
       -2   -1    0    0    0  501  0.00000000000E+00  0.00000000000E+00 -0.14649714466E+04  0.14649714466E+04  0.25500000920E-02 0.  1.
    10030    2    1    2    0    0  0.00000000000E+00  0.00000000000E+00  0.82127509601E+03  0.37512179892E+04  0.36602108709E+04 0.  0.
        5    1    3    3  502    0  0.70455617445E+03 -0.15426687837E+04  0.11155155411E+04  0.20299318687E+04  0.46999998093E+01 0. -1.
       -5    1    3    3    0  502 -0.70455617445E+03  0.15426687837E+04 -0.29424044504E+03  0.17212861205E+04  0.46999998093E+01 0.  1.
</event>
<event>
 5   0  0.1491854E-06  0.3624596E+04  0.7818609E-02  0.8084881E-01
        2   -1    0    0  501    0  0.00000000000E+00  0.00000000000E+00  0.26899292316E+04  0.26899292316E+04  0.25500000920E-02 0. -1.
       -2   -1    0    0    0  501  0.00000000000E+00  0.00000000000E+00 -0.12210074713E+04  0.12210074713E+04  0.25500000920E-02 0.  1.
    10030    2    1    2    0    0  0.00000000000E+00  0.00000000000E+00  0.14689217604E+04  0.39109367029E+04  0.36245958059E+04 0.  0.
        5    1    3    3  502    0  0.76769681125E+03 -0.15881397199E+04  0.11830644481E+04  0.21239608618E+04  0.46999998093E+01 0. -1.
       -5    1    3    3    0  502 -0.76769681125E+03  0.15881397199E+04  0.28585731227E+03  0.17869758412E+04  0.46999998093E+01 0.  1.
</event>
<event>
 5   0  0.1491854E-06  0.3639179E+04  0.7818609E-02  0.8081576E-01
        2   -1    0    0  501    0  0.00000000000E+00  0.00000000000E+00  0.12304160607E+04  0.12304160607E+04  0.25500000920E-02 0. -1.
       -2   -1    0    0    0  501  0.00000000000E+00  0.00000000000E+00 -0.26908831005E+04  0.26908831005E+04  0.25500000920E-02 0.  1.
    10030    2    1    2    0    0  0.00000000000E+00  0.00000000000E+00 -0.14604670398E+04  0.39212991612E+04  0.36391789097E+04 0.  0.
        5    1    3    3  502    0  0.23060057041E+03 -0.10766974013E+04 -0.22911288803E+04  0.25419967649E+04  0.46999998093E+01 0.  1.
       -5    1    3    3    0  502 -0.23060057041E+03  0.10766974013E+04  0.83066184041E+03  0.13793023962E+04  0.46999998093E+01 0. -1.
</event>
<event>
 5   0  0.1444091E-06  0.3562640E+04  0.7818609E-02  0.8099103E-01
       -2   -1    0    0    0  501  0.00000000000E+00  0.00000000000E+00  0.17036776471E+04  0.17036776471E+04  0.25500000920E-02 0. -1.
        2   -1    0    0  501    0  0.00000000000E+00  0.00000000000E+00 -0.18625012947E+04  0.18625012947E+04  0.25500000920E-02 0.  1.
    10030    2    1    2    0    0  0.00000000000E+00  0.00000000000E+00 -0.15882364760E+03  0.35661789419E+04  0.35626404947E+04 0.  0.
        1    1    3    3  502    0 -0.14585214542E+04 -0.34441109542E+03  0.88445575333E+03  0.17401625828E+04  0.50400001928E-02 0. -1.
       -1    1    3    3    0  502  0.14585214542E+04  0.34441109542E+03 -0.10432794009E+04  0.18260163590E+04  0.50400001928E-02 0.  1.
</event>
<event>
 5   0  0.4811500E-07  0.3595556E+04  0.7818609E-02  0.8091510E-01
        1   -1    0    0  501    0  0.00000000000E+00  0.00000000000E+00  0.15197514325E+04  0.15197514325E+04  0.50400001928E-02 0. -1.
       -1   -1    0    0    0  501  0.00000000000E+00  0.00000000000E+00 -0.21266677700E+04  0.21266677700E+04  0.50400001928E-02 0.  1.
    10030    2    1    2    0    0  0.00000000000E+00  0.00000000000E+00 -0.60691633755E+03  0.36464192025E+04  0.35955563630E+04 0.  0.
        2    1    3    3  502    0  0.10383587076E+04 -0.79878930739E+03  0.94511714661E+03  0.16153945599E+04  0.25500000920E-02 0. -1.
       -2    1    3    3    0  502 -0.10383587076E+04  0.79878930739E+03 -0.15520334842E+04  0.20310246427E+04  0.25500000920E-02 0.  1.
</event>
<event>
 5   0  0.1379425E-06  0.3209352E+04  0.7818609E-02  0.8186352E-01
        2   -1    0    0  501    0  0.00000000000E+00  0.00000000000E+00  0.14737665433E+04  0.14737665433E+04  0.25500000920E-02 0.  1.
       -2   -1    0    0    0  501  0.00000000000E+00  0.00000000000E+00 -0.17472134411E+04  0.17472134411E+04  0.25500000920E-02 0. -1.
    10030    2    1    2    0    0  0.00000000000E+00  0.00000000000E+00 -0.27344689783E+03  0.32209799845E+04  0.32093517810E+04 0.  0.
        4    1    3    3  502    0 -0.11925968679E+04  0.35679581376E+02  0.94020812826E+03  0.15190632835E+04  0.12699999809E+01 0.  1.
       -4    1    3    3    0  502  0.11925968679E+04 -0.35679581376E+02 -0.12136550261E+04  0.17019167010E+04  0.12699999809E+01 0. -1.
</event>
<event>
 5   0  0.4811500E-07  0.3610041E+04  0.7818609E-02  0.8088196E-01
       -1   -1    0    0    0  501  0.00000000000E+00  0.00000000000E+00  0.18959124962E+04  0.18959124962E+04  0.50400001928E-02 0.  1.
        1   -1    0    0  501    0  0.00000000000E+00  0.00000000000E+00 -0.17184858789E+04  0.17184858790E+04  0.50400001928E-02 0. -1.
    10030    2    1    2    0    0  0.00000000000E+00  0.00000000000E+00  0.17742661721E+03  0.36143983751E+04  0.36100409152E+04 0.  0.
        3    1    3    3  502    0 -0.25648180301E+03 -0.17724690503E+04  0.31408364003E+03  0.18182623553E+04  0.10100000352E+00 0.  1.
       -3    1    3    3    0  502  0.25648180301E+03  0.17724690503E+04 -0.13665702283E+03  0.17961360198E+04  0.10100000352E+00 0. -1.
</event>
<event>
 5   0  0.1505671E-06  0.3364090E+04  0.7818609E-02  0.8146776E-01
        2   -1    0    0  501    0  0.00000000000E+00  0.00000000000E+00  0.28117422929E+04  0.28117422929E+04  0.25500000920E-02 0. -1.
       -2   -1    0    0    0  501  0.00000000000E+00  0.00000000000E+00 -0.10062358937E+04  0.10062358937E+04  0.25500000920E-02 0.  1.
    10030    2    1    2    0    0  0.00000000000E+00  0.00000000000E+00  0.18055063991E+04  0.38179781866E+04  0.33640903787E+04 0.  0.
        3    1    3    3  502    0  0.58680625236E+03  0.72050783035E+03  0.24939935144E+04  0.26614801843E+04  0.10100000352E+00 0. -1.
       -3    1    3    3    0  502 -0.58680625236E+03 -0.72050783035E+03 -0.68848711523E+03  0.11564980024E+04  0.10100000352E+00 0.  1.
</event>
<event>
 5   0  0.4811500E-07  0.3640239E+04  0.7818609E-02  0.8081336E-01
        1   -1    0    0  501    0  0.00000000000E+00  0.00000000000E+00  0.26627863308E+04  0.26627863308E+04  0.50400001928E-02 0.  1.
       -1   -1    0    0    0  501  0.00000000000E+00  0.00000000000E+00 -0.12441233521E+04  0.12441233521E+04  0.50400001928E-02 0. -1.
    10030    2    1    2    0    0  0.00000000000E+00  0.00000000000E+00  0.14186629788E+04  0.39069096829E+04  0.36402388140E+04 0.  0.
        4    1    3    3  502    0 -0.62395736363E+03 -0.61482275419E+03 -0.10030097731E+04  0.13316756469E+04  0.12699999809E+01 0. -1.
       -4    1    3    3    0  502  0.62395736363E+03  0.61482275419E+03  0.24216727518E+04  0.25752340361E+04  0.12699999809E+01 0.  1.
</event>
<event>
 5   0  0.1444091E-06  0.3442138E+04  0.7818609E-02  0.8127641E-01
        2   -1    0    0  501    0  0.00000000000E+00  0.00000000000E+00  0.21455071376E+04  0.21455071376E+04  0.25500000920E-02 0. -1.
       -2   -1    0    0    0  501  0.00000000000E+00  0.00000000000E+00 -0.13805957286E+04  0.13805957286E+04  0.25500000920E-02 0.  1.
    10030    2    1    2    0    0  0.00000000000E+00  0.00000000000E+00  0.76491140907E+03  0.35261028662E+04  0.34421377020E+04 0.  0.
        1    1    3    3  502    0  0.16556697608E+03 -0.12125350092E+04 -0.85719753123E+03  0.14941355962E+04  0.50400001928E-02 0.  1.
       -1    1    3    3    0  502 -0.16556697608E+03  0.12125350092E+04  0.16221089403E+04  0.20319672700E+04  0.50400001928E-02 0. -1.
</event>
<event>
 5   0  0.4811500E-07  0.3622979E+04  0.7818609E-02  0.8085248E-01
        1   -1    0    0  501    0  0.00000000000E+00  0.00000000000E+00  0.21463133241E+04  0.21463133241E+04  0.50400001928E-02 0. -1.
       -1   -1    0    0    0  501  0.00000000000E+00  0.00000000000E+00 -0.15288983148E+04  0.15288983148E+04  0.50400001928E-02 0.  1.
    10030    2    1    2    0    0  0.00000000000E+00  0.00000000000E+00  0.61741500931E+03  0.36752116389E+04  0.36229793399E+04 0.  0.
        5    1    3    3  502    0 -0.14893266301E+04 -0.96138778394E+03  0.68706252286E+03  0.19011673473E+04  0.46999998093E+01 0. -1.
       -5    1    3    3    0  502  0.14893266301E+04  0.96138778394E+03 -0.69647513549E+02  0.17740442916E+04  0.46999998093E+01 0.  1.
</event>
<event>
 5   0  0.4811500E-07  0.3442423E+04  0.7818609E-02  0.8127572E-01
        1   -1    0    0  501    0  0.00000000000E+00  0.00000000000E+00  0.23321582528E+04  0.23321582528E+04  0.50400001928E-02 0. -1.
       -1   -1    0    0    0  501  0.00000000000E+00  0.00000000000E+00 -0.12703118834E+04  0.12703118834E+04  0.50400001928E-02 0.  1.
    10030    2    1    2    0    0  0.00000000000E+00  0.00000000000E+00  0.10618463695E+04  0.36024701362E+04  0.34424226019E+04 0.  0.
        4    1    3    3  502    0 -0.36796906823E+03  0.26210951717E+03  0.22690036262E+04  0.23135431059E+04  0.12699999809E+01 0. -1.
       -4    1    3    3    0  502  0.36796906823E+03 -0.26210951717E+03 -0.12071572567E+04  0.12889270303E+04  0.12699999809E+01 0.  1.
</event>
<event>
 5   0  0.1505671E-06  0.3852293E+04  0.7818609E-02  0.8035025E-01
        2   -1    0    0  501    0  0.00000000000E+00  0.00000000000E+00  0.21538298495E+04  0.21538298495E+04  0.25500000920E-02 0.  1.
       -2   -1    0    0    0  501  0.00000000000E+00  0.00000000000E+00 -0.17225318769E+04  0.17225318769E+04  0.25500000920E-02 0. -1.
    10030    2    1    2    0    0  0.00000000000E+00  0.00000000000E+00  0.43129797257E+03  0.38763617264E+04  0.38522931214E+04 0.  0.
        3    1    3    3  502    0  0.13673835281E+03  0.10770275495E+04 -0.13853147175E+04  0.17600518731E+04  0.10100000352E+00 0. -1.
       -3    1    3    3    0  502 -0.13673835281E+03 -0.10770275495E+04  0.18166126900E+04  0.21163098533E+04  0.10100000352E+00 0.  1.
</event>
<event>
 5   0  0.4811500E-07  0.3725451E+04  0.7818609E-02  0.8062345E-01
        1   -1    0    0  501    0  0.00000000000E+00  0.00000000000E+00  0.14314406436E+04  0.14314406436E+04  0.50400001928E-02 0.  1.
       -1   -1    0    0    0  501  0.00000000000E+00  0.00000000000E+00 -0.24239541180E+04  0.24239541180E+04  0.50400001928E-02 0. -1.
    10030    2    1    2    0    0  0.00000000000E+00  0.00000000000E+00 -0.99251347440E+03  0.38553947616E+04  0.37254510829E+04 0.  0.
        5    1    3    3  502    0  0.17347708996E+04  0.54146439820E+03 -0.91930699725E+03  0.20366053162E+04  0.46999998093E+01 0.  1.
       -5    1    3    3    0  502 -0.17347708996E+04 -0.54146439820E+03 -0.73206477147E+02  0.18187894455E+04  0.46999998093E+01 0. -1.
</event>
<event>
 5   0  0.4811500E-07  0.2644186E+04  0.7818609E-02  0.8353345E-01
       -1   -1    0    0    0  501  0.00000000000E+00  0.00000000000E+00  0.11869810177E+04  0.11869810177E+04  0.50400001928E-02 0.  1.
        1   -1    0    0  501    0  0.00000000000E+00  0.00000000000E+00 -0.14725847059E+04  0.14725847059E+04  0.50400001928E-02 0. -1.
    10030    2    1    2    0    0  0.00000000000E+00  0.00000000000E+00 -0.28560368827E+03  0.26595657236E+04  0.26441861454E+04 0.  0.
        3    1    3    3  502    0  0.87536048956E+03 -0.77306280242E+03 -0.76612240877E+03  0.13967195991E+04  0.10100000352E+00 0. -1.
       -3    1    3    3    0  502 -0.87536048956E+03  0.77306280242E+03  0.48051872049E+03  0.12628461245E+04  0.10100000352E+00 0.  1.
</event>
<event>
 5   0  0.4811500E-07  0.3111431E+04  0.7818609E-02  0.8212608E-01
       -1   -1    0    0    0  501  0.00000000000E+00  0.00000000000E+00  0.14034985357E+04  0.14034985357E+04  0.50400001928E-02 0. -1.
        1   -1    0    0  501    0  0.00000000000E+00  0.00000000000E+00 -0.17244411901E+04  0.17244411901E+04  0.50400001928E-02 0.  1.
    10030    2    1    2    0    0  0.00000000000E+00  0.00000000000E+00 -0.32094265442E+03  0.31279397258E+04  0.31114309796E+04 0.  0.
        2    1    3    3  502    0  0.13899150611E+03  0.90020531473E+03  0.11073952848E+04  0.14338802475E+04  0.25500000920E-02 0. -1.
       -2    1    3    3    0  502 -0.13899150611E+03 -0.90020531473E+03 -0.14283379392E+04  0.16940594783E+04  0.25500000920E-02 0.  1.
</event>
<event>
 5   0  0.1468942E-06  0.2202306E+04  0.7818609E-02  0.8517469E-01
        2   -1    0    0  501    0  0.00000000000E+00  0.00000000000E+00  0.15940072972E+04  0.15940072972E+04  0.25500000920E-02 0. -1.
       -2   -1    0    0    0  501  0.00000000000E+00  0.00000000000E+00 -0.76068538479E+03  0.76068538480E+03  0.25500000920E-02 0.  1.
    10030    2    1    2    0    0  0.00000000000E+00  0.00000000000E+00  0.83332191245E+03  0.23546926820E+04  0.22023061134E+04 0.  0.
        2    1    3    3  502    0  0.38880022277E+03  0.35603751688E+03  0.14503066465E+04  0.15431518705E+04  0.25500000920E-02 0. -1.
       -2    1    3    3    0  502 -0.38880022277E+03 -0.35603751688E+03 -0.61698473406E+03  0.81154081150E+03  0.25500000920E-02 0.  1.
</event>
<event>
 5   0  0.4811500E-07  0.3771909E+04  0.7818609E-02  0.8052210E-01
        1   -1    0    0  501    0  0.00000000000E+00  0.00000000000E+00  0.10911052392E+04  0.10911052392E+04  0.50400001928E-02 0. -1.
       -1   -1    0    0    0  501  0.00000000000E+00  0.00000000000E+00 -0.32598361921E+04  0.32598361921E+04  0.50400001928E-02 0.  1.
    10030    2    1    2    0    0  0.00000000000E+00  0.00000000000E+00 -0.21687309529E+04  0.43509414314E+04  0.37719089853E+04 0.  0.
        2    1    3    3  502    0  0.13801526981E+04 -0.31613939104E+02  0.39779770625E+03  0.14366850477E+04  0.25500000920E-02 0. -1.
       -2    1    3    3    0  502 -0.13801526981E+04  0.31613939104E+02 -0.25665286592E+04  0.29142563836E+04  0.25500000920E-02 0.  1.
</event>
<event>
 5   0  0.4811500E-07  0.3659371E+04  0.7818609E-02  0.8077026E-01
        1   -1    0    0  501    0  0.00000000000E+00  0.00000000000E+00  0.31584965587E+04  0.31584965587E+04  0.50400001928E-02 0.  1.
       -1   -1    0    0    0  501  0.00000000000E+00  0.00000000000E+00 -0.10599183317E+04  0.10599183317E+04  0.50400001928E-02 0. -1.
    10030    2    1    2    0    0  0.00000000000E+00  0.00000000000E+00  0.20985782270E+04  0.42184148904E+04  0.36593706580E+04 0.  0.
        2    1    3    3  502    0  0.39962077953E+03  0.15994071492E+04  0.13434328617E+03  0.16540399375E+04  0.25500000920E-02 0. -1.
       -2    1    3    3    0  502 -0.39962077953E+03 -0.15994071492E+04  0.19642349408E+04  0.25643749529E+04  0.25500000920E-02 0.  1.
</event>
<event>
 5   0  0.4811500E-07  0.3586286E+04  0.7818609E-02  0.8093640E-01
       -1   -1    0    0    0  501  0.00000000000E+00  0.00000000000E+00  0.16752563114E+04  0.16752563114E+04  0.50400001928E-02 0.  1.
        1   -1    0    0  501    0  0.00000000000E+00  0.00000000000E+00 -0.19193255395E+04  0.19193255395E+04  0.50400001928E-02 0. -1.
    10030    2    1    2    0    0  0.00000000000E+00  0.00000000000E+00 -0.24406922810E+03  0.35945818509E+04  0.35862862260E+04 0.  0.
        3    1    3    3  502    0 -0.68657344465E+03  0.99086096871E+03  0.12085049152E+04  0.17069483573E+04  0.10100000352E+00 0.  1.
       -3    1    3    3    0  502  0.68657344465E+03 -0.99086096871E+03 -0.14525741433E+04  0.18876334936E+04  0.10100000352E+00 0. -1.
</event>
<event>
 5   0  0.1444091E-06  0.3534538E+04  0.7818609E-02  0.8105653E-01
        2   -1    0    0  501    0  0.00000000000E+00  0.00000000000E+00  0.28080389289E+04  0.28080389289E+04  0.25500000920E-02 0.  1.
       -2   -1    0    0    0  501  0.00000000000E+00  0.00000000000E+00 -0.11122493961E+04  0.11122493961E+04  0.25500000920E-02 0. -1.
    10030    2    1    2    0    0  0.00000000000E+00  0.00000000000E+00  0.16957895328E+04  0.39202883250E+04  0.35345379346E+04 0.  0.
        1    1    3    3  502    0 -0.78907166343E+03 -0.46119405965E+03  0.25255565368E+04  0.26858462114E+04  0.50400001928E-02 0.  1.
       -1    1    3    3    0  502  0.78907166343E+03  0.46119405965E+03 -0.82976700404E+03  0.12344421135E+04  0.50400001928E-02 0. -1.
</event>
<event>
 5   0  0.1379425E-06  0.2406897E+04  0.7818609E-02  0.8436926E-01
       -2   -1    0    0    0  501  0.00000000000E+00  0.00000000000E+00  0.83465521115E+03  0.83465521116E+03  0.25500000920E-02 0.  1.
        2   -1    0    0  501    0  0.00000000000E+00  0.00000000000E+00 -0.17351939801E+04  0.17351939801E+04  0.25500000920E-02 0. -1.
    10030    2    1    2    0    0  0.00000000000E+00  0.00000000000E+00 -0.90053876896E+03  0.25698491913E+04  0.24068973371E+04 0.  0.
        4    1    3    3  502    0  0.13178118733E+03  0.55852280071E+03  0.67916210411E+03  0.88914384484E+03  0.12699999809E+01 0.  1.
       -4    1    3    3    0  502 -0.13178118733E+03 -0.55852280071E+03 -0.15797008731E+04  0.16807053464E+04  0.12699999809E+01 0. -1.
</event>
<event>
 5   0  0.5071661E-07  0.3624532E+04  0.7818609E-02  0.8084895E-01
       -1   -1    0    0    0  501  0.00000000000E+00  0.00000000000E+00  0.11388824244E+04  0.11388824244E+04  0.50400001928E-02 0.  1.
        1   -1    0    0  501    0  0.00000000000E+00  0.00000000000E+00 -0.28837993788E+04  0.28837993788E+04  0.50400001928E-02 0. -1.
    10030    2    1    2    0    0  0.00000000000E+00  0.00000000000E+00 -0.17449169545E+04  0.40226818032E+04  0.36245322060E+04 0.  0.
        1    1    3    3  502    0  0.30622221597E+03  0.10923777186E+04 -0.24409408400E+04  0.26917008211E+04  0.50400001928E-02 0. -1.
       -1    1    3    3    0  502 -0.30622221597E+03 -0.10923777186E+04  0.69602388556E+03  0.13309809822E+04  0.50400001928E-02 0.  1.
</event>
<event>
 5   0  0.1444091E-06  0.4337278E+04  0.7818609E-02  0.7939761E-01
       -2   -1    0    0    0  501  0.00000000000E+00  0.00000000000E+00  0.24530640366E+04  0.24530640366E+04  0.25500000920E-02 0.  1.
        2   -1    0    0  501    0  0.00000000000E+00  0.00000000000E+00 -0.19171922299E+04  0.19171922299E+04  0.25500000920E-02 0. -1.
    10030    2    1    2    0    0  0.00000000000E+00  0.00000000000E+00  0.53587180672E+03  0.43702562665E+04  0.43372780914E+04 0.  0.
        1    1    3    3  502    0  0.20688450378E+04  0.44235317495E+03  0.74821426881E+03  0.22440188755E+04  0.50400001928E-02 0.  1.
       -1    1    3    3    0  502 -0.20688450378E+04 -0.44235317495E+03 -0.21234246209E+03  0.21262373910E+04  0.50400001928E-02 0. -1.
</event>
<event>
 5   0  0.1379425E-06  0.3605394E+04  0.7818609E-02  0.8089257E-01
        2   -1    0    0  501    0  0.00000000000E+00  0.00000000000E+00  0.18215128503E+04  0.18215128503E+04  0.25500000920E-02 0. -1.
       -2   -1    0    0    0  501  0.00000000000E+00  0.00000000000E+00 -0.17840755933E+04  0.17840755933E+04  0.25500000920E-02 0.  1.
    10030    2    1    2    0    0  0.00000000000E+00  0.00000000000E+00  0.37437256988E+02  0.36055884436E+04  0.36053940806E+04 0.  0.
        4    1    3    3  502    0 -0.37549590636E+03 -0.18280138419E+03 -0.17350296619E+04  0.17845848431E+04  0.12699999809E+01 0.  1.
       -4    1    3    3    0  502  0.37549590636E+03  0.18280138419E+03  0.17724669189E+04  0.18210036005E+04  0.12699999809E+01 0. -1.
</event>
<event>
 5   0  0.1491854E-06  0.2743998E+04  0.7818609E-02  0.8320869E-01
        2   -1    0    0  501    0  0.00000000000E+00  0.00000000000E+00  0.20721006678E+04  0.20721006678E+04  0.25500000920E-02 0. -1.
       -2   -1    0    0    0  501  0.00000000000E+00  0.00000000000E+00 -0.90844129091E+03  0.90844129091E+03  0.25500000920E-02 0.  1.
    10030    2    1    2    0    0  0.00000000000E+00  0.00000000000E+00  0.11636593769E+04  0.29805419587E+04  0.27439984006E+04 0.  0.
        5    1    3    3  502    0 -0.41733895177E+03 -0.11164166263E+04 -0.15631111217E+03  0.12020869927E+04  0.46999998093E+01 0.  1.
       -5    1    3    3    0  502  0.41733895177E+03  0.11164166263E+04  0.13199704891E+04  0.17784549660E+04  0.46999998093E+01 0. -1.
</event>
<event>
 5   0  0.1444091E-06  0.3607112E+04  0.7818609E-02  0.8088865E-01
        2   -1    0    0  501    0  0.00000000000E+00  0.00000000000E+00  0.19164402810E+04  0.19164402810E+04  0.25500000920E-02 0.  1.
       -2   -1    0    0    0  501  0.00000000000E+00  0.00000000000E+00 -0.16973207747E+04  0.16973207747E+04  0.25500000920E-02 0. -1.
    10030    2    1    2    0    0  0.00000000000E+00  0.00000000000E+00  0.21911950628E+03  0.36137610558E+04  0.36071118101E+04 0.  0.
        1    1    3    3  502    0 -0.14639571423E+04 -0.10531449672E+04  0.13260359269E+03  0.18082777854E+04  0.50400001928E-02 0.  1.
       -1    1    3    3    0  502  0.14639571423E+04  0.10531449672E+04  0.86515913596E+02  0.18054832704E+04  0.50400001928E-02 0. -1.
</event>
<event>
 5   0  0.1491854E-06  0.3519185E+04  0.7818609E-02  0.8109258E-01
        2   -1    0    0  501    0  0.00000000000E+00  0.00000000000E+00  0.30675724021E+04  0.30675724021E+04  0.25500000920E-02 0.  1.
       -2   -1    0    0    0  501  0.00000000000E+00  0.00000000000E+00 -0.10093208938E+04  0.10093208938E+04  0.25500000920E-02 0. -1.
    10030    2    1    2    0    0  0.00000000000E+00  0.00000000000E+00  0.20582515083E+04  0.40768932960E+04  0.35191845185E+04 0.  0.
        5    1    3    3  502    0 -0.80546445113E+03  0.90982304476E+03 -0.44518862398E+03  0.12941274882E+04  0.46999998093E+01 0. -1.
       -5    1    3    3    0  502  0.80546445113E+03 -0.90982304476E+03  0.25034401323E+04  0.27827658078E+04  0.46999998093E+01 0.  1.
</event>
<event>
 5   0  0.1444091E-06  0.3693071E+04  0.7818609E-02  0.8069499E-01
        2   -1    0    0  501    0  0.00000000000E+00  0.00000000000E+00  0.21772795611E+04  0.21772795611E+04  0.25500000920E-02 0.  1.
       -2   -1    0    0    0  501  0.00000000000E+00  0.00000000000E+00 -0.15660336638E+04  0.15660336638E+04  0.25500000920E-02 0. -1.
    10030    2    1    2    0    0  0.00000000000E+00  0.00000000000E+00  0.61124589730E+03  0.37433132249E+04  0.36930708568E+04 0.  0.
        1    1    3    3  502    0 -0.85753296737E+03 -0.64631794540E+03  0.18282591408E+04  0.21202879905E+04  0.50400001928E-02 0.  1.
       -1    1    3    3    0  502  0.85753296737E+03  0.64631794540E+03 -0.12170132435E+04  0.16230252344E+04  0.50400001928E-02 0. -1.
</event>
<event>
 5   0  0.4811500E-07  0.3938514E+04  0.7818609E-02  0.8017066E-01
        1   -1    0    0  501    0  0.00000000000E+00  0.00000000000E+00  0.24131742549E+04  0.24131742549E+04  0.50400001928E-02 0. -1.
       -1   -1    0    0    0  501  0.00000000000E+00  0.00000000000E+00 -0.16070007670E+04  0.16070007670E+04  0.50400001928E-02 0.  1.
    10030    2    1    2    0    0  0.00000000000E+00  0.00000000000E+00  0.80617348788E+03  0.40201750219E+04  0.39385138713E+04 0.  0.
        4    1    3    3  502    0  0.12889473528E+04  0.12267319255E+04  0.12642105011E+04  0.21827703268E+04  0.12699999809E+01 0. -1.
       -4    1    3    3    0  502 -0.12889473528E+04 -0.12267319255E+04 -0.45803701320E+03  0.18374046952E+04  0.12699999809E+01 0.  1.
</event>
<event>
 5   0  0.4811500E-07  0.3558917E+04  0.7818609E-02  0.8099968E-01
        1   -1    0    0  501    0  0.00000000000E+00  0.00000000000E+00  0.21814410859E+04  0.21814410859E+04  0.50400001928E-02 0.  1.
       -1   -1    0    0    0  501  0.00000000000E+00  0.00000000000E+00 -0.14515507904E+04  0.14515507904E+04  0.50400001928E-02 0. -1.
    10030    2    1    2    0    0  0.00000000000E+00  0.00000000000E+00  0.72989029542E+03  0.36329918763E+04  0.35589169884E+04 0.  0.
        3    1    3    3  502    0  0.95323678424E+03 -0.29123040183E+02 -0.11686434993E+04  0.15083885961E+04  0.10100000352E+00 0. -1.
       -3    1    3    3    0  502 -0.95323678424E+03  0.29123040183E+02  0.18985337947E+04  0.21246032802E+04  0.10100000352E+00 0.  1.
</event>
<event>
 5   0  0.1444091E-06  0.3596628E+04  0.7818609E-02  0.8091264E-01
       -2   -1    0    0    0  501  0.00000000000E+00  0.00000000000E+00  0.26457999615E+04  0.26457999615E+04  0.25500000920E-02 0.  1.
        2   -1    0    0  501    0  0.00000000000E+00  0.00000000000E+00 -0.12222897003E+04  0.12222897003E+04  0.25500000920E-02 0. -1.
    10030    2    1    2    0    0  0.00000000000E+00  0.00000000000E+00  0.14235102612E+04  0.38680896617E+04  0.35966284445E+04 0.  0.
        1    1    3    3  502    0 -0.12859469315E+04  0.53576140065E+02 -0.63898699473E+03  0.14369531283E+04  0.50400001928E-02 0. -1.
       -1    1    3    3    0  502  0.12859469315E+04 -0.53576140065E+02  0.20624972559E+04  0.24311365334E+04  0.50400001928E-02 0.  1.
</event>
<event>
 5   0  0.4811500E-07  0.3289038E+04  0.7818609E-02  0.8165690E-01
        1   -1    0    0  501    0  0.00000000000E+00  0.00000000000E+00  0.13407287463E+04  0.13407287463E+04  0.50400001928E-02 0. -1.
       -1   -1    0    0    0  501  0.00000000000E+00  0.00000000000E+00 -0.20171442448E+04  0.20171442448E+04  0.50400001928E-02 0.  1.
    10030    2    1    2    0    0  0.00000000000E+00  0.00000000000E+00 -0.67641549847E+03  0.33578729911E+04  0.32890383241E+04 0.  0.
        2    1    3    3  502    0 -0.12083925717E+04 -0.94127776632E+03  0.27283893045E+03  0.15558462400E+04  0.25500000920E-02 0. -1.
       -2    1    3    3    0  502  0.12083925717E+04  0.94127776632E+03 -0.94925442891E+03  0.18020267510E+04  0.25500000920E-02 0.  1.
</event>
<event>
 5   0  0.1468942E-06  0.3671276E+04  0.7818609E-02  0.8074357E-01
       -2   -1    0    0    0  501  0.00000000000E+00  0.00000000000E+00  0.12535808058E+04  0.12535808059E+04  0.25500000920E-02 0. -1.
        2   -1    0    0  501    0  0.00000000000E+00  0.00000000000E+00 -0.26879538471E+04  0.26879538471E+04  0.25500000920E-02 0.  1.
    10030    2    1    2    0    0  0.00000000000E+00  0.00000000000E+00 -0.14343730413E+04  0.39415346530E+04  0.36712762630E+04 0.  0.
        2    1    3    3  502    0  0.75382761482E+03  0.64568629886E+03  0.94063542024E+03  0.13674654889E+04  0.25500000920E-02 0. -1.
       -2    1    3    3    0  502 -0.75382761482E+03 -0.64568629886E+03 -0.23750084615E+04  0.25740691641E+04  0.25500000920E-02 0.  1.
</event>
<event>
 5   0  0.4811500E-07  0.3591410E+04  0.7818609E-02  0.8092462E-01
       -1   -1    0    0    0  501  0.00000000000E+00  0.00000000000E+00  0.13253979260E+04  0.13253979260E+04  0.50400001928E-02 0. -1.
        1   -1    0    0  501    0  0.00000000000E+00  0.00000000000E+00 -0.24328966892E+04  0.24328966892E+04  0.50400001928E-02 0.  1.
    10030    2    1    2    0    0  0.00000000000E+00  0.00000000000E+00 -0.11074987632E+04  0.37582946152E+04  0.35914098769E+04 0.  0.
        4    1    3    3  502    0 -0.69895463157E+03 -0.68511117972E+03 -0.21292446214E+04  0.23434161338E+04  0.12699999809E+01 0.  1.
       -4    1    3    3    0  502  0.69895463157E+03  0.68511117972E+03  0.10217458582E+04  0.14148784814E+04  0.12699999809E+01 0. -1.
</event>
<event>
 5   0  0.1491854E-06  0.3855171E+04  0.7818609E-02  0.8034418E-01
        2   -1    0    0  501    0  0.00000000000E+00  0.00000000000E+00  0.13928412388E+04  0.13928412388E+04  0.25500000920E-02 0.  1.
       -2   -1    0    0    0  501  0.00000000000E+00  0.00000000000E+00 -0.26676303352E+04  0.26676303352E+04  0.25500000920E-02 0. -1.
    10030    2    1    2    0    0  0.00000000000E+00  0.00000000000E+00 -0.12747890964E+04  0.40604715740E+04  0.38551708344E+04 0.  0.
        5    1    3    3  502    0 -0.16562393860E+04  0.96338181432E+03 -0.41563524727E+03  0.19606142335E+04  0.46999998093E+01 0.  1.
       -5    1    3    3    0  502  0.16562393860E+04 -0.96338181432E+03 -0.85915384913E+03  0.20998573405E+04  0.46999998093E+01 0. -1.
</event>
<event>
 5   0  0.4811500E-07  0.3636982E+04  0.7818609E-02  0.8082073E-01
       -1   -1    0    0    0  501  0.00000000000E+00  0.00000000000E+00  0.20862950367E+04  0.20862950367E+04  0.50400001928E-02 0.  1.
        1   -1    0    0  501    0  0.00000000000E+00  0.00000000000E+00 -0.15850633936E+04  0.15850633936E+04  0.50400001928E-02 0. -1.
    10030    2    1    2    0    0  0.00000000000E+00  0.00000000000E+00  0.50123164307E+03  0.36713584304E+04  0.36369822056E+04 0.  0.
        4    1    3    3  502    0  0.12163391942E+04 -0.72197842889E+03  0.14042980224E+04  0.19931854996E+04  0.12699999809E+01 0.  1.
       -4    1    3    3    0  502 -0.12163391942E+04  0.72197842889E+03 -0.90306637933E+03  0.16781729308E+04  0.12699999809E+01 0. -1.
</event>
<event>
 5   0  0.1444091E-06  0.3533179E+04  0.7818609E-02  0.8105972E-01
        2   -1    0    0  501    0  0.00000000000E+00  0.00000000000E+00  0.13493595978E+04  0.13493595978E+04  0.25500000920E-02 0. -1.
       -2   -1    0    0    0  501  0.00000000000E+00  0.00000000000E+00 -0.23128296128E+04  0.23128296128E+04  0.25500000920E-02 0.  1.
    10030    2    1    2    0    0  0.00000000000E+00  0.00000000000E+00 -0.96347001498E+03  0.36621892107E+04  0.35331792121E+04 0.  0.
        1    1    3    3  502    0 -0.50547762795E+03 -0.17415414059E+03  0.12634913436E+04  0.13719503171E+04  0.50400001928E-02 0. -1.
       -1    1    3    3    0  502  0.50547762795E+03  0.17415414059E+03 -0.22269613586E+04  0.22902388936E+04  0.50400001928E-02 0.  1.
</event>
<event>
 5   0  0.4811500E-07  0.3603623E+04  0.7818609E-02  0.8089662E-01
       -1   -1    0    0    0  501  0.00000000000E+00  0.00000000000E+00  0.18993927651E+04  0.18993927651E+04  0.50400001928E-02 0. -1.
        1   -1    0    0  501    0  0.00000000000E+00  0.00000000000E+00 -0.17092435767E+04  0.17092435767E+04  0.50400001928E-02 0.  1.
    10030    2    1    2    0    0  0.00000000000E+00  0.00000000000E+00  0.19014918838E+03  0.36086363419E+04  0.36036231121E+04 0.  0.
        2    1    3    3  502    0 -0.29987501585E+03  0.10779975945E+04  0.15093144307E+04  0.18788384416E+04  0.25500000920E-02 0. -1.
       -2    1    3    3    0  502  0.29987501585E+03 -0.10779975945E+04 -0.13191652424E+04  0.17297979002E+04  0.25500000920E-02 0.  1.
</event>
<event>
 5   0  0.4811500E-07  0.3591368E+04  0.7818609E-02  0.8092472E-01
        1   -1    0    0  501    0  0.00000000000E+00  0.00000000000E+00  0.15251581910E+04  0.15251581910E+04  0.50400001928E-02 0.  1.
       -1   -1    0    0    0  501  0.00000000000E+00  0.00000000000E+00 -0.21141946989E+04  0.21141946989E+04  0.50400001928E-02 0. -1.
    10030    2    1    2    0    0  0.00000000000E+00  0.00000000000E+00 -0.58903650788E+03  0.36393528899E+04  0.35913681864E+04 0.  0.
        2    1    3    3  502    0  0.19696629584E+03  0.51108897583E+03 -0.20274764955E+04  0.21001591851E+04  0.25500000920E-02 0. -1.
       -2    1    3    3    0  502 -0.19696629584E+03 -0.51108897583E+03  0.14384399876E+04  0.15391937048E+04  0.25500000920E-02 0.  1.
</event>
<event>
 5   0  0.4811500E-07  0.2828666E+04  0.7818609E-02  0.8294424E-01
        1   -1    0    0  501    0  0.00000000000E+00  0.00000000000E+00  0.13876057387E+04  0.13876057387E+04  0.50400001928E-02 0.  1.
       -1   -1    0    0    0  501  0.00000000000E+00  0.00000000000E+00 -0.14415749583E+04  0.14415749583E+04  0.50400001928E-02 0. -1.
    10030    2    1    2    0    0  0.00000000000E+00  0.00000000000E+00 -0.53969219552E+02  0.28291806970E+04  0.28286658940E+04 0.  0.
        3    1    3    3  502    0 -0.13904773644E+04  0.37955913662E+02 -0.28290169566E+03  0.14194722019E+04  0.10100000352E+00 0.  1.
       -3    1    3    3    0  502  0.13904773644E+04 -0.37955913662E+02  0.22893247611E+03  0.14097084951E+04  0.10100000352E+00 0. -1.
</event>
<event>
 5   0  0.4811500E-07  0.3128502E+04  0.7818609E-02  0.8207959E-01
       -1   -1    0    0    0  501  0.00000000000E+00  0.00000000000E+00  0.22559688689E+04  0.22559688689E+04  0.50400001928E-02 0. -1.
        1   -1    0    0  501    0  0.00000000000E+00  0.00000000000E+00 -0.10846252103E+04  0.10846252103E+04  0.50400001928E-02 0.  1.
    10030    2    1    2    0    0  0.00000000000E+00  0.00000000000E+00  0.11713436586E+04  0.33405940792E+04  0.31285016917E+04 0.  0.
        5    1    3    3  502    0 -0.81687566220E+03 -0.10100610933E+04  0.15161541551E+04  0.19965607358E+04  0.46999998093E+01 0. -1.
       -5    1    3    3    0  502  0.81687566220E+03  0.10100610933E+04 -0.34481049651E+03  0.13440333434E+04  0.46999998093E+01 0.  1.
</event>
<event>
 5   0  0.4811500E-07  0.3570626E+04  0.7818609E-02  0.8097254E-01
        1   -1    0    0  501    0  0.00000000000E+00  0.00000000000E+00  0.18723629837E+04  0.18723629837E+04  0.50400001928E-02 0. -1.
       -1   -1    0    0    0  501  0.00000000000E+00  0.00000000000E+00 -0.17023098976E+04  0.17023098976E+04  0.50400001928E-02 0.  1.
    10030    2    1    2    0    0  0.00000000000E+00  0.00000000000E+00  0.17005308608E+03  0.35746728814E+04  0.35706257374E+04 0.  0.
        4    1    3    3  502    0 -0.86210082330E+03 -0.99340524431E+03  0.12935686344E+04  0.18448287817E+04  0.12699999809E+01 0. -1.
       -4    1    3    3    0  502  0.86210082330E+03  0.99340524431E+03 -0.11235155483E+04  0.17298440997E+04  0.12699999809E+01 0.  1.
</event>
<event>
 5   0  0.1379425E-06  0.3620529E+04  0.7818609E-02  0.8085805E-01
       -2   -1    0    0    0  501  0.00000000000E+00  0.00000000000E+00  0.10974095599E+04  0.10974095599E+04  0.25500000920E-02 0.  1.
        2   -1    0    0  501    0  0.00000000000E+00  0.00000000000E+00 -0.29861751794E+04  0.29861751794E+04  0.25500000920E-02 0. -1.
    10030    2    1    2    0    0  0.00000000000E+00  0.00000000000E+00 -0.18887656195E+04  0.40835847393E+04  0.36205287953E+04 0.  0.
        4    1    3    3  502    0  0.88499748485E+03 -0.15772286894E+04 -0.85568180822E+03  0.20007658175E+04  0.12699999809E+01 0. -1.
       -4    1    3    3    0  502 -0.88499748485E+03  0.15772286894E+04 -0.10330838113E+04  0.20828189217E+04  0.12699999809E+01 0.  1.
</event>
<event>
 5   0  0.1444091E-06  0.2371444E+04  0.7818609E-02  0.8450273E-01
        2   -1    0    0  501    0  0.00000000000E+00  0.00000000000E+00  0.17223032185E+04  0.17223032185E+04  0.25500000920E-02 0. -1.
       -2   -1    0    0    0  501  0.00000000000E+00  0.00000000000E+00 -0.81631170313E+03  0.81631170314E+03  0.25500000920E-02 0.  1.
    10030    2    1    2    0    0  0.00000000000E+00  0.00000000000E+00  0.90599151534E+03  0.25386149216E+04  0.23714436730E+04 0.  0.
        1    1    3    3  502    0  0.59116825694E+03 -0.85973380413E+03 -0.15002010323E+03  0.10541006372E+04  0.50400001928E-02 0.  1.
       -1    1    3    3    0  502 -0.59116825694E+03  0.85973380413E+03  0.10560116186E+04  0.14845142844E+04  0.50400001928E-02 0. -1.
</event>
<event>
 5   0  0.1505671E-06  0.3611525E+04  0.7818609E-02  0.8087857E-01
        2   -1    0    0  501    0  0.00000000000E+00  0.00000000000E+00  0.95591644348E+03  0.95591644349E+03  0.25500000920E-02 0. -1.
       -2   -1    0    0    0  501  0.00000000000E+00  0.00000000000E+00 -0.34111545971E+04  0.34111545971E+04  0.25500000920E-02 0.  1.
    10030    2    1    2    0    0  0.00000000000E+00  0.00000000000E+00 -0.24552381536E+04  0.43670710406E+04  0.36115253125E+04 0.  0.
        3    1    3    3  502    0  0.14393113289E+04 -0.61952018566E+03 -0.23127787609E+04  0.27936298912E+04  0.10100000352E+00 0. -1.
       -3    1    3    3    0  502 -0.14393113289E+04  0.61952018566E+03 -0.14245939268E+03  0.15734411494E+04  0.10100000352E+00 0.  1.
</event>
<event>
 5   0  0.1468942E-06  0.3573641E+04  0.7818609E-02  0.8096556E-01
       -2   -1    0    0    0  501  0.00000000000E+00  0.00000000000E+00  0.20494135509E+04  0.20494135509E+04  0.25500000920E-02 0.  1.
        2   -1    0    0  501    0  0.00000000000E+00  0.00000000000E+00 -0.15578738387E+04  0.15578738387E+04  0.25500000920E-02 0. -1.
    10030    2    1    2    0    0  0.00000000000E+00  0.00000000000E+00  0.49153971220E+03  0.36072873896E+04  0.35736411435E+04 0.  0.
        2    1    3    3  502    0 -0.40075052594E+03  0.17063626878E+04  0.59610111022E+03  0.18513808738E+04  0.25500000920E-02 0. -1.
       -2    1    3    3    0  502  0.40075052594E+03 -0.17063626878E+04 -0.10456139803E+03  0.17559065158E+04  0.25500000920E-02 0.  1.
</event>
<event>
 5   0  0.4811500E-07  0.3975101E+04  0.7818609E-02  0.8009588E-01
        1   -1    0    0  501    0  0.00000000000E+00  0.00000000000E+00  0.25851607921E+04  0.25851607921E+04  0.50400001928E-02 0. -1.
       -1   -1    0    0    0  501  0.00000000000E+00  0.00000000000E+00 -0.15280893108E+04  0.15280893108E+04  0.50400001928E-02 0.  1.
    10030    2    1    2    0    0  0.00000000000E+00  0.00000000000E+00  0.10570714812E+04  0.41132501029E+04  0.39751007902E+04 0.  0.
        2    1    3    3  502    0  0.48114498814E+03 -0.12092760915E+04  0.20829091358E+04  0.24560862430E+04  0.25500000920E-02 0. -1.
       -2    1    3    3    0  502 -0.48114498814E+03  0.12092760915E+04 -0.10258376546E+04  0.16571638599E+04  0.25500000920E-02 0.  1.
</event>
<event>
 5   0  0.5071661E-07  0.3544087E+04  0.7818609E-02  0.8103421E-01
        1   -1    0    0  501    0  0.00000000000E+00  0.00000000000E+00  0.19641766916E+04  0.19641766916E+04  0.50400001928E-02 0.  1.
       -1   -1    0    0    0  501  0.00000000000E+00  0.00000000000E+00 -0.15987045600E+04  0.15987045600E+04  0.50400001928E-02 0. -1.
    10030    2    1    2    0    0  0.00000000000E+00  0.00000000000E+00  0.36547213162E+03  0.35628812516E+04  0.35440870382E+04 0.  0.
        1    1    3    3  502    0  0.40234602969E+03  0.94161417682E+03 -0.12711762700E+04  0.16323016557E+04  0.50400001928E-02 0. -1.
       -1    1    3    3    0  502 -0.40234602969E+03 -0.94161417682E+03  0.16366484017E+04  0.19305795959E+04  0.50400001928E-02 0.  1.
</event>
<event>
 5   0  0.1491854E-06  0.3680125E+04  0.7818609E-02  0.8072381E-01
        2   -1    0    0  501    0  0.00000000000E+00  0.00000000000E+00  0.26307955223E+04  0.26307955223E+04  0.25500000920E-02 0.  1.
       -2   -1    0    0    0  501  0.00000000000E+00  0.00000000000E+00 -0.12869984917E+04  0.12869984917E+04  0.25500000920E-02 0. -1.
    10030    2    1    2    0    0  0.00000000000E+00  0.00000000000E+00  0.13437970306E+04  0.39177940140E+04  0.36801249268E+04 0.  0.
        5    1    3    3  502    0 -0.16367399039E+03 -0.14341718701E+04 -0.54292396890E+03  0.15422148534E+04  0.46999998093E+01 0. -1.
       -5    1    3    3    0  502  0.16367399039E+03  0.14341718701E+04  0.18867209995E+04  0.23755791606E+04  0.46999998093E+01 0.  1.
</event>
<event>
 5   0  0.1444091E-06  0.3574972E+04  0.7818609E-02  0.8096249E-01
       -2   -1    0    0    0  501  0.00000000000E+00  0.00000000000E+00  0.16283998282E+04  0.16283998282E+04  0.25500000920E-02 0.  1.
        2   -1    0    0  501    0  0.00000000000E+00  0.00000000000E+00 -0.19621145573E+04  0.19621145573E+04  0.25500000920E-02 0. -1.
    10030    2    1    2    0    0  0.00000000000E+00  0.00000000000E+00 -0.33371472908E+03  0.35905143855E+04  0.35749724519E+04 0.  0.
        1    1    3    3  502    0  0.15669142864E+04  0.74378789897E+03 -0.60078449197E+03  0.18355878691E+04  0.50400001928E-02 0. -1.
       -1    1    3    3    0  502 -0.15669142864E+04 -0.74378789897E+03  0.26706976289E+03  0.17549265163E+04  0.50400001928E-02 0.  1.
</event>
<event>
 5   0  0.4811500E-07  0.3008794E+04  0.7818609E-02  0.8241224E-01
       -1   -1    0    0    0  501  0.00000000000E+00  0.00000000000E+00  0.16362379880E+04  0.16362379880E+04  0.50400001928E-02 0.  1.
        1   -1    0    0  501    0  0.00000000000E+00  0.00000000000E+00 -0.13831788275E+04  0.13831788275E+04  0.50400001928E-02 0. -1.
    10030    2    1    2    0    0  0.00000000000E+00  0.00000000000E+00  0.25305916048E+03  0.30194168156E+04  0.30087936066E+04 0.  0.
        5    1    3    3  502    0 -0.13105976276E+04  0.45416892138E+03  0.71103957932E+03  0.15586965465E+04  0.46999998093E+01 0.  1.
       -5    1    3    3    0  502  0.13105976276E+04 -0.45416892138E+03 -0.45798041884E+03  0.14607202691E+04  0.46999998093E+01 0. -1.
</event>
<event>
 5   0  0.4811500E-07  0.3241493E+04  0.7818609E-02  0.8177944E-01
        1   -1    0    0  501    0  0.00000000000E+00  0.00000000000E+00  0.19217691570E+04  0.19217691570E+04  0.50400001928E-02 0.  1.
       -1   -1    0    0    0  501  0.00000000000E+00  0.00000000000E+00 -0.13668755009E+04  0.13668755009E+04  0.50400001928E-02 0. -1.
    10030    2    1    2    0    0  0.00000000000E+00  0.00000000000E+00  0.55489365615E+03  0.32886446579E+04  0.32414929764E+04 0.  0.
        3    1    3    3  502    0 -0.10535806004E+04  0.51655965219E+02 -0.97094763448E+03  0.14336804872E+04  0.10100000352E+00 0. -1.
       -3    1    3    3    0  502  0.10535806004E+04 -0.51655965219E+02  0.15258412906E+04  0.18549641707E+04  0.10100000352E+00 0.  1.
</event>
<event>
 5   0  0.1491854E-06  0.3605389E+04  0.7818609E-02  0.8089258E-01
       -2   -1    0    0    0  501  0.00000000000E+00  0.00000000000E+00  0.17208938776E+04  0.17208938776E+04  0.25500000920E-02 0. -1.
        2   -1    0    0  501    0  0.00000000000E+00  0.00000000000E+00 -0.18883831158E+04  0.18883831158E+04  0.25500000920E-02 0.  1.
    10030    2    1    2    0    0  0.00000000000E+00  0.00000000000E+00 -0.16748923818E+03  0.36092769933E+04  0.36053887127E+04 0.  0.
        5    1    3    3  502    0  0.15828574030E+04 -0.78391075465E+03  0.27682603214E+03  0.17879061417E+04  0.46999998093E+01 0. -1.
       -5    1    3    3    0  502 -0.15828574030E+04  0.78391075465E+03 -0.44431527032E+03  0.18213708516E+04  0.46999998093E+01 0.  1.
</event>
<event>
 5   0  0.4811500E-07  0.3499888E+04  0.7818609E-02  0.8113817E-01
       -1   -1    0    0    0  501  0.00000000000E+00  0.00000000000E+00  0.17053029880E+04  0.17053029880E+04  0.50400001928E-02 0. -1.
        1   -1    0    0  501    0  0.00000000000E+00  0.00000000000E+00 -0.17957533154E+04  0.17957533154E+04  0.50400001928E-02 0.  1.
    10030    2    1    2    0    0  0.00000000000E+00  0.00000000000E+00 -0.90450327423E+02  0.35010563033E+04  0.34998877093E+04 0.  0.
        3    1    3    3  502    0 -0.73078866498E+03 -0.89313592374E+03 -0.13611717718E+04  0.17845258344E+04  0.10100000352E+00 0.  1.
       -3    1    3    3    0  502  0.73078866498E+03  0.89313592374E+03  0.12707214444E+04  0.17165304689E+04  0.10100000352E+00 0. -1.
</event>
<event>
 5   0  0.1505671E-06  0.3613693E+04  0.7818609E-02  0.8087362E-01
        2   -1    0    0  501    0  0.00000000000E+00  0.00000000000E+00  0.16416049548E+04  0.16416049548E+04  0.25500000920E-02 0. -1.
       -2   -1    0    0    0  501  0.00000000000E+00  0.00000000000E+00 -0.19887214032E+04  0.19887214032E+04  0.25500000920E-02 0.  1.
    10030    2    1    2    0    0  0.00000000000E+00  0.00000000000E+00 -0.34711644836E+03  0.36303263580E+04  0.36136933513E+04 0.  0.
        3    1    3    3  502    0 -0.13515140354E+04  0.91510921463E+03  0.60504446466E+03  0.17407164838E+04  0.10100000352E+00 0. -1.
       -3    1    3    3    0  502  0.13515140354E+04 -0.91510921463E+03 -0.95216091303E+03  0.18896098743E+04  0.10100000352E+00 0.  1.
</event>
<event>
 5   0  0.4811500E-07  0.3643818E+04  0.7818609E-02  0.8080528E-01
       -1   -1    0    0    0  501  0.00000000000E+00  0.00000000000E+00  0.22213061985E+04  0.22213061985E+04  0.50400001928E-02 0.  1.
        1   -1    0    0  501    0  0.00000000000E+00  0.00000000000E+00 -0.14943242149E+04  0.14943242150E+04  0.50400001928E-02 0. -1.
    10030    2    1    2    0    0  0.00000000000E+00  0.00000000000E+00  0.72698198353E+03  0.37156304134E+04  0.36438175812E+04 0.  0.
        2    1    3    3  502    0 -0.96412771551E+03  0.31902787958E+03  0.19059257254E+04  0.21596004053E+04  0.25500000920E-02 0.  1.
       -2    1    3    3    0  502  0.96412771551E+03 -0.31902787958E+03 -0.11789437419E+04  0.15560300081E+04  0.25500000920E-02 0. -1.
</event>
<event>
 5   0  0.1444091E-06  0.3545370E+04  0.7818609E-02  0.8103121E-01
        2   -1    0    0  501    0  0.00000000000E+00  0.00000000000E+00  0.28446200471E+04  0.28446200471E+04  0.25500000920E-02 0. -1.
       -2   -1    0    0    0  501  0.00000000000E+00  0.00000000000E+00 -0.11046862307E+04  0.11046862307E+04  0.25500000920E-02 0.  1.
    10030    2    1    2    0    0  0.00000000000E+00  0.00000000000E+00  0.17399338164E+04  0.39493062778E+04  0.35453702755E+04 0.  0.
        1    1    3    3  502    0 -0.11727189478E+04 -0.92805929322E+03 -0.19023132628E+03  0.15075648377E+04  0.50400001928E-02 0.  1.
       -1    1    3    3    0  502  0.11727189478E+04  0.92805929322E+03  0.19301651427E+04  0.24417414401E+04  0.50400001928E-02 0. -1.
</event>
<event>
 5   0  0.4811500E-07  0.3506451E+04  0.7818609E-02  0.8112263E-01
       -1   -1    0    0    0  501  0.00000000000E+00  0.00000000000E+00  0.20574957864E+04  0.20574957865E+04  0.50400001928E-02 0.  1.
        1   -1    0    0  501    0  0.00000000000E+00  0.00000000000E+00 -0.14939519212E+04  0.14939519212E+04  0.50400001928E-02 0. -1.
    10030    2    1    2    0    0  0.00000000000E+00  0.00000000000E+00  0.56354386526E+03  0.35514477076E+04  0.35064510737E+04 0.  0.
        2    1    3    3  502    0 -0.15866702453E+04 -0.21212577001E+03 -0.44244226057E+03  0.16608055165E+04  0.25500000920E-02 0. -1.
       -2    1    3    3    0  502  0.15866702453E+04  0.21212577001E+03  0.10059861258E+04  0.18906421912E+04  0.25500000920E-02 0.  1.
</event>
<event>
 5   0  0.1379425E-06  0.2984219E+04  0.7818609E-02  0.8248252E-01
       -2   -1    0    0    0  501  0.00000000000E+00  0.00000000000E+00  0.12710750323E+04  0.12710750323E+04  0.25500000920E-02 0.  1.
        2   -1    0    0  501    0  0.00000000000E+00  0.00000000000E+00 -0.17515807733E+04  0.17515807733E+04  0.25500000920E-02 0. -1.
    10030    2    1    2    0    0  0.00000000000E+00  0.00000000000E+00 -0.48050574103E+03  0.30226558056E+04  0.29842188848E+04 0.  0.
        4    1    3    3  502    0  0.50311904875E+03 -0.12650373461E+04  0.37830155578E+03  0.14129975033E+04  0.12699999809E+01 0.  1.
       -4    1    3    3    0  502 -0.50311904875E+03  0.12650373461E+04 -0.85880729681E+03  0.16096583023E+04  0.12699999809E+01 0. -1.
</event>
<event>
 5   0  0.4811500E-07  0.3578527E+04  0.7818609E-02  0.8095428E-01
       -1   -1    0    0    0  501  0.00000000000E+00  0.00000000000E+00  0.16063690018E+04  0.16063690018E+04  0.50400001928E-02 0. -1.
        1   -1    0    0  501    0  0.00000000000E+00  0.00000000000E+00 -0.19929820001E+04  0.19929820001E+04  0.50400001928E-02 0.  1.
    10030    2    1    2    0    0  0.00000000000E+00  0.00000000000E+00 -0.38661299830E+03  0.35993510019E+04  0.35785273542E+04 0.  0.
        4    1    3    3  502    0 -0.72979872547E+03  0.83460228160E+03 -0.16058631617E+04  0.19514008443E+04  0.12699999809E+01 0.  1.
       -4    1    3    3    0  502  0.72979872547E+03 -0.83460228160E+03  0.12192501634E+04  0.16479501576E+04  0.12699999809E+01 0. -1.
</event>
<event>
 5   0  0.1491854E-06  0.2636130E+04  0.7818609E-02  0.8356031E-01
        2   -1    0    0  501    0  0.00000000000E+00  0.00000000000E+00  0.10712784826E+04  0.10712784826E+04  0.25500000920E-02 0.  1.
       -2   -1    0    0    0  501  0.00000000000E+00  0.00000000000E+00 -0.16217022390E+04  0.16217022390E+04  0.25500000920E-02 0. -1.
    10030    2    1    2    0    0  0.00000000000E+00  0.00000000000E+00 -0.55042375642E+03  0.26929807217E+04  0.26361295218E+04 0.  0.
        5    1    3    3  502    0  0.11989564008E+02 -0.13148103084E+04 -0.18156859495E+03  0.13273504215E+04  0.46999998093E+01 0. -1.
       -5    1    3    3    0  502 -0.11989564008E+02  0.13148103084E+04 -0.36885516148E+03  0.13656303002E+04  0.46999998093E+01 0.  1.
</event>
<event>
 5   0  0.4811500E-07  0.3671830E+04  0.7818609E-02  0.8074233E-01
       -1   -1    0    0    0  501  0.00000000000E+00  0.00000000000E+00  0.10427013752E+04  0.10427013752E+04  0.50400001928E-02 0. -1.
        1   -1    0    0  501    0  0.00000000000E+00  0.00000000000E+00 -0.32325500600E+04  0.32325500601E+04  0.50400001928E-02 0.  1.
    10030    2    1    2    0    0  0.00000000000E+00  0.00000000000E+00 -0.21898486849E+04  0.42752514353E+04  0.36718302755E+04 0.  0.
        3    1    3    3  502    0  0.50459261022E+02  0.13670179023E+04  0.33075999033E+03  0.14073685600E+04  0.10100000352E+00 0. -1.
       -3    1    3    3    0  502 -0.50459261022E+02 -0.13670179023E+04 -0.25206086752E+04  0.28678828752E+04  0.10100000352E+00 0.  1.
</event>
<event>
 5   0  0.4811500E-07  0.3626880E+04  0.7818609E-02  0.8084362E-01
       -1   -1    0    0    0  501  0.00000000000E+00  0.00000000000E+00  0.24309531720E+04  0.24309531720E+04  0.50400001928E-02 0. -1.
        1   -1    0    0  501    0  0.00000000000E+00  0.00000000000E+00 -0.13527878514E+04  0.13527878515E+04  0.50400001928E-02 0.  1.
    10030    2    1    2    0    0  0.00000000000E+00  0.00000000000E+00  0.10781653206E+04  0.37837410235E+04  0.36268796057E+04 0.  0.
        2    1    3    3  502    0 -0.48453867702E+03  0.19319734683E+03 -0.12728294167E+04  0.13755717605E+04  0.25500000920E-02 0.  1.
       -2    1    3    3    0  502  0.48453867702E+03 -0.19319734683E+03  0.23509947373E+04  0.24081692630E+04  0.25500000920E-02 0. -1.
</event>
<event>
 5   0  0.4811500E-07  0.3599180E+04  0.7818609E-02  0.8090680E-01
        1   -1    0    0  501    0  0.00000000000E+00  0.00000000000E+00  0.11049074451E+04  0.11049074451E+04  0.50400001928E-02 0. -1.
       -1   -1    0    0    0  501  0.00000000000E+00  0.00000000000E+00 -0.29310360298E+04  0.29310360298E+04  0.50400001928E-02 0.  1.
    10030    2    1    2    0    0  0.00000000000E+00  0.00000000000E+00 -0.18261285847E+04  0.40359434750E+04  0.35991796462E+04 0.  0.
        3    1    3    3  502    0  0.97763482962E+03 -0.38996622507E+03  0.72375473942E+03  0.12773662160E+04  0.10100000352E+00 0. -1.
       -3    1    3    3    0  502 -0.97763482962E+03  0.38996622507E+03 -0.25498833241E+04  0.27585772590E+04  0.10100000352E+00 0.  1.
</event>
<event>
 5   0  0.4811500E-07  0.3586653E+04  0.7818609E-02  0.8093556E-01
        1   -1    0    0  501    0  0.00000000000E+00  0.00000000000E+00  0.16055515113E+04  0.16055515114E+04  0.50400001928E-02 0.  1.
       -1   -1    0    0    0  501  0.00000000000E+00  0.00000000000E+00 -0.20030628885E+04  0.20030628885E+04  0.50400001928E-02 0. -1.
    10030    2    1    2    0    0  0.00000000000E+00  0.00000000000E+00 -0.39751137718E+03  0.36086143999E+04  0.35866533973E+04 0.  0.
        5    1    3    3  502    0 -0.10432271846E+04  0.13330971795E+04  0.39692308035E+03  0.17386894693E+04  0.46999998093E+01 0.  1.
       -5    1    3    3    0  502  0.10432271846E+04 -0.13330971795E+04 -0.79443445753E+03  0.18699249306E+04  0.46999998093E+01 0. -1.
</event>
<event>
 5   0  0.4811500E-07  0.3458423E+04  0.7818609E-02  0.8123714E-01
       -1   -1    0    0    0  501  0.00000000000E+00  0.00000000000E+00  0.21528897297E+04  0.21528897297E+04  0.50400001928E-02 0. -1.
        1   -1    0    0  501    0  0.00000000000E+00  0.00000000000E+00 -0.13889112071E+04  0.13889112071E+04  0.50400001928E-02 0.  1.
    10030    2    1    2    0    0  0.00000000000E+00  0.00000000000E+00  0.76397852259E+03  0.35418009369E+04  0.34584231513E+04 0.  0.
        5    1    3    3  502    0  0.83001018824E+03 -0.11169589433E+04 -0.66922537614E+03  0.15441498916E+04  0.46999998093E+01 0.  1.
       -5    1    3    3    0  502 -0.83001018824E+03  0.11169589433E+04  0.14332038987E+04  0.19976510453E+04  0.46999998093E+01 0. -1.
</event>
<event>
 5   0  0.4811500E-07  0.3444950E+04  0.7818609E-02  0.8126961E-01
        1   -1    0    0  501    0  0.00000000000E+00  0.00000000000E+00  0.29202295565E+04  0.29202295565E+04  0.50400001928E-02 0.  1.
       -1   -1    0    0    0  501  0.00000000000E+00  0.00000000000E+00 -0.10159885093E+04  0.10159885093E+04  0.50400001928E-02 0. -1.
    10030    2    1    2    0    0  0.00000000000E+00  0.00000000000E+00  0.19042410472E+04  0.39362180658E+04  0.34449497378E+04 0.  0.
        5    1    3    3  502    0  0.41462914257E+03 -0.69197450238E+03 -0.78680005242E+03  0.11268639893E+04  0.46999998093E+01 0. -1.
       -5    1    3    3    0  502 -0.41462914257E+03  0.69197450238E+03  0.26910410996E+04  0.28093540766E+04  0.46999998093E+01 0.  1.
</event>
<event>
 5   0  0.1379425E-06  0.3658946E+04  0.7818609E-02  0.8077121E-01
       -2   -1    0    0    0  501  0.00000000000E+00  0.00000000000E+00  0.17170575028E+04  0.17170575028E+04  0.25500000920E-02 0. -1.
        2   -1    0    0  501    0  0.00000000000E+00  0.00000000000E+00 -0.19492482939E+04  0.19492482939E+04  0.25500000920E-02 0.  1.
    10030    2    1    2    0    0  0.00000000000E+00  0.00000000000E+00 -0.23219079113E+03  0.36663057967E+04  0.36589459727E+04 0.  0.
        4    1    3    3  502    0 -0.12924355522E+04  0.69183251729E+03 -0.12128050208E+04  0.19026086093E+04  0.12699999809E+01 0.  1.
       -4    1    3    3    0  502  0.12924355522E+04 -0.69183251729E+03  0.98061422970E+03  0.17636971874E+04  0.12699999809E+01 0. -1.
</event>
<event>
 5   0  0.4811500E-07  0.3598186E+04  0.7818609E-02  0.8090907E-01
       -1   -1    0    0    0  501  0.00000000000E+00  0.00000000000E+00  0.13850502856E+04  0.13850502856E+04  0.50400001928E-02 0. -1.
        1   -1    0    0  501    0  0.00000000000E+00  0.00000000000E+00 -0.23369077729E+04  0.23369077729E+04  0.50400001928E-02 0.  1.
    10030    2    1    2    0    0  0.00000000000E+00  0.00000000000E+00 -0.95185748730E+03  0.37219580585E+04  0.35981855307E+04 0.  0.
        4    1    3    3  502    0  0.43265574203E+03  0.17297722536E+04 -0.72381805579E+03  0.19243745039E+04  0.12699999809E+01 0.  1.
       -4    1    3    3    0  502 -0.43265574203E+03 -0.17297722536E+04 -0.22803943151E+03  0.17975835546E+04  0.12699999809E+01 0. -1.
</event>
<event>
 5   0  0.1505671E-06  0.3545326E+04  0.7818609E-02  0.8103131E-01
        2   -1    0    0  501    0  0.00000000000E+00  0.00000000000E+00  0.26045651280E+04  0.26045651280E+04  0.25500000920E-02 0.  1.
       -2   -1    0    0    0  501  0.00000000000E+00  0.00000000000E+00 -0.12064717399E+04  0.12064717399E+04  0.25500000920E-02 0. -1.
    10030    2    1    2    0    0  0.00000000000E+00  0.00000000000E+00  0.13980933880E+04  0.38110368679E+04  0.35453260621E+04 0.  0.
        3    1    3    3  502    0  0.56096302310E+03 -0.71324001098E+03  0.23359839751E+04  0.25060351092E+04  0.10100000352E+00 0.  1.
       -3    1    3    3    0  502 -0.56096302310E+03  0.71324001098E+03 -0.93789058710E+03  0.13050017587E+04  0.10100000352E+00 0. -1.
</event>
<event>
 5   0  0.1444091E-06  0.3117768E+04  0.7818609E-02  0.8210879E-01
        2   -1    0    0  501    0  0.00000000000E+00  0.00000000000E+00  0.26943322135E+04  0.26943322135E+04  0.25500000920E-02 0. -1.
       -2   -1    0    0    0  501  0.00000000000E+00  0.00000000000E+00 -0.90193728500E+03  0.90193728501E+03  0.25500000920E-02 0.  1.
    10030    2    1    2    0    0  0.00000000000E+00  0.00000000000E+00  0.17923949285E+04  0.35962694985E+04  0.31177675870E+04 0.  0.
        1    1    3    3  502    0 -0.74997680948E+03 -0.13554424903E+04  0.69498577653E+03  0.16978500490E+04  0.50400001928E-02 0. -1.
       -1    1    3    3    0  502  0.74997680948E+03  0.13554424903E+04  0.10974091520E+04  0.18984194495E+04  0.50400001928E-02 0.  1.
</event>
<event>
 5   0  0.4811500E-07  0.3798813E+04  0.7818609E-02  0.8046410E-01
        1   -1    0    0  501    0  0.00000000000E+00  0.00000000000E+00  0.15694791753E+04  0.15694791753E+04  0.50400001928E-02 0.  1.
       -1   -1    0    0    0  501  0.00000000000E+00  0.00000000000E+00 -0.22986898769E+04  0.22986898769E+04  0.50400001928E-02 0. -1.
    10030    2    1    2    0    0  0.00000000000E+00  0.00000000000E+00 -0.72921070156E+03  0.38681690522E+04  0.37988134423E+04 0.  0.
        4    1    3    3  502    0 -0.40067287383E+03  0.17347511811E+04 -0.10383837991E+04  0.20611023602E+04  0.12699999809E+01 0. -1.
       -4    1    3    3    0  502  0.40067287383E+03 -0.17347511811E+04  0.30917309750E+03  0.18070666920E+04  0.12699999809E+01 0.  1.
</event>
<event>
 5   0  0.1444091E-06  0.3536279E+04  0.7818609E-02  0.8105246E-01
       -2   -1    0    0    0  501  0.00000000000E+00  0.00000000000E+00  0.15938682341E+04  0.15938682341E+04  0.25500000920E-02 0.  1.
        2   -1    0    0  501    0  0.00000000000E+00  0.00000000000E+00 -0.19614650530E+04  0.19614650530E+04  0.25500000920E-02 0. -1.
    10030    2    1    2    0    0  0.00000000000E+00  0.00000000000E+00 -0.36759681890E+03  0.35553332872E+04  0.35362787449E+04 0.  0.
        1    1    3    3  502    0  0.51228426244E+03  0.32313831599E+03 -0.18539124988E+04  0.19503448644E+04  0.50400001928E-02 0. -1.
       -1    1    3    3    0  502 -0.51228426244E+03 -0.32313831599E+03  0.14863156799E+04  0.16049884228E+04  0.50400001928E-02 0.  1.
</event>
<event>
 5   0  0.1444091E-06  0.3501814E+04  0.7818609E-02  0.8113360E-01
        2   -1    0    0  501    0  0.00000000000E+00  0.00000000000E+00  0.15755841371E+04  0.15755841371E+04  0.25500000920E-02 0. -1.
       -2   -1    0    0    0  501  0.00000000000E+00  0.00000000000E+00 -0.19457387571E+04  0.19457387571E+04  0.25500000920E-02 0.  1.
    10030    2    1    2    0    0  0.00000000000E+00  0.00000000000E+00 -0.37015462001E+03  0.35213228942E+04  0.35018138846E+04 0.  0.
        1    1    3    3  502    0  0.43268417672E+03  0.16019295969E+04 -0.74701172866E+03  0.18197309012E+04  0.50400001928E-02 0.  1.
       -1    1    3    3    0  502 -0.43268417672E+03 -0.16019295969E+04  0.37685710866E+03  0.17015919930E+04  0.50400001928E-02 0. -1.
</event>
<event>
 5   0  0.5423502E-07  0.2321624E+04  0.7818609E-02  0.8469444E-01
       -1   -1    0    0    0  501  0.00000000000E+00  0.00000000000E+00  0.10822618304E+04  0.10822618304E+04  0.50400001928E-02 0.  1.
        1   -1    0    0  501    0  0.00000000000E+00  0.00000000000E+00 -0.12450630124E+04  0.12450630124E+04  0.50400001928E-02 0. -1.
    10030    2    1    2    0    0  0.00000000000E+00  0.00000000000E+00 -0.16280118200E+03  0.23273248428E+04  0.23216237203E+04 0.  0.
        2    1    3    3  502    0 -0.83612681476E+03  0.38477372107E+02  0.72487270676E+03  0.11072619381E+04  0.25500000920E-02 0.  1.
       -2    1    3    3    0  502  0.83612681476E+03 -0.38477372107E+02 -0.88767388877E+03  0.12200629047E+04  0.25500000920E-02 0. -1.
</event>
<event>
 5   0  0.1444091E-06  0.3617894E+04  0.7818609E-02  0.8086405E-01
        2   -1    0    0  501    0  0.00000000000E+00  0.00000000000E+00  0.14381834313E+04  0.14381834313E+04  0.25500000920E-02 0.  1.
       -2   -1    0    0    0  501  0.00000000000E+00  0.00000000000E+00 -0.22752929276E+04  0.22752929276E+04  0.25500000920E-02 0. -1.
    10030    2    1    2    0    0  0.00000000000E+00  0.00000000000E+00 -0.83710949633E+03  0.37134763589E+04  0.36178936357E+04 0.  0.
        1    1    3    3  502    0 -0.11662736517E+04  0.13783796591E+04 -0.53175850283E+03  0.18822571080E+04  0.50400001928E-02 0. -1.
       -1    1    3    3    0  502  0.11662736517E+04 -0.13783796591E+04 -0.30535099351E+03  0.18312192509E+04  0.50400001928E-02 0.  1.
</event>
<event>
 5   0  0.4811500E-07  0.3510422E+04  0.7818609E-02  0.8111325E-01
        1   -1    0    0  501    0  0.00000000000E+00  0.00000000000E+00  0.24143342417E+04  0.24143342417E+04  0.50400001928E-02 0.  1.
       -1   -1    0    0    0  501  0.00000000000E+00  0.00000000000E+00 -0.12760310836E+04  0.12760310836E+04  0.50400001928E-02 0. -1.
    10030    2    1    2    0    0  0.00000000000E+00  0.00000000000E+00  0.11383031581E+04  0.36903653253E+04  0.35104219340E+04 0.  0.
        4    1    3    3  502    0 -0.63010661778E+03 -0.39194351178E+03  0.22413188970E+04  0.23609671911E+04  0.12699999809E+01 0.  1.
       -4    1    3    3    0  502  0.63010661778E+03  0.39194351178E+03 -0.11030157389E+04  0.13293981342E+04  0.12699999809E+01 0. -1.
</event>
<event>
 5   0  0.4811500E-07  0.3695078E+04  0.7818609E-02  0.8069053E-01
        4   -1    0    0  501    0  0.00000000000E+00  0.00000000000E+00  0.13025185963E+04  0.13025192154E+04  0.12699999809E+01 0.  1.
       -4   -1    0    0    0  501  0.00000000000E+00  0.00000000000E+00 -0.26206143805E+04  0.26206146882E+04  0.12699999809E+01 0. -1.
    10030    2    1    2    0    0  0.00000000000E+00  0.00000000000E+00 -0.13180957842E+04  0.39231339036E+04  0.36950782305E+04 0.  0.
        5    1    3    3  502    0  0.15316210569E+04  0.32029031233E+02  0.43739960725E+03  0.15931821701E+04  0.46999998093E+01 0.  1.
       -5    1    3    3    0  502 -0.15316210569E+04 -0.32029031233E+02 -0.17554953914E+04  0.23299517335E+04  0.46999998093E+01 0. -1.
</event>
<event>
 5   0  0.4811500E-07  0.3370132E+04  0.7818609E-02  0.8145276E-01
        1   -1    0    0  501    0  0.00000000000E+00  0.00000000000E+00  0.17083260055E+04  0.17083260055E+04  0.50400001928E-02 0.  1.
       -1   -1    0    0    0  501  0.00000000000E+00  0.00000000000E+00 -0.16621227940E+04  0.16621227940E+04  0.50400001928E-02 0. -1.
    10030    2    1    2    0    0  0.00000000000E+00  0.00000000000E+00  0.46203211516E+02  0.33704487996E+04  0.33701321003E+04 0.  0.
        4    1    3    3  502    0 -0.11809403393E+04  0.17886937924E+03  0.12118392502E+04  0.17015200031E+04  0.12699999809E+01 0.  1.
       -4    1    3    3    0  502  0.11809403393E+04 -0.17886937924E+03 -0.11656360387E+04  0.16689287964E+04  0.12699999809E+01 0. -1.
</event>
<event>
 5   0  0.1444091E-06  0.3568807E+04  0.7818609E-02  0.8097674E-01
        2   -1    0    0  501    0  0.00000000000E+00  0.00000000000E+00  0.19391168084E+04  0.19391168084E+04  0.25500000920E-02 0. -1.
       -2   -1    0    0    0  501  0.00000000000E+00  0.00000000000E+00 -0.16420343082E+04  0.16420343082E+04  0.25500000920E-02 0.  1.
    10030    2    1    2    0    0  0.00000000000E+00  0.00000000000E+00  0.29708250021E+03  0.35811511166E+04  0.35688072669E+04 0.  0.
        1    1    3    3  502    0 -0.28223682058E+03 -0.93345582397E+03 -0.13509831423E+04  0.16661791168E+04  0.50400001928E-02 0.  1.
       -1    1    3    3    0  502  0.28223682058E+03  0.93345582397E+03  0.16480656425E+04  0.19149719999E+04  0.50400001928E-02 0. -1.
</event>
<event>
 5   0  0.5071661E-07  0.3658481E+04  0.7818609E-02  0.8077226E-01
        1   -1    0    0  501    0  0.00000000000E+00  0.00000000000E+00  0.14788459493E+04  0.14788459493E+04  0.50400001928E-02 0.  1.
       -1   -1    0    0    0  501  0.00000000000E+00  0.00000000000E+00 -0.22626573177E+04  0.22626573177E+04  0.50400001928E-02 0. -1.
    10030    2    1    2    0    0  0.00000000000E+00  0.00000000000E+00 -0.78381136840E+03  0.37415032669E+04  0.36584814384E+04 0.  0.
        1    1    3    3  502    0 -0.82104918823E+03  0.11495935761E+04  0.79654735854E+03  0.16217813829E+04  0.50400001928E-02 0.  1.
       -1    1    3    3    0  502  0.82104918823E+03 -0.11495935761E+04 -0.15803587269E+04  0.21197218840E+04  0.50400001928E-02 0. -1.
</event>
<event>
 5   0  0.4811500E-07  0.3583799E+04  0.7818609E-02  0.8094213E-01
        1   -1    0    0  501    0  0.00000000000E+00  0.00000000000E+00  0.23397246186E+04  0.23397246186E+04  0.50400001928E-02 0.  1.
       -1   -1    0    0    0  501  0.00000000000E+00  0.00000000000E+00 -0.13723422836E+04  0.13723422836E+04  0.50400001928E-02 0. -1.
    10030    2    1    2    0    0  0.00000000000E+00  0.00000000000E+00  0.96738233497E+03  0.37120669022E+04  0.35837985580E+04 0.  0.
        2    1    3    3  502    0 -0.12631597543E+04  0.12602550437E+04  0.31321716500E+03  0.18116071132E+04  0.25500000920E-02 0.  1.
       -2    1    3    3    0  502  0.12631597543E+04 -0.12602550437E+04  0.65416516998E+03  0.19004597890E+04  0.25500000920E-02 0. -1.
</event>
<event>
 5   0  0.1468942E-06  0.3618188E+04  0.7818609E-02  0.8086338E-01
       -2   -1    0    0    0  501  0.00000000000E+00  0.00000000000E+00  0.15544691053E+04  0.15544691053E+04  0.25500000920E-02 0. -1.
        2   -1    0    0  501    0  0.00000000000E+00  0.00000000000E+00 -0.21054263797E+04  0.21054263797E+04  0.25500000920E-02 0.  1.
    10030    2    1    2    0    0  0.00000000000E+00  0.00000000000E+00 -0.55095727439E+03  0.36598954849E+04  0.36181875355E+04 0.  0.
        2    1    3    3  502    0  0.59858640062E+03  0.15423442459E+03  0.14443338540E+04  0.15710487639E+04  0.25500000920E-02 0. -1.
       -2    1    3    3    0  502 -0.59858640062E+03 -0.15423442459E+03 -0.19952911284E+04  0.20888467210E+04  0.25500000920E-02 0.  1.
</event>
<event>
 5   0  0.1468942E-06  0.2197478E+04  0.7818609E-02  0.8519478E-01
       -2   -1    0    0    0  501  0.00000000000E+00  0.00000000000E+00  0.94718931128E+03  0.94718931128E+03  0.25500000920E-02 0.  1.
        2   -1    0    0  501    0  0.00000000000E+00  0.00000000000E+00 -0.12745368310E+04  0.12745368310E+04  0.25500000920E-02 0. -1.
    10030    2    1    2    0    0  0.00000000000E+00  0.00000000000E+00 -0.32734751974E+03  0.22217261423E+04  0.21974782485E+04 0.  0.
        2    1    3    3  502    0  0.64952903927E+03  0.77008908165E+03  0.27968817284E+03  0.10455384453E+04  0.25500000920E-02 0.  1.
       -2    1    3    3    0  502 -0.64952903927E+03 -0.77008908165E+03 -0.60703569259E+03  0.11761876970E+04  0.25500000920E-02 0. -1.
</event>
<event>
 5   0  0.1491854E-06  0.3011263E+04  0.7818609E-02  0.8240522E-01
       -2   -1    0    0    0  501  0.00000000000E+00  0.00000000000E+00  0.12187986717E+04  0.12187986717E+04  0.25500000920E-02 0. -1.
        2   -1    0    0  501    0  0.00000000000E+00  0.00000000000E+00 -0.18599680097E+04  0.18599680097E+04  0.25500000920E-02 0.  1.
    10030    2    1    2    0    0  0.00000000000E+00  0.00000000000E+00 -0.64116933799E+03  0.30787666814E+04  0.30112632164E+04 0.  0.
        5    1    3    3  502    0  0.72018378538E+03  0.12941570265E+04 -0.59757733212E+03  0.15970685182E+04  0.46999998093E+01 0.  1.
       -5    1    3    3    0  502 -0.72018378538E+03 -0.12941570265E+04 -0.43592005867E+02  0.14816981632E+04  0.46999998093E+01 0. -1.
</event>
<event>
 5   0  0.1444091E-06  0.2642846E+04  0.7818609E-02  0.8353791E-01
       -2   -1    0    0    0  501  0.00000000000E+00  0.00000000000E+00  0.14828421165E+04  0.14828421165E+04  0.25500000920E-02 0. -1.
        2   -1    0    0  501    0  0.00000000000E+00  0.00000000000E+00 -0.11775756451E+04  0.11775756451E+04  0.25500000920E-02 0.  1.
    10030    2    1    2    0    0  0.00000000000E+00  0.00000000000E+00  0.30526647145E+03  0.26604177616E+04  0.26428460128E+04 0.  0.
        1    1    3    3  502    0 -0.22082153250E+03  0.95256112892E+03  0.10473757970E+04  0.14328750517E+04  0.50400001928E-02 0. -1.
       -1    1    3    3    0  502  0.22082153250E+03 -0.95256112892E+03 -0.74210932555E+03  0.12275427099E+04  0.50400001928E-02 0.  1.
</event>
<event>
 5   0  0.4811500E-07  0.3413390E+04  0.7818609E-02  0.8134628E-01
       -1   -1    0    0    0  501  0.00000000000E+00  0.00000000000E+00  0.14850902941E+04  0.14850902941E+04  0.50400001928E-02 0. -1.
        1   -1    0    0  501    0  0.00000000000E+00  0.00000000000E+00 -0.19613675472E+04  0.19613675472E+04  0.50400001928E-02 0.  1.
    10030    2    1    2    0    0  0.00000000000E+00  0.00000000000E+00 -0.47627725315E+03  0.34464578414E+04  0.34133900495E+04 0.  0.
        3    1    3    3  502    0  0.10331688148E+04  0.90524839428E+03 -0.12608158942E+04  0.18645560288E+04  0.10100000352E+00 0.  1.
       -3    1    3    3    0  502 -0.10331688148E+04 -0.90524839428E+03  0.78453864101E+03  0.15819018126E+04  0.10100000352E+00 0. -1.
</event>
<event>
 5   0  0.1379425E-06  0.3548690E+04  0.7818609E-02  0.8102347E-01
       -2   -1    0    0    0  501  0.00000000000E+00  0.00000000000E+00  0.13500615570E+04  0.13500615570E+04  0.25500000920E-02 0.  1.
        2   -1    0    0  501    0  0.00000000000E+00  0.00000000000E+00 -0.23319682288E+04  0.23319682288E+04  0.25500000920E-02 0. -1.
    10030    2    1    2    0    0  0.00000000000E+00  0.00000000000E+00 -0.98190667177E+03  0.36820297858E+04  0.35486902699E+04 0.  0.
        4    1    3    3  502    0  0.18117913537E+03  0.17577225917E+04 -0.65788500120E+03  0.18855314572E+04  0.12699999809E+01 0. -1.
       -4    1    3    3    0  502 -0.18117913537E+03 -0.17577225917E+04 -0.32402167056E+03  0.17964983285E+04  0.12699999809E+01 0.  1.
</event>
<event>
 5   0  0.1491854E-06  0.3741063E+04  0.7818609E-02  0.8058922E-01
        2   -1    0    0  501    0  0.00000000000E+00  0.00000000000E+00  0.18048693103E+04  0.18048693103E+04  0.25500000920E-02 0.  1.
       -2   -1    0    0    0  501  0.00000000000E+00  0.00000000000E+00 -0.19385829724E+04  0.19385829724E+04  0.25500000920E-02 0. -1.
    10030    2    1    2    0    0  0.00000000000E+00  0.00000000000E+00 -0.13371366207E+03  0.37434522827E+04  0.37410634383E+04 0.  0.
        5    1    3    3  502    0  0.59940267414E+03 -0.28996178437E+03 -0.18159734175E+04  0.19342034395E+04  0.46999998093E+01 0. -1.
       -5    1    3    3    0  502 -0.59940267414E+03  0.28996178437E+03  0.16822597554E+04  0.18092488433E+04  0.46999998093E+01 0.  1.
</event>
<event>
 5   0  0.1444091E-06  0.3512703E+04  0.7818609E-02  0.8110786E-01
        2   -1    0    0  501    0  0.00000000000E+00  0.00000000000E+00  0.19677978490E+04  0.19677978490E+04  0.25500000920E-02 0.  1.
       -2   -1    0    0    0  501  0.00000000000E+00  0.00000000000E+00 -0.15676260378E+04  0.15676260378E+04  0.25500000920E-02 0. -1.
    10030    2    1    2    0    0  0.00000000000E+00  0.00000000000E+00  0.40017181125E+03  0.35354238868E+04  0.35127033153E+04 0.  0.
        1    1    3    3  502    0  0.53836066292E+03  0.16221485046E+04 -0.20697187220E+03  0.17216373981E+04  0.50400001928E-02 0. -1.
       -1    1    3    3    0  502 -0.53836066292E+03 -0.16221485046E+04  0.60714368345E+03  0.18137864888E+04  0.50400001928E-02 0.  1.
</event>
<event>
 5   0  0.5071661E-07  0.3497340E+04  0.7818609E-02  0.8114421E-01
       -1   -1    0    0    0  501  0.00000000000E+00  0.00000000000E+00  0.14177185459E+04  0.14177185459E+04  0.50400001928E-02 0. -1.
        1   -1    0    0  501    0  0.00000000000E+00  0.00000000000E+00 -0.21568788059E+04  0.21568788059E+04  0.50400001928E-02 0.  1.
    10030    2    1    2    0    0  0.00000000000E+00  0.00000000000E+00 -0.73916026007E+03  0.35745973518E+04  0.34973401804E+04 0.  0.
        1    1    3    3  502    0 -0.10623944656E+04 -0.42172343387E+03 -0.17221861462E+04  0.20669924473E+04  0.50400001928E-02 0.  1.
       -1    1    3    3    0  502  0.10623944656E+04  0.42172343387E+03  0.98302588613E+03  0.15076049045E+04  0.50400001928E-02 0. -1.
</event>
<event>
 5   0  0.1491854E-06  0.3638932E+04  0.7818609E-02  0.8081632E-01
       -2   -1    0    0    0  501  0.00000000000E+00  0.00000000000E+00  0.13843631833E+04  0.13843631833E+04  0.25500000920E-02 0. -1.
        2   -1    0    0  501    0  0.00000000000E+00  0.00000000000E+00 -0.23913210725E+04  0.23913210725E+04  0.25500000920E-02 0.  1.
    10030    2    1    2    0    0  0.00000000000E+00  0.00000000000E+00 -0.10069578892E+04  0.37756842557E+04  0.36389321797E+04 0.  0.
        5    1    3    3  502    0 -0.10461386943E+04 -0.14027274806E+03 -0.20411827681E+04  0.22979407726E+04  0.46999998093E+01 0.  1.
       -5    1    3    3    0  502  0.10461386943E+04  0.14027274806E+03  0.10342248790E+04  0.14777434831E+04  0.46999998093E+01 0. -1.
</event>
<event>
 5   0  0.4811500E-07  0.3583059E+04  0.7818609E-02  0.8094383E-01
        1   -1    0    0  501    0  0.00000000000E+00  0.00000000000E+00  0.12387802828E+04  0.12387802828E+04  0.50400001928E-02 0.  1.
       -1   -1    0    0    0  501  0.00000000000E+00  0.00000000000E+00 -0.25909183268E+04  0.25909183268E+04  0.50400001928E-02 0. -1.
    10030    2    1    2    0    0  0.00000000000E+00  0.00000000000E+00 -0.13521380439E+04  0.38296986096E+04  0.35830593284E+04 0.  0.
        2    1    3    3  502    0  0.96481515509E+03  0.11748138373E+04 -0.16892222326E+04  0.22725596993E+04  0.25500000920E-02 0. -1.
       -2    1    3    3    0  502 -0.96481515509E+03 -0.11748138373E+04  0.33708418869E+03  0.15571389103E+04  0.25500000920E-02 0.  1.
</event>
<event>
 5   0  0.1468942E-06  0.3178768E+04  0.7818609E-02  0.8194447E-01
        2   -1    0    0  501    0  0.00000000000E+00  0.00000000000E+00  0.29198303653E+04  0.29198303653E+04  0.25500000920E-02 0.  1.
       -2   -1    0    0    0  501  0.00000000000E+00  0.00000000000E+00 -0.86516743715E+03  0.86516743715E+03  0.25500000920E-02 0. -1.
    10030    2    1    2    0    0  0.00000000000E+00  0.00000000000E+00  0.20546629281E+04  0.37849978024E+04  0.31787684118E+04 0.  0.
        2    1    3    3  502    0  0.19842632706E+03  0.55405682211E+03 -0.73064918119E+03  0.93818985039E+03  0.25500000920E-02 0. -1.
       -2    1    3    3    0  502 -0.19842632706E+03 -0.55405682211E+03  0.27853121093E+04  0.28468079520E+04  0.25500000920E-02 0.  1.
</event>
<event>
 5   0  0.1379425E-06  0.2254883E+04  0.7818609E-02  0.8495926E-01
        2   -1    0    0  501    0  0.00000000000E+00  0.00000000000E+00  0.16327588753E+04  0.16327588753E+04  0.25500000920E-02 0.  1.
       -2   -1    0    0    0  501  0.00000000000E+00  0.00000000000E+00 -0.77851332488E+03  0.77851332488E+03  0.25500000920E-02 0. -1.
    10030    2    1    2    0    0  0.00000000000E+00  0.00000000000E+00  0.85424555045E+03  0.24112722002E+04  0.22548831817E+04 0.  0.
        4    1    3    3  502    0  0.27481643681E+03  0.50993096416E+03 -0.60720971051E+03  0.83920135104E+03  0.12699999809E+01 0. -1.
       -4    1    3    3    0  502 -0.27481643681E+03 -0.50993096416E+03  0.14614552610E+04  0.15720708492E+04  0.12699999809E+01 0.  1.
</event>
<event>
 5   0  0.1491854E-06  0.3554500E+04  0.7818609E-02  0.8100994E-01
        2   -1    0    0  501    0  0.00000000000E+00  0.00000000000E+00  0.85119823119E+03  0.85119823119E+03  0.25500000920E-02 0.  1.
       -2   -1    0    0    0  501  0.00000000000E+00  0.00000000000E+00 -0.37107896636E+04  0.37107896636E+04  0.25500000920E-02 0. -1.
    10030    2    1    2    0    0  0.00000000000E+00  0.00000000000E+00 -0.28595914324E+04  0.45619878948E+04  0.35545000200E+04 0.  0.
        5    1    3    3  502    0  0.44131894566E+03 -0.75209396673E+03 -0.34173417615E+04  0.35268476791E+04  0.46999998093E+01 0. -1.
       -5    1    3    3    0  502 -0.44131894566E+03  0.75209396673E+03  0.55775032909E+03  0.10351402157E+04  0.46999998093E+01 0.  1.
</event>
<event>
 5   0  0.4811500E-07  0.3628915E+04  0.7818609E-02  0.8083900E-01
        1   -1    0    0  501    0  0.00000000000E+00  0.00000000000E+00  0.14411065033E+04  0.14411065033E+04  0.50400001928E-02 0.  1.
       -1   -1    0    0    0  501  0.00000000000E+00  0.00000000000E+00 -0.22845336415E+04  0.22845336415E+04  0.50400001928E-02 0. -1.
    10030    2    1    2    0    0  0.00000000000E+00  0.00000000000E+00 -0.84342713824E+03  0.37256401448E+04  0.36289151479E+04 0.  0.
        4    1    3    3  502    0  0.13330420768E+04  0.91518262479E+01 -0.16854448488E+04  0.21489092317E+04  0.12699999809E+01 0. -1.
       -4    1    3    3    0  502 -0.13330420768E+04 -0.91518262479E+01  0.84201771061E+03  0.15767309131E+04  0.12699999809E+01 0.  1.
</event>
<event>
 5   0  0.4811500E-07  0.2236538E+04  0.7818609E-02  0.8503372E-01
       -1   -1    0    0    0  501  0.00000000000E+00  0.00000000000E+00  0.62976978962E+03  0.62976978964E+03  0.50400001928E-02 0. -1.
        1   -1    0    0  501    0  0.00000000000E+00  0.00000000000E+00 -0.19856876664E+04  0.19856876664E+04  0.50400001928E-02 0.  1.
    10030    2    1    2    0    0  0.00000000000E+00  0.00000000000E+00 -0.13559178768E+04  0.26154574560E+04  0.22365384897E+04 0.  0.
        4    1    3    3  502    0 -0.11154588334E+04 -0.63331384487E+02 -0.62230110771E+03  0.12788743311E+04  0.12699999809E+01 0.  1.
       -4    1    3    3    0  502  0.11154588334E+04  0.63331384487E+02 -0.73361676906E+03  0.13365831250E+04  0.12699999809E+01 0. -1.
</event>
<event>
 5   0  0.1468942E-06  0.3613013E+04  0.7818609E-02  0.8087517E-01
        2   -1    0    0  501    0  0.00000000000E+00  0.00000000000E+00  0.12218111936E+04  0.12218111937E+04  0.25500000920E-02 0. -1.
       -2   -1    0    0    0  501  0.00000000000E+00  0.00000000000E+00 -0.26710071395E+04  0.26710071395E+04  0.25500000920E-02 0.  1.
    10030    2    1    2    0    0  0.00000000000E+00  0.00000000000E+00 -0.14491959458E+04  0.38928183331E+04  0.36130133802E+04 0.  0.
        2    1    3    3  502    0 -0.16644702147E+04  0.60606653629E+03 -0.34261619287E+03  0.18042071937E+04  0.25500000920E-02 0.  1.
       -2    1    3    3    0  502  0.16644702147E+04 -0.60606653629E+03 -0.11065797530E+04  0.20886111395E+04  0.25500000920E-02 0. -1.
</event>
<event>
 5   0  0.1444091E-06  0.3689449E+04  0.7818609E-02  0.8070304E-01
       -2   -1    0    0    0  501  0.00000000000E+00  0.00000000000E+00  0.17845249989E+04  0.17845249989E+04  0.25500000920E-02 0. -1.
        2   -1    0    0  501    0  0.00000000000E+00  0.00000000000E+00 -0.19069549611E+04  0.19069549611E+04  0.25500000920E-02 0.  1.
    10030    2    1    2    0    0  0.00000000000E+00  0.00000000000E+00 -0.12242996220E+03  0.36914799601E+04  0.36894491730E+04 0.  0.
        1    1    3    3  502    0  0.42873470677E+03 -0.50094554474E+03 -0.17850239740E+04  0.19029110529E+04  0.50400001928E-02 0.  1.
       -1    1    3    3    0  502 -0.42873470677E+03  0.50094554474E+03  0.16625940118E+04  0.17885689072E+04  0.50400001928E-02 0. -1.
</event>
<event>
 5   0  0.1379425E-06  0.3500649E+04  0.7818609E-02  0.8113636E-01
        2   -1    0    0  501    0  0.00000000000E+00  0.00000000000E+00  0.26072220135E+04  0.26072220135E+04  0.25500000920E-02 0.  1.
       -2   -1    0    0    0  501  0.00000000000E+00  0.00000000000E+00 -0.11750578202E+04  0.11750578202E+04  0.25500000920E-02 0. -1.
    10030    2    1    2    0    0  0.00000000000E+00  0.00000000000E+00  0.14321641933E+04  0.37822798337E+04  0.35006494346E+04 0.  0.
        4    1    3    3  502    0  0.66112287610E+03  0.16582028379E+03  0.24579402499E+04  0.25506963184E+04  0.12699999809E+01 0.  1.
       -4    1    3    3    0  502 -0.66112287610E+03 -0.16582028379E+03 -0.10257760566E+04  0.12315835153E+04  0.12699999809E+01 0. -1.
</event>
<event>
 5   0  0.4811500E-07  0.3432960E+04  0.7818609E-02  0.8129864E-01
        1   -1    0    0  501    0  0.00000000000E+00  0.00000000000E+00  0.14083331696E+04  0.14083331696E+04  0.50400001928E-02 0. -1.
       -1   -1    0    0    0  501  0.00000000000E+00  0.00000000000E+00 -0.20920500651E+04  0.20920500651E+04  0.50400001928E-02 0.  1.
    10030    2    1    2    0    0  0.00000000000E+00  0.00000000000E+00 -0.68371689542E+03  0.35003832347E+04  0.34329599469E+04 0.  0.
        2    1    3    3  502    0 -0.12095692708E+04  0.10042621173E+04  0.36066038986E+03  0.16129712142E+04  0.25500000920E-02 0. -1.
       -2    1    3    3    0  502  0.12095692708E+04 -0.10042621173E+04 -0.10443772853E+04  0.18874120205E+04  0.25500000920E-02 0.  1.
</event>
<event>
 5   0  0.1491854E-06  0.3534243E+04  0.7818609E-02  0.8105722E-01
        2   -1    0    0  501    0  0.00000000000E+00  0.00000000000E+00  0.16455962148E+04  0.16455962148E+04  0.25500000920E-02 0. -1.
       -2   -1    0    0    0  501  0.00000000000E+00  0.00000000000E+00 -0.18976211199E+04  0.18976211199E+04  0.25500000920E-02 0.  1.
    10030    2    1    2    0    0  0.00000000000E+00  0.00000000000E+00 -0.25202490512E+03  0.35432173347E+04  0.35342428508E+04 0.  0.
        5    1    3    3  502    0 -0.13336669202E+04  0.47337762032E+03  0.93494803893E+03  0.16961437884E+04  0.46999998093E+01 0. -1.
       -5    1    3    3    0  502  0.13336669202E+04 -0.47337762032E+03 -0.11869729440E+04  0.18470735463E+04  0.46999998093E+01 0.  1.
</event>
<event>
 5   0  0.4811500E-07  0.2430320E+04  0.7818609E-02  0.8428239E-01
        1   -1    0    0  501    0  0.00000000000E+00  0.00000000000E+00  0.21936762505E+04  0.21936762505E+04  0.50400001928E-02 0. -1.
       -1   -1    0    0    0  501  0.00000000000E+00  0.00000000000E+00 -0.67312296764E+03  0.67312296766E+03  0.50400001928E-02 0.  1.
    10030    2    1    2    0    0  0.00000000000E+00  0.00000000000E+00  0.15205532828E+04  0.28667992181E+04  0.24303200347E+04 0.  0.
        4    1    3    3  502    0 -0.10238074653E+04  0.24512230714E+03  0.44361506664E+02  0.10536774780E+04  0.12699999809E+01 0.  1.
       -4    1    3    3    0  502  0.10238074653E+04 -0.24512230714E+03  0.14761917762E+04  0.18131217401E+04  0.12699999809E+01 0. -1.
</event>
<event>
 5   0  0.5071661E-07  0.2484804E+04  0.7818609E-02  0.8408419E-01
       -1   -1    0    0    0  501  0.00000000000E+00  0.00000000000E+00  0.71195973629E+03  0.71195973631E+03  0.50400001928E-02 0.  1.
        1   -1    0    0  501    0  0.00000000000E+00  0.00000000000E+00 -0.21680472683E+04  0.21680472683E+04  0.50400001928E-02 0. -1.
    10030    2    1    2    0    0  0.00000000000E+00  0.00000000000E+00 -0.14560875320E+04  0.28800070046E+04  0.24848037037E+04 0.  0.
        1    1    3    3  502    0 -0.52423352914E+03 -0.18656381249E+03  0.55945757466E+03  0.78906249884E+03  0.50400001928E-02 0.  1.
       -1    1    3    3    0  502  0.52423352914E+03  0.18656381249E+03 -0.20155451066E+04  0.20909445057E+04  0.50400001928E-02 0. -1.
</event>
<event>
 5   0  0.5071661E-07  0.3027997E+04  0.7818609E-02  0.8235781E-01
        1   -1    0    0  501    0  0.00000000000E+00  0.00000000000E+00  0.12408452288E+04  0.12408452288E+04  0.50400001928E-02 0.  1.
       -1   -1    0    0    0  501  0.00000000000E+00  0.00000000000E+00 -0.18472828165E+04  0.18472828165E+04  0.50400001928E-02 0. -1.
    10030    2    1    2    0    0  0.00000000000E+00  0.00000000000E+00 -0.60643758769E+03  0.30881280453E+04  0.30279974036E+04 0.  0.
        1    1    3    3  502    0  0.26825209397E+02 -0.61656537971E+03 -0.17131777121E+04  0.18209476468E+04  0.50400001928E-02 0. -1.
       -1    1    3    3    0  502 -0.26825209397E+02  0.61656537971E+03  0.11067401244E+04  0.12671803985E+04  0.50400001928E-02 0.  1.
</event>
<event>
 5   0  0.4811500E-07  0.3585926E+04  0.7818609E-02  0.8093723E-01
       -1   -1    0    0    0  501  0.00000000000E+00  0.00000000000E+00  0.14292497632E+04  0.14292497632E+04  0.50400001928E-02 0.  1.
        1   -1    0    0  501    0  0.00000000000E+00  0.00000000000E+00 -0.22492336989E+04  0.22492336989E+04  0.50400001928E-02 0. -1.
    10030    2    1    2    0    0  0.00000000000E+00  0.00000000000E+00 -0.81998393567E+03  0.36784834620E+04  0.35859262298E+04 0.  0.
        2    1    3    3  502    0 -0.27143854721E+02 -0.14338718073E+03 -0.22431313234E+04  0.22478733965E+04  0.25500000920E-02 0. -1.
       -2    1    3    3    0  502  0.27143854721E+02  0.14338718073E+03  0.14231473877E+04  0.14306100656E+04  0.25500000920E-02 0.  1.
</event>
<event>
 5   0  0.5071661E-07  0.3520716E+04  0.7818609E-02  0.8108898E-01
       -1   -1    0    0    0  501  0.00000000000E+00  0.00000000000E+00  0.16829020710E+04  0.16829020710E+04  0.50400001928E-02 0.  1.
        1   -1    0    0  501    0  0.00000000000E+00  0.00000000000E+00 -0.18413791501E+04  0.18413791502E+04  0.50400001928E-02 0. -1.
    10030    2    1    2    0    0  0.00000000000E+00  0.00000000000E+00 -0.15847707920E+03  0.35242812211E+04  0.35207162824E+04 0.  0.
        1    1    3    3  502    0  0.10372636755E+04 -0.74376217493E+03  0.11343267180E+04  0.17075699718E+04  0.50400001928E-02 0.  1.
       -1    1    3    3    0  502 -0.10372636755E+04  0.74376217493E+03 -0.12928037972E+04  0.18167112493E+04  0.50400001928E-02 0. -1.
</event>
<event>
 5   0  0.1444091E-06  0.3706428E+04  0.7818609E-02  0.8066539E-01
        2   -1    0    0  501    0  0.00000000000E+00  0.00000000000E+00  0.16945247498E+04  0.16945247498E+04  0.25500000920E-02 0. -1.
       -2   -1    0    0    0  501  0.00000000000E+00  0.00000000000E+00 -0.20267646624E+04  0.20267646624E+04  0.25500000920E-02 0.  1.
    10030    2    1    2    0    0  0.00000000000E+00  0.00000000000E+00 -0.33223991263E+03  0.37212894122E+04  0.37064284061E+04 0.  0.
        1    1    3    3  502    0 -0.24363751345E+03  0.17752735458E+04  0.30847767258E+03  0.18182722225E+04  0.50400001928E-02 0. -1.
       -1    1    3    3    0  502  0.24363751345E+03 -0.17752735458E+04 -0.64071758520E+03  0.19030171897E+04  0.50400001928E-02 0.  1.
</event>
<event>
 5   0  0.4811500E-07  0.3816323E+04  0.7818609E-02  0.8042661E-01
       -1   -1    0    0    0  501  0.00000000000E+00  0.00000000000E+00  0.26515241452E+04  0.26515241452E+04  0.50400001928E-02 0. -1.
        1   -1    0    0  501    0  0.00000000000E+00  0.00000000000E+00 -0.13732027570E+04  0.13732027570E+04  0.50400001928E-02 0.  1.
    10030    2    1    2    0    0  0.00000000000E+00  0.00000000000E+00  0.12783213882E+04  0.40247269022E+04  0.38163229771E+04 0.  0.
        3    1    3    3  502    0  0.28602351806E+03 -0.49540459631E+03 -0.12806455326E+04  0.14026004981E+04  0.10100000352E+00 0.  1.
       -3    1    3    3    0  502 -0.28602351806E+03  0.49540459631E+03  0.25589669208E+04  0.26221264041E+04  0.10100000352E+00 0. -1.
</event>
<event>
 5   0  0.1379425E-06  0.3616349E+04  0.7818609E-02  0.8086757E-01
       -2   -1    0    0    0  501  0.00000000000E+00  0.00000000000E+00  0.15179302933E+04  0.15179302933E+04  0.25500000920E-02 0. -1.
        2   -1    0    0  501    0  0.00000000000E+00  0.00000000000E+00 -0.21539160851E+04  0.21539160851E+04  0.25500000920E-02 0.  1.
    10030    2    1    2    0    0  0.00000000000E+00  0.00000000000E+00 -0.63598579188E+03  0.36718463784E+04  0.36163486971E+04 0.  0.
        4    1    3    3  502    0 -0.12831301257E+04 -0.87888780815E+03  0.61845489966E+03  0.16737248205E+04  0.12699999809E+01 0. -1.
       -4    1    3    3    0  502  0.12831301257E+04  0.87888780815E+03 -0.12544406915E+04  0.19981215579E+04  0.12699999809E+01 0.  1.
</event>
<event>
 5   0  0.1505671E-06  0.2399438E+04  0.7818609E-02  0.8439714E-01
        2   -1    0    0  501    0  0.00000000000E+00  0.00000000000E+00  0.24374020956E+04  0.24374020956E+04  0.25500000920E-02 0.  1.
       -2   -1    0    0    0  501  0.00000000000E+00  0.00000000000E+00 -0.59051616346E+03  0.59051616347E+03  0.25500000920E-02 0. -1.
    10030    2    1    2    0    0  0.00000000000E+00  0.00000000000E+00  0.18468859321E+04  0.30279182591E+04  0.23994377127E+04 0.  0.
        3    1    3    3  502    0 -0.13051498329E+03 -0.11540080834E+04  0.54369583919E+03  0.12823314678E+04  0.10100000352E+00 0.  1.
       -3    1    3    3    0  502  0.13051498329E+03  0.11540080834E+04  0.13031900929E+04  0.17455867913E+04  0.10100000352E+00 0. -1.
</event>
<event>
 5   0  0.1468942E-06  0.3645605E+04  0.7818609E-02  0.8080125E-01
        2   -1    0    0  501    0  0.00000000000E+00  0.00000000000E+00  0.24756462821E+04  0.24756462821E+04  0.25500000920E-02 0. -1.
       -2   -1    0    0    0  501  0.00000000000E+00  0.00000000000E+00 -0.13421176062E+04  0.13421176062E+04  0.25500000920E-02 0.  1.
    10030    2    1    2    0    0  0.00000000000E+00  0.00000000000E+00  0.11335286759E+04  0.38177638883E+04  0.36456047301E+04 0.  0.
        2    1    3    3  502    0 -0.19724170793E+03  0.36265781763E+03 -0.12925175165E+04  0.13568443221E+04  0.25500000920E-02 0.  1.
       -2    1    3    3    0  502  0.19724170793E+03 -0.36265781763E+03  0.24260461923E+04  0.24609195662E+04  0.25500000920E-02 0. -1.
</event>
<event>
 5   0  0.4811500E-07  0.3607600E+04  0.7818609E-02  0.8088753E-01
        1   -1    0    0  501    0  0.00000000000E+00  0.00000000000E+00  0.21592101298E+04  0.21592101299E+04  0.50400001928E-02 0.  1.
       -1   -1    0    0    0  501  0.00000000000E+00  0.00000000000E+00 -0.15068912048E+04  0.15068912048E+04  0.50400001928E-02 0. -1.
    10030    2    1    2    0    0  0.00000000000E+00  0.00000000000E+00  0.65231892508E+03  0.36661013346E+04  0.36076001740E+04 0.  0.
        5    1    3    3  502    0 -0.10414778880E+04 -0.10801716675E+02 -0.11704338747E+04  0.15667579307E+04  0.46999998093E+01 0. -1.
       -5    1    3    3    0  502  0.10414778880E+04  0.10801716675E+02  0.18227527998E+04  0.20993434039E+04  0.46999998093E+01 0.  1.
</event>
<event>
 5   0  0.5071661E-07  0.3644919E+04  0.7818609E-02  0.8080279E-01
        1   -1    0    0  501    0  0.00000000000E+00  0.00000000000E+00  0.21430223684E+04  0.21430223684E+04  0.50400001928E-02 0.  1.
       -1   -1    0    0    0  501  0.00000000000E+00  0.00000000000E+00 -0.15498482683E+04  0.15498482683E+04  0.50400001928E-02 0. -1.
    10030    2    1    2    0    0  0.00000000000E+00  0.00000000000E+00  0.59317410015E+03  0.36928706367E+04  0.36449194814E+04 0.  0.
        1    1    3    3  502    0 -0.16532961122E+04 -0.37026988420E+03 -0.38371634189E+03  0.17371603418E+04  0.50400001928E-02 0.  1.
       -1    1    3    3    0  502  0.16532961122E+04  0.37026988420E+03  0.97689044204E+03  0.19557102949E+04  0.50400001928E-02 0. -1.
</event>
<event>
 5   0  0.1379425E-06  0.3605281E+04  0.7818609E-02  0.8089283E-01
        2   -1    0    0  501    0  0.00000000000E+00  0.00000000000E+00  0.23280592810E+04  0.23280592810E+04  0.25500000920E-02 0.  1.
       -2   -1    0    0    0  501  0.00000000000E+00  0.00000000000E+00 -0.13958030213E+04  0.13958030213E+04  0.25500000920E-02 0. -1.
    10030    2    1    2    0    0  0.00000000000E+00  0.00000000000E+00  0.93225625976E+03  0.37238623023E+04  0.36052806704E+04 0.  0.
        4    1    3    3  502    0 -0.32259899622E+03 -0.91588144138E+03 -0.11025752476E+04  0.14692115969E+04  0.12699999809E+01 0. -1.
       -4    1    3    3    0  502  0.32259899622E+03  0.91588144138E+03  0.20348315074E+04  0.22546507054E+04  0.12699999809E+01 0.  1.
</event>
<event>
 5   0  0.1379425E-06  0.3255981E+04  0.7818609E-02  0.8174187E-01
        2   -1    0    0  501    0  0.00000000000E+00  0.00000000000E+00  0.26414198130E+04  0.26414198130E+04  0.25500000920E-02 0.  1.
       -2   -1    0    0    0  501  0.00000000000E+00  0.00000000000E+00 -0.10033816964E+04  0.10033816964E+04  0.25500000920E-02 0. -1.
    10030    2    1    2    0    0  0.00000000000E+00  0.00000000000E+00  0.16380381166E+04  0.36448015094E+04  0.32559805238E+04 0.  0.
        4    1    3    3  502    0 -0.11336631741E+04 -0.94942664119E+03  0.15813312992E+04  0.21649973280E+04  0.12699999809E+01 0.  1.
       -4    1    3    3    0  502  0.11336631741E+04  0.94942664119E+03  0.56706817349E+02  0.14798041814E+04  0.12699999809E+01 0. -1.
</event>
<event>
 5   0  0.1491854E-06  0.3550757E+04  0.7818609E-02  0.8101866E-01
        2   -1    0    0  501    0  0.00000000000E+00  0.00000000000E+00  0.18250963808E+04  0.18250963808E+04  0.25500000920E-02 0. -1.
       -2   -1    0    0    0  501  0.00000000000E+00  0.00000000000E+00 -0.17270147080E+04  0.17270147080E+04  0.25500000920E-02 0.  1.
    10030    2    1    2    0    0  0.00000000000E+00  0.00000000000E+00  0.98081672809E+02  0.35521110888E+04  0.35507567043E+04 0.  0.
        5    1    3    3  502    0 -0.14658760467E+04 -0.10010789891E+04  0.80588189081E+02  0.17769266369E+04  0.46999998093E+01 0. -1.
       -5    1    3    3    0  502  0.14658760467E+04  0.10010789891E+04  0.17493483728E+02  0.17751844520E+04  0.46999998093E+01 0.  1.
</event>
<event>
 5   0  0.1505671E-06  0.3705851E+04  0.7818609E-02  0.8066667E-01
        2   -1    0    0  501    0  0.00000000000E+00  0.00000000000E+00  0.18715054236E+04  0.18715054236E+04  0.25500000920E-02 0. -1.
       -2   -1    0    0    0  501  0.00000000000E+00  0.00000000000E+00 -0.18345296259E+04  0.18345296259E+04  0.25500000920E-02 0.  1.
    10030    2    1    2    0    0  0.00000000000E+00  0.00000000000E+00  0.36975797618E+02  0.37060350495E+04  0.37058505877E+04 0.  0.
        3    1    3    3  502    0 -0.82978968662E+02 -0.16326896778E+04  0.89075321342E+03  0.18617202772E+04  0.10100000352E+00 0. -1.
       -3    1    3    3    0  502  0.82978968662E+02  0.16326896778E+04 -0.85377741580E+03  0.18443147723E+04  0.10100000352E+00 0.  1.
</event>
<event>
 5   0  0.1379425E-06  0.2472369E+04  0.7818609E-02  0.8412896E-01
        2   -1    0    0  501    0  0.00000000000E+00  0.00000000000E+00  0.12020030717E+04  0.12020030717E+04  0.25500000920E-02 0. -1.
       -2   -1    0    0    0  501  0.00000000000E+00  0.00000000000E+00 -0.12713378713E+04  0.12713378713E+04  0.25500000920E-02 0.  1.
    10030    2    1    2    0    0  0.00000000000E+00  0.00000000000E+00 -0.69334799667E+02  0.24733409430E+04  0.24723689259E+04 0.  0.
        4    1    3    3  502    0 -0.12083693090E+04 -0.15128298900E+03 -0.24713612470E+03  0.12426265757E+04  0.12699999809E+01 0. -1.
       -4    1    3    3    0  502  0.12083693090E+04  0.15128298900E+03  0.17780132504E+03  0.12307143673E+04  0.12699999809E+01 0.  1.
</event>
<event>
 5   0  0.4811500E-07  0.3714794E+04  0.7818609E-02  0.8064691E-01
       -1   -1    0    0    0  501  0.00000000000E+00  0.00000000000E+00  0.19100627819E+04  0.19100627819E+04  0.50400001928E-02 0.  1.
        1   -1    0    0  501    0  0.00000000000E+00  0.00000000000E+00 -0.18061831267E+04  0.18061831267E+04  0.50400001928E-02 0. -1.
    10030    2    1    2    0    0  0.00000000000E+00  0.00000000000E+00  0.10387965519E+03  0.37162459086E+04  0.37147937588E+04 0.  0.
        5    1    3    3  502    0  0.12231688248E+03 -0.10638347004E+04 -0.14662816397E+04  0.18156843411E+04  0.46999998093E+01 0. -1.
       -5    1    3    3    0  502 -0.12231688248E+03  0.10638347004E+04  0.15701612949E+04  0.19005615674E+04  0.46999998093E+01 0.  1.
</event>
<event>
 5   0  0.4811500E-07  0.3618388E+04  0.7818609E-02  0.8086293E-01
       -1   -1    0    0    0  501  0.00000000000E+00  0.00000000000E+00  0.16767512529E+04  0.16767512530E+04  0.50400001928E-02 0.  1.
        1   -1    0    0  501    0  0.00000000000E+00  0.00000000000E+00 -0.19520975963E+04  0.19520975963E+04  0.50400001928E-02 0. -1.
    10030    2    1    2    0    0  0.00000000000E+00  0.00000000000E+00 -0.27534634340E+03  0.36288488493E+04  0.36183875362E+04 0.  0.
        2    1    3    3  502    0  0.10044240513E+04  0.14894545024E+04  0.77047911445E+02  0.17981320224E+04  0.25500000920E-02 0.  1.
       -2    1    3    3    0  502 -0.10044240513E+04 -0.14894545024E+04 -0.35239425484E+03  0.18307168269E+04  0.25500000920E-02 0. -1.
</event>
<event>
 5   0  0.1379425E-06  0.3644700E+04  0.7818609E-02  0.8080329E-01
       -2   -1    0    0    0  501  0.00000000000E+00  0.00000000000E+00  0.19694590372E+04  0.19694590372E+04  0.25500000920E-02 0. -1.
        2   -1    0    0  501    0  0.00000000000E+00  0.00000000000E+00 -0.16862297286E+04  0.16862297286E+04  0.25500000920E-02 0.  1.
    10030    2    1    2    0    0  0.00000000000E+00  0.00000000000E+00  0.28322930859E+03  0.36556887658E+04  0.36447004693E+04 0.  0.
        4    1    3    3  502    0 -0.13185141213E+03 -0.80271088289E+03  0.17772453698E+04  0.19545670298E+04  0.12699999809E+01 0. -1.
       -4    1    3    3    0  502  0.13185141213E+03  0.80271088289E+03 -0.14940160613E+04  0.17011217360E+04  0.12699999809E+01 0.  1.
</event>
<event>
 5   0  0.1505671E-06  0.3530951E+04  0.7818609E-02  0.8106494E-01
       -2   -1    0    0    0  501  0.00000000000E+00  0.00000000000E+00  0.13477392857E+04  0.13477392857E+04  0.25500000920E-02 0.  1.
        2   -1    0    0  501    0  0.00000000000E+00  0.00000000000E+00 -0.23126909339E+04  0.23126909339E+04  0.25500000920E-02 0. -1.
    10030    2    1    2    0    0  0.00000000000E+00  0.00000000000E+00 -0.96495164820E+03  0.36604302195E+04  0.35309513886E+04 0.  0.
        3    1    3    3  502    0 -0.59447267655E+03  0.12235999125E+04 -0.16490447288E+04  0.21377425095E+04  0.10100000352E+00 0. -1.
       -3    1    3    3    0  502  0.59447267655E+03 -0.12235999125E+04  0.68409308064E+03  0.15226877100E+04  0.10100000352E+00 0.  1.
</event>
<event>
 5   0  0.4811500E-07  0.3607080E+04  0.7818609E-02  0.8088872E-01
       -1   -1    0    0    0  501  0.00000000000E+00  0.00000000000E+00  0.22990823966E+04  0.22990823966E+04  0.50400001928E-02 0.  1.
        1   -1    0    0  501    0  0.00000000000E+00  0.00000000000E+00 -0.14148066073E+04  0.14148066073E+04  0.50400001928E-02 0. -1.
    10030    2    1    2    0    0  0.00000000000E+00  0.00000000000E+00  0.88427578930E+03  0.37138890039E+04  0.36070802405E+04 0.  0.
        5    1    3    3  502    0  0.92670202598E+03  0.17021200138E+03  0.20255261280E+04  0.22339487361E+04  0.46999998093E+01 0.  1.
       -5    1    3    3    0  502 -0.92670202598E+03 -0.17021200138E+03 -0.11412503387E+04  0.14799402677E+04  0.46999998093E+01 0. -1.
</event>
<event>
 5   0  0.1468942E-06  0.3622602E+04  0.7818609E-02  0.8085334E-01
        2   -1    0    0  501    0  0.00000000000E+00  0.00000000000E+00  0.11483049305E+04  0.11483049305E+04  0.25500000920E-02 0. -1.
       -2   -1    0    0    0  501  0.00000000000E+00  0.00000000000E+00 -0.28570903607E+04  0.28570903607E+04  0.25500000920E-02 0.  1.
    10030    2    1    2    0    0  0.00000000000E+00  0.00000000000E+00 -0.17087854302E+04  0.40053952912E+04  0.36226017988E+04 0.  0.
        2    1    3    3  502    0 -0.69435120511E+03 -0.16728040387E+04 -0.83189569313E+03  0.19930999454E+04  0.25500000920E-02 0. -1.
       -2    1    3    3    0  502  0.69435120511E+03  0.16728040387E+04 -0.87688973708E+03  0.20122953459E+04  0.25500000920E-02 0.  1.
</event>
<event>
 5   0  0.1379425E-06  0.3331408E+04  0.7818609E-02  0.8154949E-01
       -2   -1    0    0    0  501  0.00000000000E+00  0.00000000000E+00  0.17452709964E+04  0.17452709964E+04  0.25500000920E-02 0.  1.
        2   -1    0    0  501    0  0.00000000000E+00  0.00000000000E+00 -0.15897644834E+04  0.15897644834E+04  0.25500000920E-02 0. -1.
    10030    2    1    2    0    0  0.00000000000E+00  0.00000000000E+00  0.15550651301E+03  0.33350354798E+04  0.33314080170E+04 0.  0.
        4    1    3    3  502    0 -0.44735577184E+03  0.69436244086E+03  0.15258074012E+04  0.17350378164E+04  0.12699999809E+01 0.  1.
       -4    1    3    3    0  502  0.44735577184E+03 -0.69436244086E+03 -0.13703008882E+04  0.15999976634E+04  0.12699999809E+01 0. -1.
</event>
<event>
 5   0  0.5071661E-07  0.3634659E+04  0.7818609E-02  0.8082599E-01
        1   -1    0    0  501    0  0.00000000000E+00  0.00000000000E+00  0.24904985626E+04  0.24904985626E+04  0.50400001928E-02 0.  1.
       -1   -1    0    0    0  501  0.00000000000E+00  0.00000000000E+00 -0.13261143370E+04  0.13261143370E+04  0.50400001928E-02 0. -1.
    10030    2    1    2    0    0  0.00000000000E+00  0.00000000000E+00  0.11643842256E+04  0.38166128996E+04  0.36346586361E+04 0.  0.
        1    1    3    3  502    0 -0.85693333757E+03  0.12491463300E+04 -0.47205257968E+03  0.15866741748E+04  0.50400001928E-02 0. -1.
       -1    1    3    3    0  502  0.85693333757E+03 -0.12491463300E+04  0.16364368052E+04  0.22299387248E+04  0.50400001928E-02 0.  1.
</event>
<event>
 5   0  0.1468942E-06  0.3537145E+04  0.7818609E-02  0.8105043E-01
        2   -1    0    0  501    0  0.00000000000E+00  0.00000000000E+00  0.17925529877E+04  0.17925529877E+04  0.25500000920E-02 0. -1.
       -2   -1    0    0    0  501  0.00000000000E+00  0.00000000000E+00 -0.17449125120E+04  0.17449125120E+04  0.25500000920E-02 0.  1.
    10030    2    1    2    0    0  0.00000000000E+00  0.00000000000E+00  0.47640475765E+02  0.35374654997E+04  0.35371446884E+04 0.  0.
        2    1    3    3  502    0 -0.25285324505E+03 -0.10729055167E+04  0.14069811513E+04  0.17873603362E+04  0.25500000920E-02 0. -1.
       -2    1    3    3    0  502  0.25285324505E+03  0.10729055167E+04 -0.13593406755E+04  0.17501051635E+04  0.25500000920E-02 0.  1.
</event>
<event>
 5   0  0.4811500E-07  0.3539118E+04  0.7818609E-02  0.8104582E-01
        1   -1    0    0  501    0  0.00000000000E+00  0.00000000000E+00  0.20985862499E+04  0.20985862499E+04  0.50400001928E-02 0. -1.
       -1   -1    0    0    0  501  0.00000000000E+00  0.00000000000E+00 -0.14921180090E+04  0.14921180091E+04  0.50400001928E-02 0.  1.
    10030    2    1    2    0    0  0.00000000000E+00  0.00000000000E+00  0.60646824085E+03  0.35907042589E+04  0.35391175946E+04 0.  0.
        5    1    3    3  502    0 -0.31762384860E+03 -0.12331582644E+04  0.15498637794E+04  0.20059072857E+04  0.46999998093E+01 0. -1.
       -5    1    3    3    0  502  0.31762384860E+03  0.12331582644E+04 -0.94339553850E+03  0.15847969732E+04  0.46999998093E+01 0.  1.
</event>
<event>
 5   0  0.4811500E-07  0.2505209E+04  0.7818609E-02  0.8401132E-01
        3   -1    0    0  501    0  0.00000000000E+00  0.00000000000E+00  0.11058652378E+04  0.11058652424E+04  0.10100000352E+00 0. -1.
       -3   -1    0    0    0  501  0.00000000000E+00  0.00000000000E+00 -0.14188150296E+04  0.14188150332E+04  0.10100000352E+00 0.  1.
    10030    2    1    2    0    0  0.00000000000E+00  0.00000000000E+00 -0.31294979185E+03  0.25246802756E+04  0.25052091573E+04 0.  0.
        3    1    3    3  502    0  0.11107212060E+04  0.25689911840E+03  0.36651857694E+03  0.11975118504E+04  0.10100000352E+00 0. -1.
       -3    1    3    3    0  502 -0.11107212060E+04 -0.25689911840E+03 -0.67946836879E+03  0.13271684252E+04  0.10100000352E+00 0.  1.
</event>
<event>
 5   0  0.5071661E-07  0.2892757E+04  0.7818609E-02  0.8275036E-01
        1   -1    0    0  501    0  0.00000000000E+00  0.00000000000E+00  0.20252389912E+04  0.20252389912E+04  0.50400001928E-02 0.  1.
       -1   -1    0    0    0  501  0.00000000000E+00  0.00000000000E+00 -0.10329698927E+04  0.10329698927E+04  0.50400001928E-02 0. -1.
    10030    2    1    2    0    0  0.00000000000E+00  0.00000000000E+00  0.99226909849E+03  0.30582088839E+04  0.28927570955E+04 0.  0.
        1    1    3    3  502    0  0.10988730348E+03  0.18143659898E+03  0.20087058079E+04  0.20198746202E+04  0.50400001928E-02 0.  1.
       -1    1    3    3    0  502 -0.10988730348E+03 -0.18143659898E+03 -0.10164367094E+04  0.10383342637E+04  0.50400001928E-02 0. -1.
</event>
<event>
 5   0  0.1491854E-06  0.3546479E+04  0.7818609E-02  0.8102862E-01
       -2   -1    0    0    0  501  0.00000000000E+00  0.00000000000E+00  0.16081442640E+04  0.16081442640E+04  0.25500000920E-02 0.  1.
        2   -1    0    0  501    0  0.00000000000E+00  0.00000000000E+00 -0.19552840533E+04  0.19552840533E+04  0.25500000920E-02 0. -1.
    10030    2    1    2    0    0  0.00000000000E+00  0.00000000000E+00 -0.34713978934E+03  0.35634283173E+04  0.35464792878E+04 0.  0.
        5    1    3    3  502    0 -0.17092590730E+04  0.19596988090E+03  0.25788414297E+03  0.17396830441E+04  0.46999998093E+01 0.  1.
       -5    1    3    3    0  502  0.17092590730E+04 -0.19596988090E+03 -0.60502393230E+03  0.18237452732E+04  0.46999998093E+01 0. -1.
</event>
<event>
 5   0  0.4811500E-07  0.3740319E+04  0.7818609E-02  0.8059085E-01
       -1   -1    0    0    0  501  0.00000000000E+00  0.00000000000E+00  0.13143491573E+04  0.13143491573E+04  0.50400001928E-02 0. -1.
        1   -1    0    0  501    0  0.00000000000E+00  0.00000000000E+00 -0.26610097665E+04  0.26610097665E+04  0.50400001928E-02 0.  1.
    10030    2    1    2    0    0  0.00000000000E+00  0.00000000000E+00 -0.13466606093E+04  0.39753589238E+04  0.37403186732E+04 0.  0.
        5    1    3    3  502    0 -0.51303340782E+03 -0.17920169164E+04 -0.83432840112E+03  0.20422178819E+04  0.46999998093E+01 0.  1.
       -5    1    3    3    0  502  0.51303340782E+03  0.17920169164E+04 -0.51233220814E+03  0.19331410419E+04  0.46999998093E+01 0. -1.
</event>
<event>
 5   0  0.1505671E-06  0.3576671E+04  0.7818609E-02  0.8095857E-01
        2   -1    0    0  501    0  0.00000000000E+00  0.00000000000E+00  0.26480101013E+04  0.26480101013E+04  0.25500000920E-02 0. -1.
       -2   -1    0    0    0  501  0.00000000000E+00  0.00000000000E+00 -0.12077534381E+04  0.12077534381E+04  0.25500000920E-02 0.  1.
    10030    2    1    2    0    0  0.00000000000E+00  0.00000000000E+00  0.14402566632E+04  0.38557635394E+04  0.35766706888E+04 0.  0.
        3    1    3    3  502    0 -0.88174026264E+03 -0.10725024458E+04  0.19352070042E+04  0.23817543002E+04  0.10100000352E+00 0. -1.
       -3    1    3    3    0  502  0.88174026264E+03  0.10725024458E+04 -0.49495034102E+03  0.14740092392E+04  0.10100000352E+00 0.  1.
</event>
<event>
 5   0  0.5071661E-07  0.3370865E+04  0.7818609E-02  0.8145094E-01
       -1   -1    0    0    0  501  0.00000000000E+00  0.00000000000E+00  0.16102401593E+04  0.16102401593E+04  0.50400001928E-02 0. -1.
        1   -1    0    0  501    0  0.00000000000E+00  0.00000000000E+00 -0.17641356972E+04  0.17641356972E+04  0.50400001928E-02 0.  1.
    10030    2    1    2    0    0  0.00000000000E+00  0.00000000000E+00 -0.15389553785E+03  0.33743758565E+04  0.33708646642E+04 0.  0.
        1    1    3    3  502    0 -0.11224881887E+04 -0.76583317850E+02  0.11792846581E+04  0.16298947952E+04  0.50400001928E-02 0. -1.
       -1    1    3    3    0  502  0.11224881887E+04  0.76583317850E+02 -0.13331801960E+04  0.17444810613E+04  0.50400001928E-02 0.  1.
</event>
<event>
 5   0  0.4811500E-07  0.3618324E+04  0.7818609E-02  0.8086307E-01
       -1   -1    0    0    0  501  0.00000000000E+00  0.00000000000E+00  0.11833617381E+04  0.11833617381E+04  0.50400001928E-02 0. -1.
        1   -1    0    0  501    0  0.00000000000E+00  0.00000000000E+00 -0.27659065193E+04  0.27659065193E+04  0.50400001928E-02 0.  1.
    10030    2    1    2    0    0  0.00000000000E+00  0.00000000000E+00 -0.15825447812E+04  0.39492682574E+04  0.36183244444E+04 0.  0.
        3    1    3    3  502    0 -0.81102640934E+03 -0.10276776712E+04 -0.21541524351E+04  0.25207653513E+04  0.10100000352E+00 0.  1.
       -3    1    3    3    0  502  0.81102640934E+03  0.10276776712E+04  0.57160765395E+03  0.14285029061E+04  0.10100000352E+00 0. -1.
</event>
<event>
 5   0  0.1505671E-06  0.3838144E+04  0.7818609E-02  0.8038018E-01
        2   -1    0    0  501    0  0.00000000000E+00  0.00000000000E+00  0.32358471160E+04  0.32358471160E+04  0.25500000920E-02 0.  1.
       -2   -1    0    0    0  501  0.00000000000E+00  0.00000000000E+00 -0.11381369616E+04  0.11381369616E+04  0.25500000920E-02 0. -1.
    10030    2    1    2    0    0  0.00000000000E+00  0.00000000000E+00  0.20977101544E+04  0.43739840777E+04  0.38381439290E+04 0.  0.
        3    1    3    3  502    0  0.17209044423E+03 -0.18869520991E+04  0.13957043571E+04  0.23533367816E+04  0.10100000352E+00 0.  1.
       -3    1    3    3    0  502 -0.17209044423E+03  0.18869520991E+04  0.70200579734E+03  0.20206472960E+04  0.10100000352E+00 0. -1.
</event>
<event>
 5   0  0.1491854E-06  0.3625517E+04  0.7818609E-02  0.8084672E-01
       -2   -1    0    0    0  501  0.00000000000E+00  0.00000000000E+00  0.17640635002E+04  0.17640635002E+04  0.25500000920E-02 0.  1.
        2   -1    0    0  501    0  0.00000000000E+00  0.00000000000E+00 -0.18627973442E+04  0.18627973442E+04  0.25500000920E-02 0. -1.
    10030    2    1    2    0    0  0.00000000000E+00  0.00000000000E+00 -0.98733843990E+02  0.36268608444E+04  0.36255166822E+04 0.  0.
        5    1    3    3  502    0  0.29552461831E+03  0.25580276483E+03 -0.18201364257E+04  0.18616359882E+04  0.46999998093E+01 0. -1.
       -5    1    3    3    0  502 -0.29552461831E+03 -0.25580276483E+03  0.17214025817E+04  0.17652248562E+04  0.46999998093E+01 0.  1.
</event>
<event>
 5   0  0.1491854E-06  0.2636429E+04  0.7818609E-02  0.8355931E-01
        2   -1    0    0  501    0  0.00000000000E+00  0.00000000000E+00  0.23480466399E+04  0.23480466399E+04  0.25500000920E-02 0.  1.
       -2   -1    0    0    0  501  0.00000000000E+00  0.00000000000E+00 -0.74005772319E+03  0.74005772319E+03  0.25500000920E-02 0. -1.
    10030    2    1    2    0    0  0.00000000000E+00  0.00000000000E+00  0.16079889167E+04  0.30881043631E+04  0.26364294417E+04 0.  0.
        5    1    3    3  502    0 -0.41432178846E+03  0.10906991667E+04  0.85390650673E+02  0.11698721596E+04  0.46999998093E+01 0. -1.
       -5    1    3    3    0  502  0.41432178846E+03 -0.10906991667E+04  0.15225982660E+04  0.19182322035E+04  0.46999998093E+01 0.  1.
</event>
<event>
 5   0  0.4811500E-07  0.3642593E+04  0.7818609E-02  0.8080804E-01
        1   -1    0    0  501    0  0.00000000000E+00  0.00000000000E+00  0.12319227925E+04  0.12319227925E+04  0.50400001928E-02 0.  1.
       -1   -1    0    0    0  501  0.00000000000E+00  0.00000000000E+00 -0.26926376613E+04  0.26926376613E+04  0.50400001928E-02 0. -1.
    10030    2    1    2    0    0  0.00000000000E+00  0.00000000000E+00 -0.14607148688E+04  0.39245604538E+04  0.36425934206E+04 0.  0.
        4    1    3    3  502    0  0.17994988733E+04  0.19318725408E+03 -0.95011330012E+03  0.20440729943E+04  0.12699999809E+01 0.  1.
       -4    1    3    3    0  502 -0.17994988733E+04 -0.19318725408E+03 -0.51060156870E+03  0.18804874594E+04  0.12699999809E+01 0. -1.
</event>
<event>
 5   0  0.4811500E-07  0.3464036E+04  0.7818609E-02  0.8122366E-01
       -1   -1    0    0    0  501  0.00000000000E+00  0.00000000000E+00  0.16587638309E+04  0.16587638309E+04  0.50400001928E-02 0. -1.
        1   -1    0    0  501    0  0.00000000000E+00  0.00000000000E+00 -0.18085067927E+04  0.18085067927E+04  0.50400001928E-02 0.  1.
    10030    2    1    2    0    0  0.00000000000E+00  0.00000000000E+00 -0.14974296184E+03  0.34672706236E+04  0.34640355978E+04 0.  0.
        5    1    3    3  502    0 -0.26459457235E+03 -0.10265271696E+04 -0.14458568984E+04  0.17928448283E+04  0.46999998093E+01 0.  1.
       -5    1    3    3    0  502  0.26459457235E+03  0.10265271696E+04  0.12961139366E+04  0.16744257954E+04  0.46999998093E+01 0. -1.
</event>
<event>
 5   0  0.4811500E-07  0.3638494E+04  0.7818609E-02  0.8081731E-01
       -1   -1    0    0    0  501  0.00000000000E+00  0.00000000000E+00  0.17695137448E+04  0.17695137448E+04  0.50400001928E-02 0. -1.
        1   -1    0    0  501    0  0.00000000000E+00  0.00000000000E+00 -0.18703776118E+04  0.18703776118E+04  0.50400001928E-02 0.  1.
    10030    2    1    2    0    0  0.00000000000E+00  0.00000000000E+00 -0.10086386697E+03  0.36398913566E+04  0.36384935850E+04 0.  0.
        4    1    3    3  502    0  0.27899683188E+03 -0.13691223926E+04  0.11150572277E+04  0.17876491804E+04  0.12699999809E+01 0. -1.
       -4    1    3    3    0  502 -0.27899683188E+03  0.13691223926E+04 -0.12159210947E+04  0.18522421763E+04  0.12699999809E+01 0.  1.
</event>
<event>
 5   0  0.5071661E-07  0.3568878E+04  0.7818609E-02  0.8097658E-01
       -1   -1    0    0    0  501  0.00000000000E+00  0.00000000000E+00  0.15976554326E+04  0.15976554326E+04  0.50400001928E-02 0.  1.
        1   -1    0    0  501    0  0.00000000000E+00  0.00000000000E+00 -0.19930597865E+04  0.19930597865E+04  0.50400001928E-02 0. -1.
    10030    2    1    2    0    0  0.00000000000E+00  0.00000000000E+00 -0.39540435393E+03  0.35907152191E+04  0.35688781405E+04 0.  0.
        1    1    3    3  502    0 -0.52132274921E+03  0.93873687108E+02 -0.19121335830E+04  0.19841483103E+04  0.50400001928E-02 0. -1.
       -1    1    3    3    0  502  0.52132274921E+03 -0.93873687108E+02  0.15167292291E+04  0.16065669088E+04  0.50400001928E-02 0.  1.
</event>
<event>
 5   0  0.4811500E-07  0.3708709E+04  0.7818609E-02  0.8066034E-01
       -1   -1    0    0    0  501  0.00000000000E+00  0.00000000000E+00  0.20571865195E+04  0.20571865195E+04  0.50400001928E-02 0. -1.
        1   -1    0    0  501    0  0.00000000000E+00  0.00000000000E+00 -0.16715214525E+04  0.16715214525E+04  0.50400001928E-02 0.  1.
    10030    2    1    2    0    0  0.00000000000E+00  0.00000000000E+00  0.38566506700E+03  0.37287079720E+04  0.37087094247E+04 0.  0.
        4    1    3    3  502    0  0.16116516238E+04 -0.31647292941E+02  0.11144034977E+04  0.19596732575E+04  0.12699999809E+01 0. -1.
       -4    1    3    3    0  502 -0.16116516238E+04  0.31647292941E+02 -0.72873843073E+03  0.17690347145E+04  0.12699999809E+01 0.  1.
</event>
<event>
 5   0  0.1505671E-06  0.3614614E+04  0.7818609E-02  0.8087152E-01
        2   -1    0    0  501    0  0.00000000000E+00  0.00000000000E+00  0.11238651821E+04  0.11238651821E+04  0.25500000920E-02 0. -1.
       -2   -1    0    0    0  501  0.00000000000E+00  0.00000000000E+00 -0.29063618352E+04  0.29063618352E+04  0.25500000920E-02 0.  1.
    10030    2    1    2    0    0  0.00000000000E+00  0.00000000000E+00 -0.17824966531E+04  0.40302270173E+04  0.36146141554E+04 0.  0.
        3    1    3    3  502    0  0.81733353843E+03 -0.11162558372E+04  0.40534479290E+03  0.14416537790E+04  0.10100000352E+00 0. -1.
       -3    1    3    3    0  502 -0.81733353843E+03  0.11162558372E+04 -0.21878414460E+04  0.25885732383E+04  0.10100000352E+00 0.  1.
</event>
<event>
 5   0  0.1491854E-06  0.3572374E+04  0.7818609E-02  0.8096849E-01
       -2   -1    0    0    0  501  0.00000000000E+00  0.00000000000E+00  0.27604443329E+04  0.27604443329E+04  0.25500000920E-02 0.  1.
        2   -1    0    0  501    0  0.00000000000E+00  0.00000000000E+00 -0.11557793881E+04  0.11557793881E+04  0.25500000920E-02 0. -1.
    10030    2    1    2    0    0  0.00000000000E+00  0.00000000000E+00  0.16046649448E+04  0.39162237211E+04  0.35723743712E+04 0.  0.
        5    1    3    3  502    0 -0.79953742186E+03  0.14425394831E+04  0.15540949081E+04  0.22661450357E+04  0.46999998093E+01 0.  1.
       -5    1    3    3    0  502  0.79953742186E+03 -0.14425394831E+04  0.50570036691E+02  0.16500786854E+04  0.46999998093E+01 0. -1.
</event>
<event>
 5   0  0.1491854E-06  0.2624047E+04  0.7818609E-02  0.8360079E-01
        2   -1    0    0  501    0  0.00000000000E+00  0.00000000000E+00  0.97284943275E+03  0.97284943275E+03  0.25500000920E-02 0. -1.
       -2   -1    0    0    0  501  0.00000000000E+00  0.00000000000E+00 -0.17694465240E+04  0.17694465240E+04  0.25500000920E-02 0.  1.
    10030    2    1    2    0    0  0.00000000000E+00  0.00000000000E+00 -0.79659709121E+03  0.27422959567E+04  0.26240465294E+04 0.  0.
        5    1    3    3  502    0  0.17844202602E+03  0.97769448001E+03 -0.12934338871E+04  0.16311717761E+04  0.46999998093E+01 0.  1.
       -5    1    3    3    0  502 -0.17844202602E+03 -0.97769448001E+03  0.49683679591E+03  0.11111241806E+04  0.46999998093E+01 0. -1.
</event>
<event>
 5   0  0.5071661E-07  0.3565029E+04  0.7818609E-02  0.8098549E-01
        1   -1    0    0  501    0  0.00000000000E+00  0.00000000000E+00  0.12676357028E+04  0.12676357029E+04  0.50400001928E-02 0.  1.
       -1   -1    0    0    0  501  0.00000000000E+00  0.00000000000E+00 -0.25065230859E+04  0.25065230859E+04  0.50400001928E-02 0. -1.
    10030    2    1    2    0    0  0.00000000000E+00  0.00000000000E+00 -0.12388873831E+04  0.37741587888E+04  0.35650291184E+04 0.  0.
        1    1    3    3  502    0 -0.15513622353E+03  0.12858088479E+04 -0.19160280069E+04  0.23126899845E+04  0.50400001928E-02 0. -1.
       -1    1    3    3    0  502  0.15513622353E+03 -0.12858088479E+04  0.67714062389E+03  0.14614688042E+04  0.50400001928E-02 0.  1.
</event>
<event>
 5   0  0.1444091E-06  0.3359521E+04  0.7818609E-02  0.8147913E-01
       -2   -1    0    0    0  501  0.00000000000E+00  0.00000000000E+00  0.10952180867E+04  0.10952180867E+04  0.25500000920E-02 0. -1.
        2   -1    0    0  501    0  0.00000000000E+00  0.00000000000E+00 -0.25762861419E+04  0.25762861419E+04  0.25500000920E-02 0.  1.
    10030    2    1    2    0    0  0.00000000000E+00  0.00000000000E+00 -0.14810680552E+04  0.36715042286E+04  0.33595209058E+04 0.  0.
        1    1    3    3  502    0  0.96467856462E+03  0.85840025067E+03 -0.19146089959E+04  0.23093686000E+04  0.50400001928E-02 0.  1.
       -1    1    3    3    0  502 -0.96467856462E+03 -0.85840025067E+03  0.43354094076E+03  0.13621356286E+04  0.50400001928E-02 0. -1.
</event>
<event>
 5   0  0.1444091E-06  0.2730685E+04  0.7818609E-02  0.8325117E-01
        2   -1    0    0  501    0  0.00000000000E+00  0.00000000000E+00  0.10874532345E+04  0.10874532345E+04  0.25500000920E-02 0.  1.
       -2   -1    0    0    0  501  0.00000000000E+00  0.00000000000E+00 -0.17142434104E+04  0.17142434104E+04  0.25500000920E-02 0. -1.
    10030    2    1    2    0    0  0.00000000000E+00  0.00000000000E+00 -0.62679017593E+03  0.28016966448E+04  0.27306845598E+04 0.  0.
        1    1    3    3  502    0 -0.24756532366E+03  0.37002860624E+02  0.10637094782E+04  0.10927651419E+04  0.50400001928E-02 0.  1.
       -1    1    3    3    0  502  0.24756532366E+03 -0.37002860624E+02 -0.16904996542E+04  0.17089315030E+04  0.50400001928E-02 0. -1.
</event>
<event>
 5   0  0.4811500E-07  0.3559759E+04  0.7818609E-02  0.8099772E-01
        1   -1    0    0  501    0  0.00000000000E+00  0.00000000000E+00  0.14022160164E+04  0.14022160165E+04  0.50400001928E-02 0.  1.
       -1   -1    0    0    0  501  0.00000000000E+00  0.00000000000E+00 -0.22592606341E+04  0.22592606341E+04  0.50400001928E-02 0. -1.
    10030    2    1    2    0    0  0.00000000000E+00  0.00000000000E+00 -0.85704461767E+03  0.36614766506E+04  0.35597592315E+04 0.  0.
        3    1    3    3  502    0  0.76242034441E+03  0.63149897604E+03 -0.19499417139E+04  0.21868581198E+04  0.10100000352E+00 0. -1.
       -3    1    3    3    0  502 -0.76242034441E+03 -0.63149897604E+03  0.10928970962E+04  0.14746185308E+04  0.10100000352E+00 0.  1.
</event>
<event>
 5   0  0.1379425E-06  0.3061589E+04  0.7818609E-02  0.8226359E-01
        2   -1    0    0  501    0  0.00000000000E+00  0.00000000000E+00  0.10075607127E+04  0.10075607127E+04  0.25500000920E-02 0. -1.
       -2   -1    0    0    0  501  0.00000000000E+00  0.00000000000E+00 -0.23257481225E+04  0.23257481225E+04  0.25500000920E-02 0.  1.
    10030    2    1    2    0    0  0.00000000000E+00  0.00000000000E+00 -0.13181874098E+04  0.33333088352E+04  0.30615894146E+04 0.  0.
        4    1    3    3  502    0 -0.32283206304E+03 -0.14867763641E+04 -0.47494882717E+03  0.15938326446E+04  0.12699999809E+01 0. -1.
       -4    1    3    3    0  502  0.32283206304E+03  0.14867763641E+04 -0.84323858261E+03  0.17394761906E+04  0.12699999809E+01 0.  1.
</event>
<event>
 5   0  0.4811500E-07  0.3644420E+04  0.7818609E-02  0.8080392E-01
       -1   -1    0    0    0  501  0.00000000000E+00  0.00000000000E+00  0.29591517920E+04  0.29591517920E+04  0.50400001928E-02 0.  1.
        1   -1    0    0  501    0  0.00000000000E+00  0.00000000000E+00 -0.11220951191E+04  0.11220951191E+04  0.50400001928E-02 0. -1.
    10030    2    1    2    0    0  0.00000000000E+00  0.00000000000E+00  0.18370566729E+04  0.40812469110E+04  0.36444202734E+04 0.  0.
        2    1    3    3  502    0 -0.10809144650E+03  0.10301864509E+04  0.25973807418E+04  0.27963108915E+04  0.25500000920E-02 0.  1.
       -2    1    3    3    0  502  0.10809144650E+03 -0.10301864509E+04 -0.76032406886E+03  0.12849360195E+04  0.25500000920E-02 0. -1.
</event>
<event>
 5   0  0.1468942E-06  0.3564115E+04  0.7818609E-02  0.8098761E-01
       -2   -1    0    0    0  501  0.00000000000E+00  0.00000000000E+00  0.23721193179E+04  0.23721193179E+04  0.25500000920E-02 0. -1.
        2   -1    0    0  501    0  0.00000000000E+00  0.00000000000E+00 -0.13387727125E+04  0.13387727125E+04  0.25500000920E-02 0.  1.
    10030    2    1    2    0    0  0.00000000000E+00  0.00000000000E+00  0.10333466053E+04  0.37108920304E+04  0.35641148206E+04 0.  0.
        2    1    3    3  502    0  0.16183126406E+04  0.67744175300E+03  0.19095557062E+03  0.17647456365E+04  0.25500000920E-02 0.  1.
       -2    1    3    3    0  502 -0.16183126406E+04 -0.67744175300E+03  0.84239103473E+03  0.19461463940E+04  0.25500000920E-02 0. -1.
</event>
<event>
 5   0  0.5071661E-07  0.3546850E+04  0.7818609E-02  0.8102776E-01
       -1   -1    0    0    0  501  0.00000000000E+00  0.00000000000E+00  0.12329451808E+04  0.12329451808E+04  0.50400001928E-02 0.  1.
        1   -1    0    0  501    0  0.00000000000E+00  0.00000000000E+00 -0.25508316270E+04  0.25508316271E+04  0.50400001928E-02 0. -1.
    10030    2    1    2    0    0  0.00000000000E+00  0.00000000000E+00 -0.13178864463E+04  0.37837768078E+04  0.35468496227E+04 0.  0.
        1    1    3    3  502    0 -0.89786598566E+03  0.30002184485E+02 -0.22901251367E+04  0.24600277642E+04  0.50400001928E-02 0.  1.
       -1    1    3    3    0  502  0.89786598566E+03 -0.30002184485E+02  0.97223869038E+03  0.13237490436E+04  0.50400001928E-02 0. -1.
</event>
<event>
 5   0  0.1468942E-06  0.2609964E+04  0.7818609E-02  0.8364824E-01
       -2   -1    0    0    0  501  0.00000000000E+00  0.00000000000E+00  0.10516464111E+04  0.10516464111E+04  0.25500000920E-02 0.  1.
        2   -1    0    0  501    0  0.00000000000E+00  0.00000000000E+00 -0.16193448609E+04  0.16193448609E+04  0.25500000920E-02 0. -1.
    10030    2    1    2    0    0  0.00000000000E+00  0.00000000000E+00 -0.56769844982E+03  0.26709912720E+04  0.26099641463E+04 0.  0.
        2    1    3    3  502    0  0.82790811624E+03  0.86113994773E+03  0.25377664403E+03  0.12212274332E+04  0.25500000920E-02 0.  1.
       -2    1    3    3    0  502 -0.82790811624E+03 -0.86113994773E+03 -0.82147509386E+03  0.14497638388E+04  0.25500000920E-02 0. -1.
</event>
<event>
 5   0  0.1491854E-06  0.3549871E+04  0.7818609E-02  0.8102072E-01
        2   -1    0    0  501    0  0.00000000000E+00  0.00000000000E+00  0.22611544846E+04  0.22611544846E+04  0.25500000920E-02 0. -1.
       -2   -1    0    0    0  501  0.00000000000E+00  0.00000000000E+00 -0.13932684743E+04  0.13932684743E+04  0.25500000920E-02 0.  1.
    10030    2    1    2    0    0  0.00000000000E+00  0.00000000000E+00  0.86788601029E+03  0.36544229589E+04  0.35498705661E+04 0.  0.
        5    1    3    3  502    0  0.37012020356E+03 -0.64685308021E+03  0.20922772518E+04  0.22210479645E+04  0.46999998093E+01 0. -1.
       -5    1    3    3    0  502 -0.37012020356E+03  0.64685308021E+03 -0.12243912415E+04  0.14333749944E+04  0.46999998093E+01 0.  1.
</event>
<event>
 5   0  0.1491854E-06  0.3486690E+04  0.7818609E-02  0.8116952E-01
       -2   -1    0    0    0  501  0.00000000000E+00  0.00000000000E+00  0.15751868127E+04  0.15751868127E+04  0.25500000920E-02 0. -1.
        2   -1    0    0  501    0  0.00000000000E+00  0.00000000000E+00 -0.19294543145E+04  0.19294543145E+04  0.25500000920E-02 0.  1.
    10030    2    1    2    0    0  0.00000000000E+00  0.00000000000E+00 -0.35426750182E+03  0.35046411272E+04  0.34866895428E+04 0.  0.
        5    1    3    3  502    0 -0.59080192267E+03  0.15042550209E+04  0.47998965180E+03  0.16858950844E+04  0.46999998093E+01 0. -1.
       -5    1    3    3    0  502  0.59080192267E+03 -0.15042550209E+04 -0.83425715362E+03  0.18187460428E+04  0.46999998093E+01 0.  1.
</event>
<event>
 5   0  0.1491854E-06  0.3503536E+04  0.7818609E-02  0.8112952E-01
        2   -1    0    0  501    0  0.00000000000E+00  0.00000000000E+00  0.14303269849E+04  0.14303269849E+04  0.25500000920E-02 0. -1.
       -2   -1    0    0    0  501  0.00000000000E+00  0.00000000000E+00 -0.21454473525E+04  0.21454473525E+04  0.25500000920E-02 0.  1.
    10030    2    1    2    0    0  0.00000000000E+00  0.00000000000E+00 -0.71512036760E+03  0.35757743374E+04  0.35035360668E+04 0.  0.
        5    1    3    3  502    0 -0.84502792257E+03  0.15027751034E+04 -0.67422174834E+03  0.18512164264E+04  0.46999998093E+01 0. -1.
       -5    1    3    3    0  502  0.84502792257E+03 -0.15027751034E+04 -0.40898619267E+02  0.17245579110E+04  0.46999998093E+01 0.  1.
</event>
<event>
 5   0  0.5071661E-07  0.3396847E+04  0.7818609E-02  0.8138681E-01
       -1   -1    0    0    0  501  0.00000000000E+00  0.00000000000E+00  0.24233092357E+04  0.24233092357E+04  0.50400001928E-02 0. -1.
        1   -1    0    0  501    0  0.00000000000E+00  0.00000000000E+00 -0.11903729313E+04  0.11903729313E+04  0.50400001928E-02 0.  1.
    10030    2    1    2    0    0  0.00000000000E+00  0.00000000000E+00  0.12329363044E+04  0.36136821670E+04  0.33968466073E+04 0.  0.
        1    1    3    3  502    0  0.65691107286E+03  0.18998307486E+03  0.22703854097E+04  0.23711338290E+04  0.50400001928E-02 0. -1.
       -1    1    3    3    0  502 -0.65691107286E+03 -0.18998307486E+03 -0.10374491053E+04  0.12425483381E+04  0.50400001928E-02 0.  1.
</event>
<event>
 5   0  0.5071661E-07  0.3532535E+04  0.7818609E-02  0.8106123E-01
        1   -1    0    0  501    0  0.00000000000E+00  0.00000000000E+00  0.14059720869E+04  0.14059720869E+04  0.50400001928E-02 0. -1.
       -1   -1    0    0    0  501  0.00000000000E+00  0.00000000000E+00 -0.22188921115E+04  0.22188921115E+04  0.50400001928E-02 0.  1.
    10030    2    1    2    0    0  0.00000000000E+00  0.00000000000E+00 -0.81292002460E+03  0.36248641985E+04  0.35325347119E+04 0.  0.
        1    1    3    3  502    0 -0.45900559034E+03 -0.17055820610E+04 -0.40853119544E+03  0.18128965873E+04  0.50400001928E-02 0. -1.
       -1    1    3    3    0  502  0.45900559034E+03  0.17055820610E+04 -0.40438882916E+03  0.18119676112E+04  0.50400001928E-02 0.  1.
</event>
<event>
 5   0  0.4811500E-07  0.3299432E+04  0.7818609E-02  0.8163040E-01
        1   -1    0    0  501    0  0.00000000000E+00  0.00000000000E+00  0.22923346739E+04  0.22923346739E+04  0.50400001928E-02 0.  1.
       -1   -1    0    0    0  501  0.00000000000E+00  0.00000000000E+00 -0.11872449959E+04  0.11872449959E+04  0.50400001928E-02 0. -1.
    10030    2    1    2    0    0  0.00000000000E+00  0.00000000000E+00  0.11050896780E+04  0.34795796697E+04  0.32994319938E+04 0.  0.
        3    1    3    3  502    0  0.37006448942E+03 -0.39871410198E+03  0.21950281788E+04  0.22614308253E+04  0.10100000352E+00 0.  1.
       -3    1    3    3    0  502 -0.37006448942E+03  0.39871410198E+03 -0.10899385008E+04  0.12181488445E+04  0.10100000352E+00 0. -1.
</event>
<event>
 5   0  0.1444091E-06  0.3104196E+04  0.7818609E-02  0.8214587E-01
       -2   -1    0    0    0  501  0.00000000000E+00  0.00000000000E+00  0.93353167734E+03  0.93353167734E+03  0.25500000920E-02 0.  1.
        2   -1    0    0  501    0  0.00000000000E+00  0.00000000000E+00 -0.25805314276E+04  0.25805314276E+04  0.25500000920E-02 0. -1.
    10030    2    1    2    0    0  0.00000000000E+00  0.00000000000E+00 -0.16469997503E+04  0.35140631049E+04  0.31041957619E+04 0.  0.
        1    1    3    3  502    0  0.12602370274E+04 -0.33649413867E+03 -0.17757452948E+04  0.22033377005E+04  0.50400001928E-02 0. -1.
       -1    1    3    3    0  502 -0.12602370274E+04  0.33649413867E+03  0.12874554453E+03  0.13107254044E+04  0.50400001928E-02 0.  1.
</event>
<event>
 5   0  0.4811500E-07  0.3370628E+04  0.7818609E-02  0.8145153E-01
        1   -1    0    0  501    0  0.00000000000E+00  0.00000000000E+00  0.18670813215E+04  0.18670813215E+04  0.50400001928E-02 0.  1.
       -1   -1    0    0    0  501  0.00000000000E+00  0.00000000000E+00 -0.15212425660E+04  0.15212425660E+04  0.50400001928E-02 0. -1.
    10030    2    1    2    0    0  0.00000000000E+00  0.00000000000E+00  0.34583875551E+03  0.33883238875E+04  0.33706281792E+04 0.  0.
        5    1    3    3  502    0  0.76245003046E+03  0.14946251598E+04  0.33194939426E+03  0.17103937873E+04  0.46999998093E+01 0. -1.
       -5    1    3    3    0  502 -0.76245003046E+03 -0.14946251598E+04  0.13889361251E+02  0.16779301003E+04  0.46999998093E+01 0.  1.
</event>
<event>
 5   0  0.1444091E-06  0.3650618E+04  0.7818609E-02  0.8078994E-01
       -2   -1    0    0    0  501  0.00000000000E+00  0.00000000000E+00  0.17677627059E+04  0.17677627059E+04  0.25500000920E-02 0.  1.
        2   -1    0    0  501    0  0.00000000000E+00  0.00000000000E+00 -0.18847286504E+04  0.18847286504E+04  0.25500000920E-02 0. -1.
    10030    2    1    2    0    0  0.00000000000E+00  0.00000000000E+00 -0.11696594448E+03  0.36524913563E+04  0.36506180402E+04 0.  0.
        1    1    3    3  502    0  0.75420644760E+03  0.93874874792E+03 -0.14309290014E+04  0.18701963492E+04  0.50400001928E-02 0. -1.
       -1    1    3    3    0  502 -0.75420644760E+03 -0.93874874792E+03  0.13139630570E+04  0.17822950071E+04  0.50400001928E-02 0.  1.
</event>
<event>
 5   0  0.1505671E-06  0.3312121E+04  0.7818609E-02  0.8159818E-01
       -2   -1    0    0    0  501  0.00000000000E+00  0.00000000000E+00  0.13816457694E+04  0.13816457694E+04  0.25500000920E-02 0.  1.
        2   -1    0    0  501    0  0.00000000000E+00  0.00000000000E+00 -0.19849775206E+04  0.19849775206E+04  0.25500000920E-02 0. -1.
    10030    2    1    2    0    0  0.00000000000E+00  0.00000000000E+00 -0.60333175114E+03  0.33666232900E+04  0.33121206462E+04 0.  0.
        3    1    3    3  502    0 -0.86520558438E+03 -0.62670817393E+03  0.98453877036E+03  0.14528112193E+04  0.10100000352E+00 0.  1.
       -3    1    3    3    0  502  0.86520558438E+03  0.62670817393E+03 -0.15878705215E+04  0.19138120706E+04  0.10100000352E+00 0. -1.
</event>
<event>
 5   0  0.1468942E-06  0.3500782E+04  0.7818609E-02  0.8113605E-01
       -2   -1    0    0    0  501  0.00000000000E+00  0.00000000000E+00  0.11614719329E+04  0.11614719329E+04  0.25500000920E-02 0.  1.
        2   -1    0    0  501    0  0.00000000000E+00  0.00000000000E+00 -0.26379190076E+04  0.26379190076E+04  0.25500000920E-02 0. -1.
    10030    2    1    2    0    0  0.00000000000E+00  0.00000000000E+00 -0.14764470747E+04  0.37993909404E+04  0.35007821346E+04 0.  0.
        2    1    3    3  502    0 -0.14168322226E+04  0.64123829752E+03  0.13358120648E+03  0.15609112851E+04  0.25500000920E-02 0.  1.
       -2    1    3    3    0  502  0.14168322226E+04 -0.64123829752E+03 -0.16100282812E+04  0.22384796553E+04  0.25500000920E-02 0. -1.
</event>
<event>
 5   0  0.4811500E-07  0.3547501E+04  0.7818609E-02  0.8102624E-01
       -1   -1    0    0    0  501  0.00000000000E+00  0.00000000000E+00  0.12571873980E+04  0.12571873980E+04  0.50400001928E-02 0. -1.
        1   -1    0    0  501    0  0.00000000000E+00  0.00000000000E+00 -0.25025624913E+04  0.25025624913E+04  0.50400001928E-02 0.  1.
    10030    2    1    2    0    0  0.00000000000E+00  0.00000000000E+00 -0.12453750933E+04  0.37597498893E+04  0.35475005437E+04 0.  0.
        2    1    3    3  502    0  0.77396815351E+02  0.62782160996E+03  0.11335768493E+04  0.12981320095E+04  0.25500000920E-02 0. -1.
       -2    1    3    3    0  502 -0.77396815351E+02 -0.62782160996E+03 -0.23789519426E+04  0.24616178798E+04  0.25500000920E-02 0.  1.
</event>
<event>
 5   0  0.1491854E-06  0.3346484E+04  0.7818609E-02  0.8151167E-01
       -2   -1    0    0    0  501  0.00000000000E+00  0.00000000000E+00  0.18297395522E+04  0.18297395522E+04  0.25500000920E-02 0.  1.
        2   -1    0    0  501    0  0.00000000000E+00  0.00000000000E+00 -0.15301300797E+04  0.15301300797E+04  0.25500000920E-02 0. -1.
    10030    2    1    2    0    0  0.00000000000E+00  0.00000000000E+00  0.29960947244E+03  0.33598696319E+04  0.33464844401E+04 0.  0.
        5    1    3    3  502    0  0.53151519444E+03 -0.15345325976E+04  0.55442878119E+03  0.17160163340E+04  0.46999998093E+01 0.  1.
       -5    1    3    3    0  502 -0.53151519444E+03  0.15345325976E+04 -0.25481930875E+03  0.16438532980E+04  0.46999998093E+01 0. -1.
</event>
<event>
 5   0  0.4811500E-07  0.3590885E+04  0.7818609E-02  0.8092583E-01
        1   -1    0    0  501    0  0.00000000000E+00  0.00000000000E+00  0.20797470063E+04  0.20797470063E+04  0.50400001928E-02 0. -1.
       -1   -1    0    0    0  501  0.00000000000E+00  0.00000000000E+00 -0.15500026297E+04  0.15500026297E+04  0.50400001928E-02 0.  1.
    10030    2    1    2    0    0  0.00000000000E+00  0.00000000000E+00  0.52974437656E+03  0.36297496360E+04  0.35908847539E+04 0.  0.
        5    1    3    3  502    0 -0.65939541772E+03  0.11180457049E+04 -0.98902241105E+03  0.16318749752E+04  0.46999998093E+01 0.  1.
       -5    1    3    3    0  502  0.65939541772E+03 -0.11180457049E+04  0.15187667876E+04  0.19978746608E+04  0.46999998093E+01 0. -1.
</event>
<event>
 5   0  0.1491854E-06  0.3597425E+04  0.7818609E-02  0.8091082E-01
       -2   -1    0    0    0  501  0.00000000000E+00  0.00000000000E+00  0.17620271638E+04  0.17620271638E+04  0.25500000920E-02 0. -1.
        2   -1    0    0  501    0  0.00000000000E+00  0.00000000000E+00 -0.18361616381E+04  0.18361616381E+04  0.25500000920E-02 0.  1.
    10030    2    1    2    0    0  0.00000000000E+00  0.00000000000E+00 -0.74134474347E+02  0.35981888019E+04  0.35974250144E+04 0.  0.
        5    1    3    3  502    0 -0.17126783939E+04 -0.23340140859E+03 -0.53476819659E+03  0.18093486708E+04  0.46999998093E+01 0.  1.
       -5    1    3    3    0  502  0.17126783939E+04  0.23340140859E+03  0.46063372224E+03  0.17888401311E+04  0.46999998093E+01 0. -1.
</event>
<event>
 5   0  0.1444091E-06  0.3416188E+04  0.7818609E-02  0.8133945E-01
       -2   -1    0    0    0  501  0.00000000000E+00  0.00000000000E+00  0.19212976225E+04  0.19212976225E+04  0.25500000920E-02 0.  1.
        2   -1    0    0  501    0  0.00000000000E+00  0.00000000000E+00 -0.15185494238E+04  0.15185494238E+04  0.25500000920E-02 0. -1.
    10030    2    1    2    0    0  0.00000000000E+00  0.00000000000E+00  0.40274819863E+03  0.34398470463E+04  0.34161881667E+04 0.  0.
        1    1    3    3  502    0  0.29214103825E+03  0.12933376277E+04  0.12856401734E+04  0.18468728329E+04  0.50400001928E-02 0.  1.
       -1    1    3    3    0  502 -0.29214103825E+03 -0.12933376277E+04 -0.88289197476E+03  0.15929742134E+04  0.50400001928E-02 0. -1.
</event>
<event>
 5   0  0.1379425E-06  0.3624143E+04  0.7818609E-02  0.8084984E-01
       -2   -1    0    0    0  501  0.00000000000E+00  0.00000000000E+00  0.24201989868E+04  0.24201989868E+04  0.25500000920E-02 0. -1.
        2   -1    0    0  501    0  0.00000000000E+00  0.00000000000E+00 -0.13567492103E+04  0.13567492103E+04  0.25500000920E-02 0.  1.
    10030    2    1    2    0    0  0.00000000000E+00  0.00000000000E+00  0.10634497765E+04  0.37769481971E+04  0.36241429686E+04 0.  0.
        4    1    3    3  502    0 -0.16386985204E+04  0.99270589017E+02 -0.26769912703E+03  0.16633856817E+04  0.12699999809E+01 0.  1.
       -4    1    3    3    0  502  0.16386985204E+04 -0.99270589017E+02  0.13311489035E+04  0.21135625155E+04  0.12699999809E+01 0. -1.
</event>
<event>
 5   0  0.4811500E-07  0.3585178E+04  0.7818609E-02  0.8093895E-01
        1   -1    0    0  501    0  0.00000000000E+00  0.00000000000E+00  0.22808495018E+04  0.22808495019E+04  0.50400001928E-02 0. -1.
       -1   -1    0    0    0  501  0.00000000000E+00  0.00000000000E+00 -0.14088500254E+04  0.14088500255E+04  0.50400001928E-02 0.  1.
    10030    2    1    2    0    0  0.00000000000E+00  0.00000000000E+00  0.87199947640E+03  0.36896995273E+04  0.35851777522E+04 0.  0.
        2    1    3    3  502    0 -0.16668966521E+04  0.19685732808E+00 -0.24264151022E+03  0.16844641255E+04  0.25500000920E-02 0.  1.
       -2    1    3    3    0  502  0.16668966521E+04 -0.19685732808E+00  0.11146409866E+04  0.20052354018E+04  0.25500000920E-02 0. -1.
</event>
<event>
 5   0  0.4811500E-07  0.2813469E+04  0.7818609E-02  0.8299099E-01
        1   -1    0    0  501    0  0.00000000000E+00  0.00000000000E+00  0.21479848874E+04  0.21479848875E+04  0.50400001928E-02 0. -1.
       -1   -1    0    0    0  501  0.00000000000E+00  0.00000000000E+00 -0.92128308879E+03  0.92128308880E+03  0.50400001928E-02 0.  1.
    10030    2    1    2    0    0  0.00000000000E+00  0.00000000000E+00  0.12267017987E+04  0.30692679763E+04  0.28134691410E+04 0.  0.
        2    1    3    3  502    0  0.83741164463E+03 -0.11087902968E+04  0.85292624858E+03  0.16303856508E+04  0.25500000920E-02 0. -1.
       -2    1    3    3    0  502 -0.83741164463E+03  0.11087902968E+04  0.37377555008E+03  0.14388823255E+04  0.25500000920E-02 0.  1.
</event>
<event>
 5   0  0.1491854E-06  0.3565727E+04  0.7818609E-02  0.8098388E-01
       -2   -1    0    0    0  501  0.00000000000E+00  0.00000000000E+00  0.14119807559E+04  0.14119807559E+04  0.25500000920E-02 0.  1.
        2   -1    0    0  501    0  0.00000000000E+00  0.00000000000E+00 -0.22511656868E+04  0.22511656868E+04  0.25500000920E-02 0. -1.
    10030    2    1    2    0    0  0.00000000000E+00  0.00000000000E+00 -0.83918493087E+03  0.36631464426E+04  0.35657272066E+04 0.  0.
        5    1    3    3  502    0 -0.15644998905E+03  0.11829557311E+04 -0.17804417813E+04  0.21433282267E+04  0.46999998093E+01 0. -1.
       -5    1    3    3    0  502  0.15644998905E+03 -0.11829557311E+04  0.94125685043E+03  0.15198182159E+04  0.46999998093E+01 0.  1.
</event>
<event>
 5   0  0.1505671E-06  0.3296265E+04  0.7818609E-02  0.8163846E-01
        2   -1    0    0  501    0  0.00000000000E+00  0.00000000000E+00  0.18555618402E+04  0.18555618402E+04  0.25500000920E-02 0.  1.
       -2   -1    0    0    0  501  0.00000000000E+00  0.00000000000E+00 -0.14638911648E+04  0.14638911648E+04  0.25500000920E-02 0. -1.
    10030    2    1    2    0    0  0.00000000000E+00  0.00000000000E+00  0.39167067546E+03  0.33194530050E+04  0.32962649066E+04 0.  0.
        3    1    3    3  502    0 -0.11131702136E+04  0.36239476025E+03 -0.97243888430E+03  0.15218788653E+04  0.10100000352E+00 0. -1.
       -3    1    3    3    0  502  0.11131702136E+04 -0.36239476025E+03  0.13641095598E+04  0.17975741398E+04  0.10100000352E+00 0.  1.
</event>
<event>
 5   0  0.4811500E-07  0.3604317E+04  0.7818609E-02  0.8089504E-01
       -1   -1    0    0    0  501  0.00000000000E+00  0.00000000000E+00  0.15797776313E+04  0.15797776313E+04  0.50400001928E-02 0. -1.
        1   -1    0    0  501    0  0.00000000000E+00  0.00000000000E+00 -0.20558431595E+04  0.20558431595E+04  0.50400001928E-02 0.  1.
    10030    2    1    2    0    0  0.00000000000E+00  0.00000000000E+00 -0.47606552818E+03  0.36356207907E+04  0.36043168766E+04 0.  0.
        2    1    3    3  502    0 -0.12359676453E+04 -0.12912837030E+04 -0.46969111973E+03  0.18481448455E+04  0.25500000920E-02 0.  1.
       -2    1    3    3    0  502  0.12359676453E+04  0.12912837030E+04 -0.63744084461E+01  0.17874759453E+04  0.25500000920E-02 0. -1.
</event>
<event>
 5   0  0.1379425E-06  0.3585754E+04  0.7818609E-02  0.8093763E-01
        2   -1    0    0  501    0  0.00000000000E+00  0.00000000000E+00  0.13146031649E+04  0.13146031649E+04  0.25500000920E-02 0. -1.
       -2   -1    0    0    0  501  0.00000000000E+00  0.00000000000E+00 -0.24451540168E+04  0.24451540168E+04  0.25500000920E-02 0.  1.
    10030    2    1    2    0    0  0.00000000000E+00  0.00000000000E+00 -0.11305508519E+04  0.37597571817E+04  0.35857535940E+04 0.  0.
        4    1    3    3  502    0  0.13898064467E+04  0.50415706259E+03  0.49817498438E+03  0.15601013528E+04  0.12699999809E+01 0. -1.
       -4    1    3    3    0  502 -0.13898064467E+04 -0.50415706259E+03 -0.16287258363E+04  0.21996558289E+04  0.12699999809E+01 0.  1.
</event>
<event>
 5   0  0.4811500E-07  0.3599394E+04  0.7818609E-02  0.8090631E-01
        1   -1    0    0  501    0  0.00000000000E+00  0.00000000000E+00  0.15146643582E+04  0.15146643582E+04  0.50400001928E-02 0.  1.
       -1   -1    0    0    0  501  0.00000000000E+00  0.00000000000E+00 -0.21383671997E+04  0.21383671997E+04  0.50400001928E-02 0. -1.
    10030    2    1    2    0    0  0.00000000000E+00  0.00000000000E+00 -0.62370284151E+03  0.36530315580E+04  0.35993936057E+04 0.  0.
        2    1    3    3  502    0 -0.69196472757E+03  0.13746771902E+04 -0.12586826030E+04  0.19881736485E+04  0.25500000920E-02 0. -1.
       -2    1    3    3    0  502  0.69196472757E+03 -0.13746771902E+04  0.63497976149E+03  0.16648579095E+04  0.25500000920E-02 0.  1.
</event>
<event>
 5   0  0.4811500E-07  0.3585020E+04  0.7818609E-02  0.8093932E-01
       -1   -1    0    0    0  501  0.00000000000E+00  0.00000000000E+00  0.10285499409E+04  0.10285499409E+04  0.50400001928E-02 0. -1.
        1   -1    0    0  501    0  0.00000000000E+00  0.00000000000E+00 -0.31239056671E+04  0.31239056671E+04  0.50400001928E-02 0.  1.
    10030    2    1    2    0    0  0.00000000000E+00  0.00000000000E+00 -0.20953557262E+04  0.41524556080E+04  0.35850204960E+04 0.  0.
        3    1    3    3  502    0  0.35075736558E+02  0.17837884354E+04 -0.84718678258E+03  0.19750587192E+04  0.10100000352E+00 0. -1.
       -3    1    3    3    0  502 -0.35075736558E+02 -0.17837884354E+04 -0.12481689436E+04  0.21773968888E+04  0.10100000352E+00 0.  1.
</event>
<event>
 5   0  0.1444091E-06  0.3615717E+04  0.7818609E-02  0.8086901E-01
       -2   -1    0    0    0  501  0.00000000000E+00  0.00000000000E+00  0.21579403332E+04  0.21579403332E+04  0.25500000920E-02 0. -1.
        2   -1    0    0  501    0  0.00000000000E+00  0.00000000000E+00 -0.15145699158E+04  0.15145699158E+04  0.25500000920E-02 0.  1.
    10030    2    1    2    0    0  0.00000000000E+00  0.00000000000E+00  0.64337041737E+03  0.36725102491E+04  0.36157165314E+04 0.  0.
        1    1    3    3  502    0 -0.14705778406E+03  0.44533734312E+03  0.20950767393E+04  0.21469275453E+04  0.50400001928E-02 0. -1.
       -1    1    3    3    0  502  0.14705778406E+03 -0.44533734312E+03 -0.14517063219E+04  0.15255827038E+04  0.50400001928E-02 0.  1.
</event>
<event>
 5   0  0.4811500E-07  0.3555704E+04  0.7818609E-02  0.8100714E-01
        1   -1    0    0  501    0  0.00000000000E+00  0.00000000000E+00  0.21683650280E+04  0.21683650280E+04  0.50400001928E-02 0. -1.
       -1   -1    0    0    0  501  0.00000000000E+00  0.00000000000E+00 -0.14576684193E+04  0.14576684193E+04  0.50400001928E-02 0.  1.
    10030    2    1    2    0    0  0.00000000000E+00  0.00000000000E+00  0.71069660870E+03  0.36260334473E+04  0.35557037125E+04 0.  0.
        2    1    3    3  502    0 -0.74887061614E+03 -0.11592285842E+04  0.14982927196E+04  0.20370319545E+04  0.25500000920E-02 0. -1.
       -2    1    3    3    0  502  0.74887061614E+03  0.11592285842E+04 -0.78759611089E+03  0.15890014928E+04  0.25500000920E-02 0.  1.
</event>
<event>
 5   0  0.1444091E-06  0.3149869E+04  0.7818609E-02  0.8202184E-01
        2   -1    0    0  501    0  0.00000000000E+00  0.00000000000E+00  0.21213122717E+04  0.21213122717E+04  0.25500000920E-02 0.  1.
       -2   -1    0    0    0  501  0.00000000000E+00  0.00000000000E+00 -0.11692848008E+04  0.11692848008E+04  0.25500000920E-02 0. -1.
    10030    2    1    2    0    0  0.00000000000E+00  0.00000000000E+00  0.95202747091E+03  0.32905970726E+04  0.31498686939E+04 0.  0.
        1    1    3    3  502    0  0.12135549624E+04  0.19621280762E+03  0.15044790529E+04  0.19428515984E+04  0.50400001928E-02 0.  1.
       -1    1    3    3    0  502 -0.12135549624E+04 -0.19621280762E+03 -0.55245158201E+03  0.13477454742E+04  0.50400001928E-02 0. -1.
</event>
<event>
 5   0  0.1505671E-06  0.3706678E+04  0.7818609E-02  0.8066483E-01
       -2   -1    0    0    0  501  0.00000000000E+00  0.00000000000E+00  0.18091006398E+04  0.18091006398E+04  0.25500000920E-02 0.  1.
        2   -1    0    0  501    0  0.00000000000E+00  0.00000000000E+00 -0.18986592418E+04  0.18986592418E+04  0.25500000920E-02 0. -1.
    10030    2    1    2    0    0  0.00000000000E+00  0.00000000000E+00 -0.89558602011E+02  0.37077598816E+04  0.37066781080E+04 0.  0.
        3    1    3    3  502    0  0.10487633308E+04 -0.76365677985E+03  0.12791587969E+04  0.18219010509E+04  0.10100000352E+00 0.  1.
       -3    1    3    3    0  502 -0.10487633308E+04  0.76365677985E+03 -0.13687173989E+04  0.18858588308E+04  0.10100000352E+00 0. -1.
</event>
<event>
 5   0  0.5071661E-07  0.3145987E+04  0.7818609E-02  0.8203229E-01
       -1   -1    0    0    0  501  0.00000000000E+00  0.00000000000E+00  0.20053139940E+04  0.20053139940E+04  0.50400001928E-02 0.  1.
        1   -1    0    0  501    0  0.00000000000E+00  0.00000000000E+00 -0.12338755250E+04  0.12338755250E+04  0.50400001928E-02 0. -1.
    10030    2    1    2    0    0  0.00000000000E+00  0.00000000000E+00  0.77143846906E+03  0.32391895190E+04  0.31459865589E+04 0.  0.
        1    1    3    3  502    0  0.10434578299E+04  0.59708819675E+03 -0.65872420193E+03  0.13708523377E+04  0.50400001928E-02 0. -1.
       -1    1    3    3    0  502 -0.10434578299E+04 -0.59708819675E+03  0.14301626710E+04  0.18683371813E+04  0.50400001928E-02 0.  1.
</event>
<event>
 5   0  0.5071661E-07  0.3566586E+04  0.7818609E-02  0.8098189E-01
        1   -1    0    0  501    0  0.00000000000E+00  0.00000000000E+00  0.18699976559E+04  0.18699976559E+04  0.50400001928E-02 0. -1.
       -1   -1    0    0    0  501  0.00000000000E+00  0.00000000000E+00 -0.17006087520E+04  0.17006087520E+04  0.50400001928E-02 0.  1.
    10030    2    1    2    0    0  0.00000000000E+00  0.00000000000E+00  0.16938890394E+03  0.35706064079E+04  0.35665862557E+04 0.  0.
        1    1    3    3  502    0  0.14297111794E+04  0.96390168740E+03 -0.37074014049E+03  0.17636974716E+04  0.50400001928E-02 0. -1.
       -1    1    3    3    0  502 -0.14297111794E+04 -0.96390168740E+03  0.54012904443E+03  0.18069089363E+04  0.50400001928E-02 0.  1.
</event>
<event>
 5   0  0.1444091E-06  0.3659996E+04  0.7818609E-02  0.8076885E-01
        2   -1    0    0  501    0  0.00000000000E+00  0.00000000000E+00  0.24825883002E+04  0.24825883003E+04  0.25500000920E-02 0. -1.
       -2   -1    0    0    0  501  0.00000000000E+00  0.00000000000E+00 -0.13489523634E+04  0.13489523634E+04  0.25500000920E-02 0.  1.
    10030    2    1    2    0    0  0.00000000000E+00  0.00000000000E+00  0.11336359368E+04  0.38315406637E+04  0.36599963689E+04 0.  0.
        1    1    3    3  502    0 -0.11096623631E+04 -0.12429662920E+04  0.13589725864E+04  0.21501447053E+04  0.50400001928E-02 0. -1.
       -1    1    3    3    0  502  0.11096623631E+04  0.12429662920E+04 -0.22533664964E+03  0.16813959584E+04  0.50400001928E-02 0.  1.
</event>
<event>
 5   0  0.4811500E-07  0.3650877E+04  0.7818609E-02  0.8078936E-01
       -1   -1    0    0    0  501  0.00000000000E+00  0.00000000000E+00  0.14631076579E+04  0.14631076579E+04  0.50400001928E-02 0.  1.
        1   -1    0    0  501    0  0.00000000000E+00  0.00000000000E+00 -0.22774984557E+04  0.22774984557E+04  0.50400001928E-02 0. -1.
    10030    2    1    2    0    0  0.00000000000E+00  0.00000000000E+00 -0.81439079781E+03  0.37406061137E+04  0.36508768435E+04 0.  0.
        2    1    3    3  502    0 -0.15595218835E+04  0.93548791454E+03 -0.24526259890E+03  0.18350476522E+04  0.25500000920E-02 0.  1.
       -2    1    3    3    0  502  0.15595218835E+04 -0.93548791454E+03 -0.56912819891E+03  0.19055584615E+04  0.25500000920E-02 0. -1.
</event>
<event>
 5   0  0.5071661E-07  0.2223282E+04  0.7818609E-02  0.8508800E-01
        1   -1    0    0  501    0  0.00000000000E+00  0.00000000000E+00  0.10860352430E+04  0.10860352430E+04  0.50400001928E-02 0.  1.
       -1   -1    0    0    0  501  0.00000000000E+00  0.00000000000E+00 -0.11378506598E+04  0.11378506598E+04  0.50400001928E-02 0. -1.
    10030    2    1    2    0    0  0.00000000000E+00  0.00000000000E+00 -0.51815416849E+02  0.22238859028E+04  0.22232821843E+04 0.  0.
        1    1    3    3  502    0 -0.79868863836E+03  0.64243623397E+03  0.40446261000E+03  0.11019155406E+04  0.50400001928E-02 0.  1.
       -1    1    3    3    0  502  0.79868863836E+03 -0.64243623397E+03 -0.45627802684E+03  0.11219703622E+04  0.50400001928E-02 0. -1.
</event>
<event>
 5   0  0.1444091E-06  0.3553875E+04  0.7818609E-02  0.8101140E-01
        2   -1    0    0  501    0  0.00000000000E+00  0.00000000000E+00  0.20097909121E+04  0.20097909121E+04  0.25500000920E-02 0. -1.
       -2   -1    0    0    0  501  0.00000000000E+00  0.00000000000E+00 -0.15710626235E+04  0.15710626235E+04  0.25500000920E-02 0.  1.
    10030    2    1    2    0    0  0.00000000000E+00  0.00000000000E+00  0.43872828853E+03  0.35808535356E+04  0.35538752837E+04 0.  0.
        1    1    3    3  502    0  0.40338021900E+03  0.45682652521E+03  0.19011969783E+04  0.19964859192E+04  0.50400001928E-02 0. -1.
       -1    1    3    3    0  502 -0.40338021900E+03 -0.45682652521E+03 -0.14624686898E+04  0.15843676164E+04  0.50400001928E-02 0.  1.
</event>
<event>
 5   0  0.4811500E-07  0.3625515E+04  0.7818609E-02  0.8084672E-01
       -1   -1    0    0    0  501  0.00000000000E+00  0.00000000000E+00  0.13766986279E+04  0.13766986279E+04  0.50400001928E-02 0.  1.
        1   -1    0    0  501    0  0.00000000000E+00  0.00000000000E+00 -0.23869350211E+04  0.23869350212E+04  0.50400001928E-02 0. -1.
    10030    2    1    2    0    0  0.00000000000E+00  0.00000000000E+00 -0.10102363933E+04  0.37636336490E+04  0.36255152287E+04 0.  0.
        4    1    3    3  502    0 -0.30434075381E+03  0.36364630087E+03 -0.23214088593E+04  0.23693464566E+04  0.12699999809E+01 0. -1.
       -4    1    3    3    0  502  0.30434075381E+03 -0.36364630087E+03  0.13111724660E+04  0.13942871924E+04  0.12699999809E+01 0.  1.
</event>
<event>
 5   0  0.4811500E-07  0.3575370E+04  0.7818609E-02  0.8096157E-01
       -1   -1    0    0    0  501  0.00000000000E+00  0.00000000000E+00  0.23757630721E+04  0.23757630721E+04  0.50400001928E-02 0. -1.
        1   -1    0    0  501    0  0.00000000000E+00  0.00000000000E+00 -0.13451750137E+04  0.13451750137E+04  0.50400001928E-02 0.  1.
    10030    2    1    2    0    0  0.00000000000E+00  0.00000000000E+00  0.10305880584E+04  0.37209380858E+04  0.35753697001E+04 0.  0.
        4    1    3    3  502    0 -0.98160465685E+03 -0.30915494898E+02  0.20698688985E+04  0.22910395762E+04  0.12699999809E+01 0. -1.
       -4    1    3    3    0  502  0.98160465685E+03  0.30915494898E+02 -0.10392808401E+04  0.14298985096E+04  0.12699999809E+01 0.  1.
</event>
<event>
 5   0  0.4811500E-07  0.2597383E+04  0.7818609E-02  0.8369091E-01
       -1   -1    0    0    0  501  0.00000000000E+00  0.00000000000E+00  0.16938404630E+04  0.16938404630E+04  0.50400001928E-02 0. -1.
        1   -1    0    0  501    0  0.00000000000E+00  0.00000000000E+00 -0.99572509285E+03  0.99572509286E+03  0.50400001928E-02 0.  1.
    10030    2    1    2    0    0  0.00000000000E+00  0.00000000000E+00  0.69811537016E+03  0.26895655559E+04  0.25973828769E+04 0.  0.
        4    1    3    3  502    0  0.36143876952E+03 -0.68009602359E+03 -0.73372550701E+03  0.10637308485E+04  0.12699999809E+01 0.  1.
       -4    1    3    3    0  502 -0.36143876952E+03  0.68009602359E+03  0.14318408772E+04  0.16258347074E+04  0.12699999809E+01 0. -1.
</event>
<event>
 5   0  0.1468942E-06  0.3577978E+04  0.7818609E-02  0.8095555E-01
        2   -1    0    0  501    0  0.00000000000E+00  0.00000000000E+00  0.22827036494E+04  0.22827036494E+04  0.25500000920E-02 0.  1.
       -2   -1    0    0    0  501  0.00000000000E+00  0.00000000000E+00 -0.14020577343E+04  0.14020577343E+04  0.25500000920E-02 0. -1.
    10030    2    1    2    0    0  0.00000000000E+00  0.00000000000E+00  0.88064591515E+03  0.36847613837E+04  0.35779783715E+04 0.  0.
        2    1    3    3  502    0 -0.88810936023E+03 -0.35349769765E+03  0.19976656106E+04  0.22145804907E+04  0.25500000920E-02 0.  1.
       -2    1    3    3    0  502  0.88810936023E+03  0.35349769765E+03 -0.11170196955E+04  0.14701808930E+04  0.25500000920E-02 0. -1.
</event>
<event>
 5   0  0.1379425E-06  0.2429280E+04  0.7818609E-02  0.8428622E-01
        2   -1    0    0  501    0  0.00000000000E+00  0.00000000000E+00  0.13433807373E+04  0.13433807373E+04  0.25500000920E-02 0. -1.
       -2   -1    0    0    0  501  0.00000000000E+00  0.00000000000E+00 -0.10982370747E+04  0.10982370747E+04  0.25500000920E-02 0.  1.
    10030    2    1    2    0    0  0.00000000000E+00  0.00000000000E+00  0.24514366259E+03  0.24416178120E+04  0.24292801659E+04 0.  0.
        4    1    3    3  502    0  0.89573105229E+01 -0.31740578161E+03  0.13009263406E+04  0.13391182248E+04  0.12699999809E+01 0. -1.
       -4    1    3    3    0  502 -0.89573105229E+01  0.31740578161E+03 -0.10557826780E+04  0.11024995871E+04  0.12699999809E+01 0.  1.
</event>
<event>
 5   0  0.1505671E-06  0.3597408E+04  0.7818609E-02  0.8091086E-01
       -2   -1    0    0    0  501  0.00000000000E+00  0.00000000000E+00  0.14309390712E+04  0.14309390712E+04  0.25500000920E-02 0. -1.
        2   -1    0    0  501    0  0.00000000000E+00  0.00000000000E+00 -0.22609881784E+04  0.22609881784E+04  0.25500000920E-02 0.  1.
    10030    2    1    2    0    0  0.00000000000E+00  0.00000000000E+00 -0.83004910720E+03  0.36919272496E+04  0.35974081359E+04 0.  0.
        3    1    3    3  502    0 -0.44690539675E+03 -0.18492310305E+03 -0.21930029101E+04  0.22457031775E+04  0.10100000352E+00 0.  1.
       -3    1    3    3    0  502  0.44690539675E+03  0.18492310305E+03  0.13629538029E+04  0.14462240721E+04  0.10100000352E+00 0. -1.
</event>
<event>
 5   0  0.4811500E-07  0.3547349E+04  0.7818609E-02  0.8102660E-01
        1   -1    0    0  501    0  0.00000000000E+00  0.00000000000E+00  0.15983069858E+04  0.15983069859E+04  0.50400001928E-02 0. -1.
       -1   -1    0    0    0  501  0.00000000000E+00  0.00000000000E+00 -0.19682835295E+04  0.19682835295E+04  0.50400001928E-02 0.  1.
    10030    2    1    2    0    0  0.00000000000E+00  0.00000000000E+00 -0.36997654367E+03  0.35665905154E+04  0.35473490470E+04 0.  0.
        3    1    3    3  502    0  0.16745899608E+04 -0.39045090129E+03  0.25236299834E+03  0.17379270803E+04  0.10100000352E+00 0.  1.
       -3    1    3    3    0  502 -0.16745899608E+04  0.39045090129E+03 -0.62233954201E+03  0.18286634351E+04  0.10100000352E+00 0. -1.
</event>
<event>
 5   0  0.1505671E-06  0.3556370E+04  0.7818609E-02  0.8100559E-01
        2   -1    0    0  501    0  0.00000000000E+00  0.00000000000E+00  0.18695267028E+04  0.18695267028E+04  0.25500000920E-02 0.  1.
       -2   -1    0    0    0  501  0.00000000000E+00  0.00000000000E+00 -0.16913057314E+04  0.16913057314E+04  0.25500000920E-02 0. -1.
    10030    2    1    2    0    0  0.00000000000E+00  0.00000000000E+00  0.17822097133E+03  0.35608324342E+04  0.35563696250E+04 0.  0.
        3    1    3    3  502    0  0.12402310001E+04  0.12510841373E+04  0.33139919860E+03  0.17925428562E+04  0.10100000352E+00 0. -1.
       -3    1    3    3    0  502 -0.12402310001E+04 -0.12510841373E+04 -0.15317822727E+03  0.17682895780E+04  0.10100000352E+00 0.  1.
</event>
<event>
 5   0  0.1468942E-06  0.3423670E+04  0.7818609E-02  0.8132121E-01
       -2   -1    0    0    0  501  0.00000000000E+00  0.00000000000E+00  0.23925200333E+04  0.23925200333E+04  0.25500000920E-02 0.  1.
        2   -1    0    0  501    0  0.00000000000E+00  0.00000000000E+00 -0.12248082644E+04  0.12248082644E+04  0.25500000920E-02 0. -1.
    10030    2    1    2    0    0  0.00000000000E+00  0.00000000000E+00  0.11677117689E+04  0.36173282978E+04  0.34236695574E+04 0.  0.
        2    1    3    3  502    0 -0.14056142213E+03 -0.16970674665E+04  0.76862729784E+03  0.18683103121E+04  0.25500000920E-02 0.  1.
       -2    1    3    3    0  502  0.14056142213E+03  0.16970674665E+04  0.39908447109E+03  0.17490179857E+04  0.25500000920E-02 0. -1.
</event>
<event>
 5   0  0.4811500E-07  0.3654763E+04  0.7818609E-02  0.8078061E-01
        1   -1    0    0  501    0  0.00000000000E+00  0.00000000000E+00  0.20630182989E+04  0.20630182989E+04  0.50400001928E-02 0.  1.
       -1   -1    0    0    0  501  0.00000000000E+00  0.00000000000E+00 -0.16186590251E+04  0.16186590252E+04  0.50400001928E-02 0. -1.
    10030    2    1    2    0    0  0.00000000000E+00  0.00000000000E+00  0.44435927373E+03  0.36816773240E+04  0.36547630230E+04 0.  0.
        3    1    3    3  502    0 -0.97536355159E+03  0.42269315352E+03  0.17195035993E+04  0.20215578641E+04  0.10100000352E+00 0.  1.
       -3    1    3    3    0  502  0.97536355159E+03 -0.42269315352E+03 -0.12751443256E+04  0.16601194599E+04  0.10100000352E+00 0. -1.
</event>
<event>
 5   0  0.1491854E-06  0.3684664E+04  0.7818609E-02  0.8071369E-01
        2   -1    0    0  501    0  0.00000000000E+00  0.00000000000E+00  0.11346910054E+04  0.11346910054E+04  0.25500000920E-02 0.  1.
       -2   -1    0    0    0  501  0.00000000000E+00  0.00000000000E+00 -0.29912875651E+04  0.29912875651E+04  0.25500000920E-02 0. -1.
    10030    2    1    2    0    0  0.00000000000E+00  0.00000000000E+00 -0.18565965598E+04  0.41259785705E+04  0.36846639438E+04 0.  0.
        5    1    3    3  502    0 -0.32947497543E+03 -0.12357035215E+04  0.55667469890E+03  0.13947852031E+04  0.46999998093E+01 0.  1.
       -5    1    3    3    0  502  0.32947497543E+03  0.12357035215E+04 -0.24132712587E+04  0.27311933674E+04  0.46999998093E+01 0. -1.
</event>
<event>
 5   0  0.4811500E-07  0.2236831E+04  0.7818609E-02  0.8503253E-01
       -1   -1    0    0    0  501  0.00000000000E+00  0.00000000000E+00  0.93979066647E+03  0.93979066648E+03  0.50400001928E-02 0. -1.
        1   -1    0    0  501    0  0.00000000000E+00  0.00000000000E+00 -0.13309916497E+04  0.13309916497E+04  0.50400001928E-02 0.  1.
    10030    2    1    2    0    0  0.00000000000E+00  0.00000000000E+00 -0.39120098327E+03  0.22707823162E+04  0.22368312673E+04 0.  0.
        5    1    3    3  502    0  0.71472337573E+02  0.47012380019E+03  0.83204205961E+03  0.95835315072E+03  0.46999998093E+01 0. -1.
       -5    1    3    3    0  502 -0.71472337573E+02 -0.47012380019E+03 -0.12232430429E+04  0.13124291655E+04  0.46999998093E+01 0.  1.
</event>
<event>
 5   0  0.1505671E-06  0.3443699E+04  0.7818609E-02  0.8127264E-01
        2   -1    0    0  501    0  0.00000000000E+00  0.00000000000E+00  0.18623572360E+04  0.18623572360E+04  0.25500000920E-02 0. -1.
       -2   -1    0    0    0  501  0.00000000000E+00  0.00000000000E+00 -0.15919422853E+04  0.15919422853E+04  0.25500000920E-02 0.  1.
    10030    2    1    2    0    0  0.00000000000E+00  0.00000000000E+00  0.27041495079E+03  0.34542995213E+04  0.34436987292E+04 0.  0.
        3    1    3    3  502    0 -0.14423339466E+04 -0.60005858182E+03 -0.59115401642E+03  0.16702875789E+04  0.10100000352E+00 0.  1.
       -3    1    3    3    0  502  0.14423339466E+04  0.60005858182E+03  0.86156896720E+03  0.17840119424E+04  0.10100000352E+00 0. -1.
</event>
<event>
 5   0  0.1444091E-06  0.3612383E+04  0.7818609E-02  0.8087661E-01
       -2   -1    0    0    0  501  0.00000000000E+00  0.00000000000E+00  0.21708462344E+04  0.21708462344E+04  0.25500000920E-02 0.  1.
        2   -1    0    0  501    0  0.00000000000E+00  0.00000000000E+00 -0.15027906110E+04  0.15027906110E+04  0.25500000920E-02 0. -1.
    10030    2    1    2    0    0  0.00000000000E+00  0.00000000000E+00  0.66805562340E+03  0.36736368454E+04  0.36123827809E+04 0.  0.
        1    1    3    3  502    0 -0.40483718209E+03  0.15720172109E+04  0.11394139074E+04  0.19832789284E+04  0.50400001928E-02 0.  1.
       -1    1    3    3    0  502  0.40483718209E+03 -0.15720172109E+04 -0.47135828401E+03  0.16903579169E+04  0.50400001928E-02 0. -1.
</event>
<event>
 5   0  0.1379425E-06  0.3578922E+04  0.7818609E-02  0.8095337E-01
        2   -1    0    0  501    0  0.00000000000E+00  0.00000000000E+00  0.21691282026E+04  0.21691282026E+04  0.25500000920E-02 0. -1.
       -2   -1    0    0    0  501  0.00000000000E+00  0.00000000000E+00 -0.14762480575E+04  0.14762480575E+04  0.25500000920E-02 0.  1.
    10030    2    1    2    0    0  0.00000000000E+00  0.00000000000E+00  0.69288014505E+03  0.36453762601E+04  0.35789223493E+04 0.  0.
        4    1    3    3  502    0 -0.14302639077E+04  0.53167741334E+03  0.12985882619E+04  0.20036638452E+04  0.12699999809E+01 0. -1.
       -4    1    3    3    0  502  0.14302639077E+04 -0.53167741334E+03 -0.60570811689E+03  0.16417124149E+04  0.12699999809E+01 0.  1.
</event>
<event>
 5   0  0.4811500E-07  0.3600643E+04  0.7818609E-02  0.8090344E-01
       -1   -1    0    0    0  501  0.00000000000E+00  0.00000000000E+00  0.21726246861E+04  0.21726246861E+04  0.50400001928E-02 0. -1.
        1   -1    0    0  501    0  0.00000000000E+00  0.00000000000E+00 -0.14918164356E+04  0.14918164356E+04  0.50400001928E-02 0.  1.
    10030    2    1    2    0    0  0.00000000000E+00  0.00000000000E+00  0.68080825051E+03  0.36644411217E+04  0.36006428399E+04 0.  0.
        3    1    3    3  502    0 -0.74296007778E+03  0.88195146065E+03 -0.10666002413E+04  0.15708163932E+04  0.10100000352E+00 0.  1.
       -3    1    3    3    0  502  0.74296007778E+03 -0.88195146065E+03  0.17474084918E+04  0.20936247285E+04  0.10100000352E+00 0. -1.
</event>
<event>
 5   0  0.4811500E-07  0.3542389E+04  0.7818609E-02  0.8103817E-01
        1   -1    0    0  501    0  0.00000000000E+00  0.00000000000E+00  0.20720827614E+04  0.20720827614E+04  0.50400001928E-02 0.  1.
       -1   -1    0    0    0  501  0.00000000000E+00  0.00000000000E+00 -0.15139979961E+04  0.15139979961E+04  0.50400001928E-02 0. -1.
    10030    2    1    2    0    0  0.00000000000E+00  0.00000000000E+00  0.55808476532E+03  0.35860807574E+04  0.35423885436E+04 0.  0.
        4    1    3    3  502    0 -0.19343485133E+03  0.99804465865E+03  0.17473168384E+04  0.20215409788E+04  0.12699999809E+01 0.  1.
       -4    1    3    3    0  502  0.19343485133E+03 -0.99804465865E+03 -0.11892320731E+04  0.15645397786E+04  0.12699999809E+01 0. -1.
</event>
<event>
 5   0  0.1444091E-06  0.3639303E+04  0.7818609E-02  0.8081548E-01
       -2   -1    0    0    0  501  0.00000000000E+00  0.00000000000E+00  0.13658996632E+04  0.13658996632E+04  0.25500000920E-02 0. -1.
        2   -1    0    0  501    0  0.00000000000E+00  0.00000000000E+00 -0.24241401366E+04  0.24241401366E+04  0.25500000920E-02 0.  1.
    10030    2    1    2    0    0  0.00000000000E+00  0.00000000000E+00 -0.10582404734E+04  0.37900397998E+04  0.36393033378E+04 0.  0.
        1    1    3    3  502    0  0.26142361079E+03  0.15687621007E+04 -0.14499227686E+04  0.21521228747E+04  0.50400001928E-02 0.  1.
       -1    1    3    3    0  502 -0.26142361079E+03 -0.15687621007E+04  0.39168229518E+03  0.16379169251E+04  0.50400001928E-02 0. -1.
</event>
<event>
 5   0  0.4811500E-07  0.3217908E+04  0.7818609E-02  0.8184104E-01
        1   -1    0    0  501    0  0.00000000000E+00  0.00000000000E+00  0.82638813375E+03  0.82638813377E+03  0.50400001928E-02 0.  1.
       -1   -1    0    0    0  501  0.00000000000E+00  0.00000000000E+00 -0.31325879681E+04  0.31325879681E+04  0.50400001928E-02 0. -1.
    10030    2    1    2    0    0  0.00000000000E+00  0.00000000000E+00 -0.23061998344E+04  0.39589761019E+04  0.32179083423E+04 0.  0.
        4    1    3    3  502    0  0.15166480139E+04 -0.35851399460E+03 -0.16451846886E+04  0.22661393944E+04  0.12699999809E+01 0. -1.
       -4    1    3    3    0  502 -0.15166480139E+04  0.35851399460E+03 -0.66101514582E+03  0.16928367075E+04  0.12699999809E+01 0.  1.
</event>
<event>
 5   0  0.1379425E-06  0.2602711E+04  0.7818609E-02  0.8367281E-01
       -2   -1    0    0    0  501  0.00000000000E+00  0.00000000000E+00  0.10116995207E+04  0.10116995207E+04  0.25500000920E-02 0.  1.
        2   -1    0    0  501    0  0.00000000000E+00  0.00000000000E+00 -0.16739417691E+04  0.16739417691E+04  0.25500000920E-02 0. -1.
    10030    2    1    2    0    0  0.00000000000E+00  0.00000000000E+00 -0.66224224846E+03  0.26856412898E+04  0.26027109601E+04 0.  0.
        4    1    3    3  502    0 -0.10821776339E+04 -0.21517984289E+03 -0.10431168602E+04  0.15183890124E+04  0.12699999809E+01 0. -1.
       -4    1    3    3    0  502  0.10821776339E+04  0.21517984289E+03  0.38087461173E+03  0.11672522773E+04  0.12699999809E+01 0.  1.
</event>
<event>
 5   0  0.1505671E-06  0.3577313E+04  0.7818609E-02  0.8095708E-01
       -2   -1    0    0    0  501  0.00000000000E+00  0.00000000000E+00  0.14341573654E+04  0.14341573654E+04  0.25500000920E-02 0.  1.
        2   -1    0    0  501    0  0.00000000000E+00  0.00000000000E+00 -0.22307819685E+04  0.22307819685E+04  0.25500000920E-02 0. -1.
    10030    2    1    2    0    0  0.00000000000E+00  0.00000000000E+00 -0.79662460312E+03  0.36649393340E+04  0.35773131766E+04 0.  0.
        3    1    3    3  502    0  0.29865428327E+03  0.10480594439E+04  0.10547630402E+04  0.15166239020E+04  0.10100000352E+00 0.  1.
       -3    1    3    3    0  502 -0.29865428327E+03 -0.10480594439E+04 -0.18513876434E+04  0.21483154319E+04  0.10100000352E+00 0. -1.
</event>
<event>
 5   0  0.1491854E-06  0.3689582E+04  0.7818609E-02  0.8070275E-01
       -2   -1    0    0    0  501  0.00000000000E+00  0.00000000000E+00  0.12055350734E+04  0.12055350734E+04  0.25500000920E-02 0. -1.
        2   -1    0    0  501    0  0.00000000000E+00  0.00000000000E+00 -0.28230232859E+04  0.28230232859E+04  0.25500000920E-02 0.  1.
    10030    2    1    2    0    0  0.00000000000E+00  0.00000000000E+00 -0.16174882126E+04  0.40285583593E+04  0.36895818647E+04 0.  0.
        5    1    3    3  502    0 -0.13465983575E+04 -0.34679855204E+03  0.51491840708E+03  0.14828214417E+04  0.46999998093E+01 0. -1.
       -5    1    3    3    0  502  0.13465983575E+04  0.34679855204E+03 -0.21324066196E+04  0.25457369176E+04  0.46999998093E+01 0.  1.
</event>
<event>
 5   0  0.4811500E-07  0.3574278E+04  0.7818609E-02  0.8096409E-01
       -1   -1    0    0    0  501  0.00000000000E+00  0.00000000000E+00  0.18052878252E+04  0.18052878252E+04  0.50400001928E-02 0.  1.
        1   -1    0    0  501    0  0.00000000000E+00  0.00000000000E+00 -0.17691729238E+04  0.17691729238E+04  0.50400001928E-02 0. -1.
    10030    2    1    2    0    0  0.00000000000E+00  0.00000000000E+00  0.36114901471E+02  0.35744607490E+04  0.35742782992E+04 0.  0.
        4    1    3    3  502    0  0.12697645577E+04  0.35589244855E+03 -0.11881978272E+04  0.17750428605E+04  0.12699999809E+01 0. -1.
       -4    1    3    3    0  502 -0.12697645577E+04 -0.35589244855E+03  0.12243127287E+04  0.17994178885E+04  0.12699999809E+01 0.  1.
</event>
<event>
 5   0  0.4811500E-07  0.3552037E+04  0.7818609E-02  0.8101567E-01
       -1   -1    0    0    0  501  0.00000000000E+00  0.00000000000E+00  0.12931675686E+04  0.12931675686E+04  0.50400001928E-02 0.  1.
        1   -1    0    0  501    0  0.00000000000E+00  0.00000000000E+00 -0.24391599861E+04  0.24391599861E+04  0.50400001928E-02 0. -1.
    10030    2    1    2    0    0  0.00000000000E+00  0.00000000000E+00 -0.11459924175E+04  0.37323275547E+04  0.35520374934E+04 0.  0.
        4    1    3    3  502    0 -0.16950844146E+04 -0.30820485457E+03 -0.10260900113E+04  0.20052839522E+04  0.12699999809E+01 0. -1.
       -4    1    3    3    0  502  0.16950844146E+04  0.30820485457E+03 -0.11990240622E+03  0.17270436025E+04  0.12699999809E+01 0.  1.
</event>
<event>
 5   0  0.5071661E-07  0.3566049E+04  0.7818609E-02  0.8098313E-01
       -1   -1    0    0    0  501  0.00000000000E+00  0.00000000000E+00  0.19165639131E+04  0.19165639131E+04  0.50400001928E-02 0. -1.
        1   -1    0    0  501    0  0.00000000000E+00  0.00000000000E+00 -0.16587898351E+04  0.16587898351E+04  0.50400001928E-02 0.  1.
    10030    2    1    2    0    0  0.00000000000E+00  0.00000000000E+00  0.25777407803E+03  0.35753537482E+04  0.35660492073E+04 0.  0.
        1    1    3    3  502    0  0.16035422852E+03 -0.15560536157E+04 -0.72900928120E+03  0.17258246915E+04  0.50400001928E-02 0.  1.
       -1    1    3    3    0  502 -0.16035422852E+03  0.15560536157E+04  0.98678335923E+03  0.18495290567E+04  0.50400001928E-02 0. -1.
</event>
<event>
 5   0  0.1491854E-06  0.3589787E+04  0.7818609E-02  0.8092835E-01
       -2   -1    0    0    0  501  0.00000000000E+00  0.00000000000E+00  0.16508236557E+04  0.16508236557E+04  0.25500000920E-02 0. -1.
        2   -1    0    0  501    0  0.00000000000E+00  0.00000000000E+00 -0.19515365344E+04  0.19515365344E+04  0.25500000920E-02 0.  1.
    10030    2    1    2    0    0  0.00000000000E+00  0.00000000000E+00 -0.30071287872E+03  0.36023601901E+04  0.35897869998E+04 0.  0.
        5    1    3    3  502    0 -0.11776666896E+04  0.12088756676E+04 -0.76351319148E+03  0.18523643527E+04  0.46999998093E+01 0.  1.
       -5    1    3    3    0  502  0.11776666896E+04 -0.12088756676E+04  0.46280031275E+03  0.17499958374E+04  0.46999998093E+01 0. -1.
</event>
<event>
 5   0  0.1379425E-06  0.3595737E+04  0.7818609E-02  0.8091469E-01
       -2   -1    0    0    0  501  0.00000000000E+00  0.00000000000E+00  0.15761218204E+04  0.15761218204E+04  0.25500000920E-02 0.  1.
        2   -1    0    0  501    0  0.00000000000E+00  0.00000000000E+00 -0.20508129274E+04  0.20508129274E+04  0.25500000920E-02 0. -1.
    10030    2    1    2    0    0  0.00000000000E+00  0.00000000000E+00 -0.47469110704E+03  0.36269347477E+04  0.35957369227E+04 0.  0.
        4    1    3    3  502    0  0.75557495928E+03 -0.36690215806E+03 -0.18407344505E+04  0.20233179787E+04  0.12699999809E+01 0. -1.
       -4    1    3    3    0  502 -0.75557495928E+03  0.36690215806E+03  0.13660433435E+04  0.16036167690E+04  0.12699999809E+01 0.  1.
</event>
<event>
 5   0  0.1444091E-06  0.3525449E+04  0.7818609E-02  0.8107785E-01
       -2   -1    0    0    0  501  0.00000000000E+00  0.00000000000E+00  0.21891414340E+04  0.21891414340E+04  0.25500000920E-02 0.  1.
        2   -1    0    0  501    0  0.00000000000E+00  0.00000000000E+00 -0.14193678868E+04  0.14193678868E+04  0.25500000920E-02 0. -1.
    10030    2    1    2    0    0  0.00000000000E+00  0.00000000000E+00  0.76977354718E+03  0.36085093209E+04  0.35254486530E+04 0.  0.
        1    1    3    3  502    0 -0.10920737625E+04  0.13442298881E+04  0.72066753388E+03  0.18758840021E+04  0.50400001928E-02 0.  1.
       -1    1    3    3    0  502  0.10920737625E+04 -0.13442298881E+04  0.49106013296E+02  0.17326253188E+04  0.50400001928E-02 0. -1.
</event>
<event>
 5   0  0.1444091E-06  0.3613306E+04  0.7818609E-02  0.8087451E-01
        2   -1    0    0  501    0  0.00000000000E+00  0.00000000000E+00  0.13168657747E+04  0.13168657747E+04  0.25500000920E-02 0. -1.
       -2   -1    0    0    0  501  0.00000000000E+00  0.00000000000E+00 -0.24786088263E+04  0.24786088263E+04  0.25500000920E-02 0.  1.
    10030    2    1    2    0    0  0.00000000000E+00  0.00000000000E+00 -0.11617430516E+04  0.37954746010E+04  0.36133060387E+04 0.  0.
        1    1    3    3  502    0 -0.12911244828E+04  0.18063156651E+03 -0.18946749203E+04  0.22998746154E+04  0.50400001928E-02 0.  1.
       -1    1    3    3    0  502  0.12911244828E+04 -0.18063156651E+03  0.73293186868E+03  0.14955999856E+04  0.50400001928E-02 0. -1.
</event>
<event>
 5   0  0.4811500E-07  0.2567496E+04  0.7818609E-02  0.8379327E-01
       -1   -1    0    0    0  501  0.00000000000E+00  0.00000000000E+00  0.18203476861E+04  0.18203476861E+04  0.50400001928E-02 0. -1.
        1   -1    0    0  501    0  0.00000000000E+00  0.00000000000E+00 -0.90532623481E+03  0.90532623482E+03  0.50400001928E-02 0.  1.
    10030    2    1    2    0    0  0.00000000000E+00  0.00000000000E+00  0.91502145133E+03  0.27256739210E+04  0.25674956800E+04 0.  0.
        2    1    3    3  502    0  0.10243587634E+04  0.74131952978E+03  0.69285031378E+03  0.14418415581E+04  0.25500000920E-02 0. -1.
       -2    1    3    3    0  502 -0.10243587634E+04 -0.74131952978E+03  0.22217113755E+03  0.12838323628E+04  0.25500000920E-02 0.  1.
</event>
<event>
 5   0  0.4811500E-07  0.3574423E+04  0.7818609E-02  0.8096376E-01
        1   -1    0    0  501    0  0.00000000000E+00  0.00000000000E+00  0.13116257564E+04  0.13116257564E+04  0.50400001928E-02 0.  1.
       -1   -1    0    0    0  501  0.00000000000E+00  0.00000000000E+00 -0.24352416082E+04  0.24352416082E+04  0.50400001928E-02 0. -1.
    10030    2    1    2    0    0  0.00000000000E+00  0.00000000000E+00 -0.11236158518E+04  0.37468673646E+04  0.35744233752E+04 0.  0.
        5    1    3    3  502    0 -0.37338037140E+03  0.88667453357E+03  0.10170084209E+04  0.13999760171E+04  0.46999998093E+01 0.  1.
       -5    1    3    3    0  502  0.37338037140E+03 -0.88667453357E+03 -0.21406242727E+04  0.23468913475E+04  0.46999998093E+01 0. -1.
</event>
<event>
 5   0  0.1491854E-06  0.3619756E+04  0.7818609E-02  0.8085981E-01
        2   -1    0    0  501    0  0.00000000000E+00  0.00000000000E+00  0.19642958020E+04  0.19642958020E+04  0.25500000920E-02 0.  1.
       -2   -1    0    0    0  501  0.00000000000E+00  0.00000000000E+00 -0.16675993865E+04  0.16675993865E+04  0.25500000920E-02 0. -1.
    10030    2    1    2    0    0  0.00000000000E+00  0.00000000000E+00  0.29669641546E+03  0.36318951885E+04  0.36197560549E+04 0.  0.
        5    1    3    3  502    0 -0.13460202882E+04 -0.11853735116E+04 -0.94859827138E+02  0.17960794680E+04  0.46999998093E+01 0. -1.
       -5    1    3    3    0  502  0.13460202882E+04  0.11853735116E+04  0.39155624259E+03  0.18358157205E+04  0.46999998093E+01 0.  1.
</event>
<event>
 5   0  0.4811500E-07  0.3655120E+04  0.7818609E-02  0.8077981E-01
       -1   -1    0    0    0  501  0.00000000000E+00  0.00000000000E+00  0.13422909639E+04  0.13422909639E+04  0.50400001928E-02 0. -1.
        1   -1    0    0  501    0  0.00000000000E+00  0.00000000000E+00 -0.24882645797E+04  0.24882645797E+04  0.50400001928E-02 0.  1.
    10030    2    1    2    0    0  0.00000000000E+00  0.00000000000E+00 -0.11459736158E+04  0.38305555436E+04  0.36551197306E+04 0.  0.
        4    1    3    3  502    0  0.15867846104E+04 -0.85037940316E+03 -0.24333723590E+03  0.18166576872E+04  0.12699999809E+01 0.  1.
       -4    1    3    3    0  502 -0.15867846104E+04  0.85037940316E+03 -0.90263637990E+03  0.20138978565E+04  0.12699999809E+01 0. -1.
</event>
<event>
 5   0  0.1468942E-06  0.2358762E+04  0.7818609E-02  0.8455106E-01
       -2   -1    0    0    0  501  0.00000000000E+00  0.00000000000E+00  0.66471889865E+03  0.66471889865E+03  0.25500000920E-02 0.  1.
        2   -1    0    0  501    0  0.00000000000E+00  0.00000000000E+00 -0.20925223441E+04  0.20925223441E+04  0.25500000920E-02 0. -1.
    10030    2    1    2    0    0  0.00000000000E+00  0.00000000000E+00 -0.14278034454E+04  0.27572412428E+04  0.23587616649E+04 0.  0.
        2    1    3    3  502    0  0.42400288067E+03 -0.10093005450E+04 -0.12267344617E+04  0.16441847441E+04  0.25500000920E-02 0. -1.
       -2    1    3    3    0  502 -0.42400288067E+03  0.10093005450E+04 -0.20106898371E+03  0.11130564987E+04  0.25500000920E-02 0.  1.
</event>
<event>
 5   0  0.5071661E-07  0.3546870E+04  0.7818609E-02  0.8102771E-01
       -1   -1    0    0    0  501  0.00000000000E+00  0.00000000000E+00  0.14115801518E+04  0.14115801518E+04  0.50400001928E-02 0. -1.
        1   -1    0    0  501    0  0.00000000000E+00  0.00000000000E+00 -0.22280508342E+04  0.22280508342E+04  0.50400001928E-02 0.  1.
    10030    2    1    2    0    0  0.00000000000E+00  0.00000000000E+00 -0.81647068233E+03  0.36396309860E+04  0.35468703584E+04 0.  0.
        1    1    3    3  502    0  0.49141359188E+03  0.16687470533E+04 -0.54445756348E+02  0.17404506275E+04  0.50400001928E-02 0. -1.
       -1    1    3    3    0  502 -0.49141359188E+03 -0.16687470533E+04 -0.76202492598E+03  0.18991803585E+04  0.50400001928E-02 0.  1.
</event>
<event>
 5   0  0.1505671E-06  0.3525751E+04  0.7818609E-02  0.8107714E-01
       -2   -1    0    0    0  501  0.00000000000E+00  0.00000000000E+00  0.27894307573E+04  0.27894307573E+04  0.25500000920E-02 0. -1.
        2   -1    0    0  501    0  0.00000000000E+00  0.00000000000E+00 -0.11141088479E+04  0.11141088479E+04  0.25500000920E-02 0.  1.
    10030    2    1    2    0    0  0.00000000000E+00  0.00000000000E+00  0.16753219095E+04  0.39035396052E+04  0.35257506930E+04 0.  0.
        3    1    3    3  502    0 -0.91579404710E+03  0.12462002012E+04  0.17745202240E+04  0.23538512514E+04  0.10100000352E+00 0. -1.
       -3    1    3    3    0  502  0.91579404710E+03 -0.12462002012E+04 -0.99198314528E+02  0.15496883538E+04  0.10100000352E+00 0.  1.
</event>
<event>
 5   0  0.1491854E-06  0.2302827E+04  0.7818609E-02  0.8476807E-01
       -2   -1    0    0    0  501  0.00000000000E+00  0.00000000000E+00  0.81274542809E+03  0.81274542810E+03  0.25500000920E-02 0. -1.
        2   -1    0    0  501    0  0.00000000000E+00  0.00000000000E+00 -0.16312028889E+04  0.16312028889E+04  0.25500000920E-02 0.  1.
    10030    2    1    2    0    0  0.00000000000E+00  0.00000000000E+00 -0.81845746081E+03  0.24439483170E+04  0.23028266893E+04 0.  0.
        5    1    3    3  502    0  0.31149795565E+03  0.38990024715E+03 -0.15104474012E+04  0.15907629053E+04  0.46999998093E+01 0.  1.
       -5    1    3    3    0  502 -0.31149795565E+03 -0.38990024715E+03  0.69198994040E+03  0.85318541169E+03  0.46999998093E+01 0. -1.
</event>
<event>
 5   0  0.5071661E-07  0.3820181E+04  0.7818609E-02  0.8041838E-01
        1   -1    0    0  501    0  0.00000000000E+00  0.00000000000E+00  0.23538158489E+04  0.23538158489E+04  0.50400001928E-02 0. -1.
       -1   -1    0    0    0  501  0.00000000000E+00  0.00000000000E+00 -0.15500134525E+04  0.15500134525E+04  0.50400001928E-02 0.  1.
    10030    2    1    2    0    0  0.00000000000E+00  0.00000000000E+00  0.80380239635E+03  0.39038293014E+04  0.38201812682E+04 0.  0.
        1    1    3    3  502    0  0.11531510987E+04  0.21747095350E+03  0.19420163609E+04  0.22690259184E+04  0.50400001928E-02 0. -1.
       -1    1    3    3    0  502 -0.11531510987E+04 -0.21747095350E+03 -0.11382139646E+04  0.16348033830E+04  0.50400001928E-02 0.  1.
</event>
<event>
 5   0  0.4811500E-07  0.3677830E+04  0.7818609E-02  0.8072893E-01
        1   -1    0    0  501    0  0.00000000000E+00  0.00000000000E+00  0.23483062756E+04  0.23483062756E+04  0.50400001928E-02 0.  1.
       -1   -1    0    0    0  501  0.00000000000E+00  0.00000000000E+00 -0.14400201015E+04  0.14400201015E+04  0.50400001928E-02 0. -1.
    10030    2    1    2    0    0  0.00000000000E+00  0.00000000000E+00  0.90828617407E+03  0.37883263771E+04  0.36778299261E+04 0.  0.
        4    1    3    3  502    0  0.37002759960E+03 -0.18010670176E+04  0.42422209041E+03  0.18869893538E+04  0.12699999809E+01 0. -1.
       -4    1    3    3    0  502 -0.37002759960E+03  0.18010670176E+04  0.48406408366E+03  0.19013370233E+04  0.12699999809E+01 0.  1.
</event>
<event>
 5   0  0.4811500E-07  0.3376906E+04  0.7818609E-02  0.8143598E-01
        1   -1    0    0  501    0  0.00000000000E+00  0.00000000000E+00  0.15975179281E+04  0.15975179281E+04  0.50400001928E-02 0. -1.
       -1   -1    0    0    0  501  0.00000000000E+00  0.00000000000E+00 -0.17845640391E+04  0.17845640391E+04  0.50400001928E-02 0.  1.
    10030    2    1    2    0    0  0.00000000000E+00  0.00000000000E+00 -0.18704611096E+03  0.33820819672E+04  0.33769057116E+04 0.  0.
        5    1    3    3  502    0  0.14915320783E+04  0.67045405243E+03 -0.51449386395E+03  0.17143227826E+04  0.46999998093E+01 0.  1.
       -5    1    3    3    0  502 -0.14915320783E+04 -0.67045405243E+03  0.32744775299E+03  0.16677591846E+04  0.46999998093E+01 0. -1.
</event>
<event>
 5   0  0.4811500E-07  0.3607445E+04  0.7818609E-02  0.8088788E-01
        1   -1    0    0  501    0  0.00000000000E+00  0.00000000000E+00  0.24334944022E+04  0.24334944022E+04  0.50400001928E-02 0. -1.
       -1   -1    0    0    0  501  0.00000000000E+00  0.00000000000E+00 -0.13369312186E+04  0.13369312186E+04  0.50400001928E-02 0.  1.
    10030    2    1    2    0    0  0.00000000000E+00  0.00000000000E+00  0.10965631836E+04  0.37704256207E+04  0.36074448777E+04 0.  0.
        5    1    3    3  502    0  0.43561621802E+03  0.71919104426E+03 -0.11195553386E+04  0.14001512396E+04  0.46999998093E+01 0.  1.
       -5    1    3    3    0  502 -0.43561621802E+03 -0.71919104426E+03  0.22161185222E+04  0.23702743811E+04  0.46999998093E+01 0. -1.
</event>
<event>
 5   0  0.1491854E-06  0.3576877E+04  0.7818609E-02  0.8095809E-01
       -2   -1    0    0    0  501  0.00000000000E+00  0.00000000000E+00  0.23294999595E+04  0.23294999595E+04  0.25500000920E-02 0. -1.
        2   -1    0    0  501    0  0.00000000000E+00  0.00000000000E+00 -0.13730466916E+04  0.13730466916E+04  0.25500000920E-02 0.  1.
    10030    2    1    2    0    0  0.00000000000E+00  0.00000000000E+00  0.95645326791E+03  0.37025466512E+04  0.35768769689E+04 0.  0.
        5    1    3    3  502    0  0.11534152602E+04 -0.54159849933E+03  0.17772246009E+04  0.21868344859E+04  0.46999998093E+01 0. -1.
       -5    1    3    3    0  502 -0.11534152602E+04  0.54159849933E+03 -0.82077133298E+03  0.15157121653E+04  0.46999998093E+01 0.  1.
</event>
<event>
 5   0  0.1491854E-06  0.3527276E+04  0.7818609E-02  0.8107356E-01
       -2   -1    0    0    0  501  0.00000000000E+00  0.00000000000E+00  0.18245655528E+04  0.18245655528E+04  0.25500000920E-02 0.  1.
        2   -1    0    0  501    0  0.00000000000E+00  0.00000000000E+00 -0.17047447213E+04  0.17047447213E+04  0.25500000920E-02 0. -1.
    10030    2    1    2    0    0  0.00000000000E+00  0.00000000000E+00  0.11982083151E+03  0.35293102741E+04  0.35272757163E+04 0.  0.
        5    1    3    3  502    0 -0.19385301157E+03  0.15828453845E+04  0.81361637545E+03  0.17902436140E+04  0.46999998093E+01 0.  1.
       -5    1    3    3    0  502  0.19385301157E+03 -0.15828453845E+04 -0.69379554395E+03  0.17390666600E+04  0.46999998093E+01 0. -1.
</event>
<event>
 5   0  0.1505671E-06  0.3012317E+04  0.7818609E-02  0.8240222E-01
       -2   -1    0    0    0  501  0.00000000000E+00  0.00000000000E+00  0.12477464037E+04  0.12477464037E+04  0.25500000920E-02 0.  1.
        2   -1    0    0  501    0  0.00000000000E+00  0.00000000000E+00 -0.18180891263E+04  0.18180891263E+04  0.25500000920E-02 0. -1.
    10030    2    1    2    0    0  0.00000000000E+00  0.00000000000E+00 -0.57034272260E+03  0.30658355299E+04  0.30123174925E+04 0.  0.
        3    1    3    3  502    0  0.96615064822E+03 -0.10890662297E+04 -0.67803687883E+03  0.16060032213E+04  0.10100000352E+00 0. -1.
       -3    1    3    3    0  502 -0.96615064822E+03  0.10890662297E+04  0.10769415623E+03  0.14598323086E+04  0.10100000352E+00 0.  1.
</event>
<event>
 5   0  0.1491854E-06  0.3321560E+04  0.7818609E-02  0.8157431E-01
       -2   -1    0    0    0  501  0.00000000000E+00  0.00000000000E+00  0.21428552112E+04  0.21428552112E+04  0.25500000920E-02 0.  1.
        2   -1    0    0  501    0  0.00000000000E+00  0.00000000000E+00 -0.12871568220E+04  0.12871568220E+04  0.25500000920E-02 0. -1.
    10030    2    1    2    0    0  0.00000000000E+00  0.00000000000E+00  0.85569838921E+03  0.34300120331E+04  0.33215602981E+04 0.  0.
        5    1    3    3  502    0  0.74909244039E+03 -0.59177842693E+03 -0.97550294163E+03  0.13649063228E+04  0.46999998093E+01 0. -1.
       -5    1    3    3    0  502 -0.74909244039E+03  0.59177842693E+03  0.18312013308E+04  0.20651057103E+04  0.46999998093E+01 0.  1.
</event>
<event>
 5   0  0.4811500E-07  0.3659635E+04  0.7818609E-02  0.8076967E-01
       -1   -1    0    0    0  501  0.00000000000E+00  0.00000000000E+00  0.28864262882E+04  0.28864262882E+04  0.50400001928E-02 0.  1.
        1   -1    0    0  501    0  0.00000000000E+00  0.00000000000E+00 -0.11599920813E+04  0.11599920813E+04  0.50400001928E-02 0. -1.
    10030    2    1    2    0    0  0.00000000000E+00  0.00000000000E+00  0.17264342069E+04  0.40464183696E+04  0.36596347564E+04 0.  0.
        2    1    3    3  502    0  0.67703174586E+03  0.12720809666E+04  0.21100842909E+04  0.25551942558E+04  0.25500000920E-02 0.  1.
       -2    1    3    3    0  502 -0.67703174586E+03 -0.12720809666E+04 -0.38365008394E+03  0.14912241137E+04  0.25500000920E-02 0. -1.
</event>
<event>
 5   0  0.1505671E-06  0.2472658E+04  0.7818609E-02  0.8412791E-01
        2   -1    0    0  501    0  0.00000000000E+00  0.00000000000E+00  0.68080627825E+03  0.68080627825E+03  0.25500000920E-02 0. -1.
       -2   -1    0    0    0  501  0.00000000000E+00  0.00000000000E+00 -0.22451467580E+04  0.22451467580E+04  0.25500000920E-02 0.  1.
    10030    2    1    2    0    0  0.00000000000E+00  0.00000000000E+00 -0.15643404797E+04  0.29259530362E+04  0.24726584952E+04 0.  0.
        3    1    3    3  502    0  0.97297371224E+03 -0.10417473698E+03  0.11198633769E+03  0.98492191089E+03  0.10100000352E+00 0. -1.
       -3    1    3    3    0  502 -0.97297371224E+03  0.10417473698E+03 -0.16763268174E+04  0.19410311253E+04  0.10100000352E+00 0.  1.
</event>
<event>
 5   0  0.1468942E-06  0.2332902E+04  0.7818609E-02  0.8465060E-01
       -2   -1    0    0    0  501  0.00000000000E+00  0.00000000000E+00  0.21888048128E+04  0.21888048128E+04  0.25500000920E-02 0. -1.
        2   -1    0    0  501    0  0.00000000000E+00  0.00000000000E+00 -0.62162135102E+03  0.62162135102E+03  0.25500000920E-02 0.  1.
    10030    2    1    2    0    0  0.00000000000E+00  0.00000000000E+00  0.15671834618E+04  0.28104261638E+04  0.23329018881E+04 0.  0.
        2    1    3    3  502    0 -0.93447993484E+03 -0.69142253094E+03  0.89970508182E+03  0.14699615979E+04  0.25500000920E-02 0.  1.
       -2    1    3    3    0  502  0.93447993484E+03  0.69142253094E+03  0.66747837998E+03  0.13404645660E+04  0.25500000920E-02 0. -1.
</event>
<event>
 5   0  0.1505671E-06  0.2870856E+04  0.7818609E-02  0.8281602E-01
       -2   -1    0    0    0  501  0.00000000000E+00  0.00000000000E+00  0.12680714611E+04  0.12680714611E+04  0.25500000920E-02 0.  1.
        2   -1    0    0  501    0  0.00000000000E+00  0.00000000000E+00 -0.16248720088E+04  0.16248720088E+04  0.25500000920E-02 0. -1.
    10030    2    1    2    0    0  0.00000000000E+00  0.00000000000E+00 -0.35680054772E+03  0.28929434699E+04  0.28708561945E+04 0.  0.
        3    1    3    3  502    0  0.70047088830E+02  0.14335314920E+04 -0.20170130005E+03  0.14493455619E+04  0.10100000352E+00 0. -1.
       -3    1    3    3    0  502 -0.70047088830E+02 -0.14335314920E+04 -0.15509924767E+03  0.14435979080E+04  0.10100000352E+00 0.  1.
</event>
<event>
 5   0  0.4811500E-07  0.3282390E+04  0.7818609E-02  0.8167391E-01
       -1   -1    0    0    0  501  0.00000000000E+00  0.00000000000E+00  0.10185999073E+04  0.10185999073E+04  0.50400001928E-02 0. -1.
        1   -1    0    0  501    0  0.00000000000E+00  0.00000000000E+00 -0.26443361309E+04  0.26443361309E+04  0.50400001928E-02 0.  1.
    10030    2    1    2    0    0  0.00000000000E+00  0.00000000000E+00 -0.16257362236E+04  0.36629360381E+04  0.32823897012E+04 0.  0.
        2    1    3    3  502    0  0.13276366883E+02  0.48168974093E+03 -0.25636142202E+04  0.26085089876E+04  0.25500000920E-02 0.  1.
       -2    1    3    3    0  502 -0.13276366883E+02 -0.48168974093E+03  0.93787799659E+03  0.10544270505E+04  0.25500000920E-02 0. -1.
</event>
<event>
 5   0  0.1468942E-06  0.3469981E+04  0.7818609E-02  0.8120941E-01
        2   -1    0    0  501    0  0.00000000000E+00  0.00000000000E+00  0.20407519291E+04  0.20407519291E+04  0.25500000920E-02 0. -1.
       -2   -1    0    0    0  501  0.00000000000E+00  0.00000000000E+00 -0.14750405822E+04  0.14750405822E+04  0.25500000920E-02 0.  1.
    10030    2    1    2    0    0  0.00000000000E+00  0.00000000000E+00  0.56571134696E+03  0.35157925113E+04  0.34699809300E+04 0.  0.
        2    1    3    3  502    0 -0.15906713799E+04 -0.40039559738E+03  0.85568679028E+03  0.18500680950E+04  0.25500000920E-02 0.  1.
       -2    1    3    3    0  502  0.15906713799E+04  0.40039559738E+03 -0.28997544332E+03  0.16657244163E+04  0.25500000920E-02 0. -1.
</event>
<event>
 5   0  0.4811500E-07  0.3664053E+04  0.7818609E-02  0.8075975E-01
        1   -1    0    0  501    0  0.00000000000E+00  0.00000000000E+00  0.19153059610E+04  0.19153059610E+04  0.50400001928E-02 0. -1.
       -1   -1    0    0    0  501  0.00000000000E+00  0.00000000000E+00 -0.17523681313E+04  0.17523681314E+04  0.50400001928E-02 0.  1.
    10030    2    1    2    0    0  0.00000000000E+00  0.00000000000E+00  0.16293782962E+03  0.36676740923E+04  0.36640530170E+04 0.  0.
        4    1    3    3  502    0  0.14081103436E+04 -0.10947615652E+04 -0.33732463701E+03  0.18152319818E+04  0.12699999809E+01 0. -1.
       -4    1    3    3    0  502 -0.14081103436E+04  0.10947615652E+04  0.50026246664E+03  0.18524421105E+04  0.12699999809E+01 0.  1.
</event>
<event>
 5   0  0.4811500E-07  0.2757254E+04  0.7818609E-02  0.8316664E-01
       -1   -1    0    0    0  501  0.00000000000E+00  0.00000000000E+00  0.13219719417E+04  0.13219719417E+04  0.50400001928E-02 0.  1.
        1   -1    0    0  501    0  0.00000000000E+00  0.00000000000E+00 -0.14377097052E+04  0.14377097052E+04  0.50400001928E-02 0. -1.
    10030    2    1    2    0    0  0.00000000000E+00  0.00000000000E+00 -0.11573776348E+03  0.27596816469E+04  0.27572536268E+04 0.  0.
        4    1    3    3  502    0  0.42109935403E+03  0.12264536323E+04 -0.52635915979E+03  0.13994887481E+04  0.12699999809E+01 0.  1.
       -4    1    3    3    0  502 -0.42109935403E+03 -0.12264536323E+04  0.41062139631E+03  0.13601928988E+04  0.12699999809E+01 0. -1.
</event>
<event>
 5   0  0.1379425E-06  0.3583333E+04  0.7818609E-02  0.8094320E-01
        2   -1    0    0  501    0  0.00000000000E+00  0.00000000000E+00  0.22913436972E+04  0.22913436972E+04  0.25500000920E-02 0. -1.
       -2   -1    0    0    0  501  0.00000000000E+00  0.00000000000E+00 -0.14009547536E+04  0.14009547536E+04  0.25500000920E-02 0.  1.
    10030    2    1    2    0    0  0.00000000000E+00  0.00000000000E+00  0.89038894360E+03  0.36922984508E+04  0.35833329986E+04 0.  0.
        4    1    3    3  502    0  0.10944225245E+04  0.59290414381E+03  0.17730919238E+04  0.21663685211E+04  0.12699999809E+01 0. -1.
       -4    1    3    3    0  502 -0.10944225245E+04 -0.59290414381E+03 -0.88270298025E+03  0.15259299296E+04  0.12699999809E+01 0.  1.
</event>
<event>
 5   0  0.4811500E-07  0.3709178E+04  0.7818609E-02  0.8065931E-01
        1   -1    0    0  501    0  0.00000000000E+00  0.00000000000E+00  0.26232878477E+04  0.26232878477E+04  0.50400001928E-02 0.  1.
       -1   -1    0    0    0  501  0.00000000000E+00  0.00000000000E+00 -0.13111407470E+04  0.13111407470E+04  0.50400001928E-02 0. -1.
    10030    2    1    2    0    0  0.00000000000E+00  0.00000000000E+00  0.13121471007E+04  0.39344285947E+04  0.37091775845E+04 0.  0.
        3    1    3    3  502    0  0.10919160540E+03 -0.41568911862E+03  0.25697337113E+04  0.26054273368E+04  0.10100000352E+00 0.  1.
       -3    1    3    3    0  502 -0.10919160540E+03  0.41568911862E+03 -0.12575866107E+04  0.13290012579E+04  0.10100000352E+00 0. -1.
</event>
<event>
 5   0  0.1491854E-06  0.3584471E+04  0.7818609E-02  0.8094058E-01
        2   -1    0    0  501    0  0.00000000000E+00  0.00000000000E+00  0.18570044100E+04  0.18570044100E+04  0.25500000920E-02 0.  1.
       -2   -1    0    0    0  501  0.00000000000E+00  0.00000000000E+00 -0.17297260513E+04  0.17297260513E+04  0.25500000920E-02 0. -1.
    10030    2    1    2    0    0  0.00000000000E+00  0.00000000000E+00  0.12727835871E+03  0.35867304613E+04  0.35844714564E+04 0.  0.
        5    1    3    3  502    0  0.12632251096E+04  0.88974052459E+03  0.97234747289E+03  0.18256115624E+04  0.46999998093E+01 0. -1.
       -5    1    3    3    0  502 -0.12632251096E+04 -0.88974052459E+03 -0.84506911418E+03  0.17611188990E+04  0.46999998093E+01 0.  1.
</event>
<event>
 5   0  0.1444091E-06  0.3578534E+04  0.7818609E-02  0.8095427E-01
        2   -1    0    0  501    0  0.00000000000E+00  0.00000000000E+00  0.23393370748E+04  0.23393370748E+04  0.25500000920E-02 0. -1.
       -2   -1    0    0    0  501  0.00000000000E+00  0.00000000000E+00 -0.13685397304E+04  0.13685397304E+04  0.25500000920E-02 0.  1.
    10030    2    1    2    0    0  0.00000000000E+00  0.00000000000E+00  0.97079734442E+03  0.37078768053E+04  0.35785336269E+04 0.  0.
        1    1    3    3  502    0  0.10812448008E+04 -0.70227963019E+03 -0.80008371689E+03  0.15173730432E+04  0.50400001928E-02 0.  1.
       -1    1    3    3    0  502 -0.10812448008E+04  0.70227963019E+03  0.17708810613E+04  0.21905037620E+04  0.50400001928E-02 0. -1.
</event>
<event>
 5   0  0.1505671E-06  0.3606489E+04  0.7818609E-02  0.8089007E-01
        2   -1    0    0  501    0  0.00000000000E+00  0.00000000000E+00  0.23382178721E+04  0.23382178721E+04  0.25500000920E-02 0.  1.
       -2   -1    0    0    0  501  0.00000000000E+00  0.00000000000E+00 -0.13906708530E+04  0.13906708530E+04  0.25500000920E-02 0. -1.
    10030    2    1    2    0    0  0.00000000000E+00  0.00000000000E+00  0.94754701918E+03  0.37288887251E+04  0.36064893970E+04 0.  0.
        3    1    3    3  502    0  0.64527967335E+03  0.13223292890E+04  0.15516270525E+04  0.21383374677E+04  0.10100000352E+00 0.  1.
       -3    1    3    3    0  502 -0.64527967335E+03 -0.13223292890E+04 -0.60408003335E+03  0.15905512574E+04  0.10100000352E+00 0. -1.
</event>
<event>
 5   0  0.1468942E-06  0.3522989E+04  0.7818609E-02  0.8108363E-01
       -2   -1    0    0    0  501  0.00000000000E+00  0.00000000000E+00  0.13119474875E+04  0.13119474875E+04  0.25500000920E-02 0. -1.
        2   -1    0    0  501    0  0.00000000000E+00  0.00000000000E+00 -0.23650812524E+04  0.23650812524E+04  0.25500000920E-02 0.  1.
    10030    2    1    2    0    0  0.00000000000E+00  0.00000000000E+00 -0.10531337650E+04  0.36770287399E+04  0.35229887350E+04 0.  0.
        2    1    3    3  502    0 -0.29235794273E+03  0.14229400279E+04  0.51330460133E+03  0.15406859198E+04  0.25500000920E-02 0.  1.
       -2    1    3    3    0  502  0.29235794273E+03 -0.14229400279E+04 -0.15664383663E+04  0.21363428201E+04  0.25500000920E-02 0. -1.
</event>
<event>
 5   0  0.5071661E-07  0.3588836E+04  0.7818609E-02  0.8093054E-01
        1   -1    0    0  501    0  0.00000000000E+00  0.00000000000E+00  0.20628539570E+04  0.20628539570E+04  0.50400001928E-02 0.  1.
       -1   -1    0    0    0  501  0.00000000000E+00  0.00000000000E+00 -0.15609134578E+04  0.15609134579E+04  0.50400001928E-02 0. -1.
    10030    2    1    2    0    0  0.00000000000E+00  0.00000000000E+00  0.50194049912E+03  0.36237674148E+04  0.35888363033E+04 0.  0.
        1    1    3    3  502    0 -0.77317279556E+02  0.17806362235E+04  0.40874912673E+02  0.17827826791E+04  0.50400001928E-02 0.  1.
       -1    1    3    3    0  502  0.77317279556E+02 -0.17806362235E+04  0.46106558645E+03  0.18409847358E+04  0.50400001928E-02 0. -1.
</event>
<event>
 5   0  0.1379425E-06  0.3677404E+04  0.7818609E-02  0.8072988E-01
       -2   -1    0    0    0  501  0.00000000000E+00  0.00000000000E+00  0.12867448829E+04  0.12867448829E+04  0.25500000920E-02 0. -1.
        2   -1    0    0  501    0  0.00000000000E+00  0.00000000000E+00 -0.26274251419E+04  0.26274251419E+04  0.25500000920E-02 0.  1.
    10030    2    1    2    0    0  0.00000000000E+00  0.00000000000E+00 -0.13406802589E+04  0.39141700248E+04  0.36774044415E+04 0.  0.
        4    1    3    3  502    0 -0.57106127633E+01  0.10011499050E+04  0.97119053926E+03  0.13948284553E+04  0.12699999809E+01 0. -1.
       -4    1    3    3    0  502  0.57106127633E+01 -0.10011499050E+04 -0.23118707982E+04  0.25193415695E+04  0.12699999809E+01 0.  1.
</event>
<event>
 5   0  0.4811500E-07  0.3613791E+04  0.7818609E-02  0.8087340E-01
        1   -1    0    0  501    0  0.00000000000E+00  0.00000000000E+00  0.17609330533E+04  0.17609330533E+04  0.50400001928E-02 0.  1.
       -1   -1    0    0    0  501  0.00000000000E+00  0.00000000000E+00 -0.18540580345E+04  0.18540580345E+04  0.50400001928E-02 0. -1.
    10030    2    1    2    0    0  0.00000000000E+00  0.00000000000E+00 -0.93124981210E+02  0.36149910878E+04  0.36137914027E+04 0.  0.
        3    1    3    3  502    0  0.17454028754E+04 -0.35742542901E+03  0.25468185025E+03  0.17997352554E+04  0.10100000352E+00 0.  1.
       -3    1    3    3    0  502 -0.17454028754E+04  0.35742542901E+03 -0.34780683146E+03  0.18152558323E+04  0.10100000352E+00 0. -1.
</event>
<event>
 5   0  0.1505671E-06  0.3716539E+04  0.7818609E-02  0.8064306E-01
       -2   -1    0    0    0  501  0.00000000000E+00  0.00000000000E+00  0.15556679798E+04  0.15556679798E+04  0.25500000920E-02 0. -1.
        2   -1    0    0  501    0  0.00000000000E+00  0.00000000000E+00 -0.22197316965E+04  0.22197316965E+04  0.25500000920E-02 0.  1.
    10030    2    1    2    0    0  0.00000000000E+00  0.00000000000E+00 -0.66406371662E+03  0.37753996763E+04  0.37165389943E+04 0.  0.
        3    1    3    3  502    0 -0.14196924037E+04  0.10174882565E+04  0.31233000269E+03  0.17743615511E+04  0.10100000352E+00 0.  1.
       -3    1    3    3    0  502  0.14196924037E+04 -0.10174882565E+04 -0.97639371931E+03  0.20010381252E+04  0.10100000352E+00 0. -1.
</event>
<event>
 5   0  0.1505671E-06  0.2668812E+04  0.7818609E-02  0.8345196E-01
        2   -1    0    0  501    0  0.00000000000E+00  0.00000000000E+00  0.27843480333E+04  0.27843480333E+04  0.25500000920E-02 0. -1.
       -2   -1    0    0    0  501  0.00000000000E+00  0.00000000000E+00 -0.63951757303E+03  0.63951757304E+03  0.25500000920E-02 0.  1.
    10030    2    1    2    0    0  0.00000000000E+00  0.00000000000E+00  0.21448304602E+04  0.34238656063E+04  0.26688120928E+04 0.  0.
        3    1    3    3  502    0  0.40344234304E+03  0.12717106843E+04  0.10403243919E+04  0.16918299676E+04  0.10100000352E+00 0.  1.
       -3    1    3    3    0  502 -0.40344234304E+03 -0.12717106843E+04  0.11045060683E+04  0.17320356387E+04  0.10100000352E+00 0. -1.
</event>
<event>
 5   0  0.4811500E-07  0.3555580E+04  0.7818609E-02  0.8100743E-01
        1   -1    0    0  501    0  0.00000000000E+00  0.00000000000E+00  0.87803208949E+03  0.87803208950E+03  0.50400001928E-02 0.  1.
       -1   -1    0    0    0  501  0.00000000000E+00  0.00000000000E+00 -0.35995685165E+04  0.35995685165E+04  0.50400001928E-02 0. -1.
    10030    2    1    2    0    0  0.00000000000E+00  0.00000000000E+00 -0.27215364270E+04  0.44776006060E+04  0.35555796522E+04 0.  0.
        4    1    3    3  502    0  0.13487285591E+03  0.13191344600E+04 -0.28519972705E+04  0.31451862352E+04  0.12699999809E+01 0. -1.
       -4    1    3    3    0  502 -0.13487285591E+03 -0.13191344600E+04  0.13046084349E+03  0.13324143707E+04  0.12699999809E+01 0.  1.
</event>
<event>
 5   0  0.5071661E-07  0.3562684E+04  0.7818609E-02  0.8099093E-01
        1   -1    0    0  501    0  0.00000000000E+00  0.00000000000E+00  0.19803727256E+04  0.19803727257E+04  0.50400001928E-02 0. -1.
       -1   -1    0    0    0  501  0.00000000000E+00  0.00000000000E+00 -0.16023146023E+04  0.16023146024E+04  0.50400001928E-02 0.  1.
    10030    2    1    2    0    0  0.00000000000E+00  0.00000000000E+00  0.37805812330E+03  0.35826873280E+04  0.35626844578E+04 0.  0.
        1    1    3    3  502    0  0.16361458705E+04 -0.47252325445E+03  0.71438793619E+03  0.18467814324E+04  0.50400001928E-02 0. -1.
       -1    1    3    3    0  502 -0.16361458705E+04  0.47252325445E+03 -0.33632981289E+03  0.17359058957E+04  0.50400001928E-02 0.  1.
</event>
<event>
 5   0  0.1444091E-06  0.2339267E+04  0.7818609E-02  0.8462598E-01
        2   -1    0    0  501    0  0.00000000000E+00  0.00000000000E+00  0.10908408681E+04  0.10908408681E+04  0.25500000920E-02 0. -1.
       -2   -1    0    0    0  501  0.00000000000E+00  0.00000000000E+00 -0.12541176609E+04  0.12541176609E+04  0.25500000920E-02 0.  1.
    10030    2    1    2    0    0  0.00000000000E+00  0.00000000000E+00 -0.16327679286E+03  0.23449585290E+04  0.23392672339E+04 0.  0.
        1    1    3    3  502    0  0.15809907187E+03  0.19828330112E+02  0.10799103365E+04  0.10916019485E+04  0.50400001928E-02 0. -1.
       -1    1    3    3    0  502 -0.15809907187E+03 -0.19828330112E+02 -0.12431871293E+04  0.12533565805E+04  0.50400001928E-02 0.  1.
</event>
<event>
 5   0  0.4811500E-07  0.3592608E+04  0.7818609E-02  0.8092187E-01
        1   -1    0    0  501    0  0.00000000000E+00  0.00000000000E+00  0.18036107075E+04  0.18036107075E+04  0.50400001928E-02 0. -1.
       -1   -1    0    0    0  501  0.00000000000E+00  0.00000000000E+00 -0.17890265266E+04  0.17890265267E+04  0.50400001928E-02 0.  1.
    10030    2    1    2    0    0  0.00000000000E+00  0.00000000000E+00  0.14584180817E+02  0.35926372341E+04  0.35926076320E+04 0.  0.
        4    1    3    3  502    0  0.68848553935E+03 -0.32160252787E+03  0.16349618730E+04  0.18029260836E+04  0.12699999809E+01 0. -1.
       -4    1    3    3    0  502 -0.68848553935E+03  0.32160252787E+03 -0.16203776922E+04  0.17897111505E+04  0.12699999809E+01 0.  1.
</event>
<event>
 5   0  0.1491854E-06  0.3578840E+04  0.7818609E-02  0.8095356E-01
        2   -1    0    0  501    0  0.00000000000E+00  0.00000000000E+00  0.14525821797E+04  0.14525821797E+04  0.25500000920E-02 0.  1.
       -2   -1    0    0    0  501  0.00000000000E+00  0.00000000000E+00 -0.22043664705E+04  0.22043664705E+04  0.25500000920E-02 0. -1.
    10030    2    1    2    0    0  0.00000000000E+00  0.00000000000E+00 -0.75178429072E+03  0.36569486502E+04  0.35788397296E+04 0.  0.
        5    1    3    3  502    0  0.53623971619E+03 -0.13513591500E+04  0.69008107193E+03  0.16093348195E+04  0.46999998093E+01 0.  1.
       -5    1    3    3    0  502 -0.53623971619E+03  0.13513591500E+04 -0.14418653626E+04  0.20476138307E+04  0.46999998093E+01 0. -1.
</event>
<event>
 5   0  0.4811500E-07  0.3164801E+04  0.7818609E-02  0.8198175E-01
        1   -1    0    0  501    0  0.00000000000E+00  0.00000000000E+00  0.16004480875E+04  0.16004480876E+04  0.50400001928E-02 0. -1.
       -1   -1    0    0    0  501  0.00000000000E+00  0.00000000000E+00 -0.15645565080E+04  0.15645565081E+04  0.50400001928E-02 0.  1.
    10030    2    1    2    0    0  0.00000000000E+00  0.00000000000E+00  0.35891579498E+02  0.31650045956E+04  0.31648010814E+04 0.  0.
        2    1    3    3  502    0 -0.62374516224E+03  0.14512693068E+04 -0.75606166515E+02  0.15814414060E+04  0.25500000920E-02 0.  1.
       -2    1    3    3    0  502  0.62374516224E+03 -0.14512693068E+04  0.11149774601E+03  0.15835631896E+04  0.25500000920E-02 0. -1.
</event>
<event>
 5   0  0.4811500E-07  0.3027274E+04  0.7818609E-02  0.8235985E-01
        1   -1    0    0  501    0  0.00000000000E+00  0.00000000000E+00  0.11531580804E+04  0.11531580804E+04  0.50400001928E-02 0.  1.
       -1   -1    0    0    0  501  0.00000000000E+00  0.00000000000E+00 -0.19868018430E+04  0.19868018430E+04  0.50400001928E-02 0. -1.
    10030    2    1    2    0    0  0.00000000000E+00  0.00000000000E+00 -0.83364376257E+03  0.31399599234E+04  0.30272737567E+04 0.  0.
        5    1    3    3  502    0 -0.81156281792E+03 -0.53412067590E+02  0.90724903156E+03  0.12184457114E+04  0.46999998093E+01 0.  1.
       -5    1    3    3    0  502  0.81156281792E+03  0.53412067590E+02 -0.17408927941E+04  0.19215142120E+04  0.46999998093E+01 0. -1.
</event>
<event>
 5   0  0.5071661E-07  0.3654172E+04  0.7818609E-02  0.8078194E-01
        1   -1    0    0  501    0  0.00000000000E+00  0.00000000000E+00  0.16361854883E+04  0.16361854883E+04  0.50400001928E-02 0.  1.
       -1   -1    0    0    0  501  0.00000000000E+00  0.00000000000E+00 -0.20402595057E+04  0.20402595058E+04  0.50400001928E-02 0. -1.
    10030    2    1    2    0    0  0.00000000000E+00  0.00000000000E+00 -0.40407401741E+03  0.36764449941E+04  0.36541718601E+04 0.  0.
        1    1    3    3  502    0  0.16760980324E+04  0.20123855512E+03 -0.90518274660E+03  0.19155044701E+04  0.50400001928E-02 0.  1.
       -1    1    3    3    0  502 -0.16760980324E+04 -0.20123855512E+03  0.50110872919E+03  0.17609405239E+04  0.50400001928E-02 0. -1.
</event>
<event>
 5   0  0.1491854E-06  0.3606306E+04  0.7818609E-02  0.8089049E-01
        2   -1    0    0  501    0  0.00000000000E+00  0.00000000000E+00  0.21908137247E+04  0.21908137247E+04  0.25500000920E-02 0. -1.
       -2   -1    0    0    0  501  0.00000000000E+00  0.00000000000E+00 -0.14840878204E+04  0.14840878204E+04  0.25500000920E-02 0.  1.
    10030    2    1    2    0    0  0.00000000000E+00  0.00000000000E+00  0.70672590421E+03  0.36749015451E+04  0.36063055698E+04 0.  0.
        5    1    3    3  502    0 -0.45536779935E+03  0.72365117887E+03 -0.12643814651E+04  0.15263398837E+04  0.46999998093E+01 0.  1.
       -5    1    3    3    0  502  0.45536779935E+03 -0.72365117887E+03  0.19711073693E+04  0.21485616614E+04  0.46999998093E+01 0. -1.
</event>
<event>
 5   0  0.4811500E-07  0.3623057E+04  0.7818609E-02  0.8085231E-01
       -1   -1    0    0    0  501  0.00000000000E+00  0.00000000000E+00  0.20019376469E+04  0.20019376469E+04  0.50400001928E-02 0. -1.
        1   -1    0    0  501    0  0.00000000000E+00  0.00000000000E+00 -0.16392292985E+04  0.16392292985E+04  0.50400001928E-02 0.  1.
    10030    2    1    2    0    0  0.00000000000E+00  0.00000000000E+00  0.36270834843E+03  0.36411669454E+04  0.36230566347E+04 0.  0.
        2    1    3    3  502    0  0.98593341727E+03  0.57977242623E+03  0.15931658854E+04  0.19612185773E+04  0.25500000920E-02 0. -1.
       -2    1    3    3    0  502 -0.98593341727E+03 -0.57977242623E+03 -0.12304575369E+04  0.16799483682E+04  0.25500000920E-02 0.  1.
</event>
<event>
 5   0  0.4811500E-07  0.3086592E+04  0.7818609E-02  0.8219427E-01
        1   -1    0    0  501    0  0.00000000000E+00  0.00000000000E+00  0.13086301896E+04  0.13086301896E+04  0.50400001928E-02 0.  1.
       -1   -1    0    0    0  501  0.00000000000E+00  0.00000000000E+00 -0.18200422489E+04  0.18200422489E+04  0.50400001928E-02 0. -1.
    10030    2    1    2    0    0  0.00000000000E+00  0.00000000000E+00 -0.51141205926E+03  0.31286724385E+04  0.30865917989E+04 0.  0.
        3    1    3    3  502    0  0.83022143590E+03  0.12605139982E+04 -0.58196223942E+03  0.16176659824E+04  0.10100000352E+00 0. -1.
       -3    1    3    3    0  502 -0.83022143590E+03 -0.12605139982E+04  0.70550180158E+02  0.15110064561E+04  0.10100000352E+00 0.  1.
</event>
<event>
 5   0  0.1505671E-06  0.3130026E+04  0.7818609E-02  0.8207546E-01
        2   -1    0    0  501    0  0.00000000000E+00  0.00000000000E+00  0.29551646128E+04  0.29551646128E+04  0.25500000920E-02 0. -1.
       -2   -1    0    0    0  501  0.00000000000E+00  0.00000000000E+00 -0.82880852413E+03  0.82880852414E+03  0.25500000920E-02 0.  1.
    10030    2    1    2    0    0  0.00000000000E+00  0.00000000000E+00  0.21263560887E+04  0.37839731369E+04  0.31300259560E+04 0.  0.
        3    1    3    3  502    0 -0.71046036458E+03 -0.81043539907E+03  0.24350339266E+04  0.26628837188E+04  0.10100000352E+00 0. -1.
       -3    1    3    3    0  502  0.71046036458E+03  0.81043539907E+03 -0.30867783795E+03  0.11210894182E+04  0.10100000352E+00 0.  1.
</event>
<event>
 5   0  0.1491854E-06  0.2572315E+04  0.7818609E-02  0.8377666E-01
       -2   -1    0    0    0  501  0.00000000000E+00  0.00000000000E+00  0.25561230590E+04  0.25561230590E+04  0.25500000920E-02 0.  1.
        2   -1    0    0  501    0  0.00000000000E+00  0.00000000000E+00 -0.64715261779E+03  0.64715261780E+03  0.25500000920E-02 0. -1.
    10030    2    1    2    0    0  0.00000000000E+00  0.00000000000E+00  0.19089704412E+04  0.32032756768E+04  0.25723154776E+04 0.  0.
        5    1    3    3  502    0  0.56446944194E+03 -0.10273007331E+04  0.29529668345E+03  0.12087988949E+04  0.46999998093E+01 0. -1.
       -5    1    3    3    0  502 -0.56446944194E+03  0.10273007331E+04  0.16136737577E+04  0.19944767819E+04  0.46999998093E+01 0.  1.
</event>
<event>
 5   0  0.1444091E-06  0.3507511E+04  0.7818609E-02  0.8112012E-01
        2   -1    0    0  501    0  0.00000000000E+00  0.00000000000E+00  0.10170173942E+04  0.10170173942E+04  0.25500000920E-02 0.  1.
       -2   -1    0    0    0  501  0.00000000000E+00  0.00000000000E+00 -0.30241949513E+04  0.30241949513E+04  0.25500000920E-02 0. -1.
    10030    2    1    2    0    0  0.00000000000E+00  0.00000000000E+00 -0.20071775571E+04  0.40412123455E+04  0.35075112937E+04 0.  0.
        1    1    3    3  502    0 -0.11018834835E+04 -0.90077529647E+03  0.17708830037E+03  0.14341909259E+04  0.50400001928E-02 0. -1.
       -1    1    3    3    0  502  0.11018834835E+04  0.90077529647E+03 -0.21842658575E+04  0.26070214196E+04  0.50400001928E-02 0.  1.
</event>
<event>
 5   0  0.4811500E-07  0.3629773E+04  0.7818609E-02  0.8083706E-01
       -1   -1    0    0    0  501  0.00000000000E+00  0.00000000000E+00  0.15211753529E+04  0.15211753529E+04  0.50400001928E-02 0.  1.
        1   -1    0    0  501    0  0.00000000000E+00  0.00000000000E+00 -0.21653083959E+04  0.21653083959E+04  0.50400001928E-02 0. -1.
    10030    2    1    2    0    0  0.00000000000E+00  0.00000000000E+00 -0.64413304300E+03  0.36864837488E+04  0.36297734162E+04 0.  0.
        4    1    3    3  502    0  0.81006010990E+03 -0.14924802930E+04  0.32834297851E+03  0.17295969273E+04  0.12699999809E+01 0.  1.
       -4    1    3    3    0  502 -0.81006010990E+03  0.14924802930E+04 -0.97247602151E+03  0.19568868215E+04  0.12699999809E+01 0. -1.
</event>
<event>
 5   0  0.4811500E-07  0.3560738E+04  0.7818609E-02  0.8099545E-01
       -1   -1    0    0    0  501  0.00000000000E+00  0.00000000000E+00  0.32714132413E+04  0.32714132413E+04  0.50400001928E-02 0. -1.
        1   -1    0    0  501    0  0.00000000000E+00  0.00000000000E+00 -0.96891255232E+03  0.96891255233E+03  0.50400001928E-02 0.  1.
    10030    2    1    2    0    0  0.00000000000E+00  0.00000000000E+00  0.23025006890E+04  0.42403257936E+04  0.35607377625E+04 0.  0.
        3    1    3    3  502    0 -0.10309278234E+04 -0.13535449094E+04  0.52696763805E+03  0.17811768303E+04  0.10100000352E+00 0.  1.
       -3    1    3    3    0  502  0.10309278234E+04  0.13535449094E+04  0.17755330509E+04  0.24591489634E+04  0.10100000352E+00 0. -1.
</event>
<event>
 5   0  0.5071661E-07  0.3621288E+04  0.7818609E-02  0.8085633E-01
       -1   -1    0    0    0  501  0.00000000000E+00  0.00000000000E+00  0.12994996518E+04  0.12994996518E+04  0.50400001928E-02 0.  1.
        1   -1    0    0  501    0  0.00000000000E+00  0.00000000000E+00 -0.25228412875E+04  0.25228412875E+04  0.50400001928E-02 0. -1.
    10030    2    1    2    0    0  0.00000000000E+00  0.00000000000E+00 -0.12233416356E+04  0.38223409393E+04  0.36212878232E+04 0.  0.
        1    1    3    3  502    0  0.50784104860E+03  0.13673583708E+04  0.52067117206E+03  0.15487639957E+04  0.50400001928E-02 0.  1.
       -1    1    3    3    0  502 -0.50784104860E+03 -0.13673583708E+04 -0.17440128077E+04  0.22735769436E+04  0.50400001928E-02 0. -1.
</event>
<event>
 5   0  0.1468942E-06  0.3462596E+04  0.7818609E-02  0.8122712E-01
       -2   -1    0    0    0  501  0.00000000000E+00  0.00000000000E+00  0.29691545083E+04  0.29691545083E+04  0.25500000920E-02 0. -1.
        2   -1    0    0  501    0  0.00000000000E+00  0.00000000000E+00 -0.10095103592E+04  0.10095103592E+04  0.25500000920E-02 0.  1.
    10030    2    1    2    0    0  0.00000000000E+00  0.00000000000E+00  0.19596441491E+04  0.39786648675E+04  0.34625956934E+04 0.  0.
        2    1    3    3  502    0  0.16757402491E+03 -0.10778478527E+04 -0.56501028241E+03  0.12284435952E+04  0.25500000920E-02 0.  1.
       -2    1    3    3    0  502 -0.16757402491E+03  0.10778478527E+04  0.25246544315E+04  0.27502212722E+04  0.25500000920E-02 0. -1.
</event>
<event>
 5   0  0.5071661E-07  0.3570505E+04  0.7818609E-02  0.8097282E-01
       -1   -1    0    0    0  501  0.00000000000E+00  0.00000000000E+00  0.15649592174E+04  0.15649592174E+04  0.50400001928E-02 0. -1.
        1   -1    0    0  501    0  0.00000000000E+00  0.00000000000E+00 -0.20365554393E+04  0.20365554393E+04  0.50400001928E-02 0.  1.
    10030    2    1    2    0    0  0.00000000000E+00  0.00000000000E+00 -0.47159622194E+03  0.36015146567E+04  0.35705048419E+04 0.  0.
        1    1    3    3  502    0 -0.66010029438E+03  0.89170600282E+03 -0.16466070580E+04  0.19854940941E+04  0.50400001928E-02 0.  1.
       -1    1    3    3    0  502  0.66010029438E+03 -0.89170600282E+03  0.11750108361E+04  0.16160205627E+04  0.50400001928E-02 0. -1.
</event>
<event>
 5   0  0.1491854E-06  0.3400025E+04  0.7818609E-02  0.8137900E-01
        2   -1    0    0  501    0  0.00000000000E+00  0.00000000000E+00  0.19788840066E+04  0.19788840066E+04  0.25500000920E-02 0. -1.
       -2   -1    0    0    0  501  0.00000000000E+00  0.00000000000E+00 -0.14604409647E+04  0.14604409647E+04  0.25500000920E-02 0.  1.
    10030    2    1    2    0    0  0.00000000000E+00  0.00000000000E+00  0.51844304186E+03  0.34393249713E+04  0.34000254514E+04 0.  0.
        5    1    3    3  502    0  0.25433058646E+03  0.52323233862E+03  0.18750466848E+04  0.19632315930E+04  0.46999998093E+01 0. -1.
       -5    1    3    3    0  502 -0.25433058646E+03 -0.52323233862E+03 -0.13566036430E+04  0.14760933783E+04  0.46999998093E+01 0.  1.
</event>
<event>
 5   0  0.4811500E-07  0.3748615E+04  0.7818609E-02  0.8057273E-01
        1   -1    0    0  501    0  0.00000000000E+00  0.00000000000E+00  0.21311466879E+04  0.21311466879E+04  0.50400001928E-02 0. -1.
       -1   -1    0    0    0  501  0.00000000000E+00  0.00000000000E+00 -0.16484213718E+04  0.16484213718E+04  0.50400001928E-02 0.  1.
    10030    2    1    2    0    0  0.00000000000E+00  0.00000000000E+00  0.48272531618E+03  0.37795680597E+04  0.37486145423E+04 0.  0.
        4    1    3    3  502    0  0.14209494690E+04  0.10063344092E+04 -0.45806552409E+03  0.18004532690E+04  0.12699999809E+01 0. -1.
       -4    1    3    3    0  502 -0.14209494690E+04 -0.10063344092E+04  0.94079084027E+03  0.19791147907E+04  0.12699999809E+01 0.  1.
</event>
<event>
 5   0  0.1444091E-06  0.3506269E+04  0.7818609E-02  0.8112306E-01
       -2   -1    0    0    0  501  0.00000000000E+00  0.00000000000E+00  0.14792605091E+04  0.14792605091E+04  0.25500000920E-02 0. -1.
        2   -1    0    0  501    0  0.00000000000E+00  0.00000000000E+00 -0.20777143212E+04  0.20777143212E+04  0.25500000920E-02 0.  1.
    10030    2    1    2    0    0  0.00000000000E+00  0.00000000000E+00 -0.59845381211E+03  0.35569748302E+04  0.35062690966E+04 0.  0.
        1    1    3    3  502    0  0.11442156009E+04 -0.79913403390E+03  0.77707615045E+03  0.15974016054E+04  0.50400001928E-02 0. -1.
       -1    1    3    3    0  502 -0.11442156009E+04  0.79913403390E+03 -0.13755299626E+04  0.19595732248E+04  0.50400001928E-02 0.  1.
</event>
<event>
 5   0  0.1505671E-06  0.3449323E+04  0.7818609E-02  0.8125906E-01
        2   -1    0    0  501    0  0.00000000000E+00  0.00000000000E+00  0.16537741009E+04  0.16537741009E+04  0.25500000920E-02 0. -1.
       -2   -1    0    0    0  501  0.00000000000E+00  0.00000000000E+00 -0.17985877863E+04  0.17985877863E+04  0.25500000920E-02 0.  1.
    10030    2    1    2    0    0  0.00000000000E+00  0.00000000000E+00 -0.14481368545E+03  0.34523618872E+04  0.34493233535E+04 0.  0.
        3    1    3    3  502    0 -0.50151370109E+03 -0.11071239924E+04 -0.12970934740E+04  0.17775519732E+04  0.10100000352E+00 0.  1.
       -3    1    3    3    0  502  0.50151370109E+03  0.11071239924E+04  0.11522797885E+04  0.16748099140E+04  0.10100000352E+00 0. -1.
</event>
<event>
 5   0  0.4811500E-07  0.3530987E+04  0.7818609E-02  0.8106485E-01
        1   -1    0    0  501    0  0.00000000000E+00  0.00000000000E+00  0.21509036634E+04  0.21509036634E+04  0.50400001928E-02 0. -1.
       -1   -1    0    0    0  501  0.00000000000E+00  0.00000000000E+00 -0.14491433486E+04  0.14491433486E+04  0.50400001928E-02 0.  1.
    10030    2    1    2    0    0  0.00000000000E+00  0.00000000000E+00  0.70176031481E+03  0.36000470119E+04  0.35309872484E+04 0.  0.
        2    1    3    3  502    0  0.79716981591E+03  0.13677324458E+04  0.11476999394E+04  0.19553482835E+04  0.25500000920E-02 0. -1.
       -2    1    3    3    0  502 -0.79716981591E+03 -0.13677324458E+04 -0.44593962462E+03  0.16446987285E+04  0.25500000920E-02 0.  1.
</event>
<event>
 5   0  0.4811500E-07  0.3620572E+04  0.7818609E-02  0.8085796E-01
        3   -1    0    0  501    0  0.00000000000E+00  0.00000000000E+00  0.17468323585E+04  0.17468323614E+04  0.10100000352E+00 0.  1.
       -3   -1    0    0    0  501  0.00000000000E+00  0.00000000000E+00 -0.18760447552E+04  0.18760447580E+04  0.10100000352E+00 0. -1.
    10030    2    1    2    0    0  0.00000000000E+00  0.00000000000E+00 -0.12921239679E+03  0.36228771193E+04  0.36205721617E+04 0.  0.
        4    1    3    3  502    0 -0.91160813517E+03 -0.15393019208E+04  0.21243516643E+03  0.18015576894E+04  0.12699999809E+01 0.  1.
       -4    1    3    3    0  502  0.91160813517E+03  0.15393019208E+04 -0.34164756323E+03  0.18213194299E+04  0.12699999809E+01 0. -1.
</event>
<event>
 5   0  0.4811500E-07  0.2692875E+04  0.7818609E-02  0.8337320E-01
        1   -1    0    0  501    0  0.00000000000E+00  0.00000000000E+00  0.18927066223E+04  0.18927066223E+04  0.50400001928E-02 0.  1.
       -1   -1    0    0    0  501  0.00000000000E+00  0.00000000000E+00 -0.95783155652E+03  0.95783155654E+03  0.50400001928E-02 0. -1.
    10030    2    1    2    0    0  0.00000000000E+00  0.00000000000E+00  0.93487506573E+03  0.28505381788E+04  0.26928751401E+04 0.  0.
        5    1    3    3  502    0  0.92486294708E+03 -0.28711672584E+03  0.14576552476E+04  0.17500252558E+04  0.46999998093E+01 0.  1.
       -5    1    3    3    0  502 -0.92486294708E+03  0.28711672584E+03 -0.52278018186E+03  0.11005129230E+04  0.46999998093E+01 0. -1.
</event>
<event>
 5   0  0.1491854E-06  0.2789294E+04  0.7818609E-02  0.8306600E-01
       -2   -1    0    0    0  501  0.00000000000E+00  0.00000000000E+00  0.72146944388E+03  0.72146944388E+03  0.25500000920E-02 0. -1.
        2   -1    0    0  501    0  0.00000000000E+00  0.00000000000E+00 -0.26959418225E+04  0.26959418225E+04  0.25500000920E-02 0.  1.
    10030    2    1    2    0    0  0.00000000000E+00  0.00000000000E+00 -0.19744723786E+04  0.34174112664E+04  0.27892935646E+04 0.  0.
        5    1    3    3  502    0 -0.88748074086E+03 -0.18209699987E+03  0.31183155606E+03  0.95814528758E+03  0.46999998093E+01 0. -1.
       -5    1    3    3    0  502  0.88748074086E+03  0.18209699987E+03 -0.22863039347E+04  0.24592659788E+04  0.46999998093E+01 0.  1.
</event>
<event>
 5   0  0.1444091E-06  0.3491480E+04  0.7818609E-02  0.8115812E-01
       -2   -1    0    0    0  501  0.00000000000E+00  0.00000000000E+00  0.13415802809E+04  0.13415802809E+04  0.25500000920E-02 0.  1.
        2   -1    0    0  501    0  0.00000000000E+00  0.00000000000E+00 -0.22716548794E+04  0.22716548794E+04  0.25500000920E-02 0. -1.
    10030    2    1    2    0    0  0.00000000000E+00  0.00000000000E+00 -0.93007459851E+03  0.36132351604E+04  0.34914795668E+04 0.  0.
        1    1    3    3  502    0 -0.31067402007E+03  0.16120642311E+04 -0.10793173908E+04  0.19647380136E+04  0.50400001928E-02 0. -1.
       -1    1    3    3    0  502  0.31067402007E+03 -0.16120642311E+04  0.14924279227E+03  0.16484971468E+04  0.50400001928E-02 0.  1.
</event>
<event>
 5   0  0.4811500E-07  0.3570027E+04  0.7818609E-02  0.8097392E-01
       -1   -1    0    0    0  501  0.00000000000E+00  0.00000000000E+00  0.15525396036E+04  0.15525396036E+04  0.50400001928E-02 0.  1.
        1   -1    0    0  501    0  0.00000000000E+00  0.00000000000E+00 -0.20522975647E+04  0.20522975647E+04  0.50400001928E-02 0. -1.
    10030    2    1    2    0    0  0.00000000000E+00  0.00000000000E+00 -0.49975796116E+03  0.36048371683E+04  0.35700270293E+04 0.  0.
        5    1    3    3  502    0 -0.81007408246E+03 -0.12074510818E+04 -0.12953942574E+04  0.19473639891E+04  0.46999998093E+01 0. -1.
       -5    1    3    3    0  502  0.81007408246E+03  0.12074510818E+04  0.79563629625E+03  0.16574731792E+04  0.46999998093E+01 0.  1.
</event>
<event>
 5   0  0.4811500E-07  0.3615567E+04  0.7818609E-02  0.8086935E-01
        1   -1    0    0  501    0  0.00000000000E+00  0.00000000000E+00  0.30282091840E+04  0.30282091840E+04  0.50400001928E-02 0.  1.
       -1   -1    0    0    0  501  0.00000000000E+00  0.00000000000E+00 -0.10792122708E+04  0.10792122708E+04  0.50400001928E-02 0. -1.
    10030    2    1    2    0    0  0.00000000000E+00  0.00000000000E+00  0.19489969132E+04  0.41074214548E+04  0.36155666278E+04 0.  0.
        4    1    3    3  502    0  0.33094315990E+03  0.92671116233E+03 -0.74829946697E+03  0.12362324452E+04  0.12699999809E+01 0. -1.
       -4    1    3    3    0  502 -0.33094315990E+03 -0.92671116233E+03  0.26972963802E+04  0.28711890096E+04  0.12699999809E+01 0.  1.
</event>
<event>
 5   0  0.1379425E-06  0.3467751E+04  0.7818609E-02  0.8121475E-01
       -2   -1    0    0    0  501  0.00000000000E+00  0.00000000000E+00  0.12887401646E+04  0.12887401646E+04  0.25500000920E-02 0. -1.
        2   -1    0    0  501    0  0.00000000000E+00  0.00000000000E+00 -0.23327618407E+04  0.23327618407E+04  0.25500000920E-02 0.  1.
    10030    2    1    2    0    0  0.00000000000E+00  0.00000000000E+00 -0.10440216760E+04  0.36215020053E+04  0.34677507861E+04 0.  0.
        4    1    3    3  502    0  0.54574423237E+03  0.34649784543E+03  0.11581800393E+04  0.13263785811E+04  0.12699999809E+01 0. -1.
       -4    1    3    3    0  502 -0.54574423237E+03 -0.34649784543E+03 -0.22022017154E+04  0.22951234242E+04  0.12699999809E+01 0.  1.
</event>
<event>
 5   0  0.1444091E-06  0.3572328E+04  0.7818609E-02  0.8096860E-01
       -2   -1    0    0    0  501  0.00000000000E+00  0.00000000000E+00  0.16219211643E+04  0.16219211643E+04  0.25500000920E-02 0.  1.
        2   -1    0    0  501    0  0.00000000000E+00  0.00000000000E+00 -0.19670388490E+04  0.19670388490E+04  0.25500000920E-02 0. -1.
    10030    2    1    2    0    0  0.00000000000E+00  0.00000000000E+00 -0.34511768469E+03  0.35889600134E+04  0.35723280590E+04 0.  0.
        1    1    3    3  502    0  0.11039775153E+04  0.12246357872E+04  0.51757662480E+03  0.17281159476E+04  0.50400001928E-02 0.  1.
       -1    1    3    3    0  502 -0.11039775153E+04 -0.12246357872E+04 -0.86269430949E+03  0.18608440658E+04  0.50400001928E-02 0. -1.
</event>
<event>
 5   0  0.1491854E-06  0.3709681E+04  0.7818609E-02  0.8065820E-01
       -2   -1    0    0    0  501  0.00000000000E+00  0.00000000000E+00  0.12512011743E+04  0.12512011743E+04  0.25500000920E-02 0. -1.
        2   -1    0    0  501    0  0.00000000000E+00  0.00000000000E+00 -0.27497037487E+04  0.27497037487E+04  0.25500000920E-02 0.  1.
    10030    2    1    2    0    0  0.00000000000E+00  0.00000000000E+00 -0.14985025744E+04  0.40009049229E+04  0.37096806112E+04 0.  0.
        5    1    3    3  502    0  0.25550139667E+03 -0.12573811138E+04  0.69534909586E+03  0.14593905181E+04  0.46999998093E+01 0. -1.
       -5    1    3    3    0  502 -0.25550139667E+03  0.12573811138E+04 -0.21938516702E+04  0.25415144049E+04  0.46999998093E+01 0.  1.
</event>
<event>
 5   0  0.1491854E-06  0.3621031E+04  0.7818609E-02  0.8085691E-01
        2   -1    0    0  501    0  0.00000000000E+00  0.00000000000E+00  0.22725844296E+04  0.22725844296E+04  0.25500000920E-02 0.  1.
       -2   -1    0    0    0  501  0.00000000000E+00  0.00000000000E+00 -0.14423958525E+04  0.14423958525E+04  0.25500000920E-02 0. -1.
    10030    2    1    2    0    0  0.00000000000E+00  0.00000000000E+00  0.83018857705E+03  0.37149802821E+04  0.36210309889E+04 0.  0.
        5    1    3    3  502    0 -0.13641654252E+04  0.40975332101E+03  0.15617227883E+04  0.21137278086E+04  0.46999998093E+01 0.  1.
       -5    1    3    3    0  502  0.13641654252E+04 -0.40975332101E+03 -0.73153421124E+03  0.16012524734E+04  0.46999998093E+01 0. -1.
</event>
<event>
 5   0  0.1491854E-06  0.3407112E+04  0.7818609E-02  0.8136163E-01
        2   -1    0    0  501    0  0.00000000000E+00  0.00000000000E+00  0.31710815360E+04  0.31710815360E+04  0.25500000920E-02 0. -1.
       -2   -1    0    0    0  501  0.00000000000E+00  0.00000000000E+00 -0.91517787894E+03  0.91517787894E+03  0.25500000920E-02 0.  1.
    10030    2    1    2    0    0  0.00000000000E+00  0.00000000000E+00  0.22559036571E+04  0.40862594149E+04  0.34071123692E+04 0.  0.
        5    1    3    3  502    0  0.27939559668E+03 -0.85664635975E+03 -0.60597584512E+03  0.10858792290E+04  0.46999998093E+01 0.  1.
       -5    1    3    3    0  502 -0.27939559668E+03  0.85664635975E+03  0.28618795022E+04  0.30003801859E+04  0.46999998093E+01 0. -1.
</event>
<event>
 5   0  0.4811500E-07  0.3479501E+04  0.7818609E-02  0.8118665E-01
        1   -1    0    0  501    0  0.00000000000E+00  0.00000000000E+00  0.24971853450E+04  0.24971853450E+04  0.50400001928E-02 0.  1.
       -1   -1    0    0    0  501  0.00000000000E+00  0.00000000000E+00 -0.12120572682E+04  0.12120572682E+04  0.50400001928E-02 0. -1.
    10030    2    1    2    0    0  0.00000000000E+00  0.00000000000E+00  0.12851280768E+04  0.37092426132E+04  0.34795009110E+04 0.  0.
        5    1    3    3  502    0  0.33499572144E+03 -0.16606563769E+04  0.10645651772E+04  0.20008305381E+04  0.46999998093E+01 0.  1.
       -5    1    3    3    0  502 -0.33499572144E+03  0.16606563769E+04  0.22056289956E+03  0.17084120751E+04  0.46999998093E+01 0. -1.
</event>
<event>
 5   0  0.1444091E-06  0.3609714E+04  0.7818609E-02  0.8088270E-01
       -2   -1    0    0    0  501  0.00000000000E+00  0.00000000000E+00  0.20971153937E+04  0.20971153937E+04  0.25500000920E-02 0. -1.
        2   -1    0    0  501    0  0.00000000000E+00  0.00000000000E+00 -0.15533285945E+04  0.15533285945E+04  0.25500000920E-02 0.  1.
    10030    2    1    2    0    0  0.00000000000E+00  0.00000000000E+00  0.54378679920E+03  0.36504439881E+04  0.36097142861E+04 0.  0.
        1    1    3    3  502    0 -0.15949240964E+04  0.72022667587E+03 -0.17467720472E+03  0.17586987984E+04  0.50400001928E-02 0.  1.
       -1    1    3    3    0  502  0.15949240964E+04 -0.72022667587E+03  0.71846400392E+03  0.18917451897E+04  0.50400001928E-02 0. -1.
</event>
<event>
 5   0  0.4811500E-07  0.3628150E+04  0.7818609E-02  0.8084074E-01
       -1   -1    0    0    0  501  0.00000000000E+00  0.00000000000E+00  0.12966731148E+04  0.12966731148E+04  0.50400001928E-02 0.  1.
        1   -1    0    0  501    0  0.00000000000E+00  0.00000000000E+00 -0.25379320331E+04  0.25379320331E+04  0.50400001928E-02 0. -1.
    10030    2    1    2    0    0  0.00000000000E+00  0.00000000000E+00 -0.12412589183E+04  0.38346051480E+04  0.36281500711E+04 0.  0.
        2    1    3    3  502    0 -0.96502125451E+02 -0.25434365009E+03  0.12749928811E+04  0.13036909908E+04  0.25500000920E-02 0.  1.
       -2    1    3    3    0  502  0.96502125451E+02  0.25434365009E+03 -0.25162517995E+04  0.25309141571E+04  0.25500000920E-02 0. -1.
</event>
<event>
 5   0  0.4811500E-07  0.3565187E+04  0.7818609E-02  0.8098513E-01
        1   -1    0    0  501    0  0.00000000000E+00  0.00000000000E+00  0.34235261041E+04  0.34235261041E+04  0.50400001928E-02 0. -1.
       -1   -1    0    0    0  501  0.00000000000E+00  0.00000000000E+00 -0.92817761930E+03  0.92817761932E+03  0.50400001928E-02 0.  1.
    10030    2    1    2    0    0  0.00000000000E+00  0.00000000000E+00  0.24953484848E+04  0.43517037234E+04  0.35651874054E+04 0.  0.
        2    1    3    3  502    0 -0.31208991481E+02  0.10374396138E+04  0.30166685965E+04  0.31902263830E+04  0.25500000920E-02 0. -1.
       -2    1    3    3    0  502  0.31208991481E+02 -0.10374396138E+04 -0.52132011172E+03  0.11614773404E+04  0.25500000920E-02 0.  1.
</event>
<event>
 5   0  0.4811500E-07  0.3654910E+04  0.7818609E-02  0.8078028E-01
        1   -1    0    0  501    0  0.00000000000E+00  0.00000000000E+00  0.14428388203E+04  0.14428388204E+04  0.50400001928E-02 0. -1.
       -1   -1    0    0    0  501  0.00000000000E+00  0.00000000000E+00 -0.23145977209E+04  0.23145977209E+04  0.50400001928E-02 0.  1.
    10030    2    1    2    0    0  0.00000000000E+00  0.00000000000E+00 -0.87175890059E+03  0.37574365413E+04  0.36549098185E+04 0.  0.
        3    1    3    3  502    0 -0.13230836219E+04  0.39176338913E+03  0.79588044084E+03  0.15929389536E+04  0.10100000352E+00 0. -1.
       -3    1    3    3    0  502  0.13230836219E+04 -0.39176338913E+03 -0.16676393414E+04  0.21644975877E+04  0.10100000352E+00 0.  1.
</event>
<event>
 5   0  0.1444091E-06  0.3566901E+04  0.7818609E-02  0.8098116E-01
        2   -1    0    0  501    0  0.00000000000E+00  0.00000000000E+00  0.12529354803E+04  0.12529354803E+04  0.25500000920E-02 0. -1.
       -2   -1    0    0    0  501  0.00000000000E+00  0.00000000000E+00 -0.25385942511E+04  0.25385942511E+04  0.25500000920E-02 0.  1.
    10030    2    1    2    0    0  0.00000000000E+00  0.00000000000E+00 -0.12856587708E+04  0.37915297313E+04  0.35669005072E+04 0.  0.
        1    1    3    3  502    0  0.14645582653E+04  0.62051213681E+03 -0.15003082256E+04  0.21865248675E+04  0.50400001928E-02 0.  1.
       -1    1    3    3    0  502 -0.14645582653E+04 -0.62051213681E+03  0.21464945481E+03  0.16050048638E+04  0.50400001928E-02 0. -1.
</event>
<event>
 5   0  0.4811500E-07  0.3606321E+04  0.7818609E-02  0.8089045E-01
       -1   -1    0    0    0  501  0.00000000000E+00  0.00000000000E+00  0.30601697148E+04  0.30601697148E+04  0.50400001928E-02 0. -1.
        1   -1    0    0  501    0  0.00000000000E+00  0.00000000000E+00 -0.10624859190E+04  0.10624859191E+04  0.50400001928E-02 0.  1.
    10030    2    1    2    0    0  0.00000000000E+00  0.00000000000E+00  0.19976837957E+04  0.41226556338E+04  0.36063206912E+04 0.  0.
        4    1    3    3  502    0  0.61013268645E+03 -0.16961089366E+04  0.10541200441E+04  0.20881135266E+04  0.12699999809E+01 0. -1.
       -4    1    3    3    0  502 -0.61013268645E+03  0.16961089366E+04  0.94356375161E+03  0.20345421072E+04  0.12699999809E+01 0.  1.
</event>
<event>
 5   0  0.4811500E-07  0.2306504E+04  0.7818609E-02  0.8475361E-01
       -1   -1    0    0    0  501  0.00000000000E+00  0.00000000000E+00  0.15081135283E+04  0.15081135283E+04  0.50400001928E-02 0. -1.
        1   -1    0    0  501    0  0.00000000000E+00  0.00000000000E+00 -0.88189005138E+03  0.88189005140E+03  0.50400001928E-02 0.  1.
    10030    2    1    2    0    0  0.00000000000E+00  0.00000000000E+00  0.62622347695E+03  0.23900035797E+04  0.23065041227E+04 0.  0.
        4    1    3    3  502    0  0.72221691526E+03 -0.59473130248E+03  0.10118268877E+04  0.13780775952E+04  0.12699999809E+01 0.  1.
       -4    1    3    3    0  502 -0.72221691526E+03  0.59473130248E+03 -0.38560341078E+03  0.10119259845E+04  0.12699999809E+01 0. -1.
</event>
<event>
 5   0  0.4811500E-07  0.3713703E+04  0.7818609E-02  0.8064932E-01
       -1   -1    0    0    0  501  0.00000000000E+00  0.00000000000E+00  0.28636544310E+04  0.28636544310E+04  0.50400001928E-02 0.  1.
        1   -1    0    0  501    0  0.00000000000E+00  0.00000000000E+00 -0.12040202481E+04  0.12040202481E+04  0.50400001928E-02 0. -1.
    10030    2    1    2    0    0  0.00000000000E+00  0.00000000000E+00  0.16596341829E+04  0.40676746791E+04  0.37137032291E+04 0.  0.
        5    1    3    3  502    0  0.66760013925E+03  0.17312587834E+04  0.75291921514E+03  0.20024625728E+04  0.46999998093E+01 0. -1.
       -5    1    3    3    0  502 -0.66760013925E+03 -0.17312587834E+04  0.90671496772E+03  0.20652121062E+04  0.46999998093E+01 0.  1.
</event>
<event>
 5   0  0.1468942E-06  0.2345427E+04  0.7818609E-02  0.8460222E-01
        2   -1    0    0  501    0  0.00000000000E+00  0.00000000000E+00  0.12447853780E+04  0.12447853780E+04  0.25500000920E-02 0.  1.
       -2   -1    0    0    0  501  0.00000000000E+00  0.00000000000E+00 -0.11048149657E+04  0.11048149657E+04  0.25500000920E-02 0. -1.
    10030    2    1    2    0    0  0.00000000000E+00  0.00000000000E+00  0.13997041228E+03  0.23496003437E+04  0.23454274789E+04 0.  0.
        2    1    3    3  502    0  0.10378826112E+04  0.53725522372E+03  0.16718372677E+03  0.11805904830E+04  0.25500000920E-02 0.  1.
       -2    1    3    3    0  502 -0.10378826112E+04 -0.53725522372E+03 -0.27213314496E+02  0.11690098607E+04  0.25500000920E-02 0. -1.
</event>
<event>
 5   0  0.1379425E-06  0.2606486E+04  0.7818609E-02  0.8366001E-01
       -2   -1    0    0    0  501  0.00000000000E+00  0.00000000000E+00  0.72439882000E+03  0.72439882001E+03  0.25500000920E-02 0. -1.
        2   -1    0    0  501    0  0.00000000000E+00  0.00000000000E+00 -0.23446237093E+04  0.23446237093E+04  0.25500000920E-02 0.  1.
    10030    2    1    2    0    0  0.00000000000E+00  0.00000000000E+00 -0.16202248893E+04  0.30690225293E+04  0.26064862542E+04 0.  0.
        4    1    3    3  502    0 -0.26627916994E+03  0.79050605539E+03 -0.19891195379E+04  0.21569428756E+04  0.12699999809E+01 0.  1.
       -4    1    3    3    0  502  0.26627916994E+03 -0.79050605539E+03  0.36889464859E+03  0.91207965365E+03  0.12699999809E+01 0. -1.
</event>
<event>
 5   0  0.1491854E-06  0.3664713E+04  0.7818609E-02  0.8075827E-01
        2   -1    0    0  501    0  0.00000000000E+00  0.00000000000E+00  0.13431181819E+04  0.13431181819E+04  0.25500000920E-02 0. -1.
       -2   -1    0    0    0  501  0.00000000000E+00  0.00000000000E+00 -0.24998030526E+04  0.24998030526E+04  0.25500000920E-02 0.  1.
    10030    2    1    2    0    0  0.00000000000E+00  0.00000000000E+00 -0.11566848707E+04  0.38429212345E+04  0.36647133209E+04 0.  0.
        5    1    3    3  502    0  0.97218502238E+03  0.10981237669E+04 -0.17301587257E+04  0.22681470039E+04  0.46999998093E+01 0.  1.
       -5    1    3    3    0  502 -0.97218502238E+03 -0.10981237669E+04  0.57347385503E+03  0.15747742306E+04  0.46999998093E+01 0. -1.
</event>
<event>
 5   0  0.1505671E-06  0.3076726E+04  0.7818609E-02  0.8222154E-01
       -2   -1    0    0    0  501  0.00000000000E+00  0.00000000000E+00  0.13477708180E+04  0.13477708180E+04  0.25500000920E-02 0.  1.
        2   -1    0    0  501    0  0.00000000000E+00  0.00000000000E+00 -0.17559072637E+04  0.17559072637E+04  0.25500000920E-02 0. -1.
    10030    2    1    2    0    0  0.00000000000E+00  0.00000000000E+00 -0.40813644563E+03  0.31036780817E+04  0.30767259021E+04 0.  0.
        3    1    3    3  502    0  0.10420138016E+04 -0.15196020035E+03  0.92721730100E+03  0.14030739819E+04  0.10100000352E+00 0.  1.
       -3    1    3    3    0  502 -0.10420138016E+04  0.15196020035E+03 -0.13353537466E+04  0.17006040998E+04  0.10100000352E+00 0. -1.
</event>
<event>
 5   0  0.1491854E-06  0.3772071E+04  0.7818609E-02  0.8052175E-01
       -2   -1    0    0    0  501  0.00000000000E+00  0.00000000000E+00  0.34831982491E+04  0.34831982491E+04  0.25500000920E-02 0. -1.
        2   -1    0    0  501    0  0.00000000000E+00  0.00000000000E+00 -0.10212250401E+04  0.10212250401E+04  0.25500000920E-02 0.  1.
    10030    2    1    2    0    0  0.00000000000E+00  0.00000000000E+00  0.24619732090E+04  0.45044232892E+04  0.37720706629E+04 0.  0.
        5    1    3    3  502    0 -0.96342969183E+03  0.16940565919E+03  0.31565763549E+04  0.33046772040E+04  0.46999998093E+01 0. -1.
       -5    1    3    3    0  502  0.96342969183E+03 -0.16940565919E+03 -0.69460314592E+03  0.11997460851E+04  0.46999998093E+01 0.  1.
</event>
<event>
 5   0  0.1468942E-06  0.3213726E+04  0.7818609E-02  0.8185202E-01
        2   -1    0    0  501    0  0.00000000000E+00  0.00000000000E+00  0.12991742005E+04  0.12991742005E+04  0.25500000920E-02 0.  1.
       -2   -1    0    0    0  501  0.00000000000E+00  0.00000000000E+00 -0.19874226442E+04  0.19874226442E+04  0.25500000920E-02 0. -1.
    10030    2    1    2    0    0  0.00000000000E+00  0.00000000000E+00 -0.68824844373E+03  0.32865968448E+04  0.32137257039E+04 0.  0.
        2    1    3    3  502    0 -0.80863911859E+03  0.11395888758E+04  0.46724330829E+03  0.14733894052E+04  0.25500000920E-02 0.  1.
       -2    1    3    3    0  502  0.80863911859E+03 -0.11395888758E+04 -0.11554917520E+04  0.18132074396E+04  0.25500000920E-02 0. -1.
</event>
<event>
 5   0  0.5071661E-07  0.3591722E+04  0.7818609E-02  0.8092391E-01
        1   -1    0    0  501    0  0.00000000000E+00  0.00000000000E+00  0.18428177749E+04  0.18428177749E+04  0.50400001928E-02 0. -1.
       -1   -1    0    0    0  501  0.00000000000E+00  0.00000000000E+00 -0.17501002830E+04  0.17501002830E+04  0.50400001928E-02 0.  1.
    10030    2    1    2    0    0  0.00000000000E+00  0.00000000000E+00  0.92717491926E+02  0.35929180579E+04  0.35917215423E+04 0.  0.
        1    1    3    3  502    0 -0.16382295639E+04 -0.59485855841E+03  0.47947307416E+03  0.18076358144E+04  0.50400001928E-02 0.  1.
       -1    1    3    3    0  502  0.16382295639E+04  0.59485855841E+03 -0.38675558224E+03  0.17852822435E+04  0.50400001928E-02 0. -1.
</event>
<event>
 5   0  0.4811500E-07  0.3729615E+04  0.7818609E-02  0.8061430E-01
        1   -1    0    0  501    0  0.00000000000E+00  0.00000000000E+00  0.25933330224E+04  0.25933330224E+04  0.50400001928E-02 0. -1.
       -1   -1    0    0    0  501  0.00000000000E+00  0.00000000000E+00 -0.13409410615E+04  0.13409410615E+04  0.50400001928E-02 0.  1.
    10030    2    1    2    0    0  0.00000000000E+00  0.00000000000E+00  0.12523919608E+04  0.39342740839E+04  0.37296148519E+04 0.  0.
        4    1    3    3  502    0 -0.15813502318E+04 -0.98548406054E+03  0.54685055802E+03  0.19418791247E+04  0.12699999809E+01 0. -1.
       -4    1    3    3    0  502  0.15813502318E+04  0.98548406054E+03  0.70554140282E+03  0.19923949592E+04  0.12699999809E+01 0.  1.
</event>
<event>
 5   0  0.1379425E-06  0.3597833E+04  0.7818609E-02  0.8090988E-01
       -2   -1    0    0    0  501  0.00000000000E+00  0.00000000000E+00  0.15888709200E+04  0.15888709200E+04  0.25500000920E-02 0. -1.
        2   -1    0    0  501    0  0.00000000000E+00  0.00000000000E+00 -0.20367293045E+04  0.20367293045E+04  0.25500000920E-02 0.  1.
    10030    2    1    2    0    0  0.00000000000E+00  0.00000000000E+00 -0.44785838449E+03  0.36256002244E+04  0.35978326608E+04 0.  0.
        4    1    3    3  502    0  0.73542380900E+02  0.17511784034E+04  0.18424514254E+03  0.17623796889E+04  0.12699999809E+01 0. -1.
       -4    1    3    3    0  502 -0.73542380900E+02 -0.17511784034E+04 -0.63210352703E+03  0.18632205356E+04  0.12699999809E+01 0.  1.
</event>
<event>
 5   0  0.1379425E-06  0.3582494E+04  0.7818609E-02  0.8094513E-01
        2   -1    0    0  501    0  0.00000000000E+00  0.00000000000E+00  0.26745597382E+04  0.26745597382E+04  0.25500000920E-02 0.  1.
       -2   -1    0    0    0  501  0.00000000000E+00  0.00000000000E+00 -0.11996613318E+04  0.11996613318E+04  0.25500000920E-02 0. -1.
    10030    2    1    2    0    0  0.00000000000E+00  0.00000000000E+00  0.14748984064E+04  0.38742210701E+04  0.35824940461E+04 0.  0.
        4    1    3    3  502    0 -0.83726864734E+03  0.11339108196E+04  0.19328058907E+04  0.23921774096E+04  0.12699999809E+01 0.  1.
       -4    1    3    3    0  502  0.83726864734E+03 -0.11339108196E+04 -0.45790748432E+03  0.14820436605E+04  0.12699999809E+01 0. -1.
</event>
<event>
 5   0  0.4811500E-07  0.3139221E+04  0.7818609E-02  0.8205056E-01
        1   -1    0    0  501    0  0.00000000000E+00  0.00000000000E+00  0.19820323841E+04  0.19820323841E+04  0.50400001928E-02 0.  1.
       -1   -1    0    0    0  501  0.00000000000E+00  0.00000000000E+00 -0.12430053576E+04  0.12430053576E+04  0.50400001928E-02 0. -1.
    10030    2    1    2    0    0  0.00000000000E+00  0.00000000000E+00  0.73902702648E+03  0.32250377418E+04  0.31392208412E+04 0.  0.
        2    1    3    3  502    0  0.46347607504E+01  0.37671549574E+03 -0.11958665618E+04  0.12538073534E+04  0.25500000920E-02 0. -1.
       -2    1    3    3    0  502 -0.46347607504E+01 -0.37671549574E+03  0.19348935883E+04  0.19712303883E+04  0.25500000920E-02 0.  1.
</event>
<event>
 5   0  0.4811500E-07  0.3466339E+04  0.7818609E-02  0.8121814E-01
       -1   -1    0    0    0  501  0.00000000000E+00  0.00000000000E+00  0.12337333168E+04  0.12337333169E+04  0.50400001928E-02 0.  1.
        1   -1    0    0  501    0  0.00000000000E+00  0.00000000000E+00 -0.24347862134E+04  0.24347862134E+04  0.50400001928E-02 0. -1.
    10030    2    1    2    0    0  0.00000000000E+00  0.00000000000E+00 -0.12010528965E+04  0.36685195302E+04  0.34663392049E+04 0.  0.
        2    1    3    3  502    0 -0.33232022959E+03  0.48456820878E+03  0.11251089310E+04  0.12692963368E+04  0.25500000920E-02 0.  1.
       -2    1    3    3    0  502  0.33232022959E+03 -0.48456820878E+03 -0.23261618276E+04  0.23992231934E+04  0.25500000920E-02 0. -1.
</event>
<event>
 5   0  0.1468942E-06  0.3618876E+04  0.7818609E-02  0.8086182E-01
        2   -1    0    0  501    0  0.00000000000E+00  0.00000000000E+00  0.24628917205E+04  0.24628917205E+04  0.25500000920E-02 0. -1.
       -2   -1    0    0    0  501  0.00000000000E+00  0.00000000000E+00 -0.13293583071E+04  0.13293583071E+04  0.25500000920E-02 0.  1.
    10030    2    1    2    0    0  0.00000000000E+00  0.00000000000E+00  0.11335334134E+04  0.37922500277E+04  0.36188758300E+04 0.  0.
        2    1    3    3  502    0  0.13819132953E+04  0.59674922691E+03  0.16190000087E+04  0.22106458386E+04  0.25500000920E-02 0. -1.
       -2    1    3    3    0  502 -0.13819132953E+04 -0.59674922691E+03 -0.48546659525E+03  0.15816041890E+04  0.25500000920E-02 0.  1.
</event>
<event>
 5   0  0.1505671E-06  0.3585256E+04  0.7818609E-02  0.8093877E-01
        2   -1    0    0  501    0  0.00000000000E+00  0.00000000000E+00  0.23127884080E+04  0.23127884080E+04  0.25500000920E-02 0. -1.
       -2   -1    0    0    0  501  0.00000000000E+00  0.00000000000E+00 -0.13894547401E+04  0.13894547401E+04  0.25500000920E-02 0.  1.
    10030    2    1    2    0    0  0.00000000000E+00  0.00000000000E+00  0.92333366795E+03  0.37022431481E+04  0.35852558159E+04 0.  0.
        3    1    3    3  502    0 -0.98428144523E+03  0.10303878512E+04  0.15848179968E+04  0.21312337226E+04  0.10100000352E+00 0. -1.
       -3    1    3    3    0  502  0.98428144523E+03 -0.10303878512E+04 -0.66148432887E+03  0.15710094254E+04  0.10100000352E+00 0.  1.
</event>
<event>
 5   0  0.1468942E-06  0.3606562E+04  0.7818609E-02  0.8088990E-01
        2   -1    0    0  501    0  0.00000000000E+00  0.00000000000E+00  0.16154406683E+04  0.16154406683E+04  0.25500000920E-02 0. -1.
       -2   -1    0    0    0  501  0.00000000000E+00  0.00000000000E+00 -0.20129629809E+04  0.20129629809E+04  0.25500000920E-02 0.  1.
    10030    2    1    2    0    0  0.00000000000E+00  0.00000000000E+00 -0.39752231261E+03  0.36284036493E+04  0.36065619436E+04 0.  0.
        2    1    3    3  502    0  0.82857239088E+03 -0.10631789885E+04  0.10063834052E+04  0.16821680435E+04  0.25500000920E-02 0. -1.
       -2    1    3    3    0  502 -0.82857239088E+03  0.10631789885E+04 -0.14039057178E+04  0.19462356057E+04  0.25500000920E-02 0.  1.
</event>
<event>
 5   0  0.1444091E-06  0.3665065E+04  0.7818609E-02  0.8075748E-01
        2   -1    0    0  501    0  0.00000000000E+00  0.00000000000E+00  0.25321642444E+04  0.25321642444E+04  0.25500000920E-02 0.  1.
       -2   -1    0    0    0  501  0.00000000000E+00  0.00000000000E+00 -0.13262072142E+04  0.13262072142E+04  0.25500000920E-02 0. -1.
    10030    2    1    2    0    0  0.00000000000E+00  0.00000000000E+00  0.12059570302E+04  0.38583714585E+04  0.36650645224E+04 0.  0.
        1    1    3    3  502    0 -0.18514326451E+03  0.15527574481E+04  0.16087977238E+04  0.22435605267E+04  0.50400001928E-02 0.  1.
       -1    1    3    3    0  502  0.18514326451E+03 -0.15527574481E+04 -0.40284069356E+03  0.16148109318E+04  0.50400001928E-02 0. -1.
</event>
<event>
 5   0  0.4811500E-07  0.3497970E+04  0.7818609E-02  0.8114271E-01
        1   -1    0    0  501    0  0.00000000000E+00  0.00000000000E+00  0.17486251991E+04  0.17486251991E+04  0.50400001928E-02 0.  1.
       -1   -1    0    0    0  501  0.00000000000E+00  0.00000000000E+00 -0.17493449165E+04  0.17493449165E+04  0.50400001928E-02 0. -1.
    10030    2    1    2    0    0  0.00000000000E+00  0.00000000000E+00 -0.71971737011E+00  0.34979701156E+04  0.34979700415E+04 0.  0.
        3    1    3    3  502    0 -0.13001712916E+04  0.88744500929E+03 -0.76255706756E+03  0.17491418820E+04  0.10100000352E+00 0. -1.
       -3    1    3    3    0  502  0.13001712916E+04 -0.88744500929E+03  0.76183735019E+03  0.17488282335E+04  0.10100000352E+00 0.  1.
</event>
<event>
 5   0  0.1491854E-06  0.2692034E+04  0.7818609E-02  0.8337594E-01
       -2   -1    0    0    0  501  0.00000000000E+00  0.00000000000E+00  0.83495688152E+03  0.83495688153E+03  0.25500000920E-02 0. -1.
        2   -1    0    0  501    0  0.00000000000E+00  0.00000000000E+00 -0.21698869952E+04  0.21698869952E+04  0.25500000920E-02 0.  1.
    10030    2    1    2    0    0  0.00000000000E+00  0.00000000000E+00 -0.13349301137E+04  0.30048438767E+04  0.26920342336E+04 0.  0.
        5    1    3    3  502    0  0.95464900017E+03  0.45736238588E+03  0.26052803927E+03  0.10901522897E+04  0.46999998093E+01 0. -1.
       -5    1    3    3    0  502 -0.95464900017E+03 -0.45736238588E+03 -0.15954581529E+04  0.19146915870E+04  0.46999998093E+01 0.  1.
</event>
<event>
 5   0  0.1379425E-06  0.3159228E+04  0.7818609E-02  0.8199669E-01
        2   -1    0    0  501    0  0.00000000000E+00  0.00000000000E+00  0.11838962020E+04  0.11838962020E+04  0.25500000920E-02 0. -1.
       -2   -1    0    0    0  501  0.00000000000E+00  0.00000000000E+00 -0.21075999761E+04  0.21075999761E+04  0.25500000920E-02 0.  1.
    10030    2    1    2    0    0  0.00000000000E+00  0.00000000000E+00 -0.92370377417E+03  0.32914961781E+04  0.31592275050E+04 0.  0.
        4    1    3    3  502    0  0.13911671060E+04  0.30332036010E+03 -0.11744685076E+04  0.18457321165E+04  0.12699999809E+01 0.  1.
       -4    1    3    3    0  502 -0.13911671060E+04 -0.30332036010E+03  0.25076473339E+03  0.14457640617E+04  0.12699999809E+01 0. -1.
</event>
<event>
 5   0  0.1468942E-06  0.3610585E+04  0.7818609E-02  0.8088071E-01
       -2   -1    0    0    0  501  0.00000000000E+00  0.00000000000E+00  0.19403186091E+04  0.19403186091E+04  0.25500000920E-02 0.  1.
        2   -1    0    0  501    0  0.00000000000E+00  0.00000000000E+00 -0.16796630713E+04  0.16796630713E+04  0.25500000920E-02 0. -1.
    10030    2    1    2    0    0  0.00000000000E+00  0.00000000000E+00  0.26065553782E+03  0.36199816804E+04  0.36105852790E+04 0.  0.
        2    1    3    3  502    0 -0.34408921297E+03 -0.29861262309E+03  0.18817324000E+04  0.19361001293E+04  0.25500000920E-02 0.  1.
       -2    1    3    3    0  502  0.34408921297E+03  0.29861262309E+03 -0.16210768622E+04  0.16838815512E+04  0.25500000920E-02 0. -1.
</event>
<event>
 5   0  0.4811500E-07  0.3464697E+04  0.7818609E-02  0.8122208E-01
       -1   -1    0    0    0  501  0.00000000000E+00  0.00000000000E+00  0.31344523004E+04  0.31344523004E+04  0.50400001928E-02 0.  1.
        1   -1    0    0  501    0  0.00000000000E+00  0.00000000000E+00 -0.95743387545E+03  0.95743387546E+03  0.50400001928E-02 0. -1.
    10030    2    1    2    0    0  0.00000000000E+00  0.00000000000E+00  0.21770184249E+04  0.40918861759E+04  0.34646967044E+04 0.  0.
        3    1    3    3  502    0 -0.15988508958E+04  0.60873524690E+03  0.14101033229E+04  0.22170417631E+04  0.10100000352E+00 0.  1.
       -3    1    3    3    0  502  0.15988508958E+04 -0.60873524690E+03  0.76691510199E+03  0.18748444127E+04  0.10100000352E+00 0. -1.
</event>
<event>
 5   0  0.4811500E-07  0.3701261E+04  0.7818609E-02  0.8067682E-01
        1   -1    0    0  501    0  0.00000000000E+00  0.00000000000E+00  0.10650966021E+04  0.10650966021E+04  0.50400001928E-02 0.  1.
       -1   -1    0    0    0  501  0.00000000000E+00  0.00000000000E+00 -0.32155138834E+04  0.32155138834E+04  0.50400001928E-02 0. -1.
    10030    2    1    2    0    0  0.00000000000E+00  0.00000000000E+00 -0.21504172812E+04  0.42806104855E+04  0.37012608183E+04 0.  0.
        5    1    3    3  502    0  0.13885572973E+04  0.79207900781E+03 -0.21535305502E+04  0.26820135054E+04  0.46999998093E+01 0. -1.
       -5    1    3    3    0  502 -0.13885572973E+04 -0.79207900781E+03  0.31132689672E+01  0.15985969801E+04  0.46999998093E+01 0.  1.
</event>
<event>
 5   0  0.1444091E-06  0.3215762E+04  0.7818609E-02  0.8184667E-01
        2   -1    0    0  501    0  0.00000000000E+00  0.00000000000E+00  0.22066794214E+04  0.22066794214E+04  0.25500000920E-02 0. -1.
       -2   -1    0    0    0  501  0.00000000000E+00  0.00000000000E+00 -0.11715705674E+04  0.11715705674E+04  0.25500000920E-02 0.  1.
    10030    2    1    2    0    0  0.00000000000E+00  0.00000000000E+00  0.10351088540E+04  0.33782499889E+04  0.32157615969E+04 0.  0.
        1    1    3    3  502    0  0.11869935047E+04  0.31664811063E+03 -0.57219436551E+03  0.13552217524E+04  0.50400001928E-02 0.  1.
       -1    1    3    3    0  502 -0.11869935047E+04 -0.31664811063E+03  0.16073032195E+04  0.20230282365E+04  0.50400001928E-02 0. -1.
</event>
<event>
 5   0  0.1491854E-06  0.3468605E+04  0.7818609E-02  0.8121271E-01
        2   -1    0    0  501    0  0.00000000000E+00  0.00000000000E+00  0.16577886040E+04  0.16577886040E+04  0.25500000920E-02 0.  1.
       -2   -1    0    0    0  501  0.00000000000E+00  0.00000000000E+00 -0.18143479536E+04  0.18143479536E+04  0.25500000920E-02 0. -1.
    10030    2    1    2    0    0  0.00000000000E+00  0.00000000000E+00 -0.15655934963E+03  0.34721365577E+04  0.34686051152E+04 0.  0.
        5    1    3    3  502    0  0.84669619834E+03  0.16136389184E+03  0.14281945607E+04  0.16681410465E+04  0.46999998093E+01 0.  1.
       -5    1    3    3    0  502 -0.84669619834E+03 -0.16136389184E+03 -0.15847539103E+04  0.18039955111E+04  0.46999998093E+01 0. -1.
</event>
<event>
 5   0  0.1491854E-06  0.3305484E+04  0.7818609E-02  0.8161501E-01
       -2   -1    0    0    0  501  0.00000000000E+00  0.00000000000E+00  0.14088795872E+04  0.14088795872E+04  0.25500000920E-02 0.  1.
        2   -1    0    0  501    0  0.00000000000E+00  0.00000000000E+00 -0.19388146712E+04  0.19388146712E+04  0.25500000920E-02 0. -1.
    10030    2    1    2    0    0  0.00000000000E+00  0.00000000000E+00 -0.52993508405E+03  0.33476942584E+04  0.33054841786E+04 0.  0.
        5    1    3    3  502    0  0.13009977931E+04 -0.23878078439E+03  0.73860640289E+03  0.15149828478E+04  0.46999998093E+01 0.  1.
       -5    1    3    3    0  502 -0.13009977931E+04  0.23878078439E+03 -0.12685414869E+04  0.18327114107E+04  0.46999998093E+01 0. -1.
</event>
<event>
 5   0  0.4811500E-07  0.3569308E+04  0.7818609E-02  0.8097558E-01
        1   -1    0    0  501    0  0.00000000000E+00  0.00000000000E+00  0.22176682034E+04  0.22176682034E+04  0.50400001928E-02 0.  1.
       -1   -1    0    0    0  501  0.00000000000E+00  0.00000000000E+00 -0.14361887362E+04  0.14361887363E+04  0.50400001928E-02 0. -1.
    10030    2    1    2    0    0  0.00000000000E+00  0.00000000000E+00  0.78147946714E+03  0.36538569396E+04  0.35693081091E+04 0.  0.
        4    1    3    3  502    0  0.16311091649E+04  0.50994152692E+03 -0.13566973798E+03  0.17143410861E+04  0.12699999809E+01 0. -1.
       -4    1    3    3    0  502 -0.16311091649E+04 -0.50994152692E+03  0.91714920513E+03  0.19395158535E+04  0.12699999809E+01 0.  1.
</event>
<event>
 5   0  0.4811500E-07  0.3607917E+04  0.7818609E-02  0.8088681E-01
       -1   -1    0    0    0  501  0.00000000000E+00  0.00000000000E+00  0.15505736519E+04  0.15505736519E+04  0.50400001928E-02 0.  1.
        1   -1    0    0  501    0  0.00000000000E+00  0.00000000000E+00 -0.20987504524E+04  0.20987504524E+04  0.50400001928E-02 0. -1.
    10030    2    1    2    0    0  0.00000000000E+00  0.00000000000E+00 -0.54817680055E+03  0.36493241043E+04  0.36079174899E+04 0.  0.
        4    1    3    3  502    0  0.10038033974E+04  0.47370312504E+01 -0.17901638913E+04  0.20523966650E+04  0.12699999809E+01 0. -1.
       -4    1    3    3    0  502 -0.10038033974E+04 -0.47370312504E+01  0.12419870907E+04  0.15969274393E+04  0.12699999809E+01 0.  1.
</event>
<event>
 5   0  0.4811500E-07  0.3554148E+04  0.7818609E-02  0.8101076E-01
        1   -1    0    0  501    0  0.00000000000E+00  0.00000000000E+00  0.21712037851E+04  0.21712037851E+04  0.50400001928E-02 0.  1.
       -1   -1    0    0    0  501  0.00000000000E+00  0.00000000000E+00 -0.14544886017E+04  0.14544886017E+04  0.50400001928E-02 0. -1.
    10030    2    1    2    0    0  0.00000000000E+00  0.00000000000E+00  0.71671518332E+03  0.36256923868E+04  0.35541475250E+04 0.  0.
        2    1    3    3  502    0  0.33812376395E+03  0.64133677506E+03  0.20134695317E+04  0.21400233863E+04  0.25500000920E-02 0.  1.
       -2    1    3    3    0  502 -0.33812376395E+03 -0.64133677506E+03 -0.12967543484E+04  0.14856690005E+04  0.25500000920E-02 0. -1.
</event>
<event>
 5   0  0.1444091E-06  0.2238532E+04  0.7818609E-02  0.8502559E-01
       -2   -1    0    0    0  501  0.00000000000E+00  0.00000000000E+00  0.89388509171E+03  0.89388509172E+03  0.25500000920E-02 0.  1.
        2   -1    0    0  501    0  0.00000000000E+00  0.00000000000E+00 -0.14014738333E+04  0.14014738333E+04  0.25500000920E-02 0. -1.
    10030    2    1    2    0    0  0.00000000000E+00  0.00000000000E+00 -0.50758874156E+03  0.22953589250E+04  0.22385321673E+04 0.  0.
        1    1    3    3  502    0  0.22222374301E+03 -0.10888475601E+04 -0.39053702502E+03  0.11779183201E+04  0.50400001928E-02 0.  1.
       -1    1    3    3    0  502 -0.22222374301E+03  0.10888475601E+04 -0.11705171655E+03  0.11174406049E+04  0.50400001928E-02 0. -1.
</event>
<event>
 5   0  0.1491854E-06  0.3617062E+04  0.7818609E-02  0.8086595E-01
        2   -1    0    0  501    0  0.00000000000E+00  0.00000000000E+00  0.16638317674E+04  0.16638317674E+04  0.25500000920E-02 0. -1.
       -2   -1    0    0    0  501  0.00000000000E+00  0.00000000000E+00 -0.19658139742E+04  0.19658139742E+04  0.25500000920E-02 0.  1.
    10030    2    1    2    0    0  0.00000000000E+00  0.00000000000E+00 -0.30198220685E+03  0.36296457416E+04  0.36170616468E+04 0.  0.
        5    1    3    3  502    0  0.13574802417E+04  0.11919240075E+04 -0.65100074421E+02  0.18076768394E+04  0.46999998093E+01 0. -1.
       -5    1    3    3    0  502 -0.13574802417E+04 -0.11919240075E+04 -0.23688213243E+03  0.18219689022E+04  0.46999998093E+01 0.  1.
</event>
<event>
 5   0  0.1505671E-06  0.3543715E+04  0.7818609E-02  0.8103508E-01
        2   -1    0    0  501    0  0.00000000000E+00  0.00000000000E+00  0.15509829532E+04  0.15509829532E+04  0.25500000920E-02 0. -1.
       -2   -1    0    0    0  501  0.00000000000E+00  0.00000000000E+00 -0.20241865612E+04  0.20241865612E+04  0.25500000920E-02 0.  1.
    10030    2    1    2    0    0  0.00000000000E+00  0.00000000000E+00 -0.47320360799E+03  0.35751695144E+04  0.35437149155E+04 0.  0.
        3    1    3    3  502    0  0.45639498625E+03  0.32327776506E+03  0.14595929656E+04  0.15630791830E+04  0.10100000352E+00 0. -1.
       -3    1    3    3    0  502 -0.45639498625E+03 -0.32327776506E+03 -0.19327965736E+04  0.20120903314E+04  0.10100000352E+00 0.  1.
</event>
<event>
 5   0  0.4811500E-07  0.2624617E+04  0.7818609E-02  0.8359887E-01
        1   -1    0    0  501    0  0.00000000000E+00  0.00000000000E+00  0.13449922569E+04  0.13449922569E+04  0.50400001928E-02 0.  1.
       -1   -1    0    0    0  501  0.00000000000E+00  0.00000000000E+00 -0.12804189395E+04  0.12804189395E+04  0.50400001928E-02 0. -1.
    10030    2    1    2    0    0  0.00000000000E+00  0.00000000000E+00  0.64573317421E+02  0.26254111964E+04  0.26246169696E+04 0.  0.
        4    1    3    3  502    0 -0.79297307709E+03 -0.90246206416E+03 -0.49599043945E+03  0.12997123555E+04  0.12699999809E+01 0. -1.
       -4    1    3    3    0  502  0.79297307709E+03  0.90246206416E+03  0.56056375687E+03  0.13256988409E+04  0.12699999809E+01 0.  1.
</event>
<event>
 5   0  0.1444091E-06  0.2198399E+04  0.7818609E-02  0.8519095E-01
       -2   -1    0    0    0  501  0.00000000000E+00  0.00000000000E+00  0.11146577996E+04  0.11146577996E+04  0.25500000920E-02 0.  1.
        2   -1    0    0  501    0  0.00000000000E+00  0.00000000000E+00 -0.10839556918E+04  0.10839556918E+04  0.25500000920E-02 0. -1.
    10030    2    1    2    0    0  0.00000000000E+00  0.00000000000E+00  0.30702107731E+02  0.21986134914E+04  0.21983991141E+04 0.  0.
        1    1    3    3  502    0 -0.18170496803E+03 -0.57978214064E+03  0.93145109938E+03  0.11120994455E+04  0.50400001928E-02 0.  1.
       -1    1    3    3    0  502  0.18170496803E+03  0.57978214064E+03 -0.90074899165E+03  0.10865140459E+04  0.50400001928E-02 0. -1.
</event>
<event>
 5   0  0.4811500E-07  0.2675071E+04  0.7818609E-02  0.8343139E-01
        1   -1    0    0  501    0  0.00000000000E+00  0.00000000000E+00  0.12532611606E+04  0.12532611606E+04  0.50400001928E-02 0.  1.
       -1   -1    0    0    0  501  0.00000000000E+00  0.00000000000E+00 -0.14274765110E+04  0.14274765110E+04  0.50400001928E-02 0. -1.
    10030    2    1    2    0    0  0.00000000000E+00  0.00000000000E+00 -0.17421535040E+03  0.26807376717E+04  0.26750707422E+04 0.  0.
        4    1    3    3  502    0  0.11487466735E+04 -0.53028460591E+03 -0.52182218006E+03  0.13686199924E+04  0.12699999809E+01 0. -1.
       -4    1    3    3    0  502 -0.11487466735E+04  0.53028460591E+03  0.34760682966E+03  0.13121176792E+04  0.12699999809E+01 0.  1.
</event>
<event>
 5   0  0.1505671E-06  0.3348901E+04  0.7818609E-02  0.8150563E-01
       -2   -1    0    0    0  501  0.00000000000E+00  0.00000000000E+00  0.16315749909E+04  0.16315749909E+04  0.25500000920E-02 0. -1.
        2   -1    0    0  501    0  0.00000000000E+00  0.00000000000E+00 -0.17184528892E+04  0.17184528892E+04  0.25500000920E-02 0.  1.
    10030    2    1    2    0    0  0.00000000000E+00  0.00000000000E+00 -0.86877898237E+02  0.33500278801E+04  0.33489011673E+04 0.  0.
        3    1    3    3  502    0 -0.65873663721E+03 -0.13686339402E+04 -0.74843980035E+03  0.16932970692E+04  0.10100000352E+00 0.  1.
       -3    1    3    3    0  502  0.65873663721E+03  0.13686339402E+04  0.66156190211E+03  0.16567308110E+04  0.10100000352E+00 0. -1.
</event>
<event>
 5   0  0.1379425E-06  0.3560837E+04  0.7818609E-02  0.8099522E-01
        2   -1    0    0  501    0  0.00000000000E+00  0.00000000000E+00  0.23369198689E+04  0.23369198689E+04  0.25500000920E-02 0. -1.
       -2   -1    0    0    0  501  0.00000000000E+00  0.00000000000E+00 -0.13564394195E+04  0.13564394195E+04  0.25500000920E-02 0.  1.
    10030    2    1    2    0    0  0.00000000000E+00  0.00000000000E+00  0.98048044948E+03  0.36933592884E+04  0.35608371097E+04 0.  0.
        4    1    3    3  502    0 -0.13931287493E+04 -0.41361650234E+03 -0.57663285082E+03  0.15634555896E+04  0.12699999809E+01 0.  1.
       -4    1    3    3    0  502  0.13931287493E+04  0.41361650234E+03  0.15571133003E+04  0.21299036988E+04  0.12699999809E+01 0. -1.
</event>
<event>
 5   0  0.5071661E-07  0.2250311E+04  0.7818609E-02  0.8497775E-01
        1   -1    0    0  501    0  0.00000000000E+00  0.00000000000E+00  0.10910065520E+04  0.10910065520E+04  0.50400001928E-02 0.  1.
       -1   -1    0    0    0  501  0.00000000000E+00  0.00000000000E+00 -0.11603734428E+04  0.11603734428E+04  0.50400001928E-02 0. -1.
    10030    2    1    2    0    0  0.00000000000E+00  0.00000000000E+00 -0.69366890786E+02  0.22513799947E+04  0.22503111152E+04 0.  0.
        1    1    3    3  502    0  0.33798919613E+03  0.98461006456E+03 -0.46183044387E+03  0.11388507518E+04  0.50400001928E-02 0. -1.
       -1    1    3    3    0  502 -0.33798919613E+03 -0.98461006456E+03  0.39246355308E+03  0.11125292430E+04  0.50400001928E-02 0.  1.
</event>
<event>
 5   0  0.1444091E-06  0.3507270E+04  0.7818609E-02  0.8112069E-01
        2   -1    0    0  501    0  0.00000000000E+00  0.00000000000E+00  0.19958866254E+04  0.19958866254E+04  0.25500000920E-02 0.  1.
       -2   -1    0    0    0  501  0.00000000000E+00  0.00000000000E+00 -0.15407864759E+04  0.15407864759E+04  0.25500000920E-02 0. -1.
    10030    2    1    2    0    0  0.00000000000E+00  0.00000000000E+00  0.45510014948E+03  0.35366731012E+04  0.35072696616E+04 0.  0.
        1    1    3    3  502    0  0.11747250732E+04  0.12955852761E+04  0.97180022140E+02  0.17515604934E+04  0.50400001928E-02 0.  1.
       -1    1    3    3    0  502 -0.11747250732E+04 -0.12955852761E+04  0.35792012734E+03  0.17851126079E+04  0.50400001928E-02 0. -1.
</event>
<event>
 5   0  0.4811500E-07  0.3445689E+04  0.7818609E-02  0.8126783E-01
       -1   -1    0    0    0  501  0.00000000000E+00  0.00000000000E+00  0.19463297262E+04  0.19463297262E+04  0.50400001928E-02 0.  1.
        1   -1    0    0  501    0  0.00000000000E+00  0.00000000000E+00 -0.15250204386E+04  0.15250204386E+04  0.50400001928E-02 0. -1.
    10030    2    1    2    0    0  0.00000000000E+00  0.00000000000E+00  0.42130928764E+03  0.34713501648E+04  0.34456886759E+04 0.  0.
        3    1    3    3  502    0  0.13456753682E+04 -0.49117193603E+03  0.11749142125E+04  0.18527049102E+04  0.10100000352E+00 0.  1.
       -3    1    3    3    0  502 -0.13456753682E+04  0.49117193603E+03 -0.75360492489E+03  0.16186452546E+04  0.10100000352E+00 0. -1.
</event>
<event>
 5   0  0.4811500E-07  0.3644871E+04  0.7818609E-02  0.8080290E-01
       -1   -1    0    0    0  501  0.00000000000E+00  0.00000000000E+00  0.31379708083E+04  0.31379708083E+04  0.50400001928E-02 0. -1.
        1   -1    0    0  501    0  0.00000000000E+00  0.00000000000E+00 -0.10584138248E+04  0.10584138248E+04  0.50400001928E-02 0.  1.
    10030    2    1    2    0    0  0.00000000000E+00  0.00000000000E+00  0.20795569835E+04  0.41963846331E+04  0.36448712928E+04 0.  0.
        5    1    3    3  502    0  0.14578591181E+04  0.91133573813E+03  0.17356927035E+04  0.24430590019E+04  0.46999998093E+01 0.  1.
       -5    1    3    3    0  502 -0.14578591181E+04 -0.91133573813E+03  0.34386427999E+03  0.17533256312E+04  0.46999998093E+01 0. -1.
</event>
<event>
 5   0  0.4811500E-07  0.3678937E+04  0.7818609E-02  0.8072646E-01
       -1   -1    0    0    0  501  0.00000000000E+00  0.00000000000E+00  0.16500069428E+04  0.16500069428E+04  0.50400001928E-02 0.  1.
        1   -1    0    0  501    0  0.00000000000E+00  0.00000000000E+00 -0.20506846588E+04  0.20506846588E+04  0.50400001928E-02 0. -1.
    10030    2    1    2    0    0  0.00000000000E+00  0.00000000000E+00 -0.40067771592E+03  0.37006916016E+04  0.36789367619E+04 0.  0.
        4    1    3    3  502    0 -0.89134879526E+03 -0.40783046670E+03  0.13654045948E+04  0.16808211341E+04  0.12699999809E+01 0.  1.
       -4    1    3    3    0  502  0.89134879526E+03  0.40783046670E+03 -0.17660823107E+04  0.20198704675E+04  0.12699999809E+01 0. -1.
</event>
<event>
 5   0  0.4811500E-07  0.3564645E+04  0.7818609E-02  0.8098639E-01
        1   -1    0    0  501    0  0.00000000000E+00  0.00000000000E+00  0.14195189095E+04  0.14195189095E+04  0.50400001928E-02 0.  1.
       -1   -1    0    0    0  501  0.00000000000E+00  0.00000000000E+00 -0.22378516914E+04  0.22378516914E+04  0.50400001928E-02 0. -1.
    10030    2    1    2    0    0  0.00000000000E+00  0.00000000000E+00 -0.81833278190E+03  0.36573706009E+04  0.35646446064E+04 0.  0.
        3    1    3    3  502    0  0.58670073761E+03 -0.67082610723E+03  0.11745025126E+04  0.14743410677E+04  0.10100000352E+00 0.  1.
       -3    1    3    3    0  502 -0.58670073761E+03  0.67082610723E+03 -0.19928352945E+04  0.21830295332E+04  0.10100000352E+00 0. -1.
</event>
<event>
 5   0  0.4811500E-07  0.3640079E+04  0.7818609E-02  0.8081372E-01
        1   -1    0    0  501    0  0.00000000000E+00  0.00000000000E+00  0.25718266641E+04  0.25718266641E+04  0.50400001928E-02 0.  1.
       -1   -1    0    0    0  501  0.00000000000E+00  0.00000000000E+00 -0.12880120974E+04  0.12880120974E+04  0.50400001928E-02 0. -1.
    10030    2    1    2    0    0  0.00000000000E+00  0.00000000000E+00  0.12838145667E+04  0.38598387615E+04  0.36400790408E+04 0.  0.
        3    1    3    3  502    0  0.10266403773E+04 -0.92362721410E+02 -0.94865903059E+03  0.14008837579E+04  0.10100000352E+00 0. -1.
       -3    1    3    3    0  502 -0.10266403773E+04  0.92362721410E+02  0.22324735973E+04  0.24589550035E+04  0.10100000352E+00 0.  1.
</event>
<event>
 5   0  0.4811500E-07  0.3582433E+04  0.7818609E-02  0.8094528E-01
       -1   -1    0    0    0  501  0.00000000000E+00  0.00000000000E+00  0.11831267204E+04  0.11831267204E+04  0.50400001928E-02 0.  1.
        1   -1    0    0  501    0  0.00000000000E+00  0.00000000000E+00 -0.27118447359E+04  0.27118447359E+04  0.50400001928E-02 0. -1.
    10030    2    1    2    0    0  0.00000000000E+00  0.00000000000E+00 -0.15287180156E+04  0.38949714563E+04  0.35824326755E+04 0.  0.
        4    1    3    3  502    0  0.14630628893E+04  0.10019122298E+04 -0.10395692053E+04  0.20555016127E+04  0.12699999809E+01 0. -1.
       -4    1    3    3    0  502 -0.14630628893E+04 -0.10019122298E+04 -0.48914881031E+03  0.18394698437E+04  0.12699999809E+01 0.  1.
</event>
<event>
 5   0  0.4811500E-07  0.3566351E+04  0.7818609E-02  0.8098243E-01
        1   -1    0    0  501    0  0.00000000000E+00  0.00000000000E+00  0.24658165101E+04  0.24658165101E+04  0.50400001928E-02 0. -1.
       -1   -1    0    0    0  501  0.00000000000E+00  0.00000000000E+00 -0.12895180756E+04  0.12895180756E+04  0.50400001928E-02 0.  1.
    10030    2    1    2    0    0  0.00000000000E+00  0.00000000000E+00  0.11762984345E+04  0.37553345857E+04  0.35663510544E+04 0.  0.
        3    1    3    3  502    0  0.81825409662E+03 -0.34246508866E+03  0.22170182694E+04  0.23878844445E+04  0.10100000352E+00 0. -1.
       -3    1    3    3    0  502 -0.81825409662E+03  0.34246508866E+03 -0.10407198349E+04  0.13674501411E+04  0.10100000352E+00 0.  1.
</event>
<event>
 5   0  0.5071661E-07  0.3572873E+04  0.7818609E-02  0.8096734E-01
        1   -1    0    0  501    0  0.00000000000E+00  0.00000000000E+00  0.27381142224E+04  0.27381142224E+04  0.50400001928E-02 0.  1.
       -1   -1    0    0    0  501  0.00000000000E+00  0.00000000000E+00 -0.11655300769E+04  0.11655300770E+04  0.50400001928E-02 0. -1.
    10030    2    1    2    0    0  0.00000000000E+00  0.00000000000E+00  0.15725841455E+04  0.39036442994E+04  0.35728725028E+04 0.  0.
        1    1    3    3  502    0  0.11409482490E+04  0.13211943836E+04  0.12009497528E+04  0.21188671065E+04  0.50400001928E-02 0. -1.
       -1    1    3    3    0  502 -0.11409482490E+04 -0.13211943836E+04  0.37163439266E+03  0.17847771929E+04  0.50400001928E-02 0.  1.
</event>
<event>
 5   0  0.4811500E-07  0.3597144E+04  0.7818609E-02  0.8091146E-01
        1   -1    0    0  501    0  0.00000000000E+00  0.00000000000E+00  0.26025886072E+04  0.26025886073E+04  0.50400001928E-02 0.  1.
       -1   -1    0    0    0  501  0.00000000000E+00  0.00000000000E+00 -0.12429399235E+04  0.12429399235E+04  0.50400001928E-02 0. -1.
    10030    2    1    2    0    0  0.00000000000E+00  0.00000000000E+00  0.13596486837E+04  0.38455285308E+04  0.35971440252E+04 0.  0.
        5    1    3    3  502    0  0.11515685039E+04 -0.73126433318E+03  0.19329328462E+04  0.23658210039E+04  0.46999998093E+01 0.  1.
       -5    1    3    3    0  502 -0.11515685039E+04  0.73126433318E+03 -0.57328416252E+03  0.14797075269E+04  0.46999998093E+01 0. -1.
</event>
<event>
 5   0  0.1505671E-06  0.3683166E+04  0.7818609E-02  0.8071703E-01
        2   -1    0    0  501    0  0.00000000000E+00  0.00000000000E+00  0.17891058903E+04  0.17891058903E+04  0.25500000920E-02 0. -1.
       -2   -1    0    0    0  501  0.00000000000E+00  0.00000000000E+00 -0.18955989171E+04  0.18955989171E+04  0.25500000920E-02 0.  1.
    10030    2    1    2    0    0  0.00000000000E+00  0.00000000000E+00 -0.10649302679E+03  0.36847048075E+04  0.36831655887E+04 0.  0.
        3    1    3    3  502    0  0.78861323321E+03  0.26638800759E+03 -0.16966605615E+04  0.18898493256E+04  0.10100000352E+00 0.  1.
       -3    1    3    3    0  502 -0.78861323321E+03 -0.26638800759E+03  0.15901675347E+04  0.17948554819E+04  0.10100000352E+00 0. -1.
</event>
<event>
 5   0  0.1468942E-06  0.3592220E+04  0.7818609E-02  0.8092276E-01
       -2   -1    0    0    0  501  0.00000000000E+00  0.00000000000E+00  0.16155556260E+04  0.16155556260E+04  0.25500000920E-02 0. -1.
        2   -1    0    0  501    0  0.00000000000E+00  0.00000000000E+00 -0.19968435097E+04  0.19968435097E+04  0.25500000920E-02 0.  1.
    10030    2    1    2    0    0  0.00000000000E+00  0.00000000000E+00 -0.38128788369E+03  0.36123991357E+04  0.35922203531E+04 0.  0.
        2    1    3    3  502    0 -0.16814326640E+04  0.11920879081E+03 -0.81427690041E+03  0.18720238807E+04  0.25500000920E-02 0.  1.
       -2    1    3    3    0  502  0.16814326640E+04 -0.11920879081E+03  0.43298901672E+03  0.17403752549E+04  0.25500000920E-02 0. -1.
</event>
<event>
 5   0  0.4811500E-07  0.3610892E+04  0.7818609E-02  0.8088001E-01
       -1   -1    0    0    0  501  0.00000000000E+00  0.00000000000E+00  0.16828871700E+04  0.16828871700E+04  0.50400001928E-02 0.  1.
        1   -1    0    0  501    0  0.00000000000E+00  0.00000000000E+00 -0.19369307754E+04  0.19369307754E+04  0.50400001928E-02 0. -1.
    10030    2    1    2    0    0  0.00000000000E+00  0.00000000000E+00 -0.25404360533E+03  0.36198179454E+04  0.36108923834E+04 0.  0.
        5    1    3    3  502    0 -0.20357148513E+03  0.27654462674E+03  0.16498423841E+04  0.16852062968E+04  0.46999998093E+01 0.  1.
       -5    1    3    3    0  502  0.20357148513E+03 -0.27654462674E+03 -0.19038859895E+04  0.19346116486E+04  0.46999998093E+01 0. -1.
</event>
<event>
 5   0  0.1444091E-06  0.3596636E+04  0.7818609E-02  0.8091263E-01
        2   -1    0    0  501    0  0.00000000000E+00  0.00000000000E+00  0.23235192970E+04  0.23235192970E+04  0.25500000920E-02 0.  1.
       -2   -1    0    0    0  501  0.00000000000E+00  0.00000000000E+00 -0.13918313482E+04  0.13918313482E+04  0.25500000920E-02 0. -1.
    10030    2    1    2    0    0  0.00000000000E+00  0.00000000000E+00  0.93168794879E+03  0.37153506452E+04  0.35966356478E+04 0.  0.
        1    1    3    3  502    0 -0.19536670081E+03 -0.70239172031E+03  0.21640100690E+04  0.22835196201E+04  0.50400001928E-02 0.  1.
       -1    1    3    3    0  502  0.19536670081E+03  0.70239172031E+03 -0.12323221202E+04  0.14318310251E+04  0.50400001928E-02 0. -1.
</event>
<event>
 5   0  0.1444091E-06  0.3176062E+04  0.7818609E-02  0.8195168E-01
        2   -1    0    0  501    0  0.00000000000E+00  0.00000000000E+00  0.17751951731E+04  0.17751951731E+04  0.25500000920E-02 0. -1.
       -2   -1    0    0    0  501  0.00000000000E+00  0.00000000000E+00 -0.14205999010E+04  0.14205999010E+04  0.25500000920E-02 0.  1.
    10030    2    1    2    0    0  0.00000000000E+00  0.00000000000E+00  0.35459527204E+03  0.31957950741E+04  0.31760617671E+04 0.  0.
        1    1    3    3  502    0  0.67739150518E+03  0.32817588847E+02 -0.12675578047E+04  0.14375809660E+04  0.50400001928E-02 0.  1.
       -1    1    3    3    0  502 -0.67739150518E+03 -0.32817588847E+02  0.16221530768E+04  0.17582141081E+04  0.50400001928E-02 0. -1.
</event>
<event>
 5   0  0.1379425E-06  0.3562013E+04  0.7818609E-02  0.8099249E-01
        2   -1    0    0  501    0  0.00000000000E+00  0.00000000000E+00  0.20103089613E+04  0.20103089613E+04  0.25500000920E-02 0. -1.
       -2   -1    0    0    0  501  0.00000000000E+00  0.00000000000E+00 -0.15778592176E+04  0.15778592176E+04  0.25500000920E-02 0.  1.
    10030    2    1    2    0    0  0.00000000000E+00  0.00000000000E+00  0.43244974371E+03  0.35881681790E+04  0.35620132088E+04 0.  0.
        4    1    3    3  502    0 -0.80292544754E+03  0.10154602547E+04 -0.10159221364E+04  0.16455844564E+04  0.12699999809E+01 0.  1.
       -4    1    3    3    0  502  0.80292544754E+03 -0.10154602547E+04  0.14483718801E+04  0.19425837226E+04  0.12699999809E+01 0. -1.
</event>
<event>
 5   0  0.1468942E-06  0.3610866E+04  0.7818609E-02  0.8088007E-01
        2   -1    0    0  501    0  0.00000000000E+00  0.00000000000E+00  0.26880135371E+04  0.26880135371E+04  0.25500000920E-02 0.  1.
       -2   -1    0    0    0  501  0.00000000000E+00  0.00000000000E+00 -0.12126382347E+04  0.12126382347E+04  0.25500000920E-02 0. -1.
    10030    2    1    2    0    0  0.00000000000E+00  0.00000000000E+00  0.14753753024E+04  0.39006517718E+04  0.36108658189E+04 0.  0.
        2    1    3    3  502    0  0.13973673530E+03 -0.17089038703E+04  0.13484937932E+04  0.21813560699E+04  0.25500000920E-02 0. -1.
       -2    1    3    3    0  502 -0.13973673530E+03  0.17089038703E+04  0.12688150918E+03  0.17192957019E+04  0.25500000920E-02 0.  1.
</event>
<event>
 5   0  0.4811500E-07  0.2240997E+04  0.7818609E-02  0.8501555E-01
        1   -1    0    0  501    0  0.00000000000E+00  0.00000000000E+00  0.18249103828E+04  0.18249103828E+04  0.50400001928E-02 0. -1.
       -1   -1    0    0    0  501  0.00000000000E+00  0.00000000000E+00 -0.68798849932E+03  0.68798849934E+03  0.50400001928E-02 0.  1.
    10030    2    1    2    0    0  0.00000000000E+00  0.00000000000E+00  0.11369218834E+04  0.25128988821E+04  0.22409974169E+04 0.  0.
        5    1    3    3  502    0 -0.98712656382E+02  0.38812935887E+03  0.17419035965E+04  0.17873552577E+04  0.46999998093E+01 0. -1.
       -5    1    3    3    0  502  0.98712656382E+02 -0.38812935887E+03 -0.60498171308E+03  0.72554362439E+03  0.46999998093E+01 0.  1.
</event>
<event>
 5   0  0.1468942E-06  0.3612826E+04  0.7818609E-02  0.8087560E-01
        2   -1    0    0  501    0  0.00000000000E+00  0.00000000000E+00  0.21669548835E+04  0.21669548835E+04  0.25500000920E-02 0. -1.
       -2   -1    0    0    0  501  0.00000000000E+00  0.00000000000E+00 -0.15058586457E+04  0.15058586457E+04  0.25500000920E-02 0.  1.
    10030    2    1    2    0    0  0.00000000000E+00  0.00000000000E+00  0.66109623781E+03  0.36728135292E+04  0.36128259001E+04 0.  0.
        2    1    3    3  502    0  0.42762935790E+03 -0.10273273863E+04 -0.11160545883E+04  0.15760222937E+04  0.25500000920E-02 0.  1.
       -2    1    3    3    0  502 -0.42762935790E+03  0.10273273863E+04  0.17771508261E+04  0.20967912354E+04  0.25500000920E-02 0. -1.
</event>
<event>
 5   0  0.4811500E-07  0.3581142E+04  0.7818609E-02  0.8094825E-01
        1   -1    0    0  501    0  0.00000000000E+00  0.00000000000E+00  0.11663775413E+04  0.11663775413E+04  0.50400001928E-02 0. -1.
       -1   -1    0    0    0  501  0.00000000000E+00  0.00000000000E+00 -0.27488046675E+04  0.27488046675E+04  0.50400001928E-02 0.  1.
    10030    2    1    2    0    0  0.00000000000E+00  0.00000000000E+00 -0.15824271262E+04  0.39151822087E+04  0.35811417339E+04 0.  0.
        5    1    3    3  502    0  0.13307600719E+04  0.11712410399E+04 -0.10664808083E+04  0.20688478308E+04  0.46999998093E+01 0.  1.
       -5    1    3    3    0  502 -0.13307600719E+04 -0.11712410399E+04 -0.51594631787E+03  0.18463343780E+04  0.46999998093E+01 0. -1.
</event>
<event>
 5   0  0.4811500E-07  0.3176905E+04  0.7818609E-02  0.8194943E-01
       -1   -1    0    0    0  501  0.00000000000E+00  0.00000000000E+00  0.14759724161E+04  0.14759724161E+04  0.50400001928E-02 0.  1.
        1   -1    0    0  501    0  0.00000000000E+00  0.00000000000E+00 -0.17095042348E+04  0.17095042348E+04  0.50400001928E-02 0. -1.
    10030    2    1    2    0    0  0.00000000000E+00  0.00000000000E+00 -0.23353181871E+03  0.31854766510E+04  0.31769048433E+04 0.  0.
        2    1    3    3  502    0  0.41580865081E+02 -0.62075382379E+03  0.13487236172E+04  0.14853012064E+04  0.25500000920E-02 0.  1.
       -2    1    3    3    0  502 -0.41580865081E+02  0.62075382379E+03 -0.15822554359E+04  0.17001754446E+04  0.25500000920E-02 0. -1.
</event>
<event>
 5   0  0.4811500E-07  0.3599902E+04  0.7818609E-02  0.8090514E-01
       -1   -1    0    0    0  501  0.00000000000E+00  0.00000000000E+00  0.12359864462E+04  0.12359864462E+04  0.50400001928E-02 0.  1.
        1   -1    0    0  501    0  0.00000000000E+00  0.00000000000E+00 -0.26212449293E+04  0.26212449293E+04  0.50400001928E-02 0. -1.
    10030    2    1    2    0    0  0.00000000000E+00  0.00000000000E+00 -0.13852584831E+04  0.38572313755E+04  0.35999017791E+04 0.  0.
        2    1    3    3  502    0 -0.64195862788E+03  0.15598359565E+04 -0.19533490573E+02  0.16868848948E+04  0.25500000920E-02 0.  1.
       -2    1    3    3    0  502  0.64195862788E+03 -0.15598359565E+04 -0.13657249925E+04  0.21703464807E+04  0.25500000920E-02 0. -1.
</event>
<event>
 5   0  0.4811500E-07  0.3392131E+04  0.7818609E-02  0.8139840E-01
       -1   -1    0    0    0  501  0.00000000000E+00  0.00000000000E+00  0.12582493036E+04  0.12582493036E+04  0.50400001928E-02 0. -1.
        1   -1    0    0  501    0  0.00000000000E+00  0.00000000000E+00 -0.22862230018E+04  0.22862230018E+04  0.50400001928E-02 0.  1.
    10030    2    1    2    0    0  0.00000000000E+00  0.00000000000E+00 -0.10279736981E+04  0.35444723054E+04  0.33921311884E+04 0.  0.
        2    1    3    3  502    0 -0.13515047946E+04 -0.79282691119E+03 -0.11923732101E+04  0.19689828829E+04  0.25500000920E-02 0.  1.
       -2    1    3    3    0  502  0.13515047946E+04  0.79282691119E+03  0.16439951195E+03  0.15754894225E+04  0.25500000920E-02 0. -1.
</event>
<event>
 5   0  0.1444091E-06  0.3388988E+04  0.7818609E-02  0.8140614E-01
        2   -1    0    0  501    0  0.00000000000E+00  0.00000000000E+00  0.21521090505E+04  0.21521090505E+04  0.25500000920E-02 0. -1.
       -2   -1    0    0    0  501  0.00000000000E+00  0.00000000000E+00 -0.13341842898E+04  0.13341842898E+04  0.25500000920E-02 0.  1.
    10030    2    1    2    0    0  0.00000000000E+00  0.00000000000E+00  0.81792476070E+03  0.34862933404E+04  0.33889880999E+04 0.  0.
        1    1    3    3  502    0 -0.10312274254E+04 -0.32229357280E+03 -0.93389398292E+03  0.14280970280E+04  0.50400001928E-02 0.  1.
       -1    1    3    3    0  502  0.10312274254E+04  0.32229357280E+03  0.17518187436E+04  0.20581963124E+04  0.50400001928E-02 0. -1.
</event>
<event>
 5   0  0.1379425E-06  0.3458501E+04  0.7818609E-02  0.8123696E-01
        2   -1    0    0  501    0  0.00000000000E+00  0.00000000000E+00  0.18976838558E+04  0.18976838558E+04  0.25500000920E-02 0. -1.
       -2   -1    0    0    0  501  0.00000000000E+00  0.00000000000E+00 -0.15757670650E+04  0.15757670650E+04  0.25500000920E-02 0.  1.
    10030    2    1    2    0    0  0.00000000000E+00  0.00000000000E+00  0.32191679079E+03  0.34734509209E+04  0.34585012476E+04 0.  0.
        4    1    3    3  502    0  0.12312735043E+04  0.10141980330E+04  0.83143231088E+03  0.17988644732E+04  0.12699999809E+01 0. -1.
       -4    1    3    3    0  502 -0.12312735043E+04 -0.10141980330E+04 -0.50951552008E+03  0.16745864477E+04  0.12699999809E+01 0.  1.
</event>
<event>
 5   0  0.4811500E-07  0.3565660E+04  0.7818609E-02  0.8098403E-01
        1   -1    0    0  501    0  0.00000000000E+00  0.00000000000E+00  0.18232676853E+04  0.18232676853E+04  0.50400001928E-02 0.  1.
       -1   -1    0    0    0  501  0.00000000000E+00  0.00000000000E+00 -0.17432896076E+04  0.17432896076E+04  0.50400001928E-02 0. -1.
    10030    2    1    2    0    0  0.00000000000E+00  0.00000000000E+00  0.79978077661E+02  0.35665572929E+04  0.35656604481E+04 0.  0.
        3    1    3    3  502    0  0.14199461609E+04 -0.61900581808E+02 -0.10365738340E+04  0.17591373186E+04  0.10100000352E+00 0. -1.
       -3    1    3    3    0  502 -0.14199461609E+04  0.61900581808E+02  0.11165519117E+04  0.18074199744E+04  0.10100000352E+00 0.  1.
</event>
<event>
 5   0  0.1505671E-06  0.3448301E+04  0.7818609E-02  0.8126152E-01
        2   -1    0    0  501    0  0.00000000000E+00  0.00000000000E+00  0.23545264065E+04  0.23545264065E+04  0.25500000920E-02 0.  1.
       -2   -1    0    0    0  501  0.00000000000E+00  0.00000000000E+00 -0.12625444920E+04  0.12625444920E+04  0.25500000920E-02 0. -1.
    10030    2    1    2    0    0  0.00000000000E+00  0.00000000000E+00  0.10919819145E+04  0.36170708985E+04  0.34483006515E+04 0.  0.
        3    1    3    3  502    0  0.42470140859E+03 -0.32082934910E+03  0.22661908551E+04  0.23278581914E+04  0.10100000352E+00 0.  1.
       -3    1    3    3    0  502 -0.42470140859E+03  0.32082934910E+03 -0.11742089405E+04  0.12892127070E+04  0.10100000352E+00 0. -1.
</event>
<event>
 5   0  0.4811500E-07  0.3670726E+04  0.7818609E-02  0.8074480E-01
        1   -1    0    0  501    0  0.00000000000E+00  0.00000000000E+00  0.23991111872E+04  0.23991111872E+04  0.50400001928E-02 0. -1.
       -1   -1    0    0    0  501  0.00000000000E+00  0.00000000000E+00 -0.14040853910E+04  0.14040853911E+04  0.50400001928E-02 0.  1.
    10030    2    1    2    0    0  0.00000000000E+00  0.00000000000E+00  0.99502579617E+03  0.38031965783E+04  0.36707257972E+04 0.  0.
        3    1    3    3  502    0  0.34479544484E+03  0.15178523884E+04 -0.51010492023E+03  0.16379764381E+04  0.10100000352E+00 0. -1.
       -3    1    3    3    0  502 -0.34479544484E+03 -0.15178523884E+04  0.15051307164E+04  0.21652201402E+04  0.10100000352E+00 0.  1.
</event>
<event>
 5   0  0.4811500E-07  0.3040145E+04  0.7818609E-02  0.8232359E-01
       -1   -1    0    0    0  501  0.00000000000E+00  0.00000000000E+00  0.14287267122E+04  0.14287267122E+04  0.50400001928E-02 0.  1.
        1   -1    0    0  501    0  0.00000000000E+00  0.00000000000E+00 -0.16172586900E+04  0.16172586900E+04  0.50400001928E-02 0. -1.
    10030    2    1    2    0    0  0.00000000000E+00  0.00000000000E+00 -0.18853197785E+03  0.30459854022E+04  0.30401451879E+04 0.  0.
        2    1    3    3  502    0  0.70183024344E+03  0.43998310306E+03 -0.13712613606E+04  0.16020326279E+04  0.25500000920E-02 0. -1.
       -2    1    3    3    0  502 -0.70183024344E+03 -0.43998310306E+03  0.11827293828E+04  0.14439527743E+04  0.25500000920E-02 0.  1.
</event>
<event>
 5   0  0.1468942E-06  0.3505669E+04  0.7818609E-02  0.8112448E-01
       -2   -1    0    0    0  501  0.00000000000E+00  0.00000000000E+00  0.19115332198E+04  0.19115332198E+04  0.25500000920E-02 0. -1.
        2   -1    0    0  501    0  0.00000000000E+00  0.00000000000E+00 -0.16073112022E+04  0.16073112022E+04  0.25500000920E-02 0.  1.
    10030    2    1    2    0    0  0.00000000000E+00  0.00000000000E+00  0.30422201764E+03  0.35188444220E+04  0.35056689847E+04 0.  0.
        2    1    3    3  502    0 -0.18185746075E+03 -0.25342834146E+03 -0.15792282782E+04  0.16097391139E+04  0.25500000920E-02 0.  1.
       -2    1    3    3    0  502  0.18185746075E+03  0.25342834146E+03  0.18834502958E+04  0.19091053080E+04  0.25500000920E-02 0. -1.
</event>
<event>
 5   0  0.4811500E-07  0.3745064E+04  0.7818609E-02  0.8058048E-01
        1   -1    0    0  501    0  0.00000000000E+00  0.00000000000E+00  0.21989940905E+04  0.21989940905E+04  0.50400001928E-02 0.  1.
       -1   -1    0    0    0  501  0.00000000000E+00  0.00000000000E+00 -0.15945361012E+04  0.15945361012E+04  0.50400001928E-02 0. -1.
    10030    2    1    2    0    0  0.00000000000E+00  0.00000000000E+00  0.60445798932E+03  0.37935301918E+04  0.37450636650E+04 0.  0.
        5    1    3    3  502    0 -0.44181113885E+03  0.44881731538E+03 -0.14840320825E+04  0.16121437209E+04  0.46999998093E+01 0. -1.
       -5    1    3    3    0  502  0.44181113885E+03 -0.44881731538E+03  0.20884900718E+04  0.21813864708E+04  0.46999998093E+01 0.  1.
</event>
<event>
 5   0  0.5071661E-07  0.3526993E+04  0.7818609E-02  0.8107422E-01
       -1   -1    0    0    0  501  0.00000000000E+00  0.00000000000E+00  0.17434971863E+04  0.17434971863E+04  0.50400001928E-02 0. -1.
        1   -1    0    0  501    0  0.00000000000E+00  0.00000000000E+00 -0.17837256310E+04  0.17837256310E+04  0.50400001928E-02 0.  1.
    10030    2    1    2    0    0  0.00000000000E+00  0.00000000000E+00 -0.40228444663E+02  0.35272228173E+04  0.35269934044E+04 0.  0.
        1    1    3    3  502    0  0.18818787347E+03 -0.87145571240E+03  0.15015204451E+04  0.17462569632E+04  0.50400001928E-02 0. -1.
       -1    1    3    3    0  502 -0.18818787347E+03  0.87145571240E+03 -0.15417488897E+04  0.17809658541E+04  0.50400001928E-02 0.  1.
</event>
<event>
 5   0  0.1379425E-06  0.2375815E+04  0.7818609E-02  0.8448614E-01
        2   -1    0    0  501    0  0.00000000000E+00  0.00000000000E+00  0.10937624922E+04  0.10937624922E+04  0.25500000920E-02 0.  1.
       -2   -1    0    0    0  501  0.00000000000E+00  0.00000000000E+00 -0.12901554881E+04  0.12901554881E+04  0.25500000920E-02 0. -1.
    10030    2    1    2    0    0  0.00000000000E+00  0.00000000000E+00 -0.19639299588E+03  0.23839179803E+04  0.23758145399E+04 0.  0.
        4    1    3    3  502    0 -0.29391624880E+03  0.28535291370E+03  0.10206443559E+04  0.10997861432E+04  0.12699999809E+01 0.  1.
       -4    1    3    3    0  502  0.29391624880E+03 -0.28535291370E+03 -0.12170373517E+04  0.12841318371E+04  0.12699999809E+01 0. -1.
</event>
<event>
 5   0  0.5071661E-07  0.3635687E+04  0.7818609E-02  0.8082366E-01
        1   -1    0    0  501    0  0.00000000000E+00  0.00000000000E+00  0.19459599337E+04  0.19459599337E+04  0.50400001928E-02 0.  1.
       -1   -1    0    0    0  501  0.00000000000E+00  0.00000000000E+00 -0.16981623484E+04  0.16981623485E+04  0.50400001928E-02 0. -1.
    10030    2    1    2    0    0  0.00000000000E+00  0.00000000000E+00  0.24779758527E+03  0.36441222822E+04  0.36356874954E+04 0.  0.
        1    1    3    3  502    0  0.14221092788E+03  0.84510885172E+03 -0.14829808432E+04  0.17127945296E+04  0.50400001928E-02 0. -1.
       -1    1    3    3    0  502 -0.14221092788E+03 -0.84510885172E+03  0.17307784285E+04  0.19313277526E+04  0.50400001928E-02 0.  1.
</event>
<event>
 5   0  0.1379425E-06  0.3463082E+04  0.7818609E-02  0.8122595E-01
        2   -1    0    0  501    0  0.00000000000E+00  0.00000000000E+00  0.26463670456E+04  0.26463670456E+04  0.25500000920E-02 0. -1.
       -2   -1    0    0    0  501  0.00000000000E+00  0.00000000000E+00 -0.11329624019E+04  0.11329624019E+04  0.25500000920E-02 0.  1.
    10030    2    1    2    0    0  0.00000000000E+00  0.00000000000E+00  0.15134046437E+04  0.37793294474E+04  0.34630820748E+04 0.  0.
        4    1    3    3  502    0  0.74322527851E+03  0.89240835294E+03 -0.64489213038E+03  0.13284065476E+04  0.12699999809E+01 0.  1.
       -4    1    3    3    0  502 -0.74322527851E+03 -0.89240835294E+03  0.21582967741E+04  0.24509228998E+04  0.12699999809E+01 0. -1.
</event>
<event>
 5   0  0.1491854E-06  0.3206084E+04  0.7818609E-02  0.8187212E-01
        2   -1    0    0  501    0  0.00000000000E+00  0.00000000000E+00  0.21149563063E+04  0.21149563063E+04  0.25500000920E-02 0.  1.
       -2   -1    0    0    0  501  0.00000000000E+00  0.00000000000E+00 -0.12150338488E+04  0.12150338488E+04  0.25500000920E-02 0. -1.
    10030    2    1    2    0    0  0.00000000000E+00  0.00000000000E+00  0.89992245752E+03  0.33299901551E+04  0.32060839046E+04 0.  0.
        5    1    3    3  502    0 -0.14552393050E+04  0.85980458323E+02  0.11425195923E+04  0.18521574401E+04  0.46999998093E+01 0.  1.
       -5    1    3    3    0  502  0.14552393050E+04 -0.85980458323E+02 -0.24259713480E+03  0.14778327151E+04  0.46999998093E+01 0. -1.
</event>
<event>
 5   0  0.4811500E-07  0.3646510E+04  0.7818609E-02  0.8079920E-01
       -1   -1    0    0    0  501  0.00000000000E+00  0.00000000000E+00  0.18605097207E+04  0.18605097207E+04  0.50400001928E-02 0.  1.
        1   -1    0    0  501    0  0.00000000000E+00  0.00000000000E+00 -0.17867459353E+04  0.17867459353E+04  0.50400001928E-02 0. -1.
    10030    2    1    2    0    0  0.00000000000E+00  0.00000000000E+00  0.73763785354E+02  0.36472556560E+04  0.36465096633E+04 0.  0.
        4    1    3    3  502    0 -0.13142063705E+03 -0.74364155186E+00 -0.17820017861E+04  0.17868418832E+04  0.12699999809E+01 0. -1.
       -4    1    3    3    0  502  0.13142063705E+03  0.74364155186E+00  0.18557655715E+04  0.18604137728E+04  0.12699999809E+01 0.  1.
</event>
<event>
 5   0  0.1491854E-06  0.3590102E+04  0.7818609E-02  0.8092763E-01
        2   -1    0    0  501    0  0.00000000000E+00  0.00000000000E+00  0.21088063167E+04  0.21088063167E+04  0.25500000920E-02 0.  1.
       -2   -1    0    0    0  501  0.00000000000E+00  0.00000000000E+00 -0.15279771159E+04  0.15279771159E+04  0.25500000920E-02 0. -1.
    10030    2    1    2    0    0  0.00000000000E+00  0.00000000000E+00  0.58082920082E+03  0.36367834326E+04  0.35901018335E+04 0.  0.
        5    1    3    3  502    0 -0.62133657251E+03  0.31076995384E+03 -0.13862653739E+04  0.15506098405E+04  0.46999998093E+01 0. -1.
       -5    1    3    3    0  502  0.62133657251E+03 -0.31076995384E+03  0.19670945747E+04  0.20861735921E+04  0.46999998093E+01 0.  1.
</event>
<event>
 5   0  0.4811500E-07  0.3503656E+04  0.7818609E-02  0.8112924E-01
       -4   -1    0    0    0  501  0.00000000000E+00  0.00000000000E+00  0.18409425321E+04  0.18409429702E+04  0.12699999809E+01 0. -1.
        4   -1    0    0  501    0  0.00000000000E+00  0.00000000000E+00 -0.16670265140E+04  0.16670269978E+04  0.12699999809E+01 0.  1.
    10030    2    1    2    0    0  0.00000000000E+00  0.00000000000E+00  0.17391601807E+03  0.35079699680E+04  0.35036561639E+04 0.  0.
        2    1    3    3  502    0 -0.12677420543E+03 -0.13727274872E+03 -0.16570207140E+04  0.16675230593E+04  0.25500000920E-02 0.  1.
       -2    1    3    3    0  502  0.12677420543E+03  0.13727274872E+03  0.18309367321E+04  0.18404469087E+04  0.25500000920E-02 0. -1.
</event>
<event>
 5   0  0.1468942E-06  0.3275106E+04  0.7818609E-02  0.8169259E-01
       -2   -1    0    0    0  501  0.00000000000E+00  0.00000000000E+00  0.19038366898E+04  0.19038366898E+04  0.25500000920E-02 0.  1.
        2   -1    0    0  501    0  0.00000000000E+00  0.00000000000E+00 -0.14085139130E+04  0.14085139130E+04  0.25500000920E-02 0. -1.
    10030    2    1    2    0    0  0.00000000000E+00  0.00000000000E+00  0.49532277684E+03  0.33123506028E+04  0.32751063895E+04 0.  0.
        2    1    3    3  502    0 -0.58414291626E+03 -0.96279960983E+03 -0.95471240555E+03  0.14763745503E+04  0.25500000920E-02 0. -1.
       -2    1    3    3    0  502  0.58414291626E+03  0.96279960983E+03  0.14500351824E+04  0.18359760525E+04  0.25500000920E-02 0.  1.
</event>
<event>
 5   0  0.4811500E-07  0.3612550E+04  0.7818609E-02  0.8087623E-01
        1   -1    0    0  501    0  0.00000000000E+00  0.00000000000E+00  0.22404063294E+04  0.22404063294E+04  0.50400001928E-02 0.  1.
       -1   -1    0    0    0  501  0.00000000000E+00  0.00000000000E+00 -0.14562670084E+04  0.14562670084E+04  0.50400001928E-02 0. -1.
    10030    2    1    2    0    0  0.00000000000E+00  0.00000000000E+00  0.78413932094E+03  0.36966733378E+04  0.36125502476E+04 0.  0.
        3    1    3    3  502    0 -0.11061764054E+04 -0.12227261901E+04 -0.36263037183E+03  0.16882494995E+04  0.10100000352E+00 0. -1.
       -3    1    3    3    0  502  0.11061764054E+04  0.12227261901E+04  0.11467696928E+04  0.20084238383E+04  0.10100000352E+00 0.  1.
</event>
</LesHouchesEvents>
