<LesHouchesEvents version="3.0">
<header>
<!--
#*********************************************************************
#                                                                    *
#                        MadGraph5_aMC@NLO                           *
#                                                                    *
#                           Going Beyond                             *
#                                                                    *
#                   http://madgraph.hep.uiuc.edu                     *
#                   http://madgraph.phys.ucl.ac.be                   *
#                   http://amcatnlo.cern.ch                          *
#                                                                    *
#                     The MadGraph5_aMC@NLO team                     *
#                                                                    *
#....................................................................*
#                                                                    *
# This file contains all the information necessary to reproduce      *
# the events generated:                                              *
#                                                                    *
# 1. software version                                                *
# 2. proc_card          : code generation info including model       *
# 3. param_card         : model primary parameters in the LH format  *
# 4. run_card           : running parameters (collider and cuts)     *
# 5. pythia_card        : present only if pythia has been run        *
# 6. pgs_card           : present only if pgs has been run           *
# 7. delphes_cards      : present only if delphes has been run       *
#                                                                    *
#                                                                    *
#*********************************************************************
-->
<MGVersion>
#5.2.2.3
</MGVersion>
<MG5ProcCard>
#************************************************************
#*                     MadGraph5_aMC@NLO                    *
#*                                                          *
#*                *                       *                 *
#*                  *        * *        *                   *
#*                    * * * * 5 * * * *                     *
#*                  *        * *        *                   *
#*                *                       *                 *
#*                                                          *
#*                                                          *
#*         VERSION 2.2.3                 2015-02-10         *
#*                                                          *
#*    The MadGraph5_aMC@NLO Development Team - Find us at   *
#*    https://server06.fynu.ucl.ac.be/projects/madgraph     *
#*                                                          *
#************************************************************
#*                                                          *
#*               Command File for MadGraph5_aMC@NLO         *
#*                                                          *
#*     run as ./bin/mg5_aMC  filename                       *
#*                                                          *
#************************************************************
set group_subprocesses Auto
set ignore_six_quark_processes False
set loop_optimized_output True
set gauge unitary
set complex_mass_scheme False
import model sm
define p = g u c d s u~ c~ d~ s~
define j = g u c d s u~ c~ d~ s~
define l+ = e+ mu+
define l- = e- mu-
define vl = ve vm vt
define vl~ = ve~ vm~ vt~
import model Zprime_UFO
generate p p > zph, zph > j j
add process p p > zph, zph > b b~
output Dijet_signal
</MG5ProcCard>
<MGProcCard>
#*********************************************************************
#                        MadGraph/MadEvent                           *
#                   http://madgraph.hep.uiuc.edu                     *
#                                                                    *
#                          proc_card.dat                             *
#*********************************************************************
#                                                                    *
#            This Files is generated by MADGRAPH 5                   *
#                                                                    *
# WARNING: This Files is generated for MADEVENT (compatibility issue)*
#          This files is NOT a valid MG4 proc_card.dat               *
#          Running this in MG4 will NEVER reproduce the result of MG5*
#                                                                    *
#*********************************************************************
#*********************************************************************
# Process(es) requested : mg2 input                                  *
#*********************************************************************
# Begin PROCESS # This is TAG. Do not modify this line
p p > zph , zph > j j           #Process
# Be carefull the coupling are here in MG5 convention
          
end_coup           # End the couplings input

done               # this tells MG there are no more procs
# End PROCESS  # This is TAG. Do not modify this line
#*********************************************************************
# Model information                                                  *
#*********************************************************************
# Begin MODEL  # This is TAG. Do not modify this line
Zprime_UFO
# End   MODEL  # This is TAG. Do not modify this line
#*********************************************************************
# Start multiparticle definitions                                    *
#*********************************************************************
# Begin MULTIPARTICLES # This is TAG. Do not modify this line

# End  MULTIPARTICLES # This is TAG. Do not modify this line
</MGProcCard>
<MGRunCard>
#*********************************************************************
#                       MadGraph5_aMC@NLO                            *
#                                                                    *
#                     run_card.dat MadEvent                          *
#                                                                    *
#  This file is used to set the parameters of the run.               *
#                                                                    *
#  Some notation/conventions:                                        *
#                                                                    *
#   Lines starting with a '# ' are info or comments                  *
#                                                                    *
#   mind the format:   value    = variable     ! comment             *
#*********************************************************************
#
#*******************                                                 
# Running parameters
#*******************                                                 
#                                                                    
#*********************************************************************
# Tag name for the run (one word)                                    *
#*********************************************************************
  tag_1     = run_tag ! name of the run 
#*********************************************************************
# Run to generate the grid pack                                      *
#*********************************************************************
  .false.     = gridpack  !True = setting up the grid pack
#*********************************************************************
# Number of events and rnd seed                                      *
# Warning: Do not generate more than 1M events in a single run       *
# If you want to run Pythia, avoid more than 50k events in a run.    *
#*********************************************************************
  2000 = nevents ! Number of unweighted events requested 
 1767 = iseed   ! rnd seed (0=assigned automatically=default))
#*********************************************************************
# Collider type and energy                                           *
# lpp: 0=No PDF, 1=proton, -1=antiproton, 2=photon from proton,      *
#                                         3=photon from electron     *
#*********************************************************************
        1     = lpp1    ! beam 1 type 
        1     = lpp2    ! beam 2 type
     4000     = ebeam1  ! beam 1 total energy in GeV
     4000     = ebeam2  ! beam 2 total energy in GeV
#*********************************************************************
# Beam polarization from -100 (left-handed) to 100 (right-handed)    *
#*********************************************************************
        0     = polbeam1 ! beam polarization for beam 1
        0     = polbeam2 ! beam polarization for beam 2
#*********************************************************************
# PDF CHOICE: this automatically fixes also alpha_s and its evol.    *
#*********************************************************************
 'nn23lo1'    = pdlabel     ! PDF set                                     
 230000    = lhaid     ! if pdlabel=lhapdf, this is the lhapdf number
#*********************************************************************
# Renormalization and factorization scales                           *
#*********************************************************************
 F        = fixed_ren_scale  ! if .true. use fixed ren scale
 F        = fixed_fac_scale  ! if .true. use fixed fac scale
 91.1880  = scale            ! fixed ren scale
 91.1880  = dsqrt_q2fact1    ! fixed fact scale for pdf1
 91.1880  = dsqrt_q2fact2    ! fixed fact scale for pdf2
 1        = scalefact        ! scale factor for event-by-event scales
#*********************************************************************
# Matching - Warning! ickkw > 1 is still beta
#*********************************************************************
 0        = ickkw            ! 0 no matching, 1 MLM, 2 CKKW matching
 1        = highestmult      ! for ickkw=2, highest mult group
 1        = ktscheme         ! for ickkw=1, 1 Durham kT, 2 Pythia pTE
 1        = alpsfact         ! scale factor for QCD emission vx
 F        = chcluster        ! cluster only according to channel diag
 T        = pdfwgt           ! for ickkw=1, perform pdf reweighting
 5        = asrwgtflavor     ! highest quark flavor for a_s reweight
 T        = clusinfo         ! include clustering tag in output
 3.0      = lhe_version       ! Change the way clustering information pass to shower.        
#*********************************************************************
#**********************************************************
#
#**********************************************************
# Automatic ptj and mjj cuts if xqcut > 0
# (turn off for VBF and single top processes)
#**********************************************************
   T  = auto_ptj_mjj  ! Automatic setting of ptj and mjj
#**********************************************************
#                                                                    
#**********************************
# BW cutoff (M+/-bwcutoff*Gamma)
#**********************************
  15  = bwcutoff      ! (M+/-bwcutoff*Gamma)
#**********************************************************
# Apply pt/E/eta/dr/mij cuts on decay products or not
# (note that etmiss/ptll/ptheavy/ht/sorted cuts always apply)
#**********************************************************
   T  = cut_decays    ! Cut decay products 
#*************************************************************
# Number of helicities to sum per event (0 = all helicities)
# 0 gives more stable result, but longer run time (needed for
# long decay chains e.g.).
# Use >=2 if most helicities contribute, e.g. pure QCD.
#*************************************************************
   0  = nhel          ! Number of helicities used per event
#*******************                                                 
# Standard Cuts
#*******************                                                 
#                                                                    
#*********************************************************************
# Minimum and maximum pt's (for max, -1 means no cut)                *
#*********************************************************************
 20  = ptj       ! minimum pt for the jets 
  0  = ptb       ! minimum pt for the b 
 10  = pta       ! minimum pt for the photons 
 10  = ptl       ! minimum pt for the charged leptons 
  0  = misset    ! minimum missing Et (sum of neutrino's momenta)
  0  = ptheavy   ! minimum pt for one heavy final state
 1.0 = ptonium   ! minimum pt for the quarkonium states
 -1  = ptjmax    ! maximum pt for the jets
 -1  = ptbmax    ! maximum pt for the b
 -1  = ptamax    ! maximum pt for the photons
 -1  = ptlmax    ! maximum pt for the charged leptons
 -1  = missetmax ! maximum missing Et (sum of neutrino's momenta)
#*********************************************************************
# Minimum and maximum E's (in the center of mass frame)              *
#*********************************************************************
  0  = ej     ! minimum E for the jets 
  0  = eb     ! minimum E for the b 
  0  = ea     ! minimum E for the photons 
  0  = el     ! minimum E for the charged leptons 
 -1   = ejmax ! maximum E for the jets
 -1   = ebmax ! maximum E for the b
 -1   = eamax ! maximum E for the photons
 -1   = elmax ! maximum E for the charged leptons
#*********************************************************************
# Maximum and minimum absolute rapidity (for max, -1 means no cut)   *
#*********************************************************************
   5  = etaj    ! max rap for the jets 
  -1  = etab    ! max rap for the b
 2.5  = etaa    ! max rap for the photons 
 2.5  = etal    ! max rap for the charged leptons 
 0.6  = etaonium ! max rap for the quarkonium states
   0  = etajmin ! min rap for the jets
   0  = etabmin ! min rap for the b
   0  = etaamin ! min rap for the photons
   0  = etalmin ! main rap for the charged leptons
#*********************************************************************
# Minimum and maximum DeltaR distance                                *
#*********************************************************************
 0.4 = drjj    ! min distance between jets 
 0   = drbb    ! min distance between b's 
 0.4 = drll    ! min distance between leptons 
 0.4 = draa    ! min distance between gammas 
 0   = drbj    ! min distance between b and jet 
 0.4 = draj    ! min distance between gamma and jet 
 0.4 = drjl    ! min distance between jet and lepton 
 0   = drab    ! min distance between gamma and b 
 0   = drbl    ! min distance between b and lepton 
 0.4 = dral    ! min distance between gamma and lepton 
 -1  = drjjmax ! max distance between jets
 -1  = drbbmax ! max distance between b's
 -1  = drllmax ! max distance between leptons
 -1  = draamax ! max distance between gammas
 -1  = drbjmax ! max distance between b and jet
 -1  = drajmax ! max distance between gamma and jet
 -1  = drjlmax ! max distance between jet and lepton
 -1  = drabmax ! max distance between gamma and b
 -1  = drblmax ! max distance between b and lepton
 -1  = dralmax ! maxdistance between gamma and lepton
#*********************************************************************
# Minimum and maximum invariant mass for pairs                       *
# WARNING: for four lepton final state mmll cut require to have      *
#          different lepton masses for each flavor!                  *           
#*********************************************************************
 0   = mmjj    ! min invariant mass of a jet pair 
 0   = mmbb    ! min invariant mass of a b pair 
 0   = mmaa    ! min invariant mass of gamma gamma pair
 0   = mmll    ! min invariant mass of l+l- (same flavour) lepton pair
 -1  = mmjjmax ! max invariant mass of a jet pair
 -1  = mmbbmax ! max invariant mass of a b pair
 -1  = mmaamax ! max invariant mass of gamma gamma pair
 -1  = mmllmax ! max invariant mass of l+l- (same flavour) lepton pair
#*********************************************************************
# Minimum and maximum invariant mass for all letpons                 *
#*********************************************************************
 0   = mmnl    ! min invariant mass for all letpons (l+- and vl) 
 -1  = mmnlmax ! max invariant mass for all letpons (l+- and vl) 
#*********************************************************************
# Minimum and maximum pt for 4-momenta sum of leptons                *
#*********************************************************************
 0   = ptllmin  ! Minimum pt for 4-momenta sum of leptons(l and vl)
 -1  = ptllmax  ! Maximum pt for 4-momenta sum of leptons(l and vl)
#*********************************************************************
# Inclusive cuts                                                     *
#*********************************************************************
 0  = xptj ! minimum pt for at least one jet  
 0  = xptb ! minimum pt for at least one b 
 0  = xpta ! minimum pt for at least one photon 
 0  = xptl ! minimum pt for at least one charged lepton 
#*********************************************************************
# Control the pt's of the jets sorted by pt                          *
#*********************************************************************
 0   = ptj1min ! minimum pt for the leading jet in pt
 0   = ptj2min ! minimum pt for the second jet in pt
 0   = ptj3min ! minimum pt for the third jet in pt
 0   = ptj4min ! minimum pt for the fourth jet in pt
 -1  = ptj1max ! maximum pt for the leading jet in pt 
 -1  = ptj2max ! maximum pt for the second jet in pt
 -1  = ptj3max ! maximum pt for the third jet in pt
 -1  = ptj4max ! maximum pt for the fourth jet in pt
 0   = cutuse  ! reject event if fails any (0) / all (1) jet pt cuts
#*********************************************************************
# Control the pt's of leptons sorted by pt                           *
#*********************************************************************
 0   = ptl1min ! minimum pt for the leading lepton in pt
 0   = ptl2min ! minimum pt for the second lepton in pt
 0   = ptl3min ! minimum pt for the third lepton in pt
 0   = ptl4min ! minimum pt for the fourth lepton in pt
 -1  = ptl1max ! maximum pt for the leading lepton in pt 
 -1  = ptl2max ! maximum pt for the second lepton in pt
 -1  = ptl3max ! maximum pt for the third lepton in pt
 -1  = ptl4max ! maximum pt for the fourth lepton in pt
#*********************************************************************
# Control the Ht(k)=Sum of k leading jets                            *
#*********************************************************************
 0   = htjmin ! minimum jet HT=Sum(jet pt)
 -1  = htjmax ! maximum jet HT=Sum(jet pt)
 0   = ihtmin  !inclusive Ht for all partons (including b)
 -1  = ihtmax  !inclusive Ht for all partons (including b)
 0   = ht2min ! minimum Ht for the two leading jets
 0   = ht3min ! minimum Ht for the three leading jets
 0   = ht4min ! minimum Ht for the four leading jets
 -1  = ht2max ! maximum Ht for the two leading jets
 -1  = ht3max ! maximum Ht for the three leading jets
 -1  = ht4max ! maximum Ht for the four leading jets
#***********************************************************************
# Photon-isolation cuts, according to hep-ph/9801442                   *
# When ptgmin=0, all the other parameters are ignored                  *
# When ptgmin>0, pta and draj are not going to be used                 *
#***********************************************************************
   0 = ptgmin ! Min photon transverse momentum
 0.4 = R0gamma ! Radius of isolation code
 1.0 = xn ! n parameter of eq.(3.4) in hep-ph/9801442
 1.0 = epsgamma ! epsilon_gamma parameter of eq.(3.4) in hep-ph/9801442
 .true. = isoEM ! isolate photons from EM energy (photons and leptons)
#*********************************************************************
# WBF cuts                                                           *
#*********************************************************************
 0   = xetamin ! minimum rapidity for two jets in the WBF case  
 0   = deltaeta ! minimum rapidity for two jets in the WBF case 
#*********************************************************************
# KT DURHAM CUT                                                      *
#*********************************************************************
 -1    =  ktdurham        
 0.4  =  dparameter 
#*********************************************************************
# maximal pdg code for quark to be considered as a light jet         *
# (otherwise b cuts are applied)                                     *
#*********************************************************************
 4 = maxjetflavor    ! Maximum jet pdg code
#*********************************************************************
# Jet measure cuts                                                   *
#*********************************************************************
 0   = xqcut   ! minimum kt jet measure between partons
#*********************************************************************
#
#*********************************************************************
# Store info for systematics studies                                 *
# WARNING: If use_syst is T, matched Pythia output is                *
#          meaningful ONLY if plotted taking matchscale              *
#          reweighting into account!                                 *
#*********************************************************************
   F  = use_syst      ! Enable systematics studies
#
#**************************************
# Parameter of the systematics study
#  will be used by SysCalc (if installed)
#**************************************                                  
#
0.5 1 2 = sys_scalefact  # factorization/renormalization scale factor
0.5 1 2 = sys_alpsfact  # \alpha_s emission scale factors
30 50 = sys_matchscale # variation of merging scale
# PDF sets and number of members (0 or none for all members).
CT10nlo.LHgrid = sys_pdf # matching scales
# MSTW2008nlo68cl.LHgrid 1  = sys_pdf
</MGRunCard>
<slha>
######################################################################
## PARAM_CARD AUTOMATICALY GENERATED BY MG5 FOLLOWING UFO MODEL   ####
######################################################################
##                                                                  ##
##  Width set on Auto will be computed following the information    ##
##        present in the decay.py files of the model.               ##
##        See  arXiv:1402.1178 for more details.                    ##
##                                                                  ##
######################################################################

###################################
## INFORMATION FOR CKMBLOCK
###################################
Block ckmblock 
    1 2.277360e-01 # cabi 

###################################
## INFORMATION FOR FRBLOCK
###################################
Block frblock 
    1 8.000000e-01 # gz 

###################################
## INFORMATION FOR MASS
###################################
Block mass 
    1 5.040000e-03 # MD 
    2 2.550000e-03 # MU 
    3 1.010000e-01 # MS 
    4 1.270000e+00 # MC 
    5 4.700000e+00 # MB 
    6 1.720000e+02 # MT 
   11 5.110000e-04 # Me 
   13 1.056600e-01 # MM 
   15 1.777000e+00 # MTA 
   23 9.118760e+01 # MZ 
   25 1.200000e+02 # MH 
  10030 3.800000e+03 # MZph 
  10031 3.000000e+02 # MZpl 
## Dependent parameters, given by model restrictions.
## Those values should be edited following the 
## analytical expression. MG5 ignores those values 
## but they are important for interfacing the output of MG5
## to external program such as Pythia.
  12 0.000000 # ve : 0.0 
  14 0.000000 # vm : 0.0 
  16 0.000000 # vt : 0.0 
  21 0.000000 # g : 0.0 
  22 0.000000 # a : 0.0 
  24 79.824360 # w+ : cmath.sqrt(MZ__exp__2/2. + cmath.sqrt(MZ__exp__4/4. - (aEW*cmath.pi*MZ__exp__2)/(Gf*sqrt__2))) 

###################################
## INFORMATION FOR SMINPUTS
###################################
Block sminputs 
    1 1.279000e+02 # aEWM1 
    2 1.166370e-05 # Gf 
    3 1.184000e-01 # aS 

###################################
## INFORMATION FOR YUKAWA
###################################
Block yukawa 
    1 5.040000e-03 # ymdo 
    2 2.550000e-03 # ymup 
    3 1.010000e-01 # yms 
    4 1.270000e+00 # ymc 
    5 4.700000e+00 # ymb 
    6 1.720000e+02 # ymt 
   11 5.110000e-04 # yme 
   13 1.056600e-01 # ymm 
   15 1.777000e+00 # ymtau 

###################################
## INFORMATION FOR DECAY
###################################
DECAY   6 1.508336e+00 # WT 
DECAY  23 2.495200e+00 # WZ 
DECAY  24 2.085000e+00 # WW 
DECAY  25 5.753088e-03 # WH 
## Dependent parameters, given by model restrictions.
## Those values should be edited following the 
## analytical expression. MG5 ignores those values 
## but they are important for interfacing the output of MG5
## to external program such as Pythia.
DECAY  1 0.000000 # d : 0.0 
DECAY  2 0.000000 # u : 0.0 
DECAY  3 0.000000 # s : 0.0 
DECAY  4 0.000000 # c : 0.0 
DECAY  5 0.000000 # b : 0.0 
DECAY  11 0.000000 # e- : 0.0 
DECAY  12 0.000000 # ve : 0.0 
DECAY  13 0.000000 # mu- : 0.0 
DECAY  14 0.000000 # vm : 0.0 
DECAY  15 0.000000 # ta- : 0.0 
DECAY  16 0.000000 # vt : 0.0 
DECAY  21 0.000000 # g : 0.0 
DECAY  22 0.000000 # a : 0.0 
DECAY  10030 0.308725 # zph : (gz__exp__2*MZph*(5 + cmath.sqrt(1 - (4*MT__exp__2)/MZph__exp__2)))/(144.*cmath.pi) 
DECAY  10031 0.132629 # zpl : (5*gz__exp__2*MZpl)/(144.*cmath.pi) 
#===========================================================
# QUANTUM NUMBERS OF NEW STATE(S) (NON SM PDG CODE)
#===========================================================

Block QNUMBERS 10030  # zph 
        1 0  # 3 times electric charge
        2 3  # number of spin states (2S+1)
        3 1  # colour rep (1: singlet, 3: triplet, 8: octet)
        4 0  # Particle/Antiparticle distinction (0=own anti)
Block QNUMBERS 10031  # zpl 
        1 0  # 3 times electric charge
        2 3  # number of spin states (2S+1)
        3 1  # colour rep (1: singlet, 3: triplet, 8: octet)
        4 0  # Particle/Antiparticle distinction (0=own anti)
</slha>
## END BANNER##
<MGGenerationInfo>
#  Number of Events        :         4025
#  Integrated weight (pb)  :  0.53288E-04
#  Max wgt                 :  0.22052E-07
#  Average wgt             :  0.13239E-07
</MGGenerationInfo>
</header>
<init>
     2212     2212  0.40000000000E+04  0.40000000000E+04 0 0  247000  247000 2   1
  0.53296892640E-04  0.10509753563E-06  0.22052040000E-07   0
</init>
<event>
 5   0  0.2081337E-07  0.3733084E+04  0.7818609E-02  0.8060669E-01
       -2   -1    0    0    0  501  0.00000000000E+00  0.00000000000E+00  0.14907540295E+04  0.14907540295E+04  0.25500000920E-02 0.  1.
        2   -1    0    0  501    0  0.00000000000E+00  0.00000000000E+00 -0.23370583345E+04  0.23370583345E+04  0.25500000920E-02 0. -1.
    10030    2    1    2    0    0  0.00000000000E+00  0.00000000000E+00 -0.84630430507E+03  0.38278123640E+04  0.37330840490E+04 0.  0.
        1    1    3    3  502    0 -0.21964893910E+03  0.17193510793E+04  0.28692700642E+03  0.17569123192E+04  0.50400001928E-02 0. -1.
       -1    1    3    3    0  502  0.21964893910E+03 -0.17193510793E+04 -0.11332313115E+04  0.20709000448E+04  0.50400001928E-02 0.  1.
</event>
<event>
 5   0  0.2081337E-07  0.3778528E+04  0.7818609E-02  0.8050778E-01
       -2   -1    0    0    0  501  0.00000000000E+00  0.00000000000E+00  0.16252741002E+04  0.16252741002E+04  0.25500000920E-02 0. -1.
        2   -1    0    0  501    0  0.00000000000E+00  0.00000000000E+00 -0.21961336849E+04  0.21961336850E+04  0.25500000920E-02 0.  1.
    10030    2    1    2    0    0  0.00000000000E+00  0.00000000000E+00 -0.57085958479E+03  0.38214077851E+04  0.37785283901E+04 0.  0.
        1    1    3    3  502    0 -0.28004091829E+03  0.18562874509E+04 -0.50019114840E+03  0.19427859381E+04  0.50400001928E-02 0.  1.
       -1    1    3    3    0  502  0.28004091829E+03 -0.18562874509E+04 -0.70668436390E+02  0.18786218470E+04  0.50400001928E-02 0. -1.
</event>
<event>
 5   0  0.2203998E-07  0.3783072E+04  0.7818609E-02  0.8049797E-01
       -2   -1    0    0    0  501  0.00000000000E+00  0.00000000000E+00  0.21759991332E+04  0.21759991332E+04  0.25500000920E-02 0.  1.
        2   -1    0    0  501    0  0.00000000000E+00  0.00000000000E+00 -0.16442598957E+04  0.16442598957E+04  0.25500000920E-02 0. -1.
    10030    2    1    2    0    0  0.00000000000E+00  0.00000000000E+00  0.53173923746E+03  0.38202590289E+04  0.37830718247E+04 0.  0.
        3    1    3    3  502    0  0.30608347456E+03  0.40553831162E+03 -0.15740614255E+04  0.16540307727E+04  0.10100000352E+00 0. -1.
       -3    1    3    3    0  502 -0.30608347456E+03 -0.40553831162E+03  0.21058006629E+04  0.21662282562E+04  0.10100000352E+00 0.  1.
</event>
<event>
 5   0  0.2081337E-07  0.3842888E+04  0.7818609E-02  0.8037013E-01
        2   -1    0    0  501    0  0.00000000000E+00  0.00000000000E+00  0.26456536620E+04  0.26456536620E+04  0.25500000920E-02 0.  1.
       -2   -1    0    0    0  501  0.00000000000E+00  0.00000000000E+00 -0.13954764185E+04  0.13954764185E+04  0.25500000920E-02 0. -1.
    10030    2    1    2    0    0  0.00000000000E+00  0.00000000000E+00  0.12501772435E+04  0.40411300805E+04  0.38428881310E+04 0.  0.
        1    1    3    3  502    0 -0.44019599998E+03 -0.30559402574E+03  0.25654832635E+04  0.26208518848E+04  0.50400001928E-02 0.  1.
       -1    1    3    3    0  502  0.44019599998E+03  0.30559402574E+03 -0.13153060200E+04  0.14202781957E+04  0.50400001928E-02 0. -1.
</event>
<event>
 5   0  0.2203998E-07  0.3791849E+04  0.7818609E-02  0.8047906E-01
        2   -1    0    0  501    0  0.00000000000E+00  0.00000000000E+00  0.15962698450E+04  0.15962698450E+04  0.25500000920E-02 0.  1.
       -2   -1    0    0    0  501  0.00000000000E+00  0.00000000000E+00 -0.22518310196E+04  0.22518310196E+04  0.25500000920E-02 0. -1.
    10030    2    1    2    0    0  0.00000000000E+00  0.00000000000E+00 -0.65556117460E+03  0.38481008647E+04  0.37918491282E+04 0.  0.
        3    1    3    3  502    0  0.65784939773E+03 -0.10109097432E+04 -0.18122955790E+04  0.21769519092E+04  0.10100000352E+00 0. -1.
       -3    1    3    3    0  502 -0.65784939773E+03  0.10109097432E+04  0.11567344044E+04  0.16711489555E+04  0.10100000352E+00 0.  1.
</event>
<event>
 5   0  0.6661000E-08  0.3887412E+04  0.7818609E-02  0.8027652E-01
       -1   -1    0    0    0  501  0.00000000000E+00  0.00000000000E+00  0.20439402898E+04  0.20439402898E+04  0.50400001928E-02 0.  1.
        1   -1    0    0  501    0  0.00000000000E+00  0.00000000000E+00 -0.18483871033E+04  0.18483871033E+04  0.50400001928E-02 0. -1.
    10030    2    1    2    0    0  0.00000000000E+00  0.00000000000E+00  0.19555318656E+03  0.38923273931E+04  0.38874119265E+04 0.  0.
        1    1    3    3  502    0 -0.10594766121E+04  0.11463132536E+04 -0.10619055648E+04  0.18879004729E+04  0.50400001928E-02 0. -1.
       -1    1    3    3    0  502  0.10594766121E+04 -0.11463132536E+04  0.12574587514E+04  0.20044269202E+04  0.50400001928E-02 0.  1.
</event>
<event>
 5   0  0.6661000E-08  0.3780896E+04  0.7818609E-02  0.8050267E-01
       -1   -1    0    0    0  501  0.00000000000E+00  0.00000000000E+00  0.12410016212E+04  0.12410016212E+04  0.50400001928E-02 0.  1.
        1   -1    0    0  501    0  0.00000000000E+00  0.00000000000E+00 -0.28797658542E+04  0.28797658542E+04  0.50400001928E-02 0. -1.
    10030    2    1    2    0    0  0.00000000000E+00  0.00000000000E+00 -0.16387642330E+04  0.41207674754E+04  0.37808962397E+04 0.  0.
        3    1    3    3  502    0 -0.85614423526E+03 -0.16544561879E+03  0.10087269073E+04  0.13333736116E+04  0.10100000352E+00 0.  1.
       -3    1    3    3    0  502  0.85614423526E+03  0.16544561879E+03 -0.26474911402E+04  0.27873938639E+04  0.10100000352E+00 0. -1.
</event>
<event>
 5   0  0.2081337E-07  0.3841122E+04  0.7818609E-02  0.8037387E-01
        2   -1    0    0  501    0  0.00000000000E+00  0.00000000000E+00  0.17792244181E+04  0.17792244181E+04  0.25500000920E-02 0.  1.
       -2   -1    0    0    0  501  0.00000000000E+00  0.00000000000E+00 -0.20731246162E+04  0.20731246162E+04  0.25500000920E-02 0. -1.
    10030    2    1    2    0    0  0.00000000000E+00  0.00000000000E+00 -0.29390019812E+03  0.38523490343E+04  0.38411216794E+04 0.  0.
        1    1    3    3  502    0  0.45515408396E+03 -0.12544628744E+04 -0.15321865894E+04  0.20318558236E+04  0.50400001928E-02 0. -1.
       -1    1    3    3    0  502 -0.45515408396E+03  0.12544628744E+04  0.12382863913E+04  0.18204932107E+04  0.50400001928E-02 0.  1.
</event>
<event>
 5   0  0.1370688E-07  0.3821081E+04  0.7818609E-02  0.8041646E-01
        2   -1    0    0  501    0  0.00000000000E+00  0.00000000000E+00  0.22293246662E+04  0.22293246662E+04  0.25500000920E-02 0. -1.
       -2   -1    0    0    0  501  0.00000000000E+00  0.00000000000E+00 -0.16373411772E+04  0.16373411772E+04  0.25500000920E-02 0.  1.
    10030    2    1    2    0    0  0.00000000000E+00  0.00000000000E+00  0.59198348899E+03  0.38666658433E+04  0.38210810372E+04 0.  0.
        5    1    3    3  502    0 -0.12093844400E+04 -0.89168704763E+03  0.14900802805E+04  0.21161469341E+04  0.46999998093E+01 0. -1.
       -5    1    3    3    0  502  0.12093844400E+04  0.89168704763E+03 -0.89809679150E+03  0.17505189092E+04  0.46999998093E+01 0.  1.
</event>
<event>
 5   0  0.2081337E-07  0.3807777E+04  0.7818609E-02  0.8044488E-01
       -2   -1    0    0    0  501  0.00000000000E+00  0.00000000000E+00  0.26606232321E+04  0.26606232321E+04  0.25500000920E-02 0. -1.
        2   -1    0    0  501    0  0.00000000000E+00  0.00000000000E+00 -0.13623843725E+04  0.13623843725E+04  0.25500000920E-02 0.  1.
    10030    2    1    2    0    0  0.00000000000E+00  0.00000000000E+00  0.12982388596E+04  0.40230076046E+04  0.38077770484E+04 0.  0.
        1    1    3    3  502    0  0.11226498204E+04  0.72708028888E+03 -0.78238401246E+03  0.15495525511E+04  0.50400001928E-02 0.  1.
       -1    1    3    3    0  502 -0.11226498204E+04 -0.72708028888E+03  0.20806228721E+04  0.24734550535E+04  0.50400001928E-02 0. -1.
</event>
<event>
 5   0  0.1370688E-07  0.3793875E+04  0.7818609E-02  0.8047471E-01
        2   -1    0    0  501    0  0.00000000000E+00  0.00000000000E+00  0.17341946062E+04  0.17341946062E+04  0.25500000920E-02 0. -1.
       -2   -1    0    0    0  501  0.00000000000E+00  0.00000000000E+00 -0.20749523129E+04  0.20749523129E+04  0.25500000920E-02 0.  1.
    10030    2    1    2    0    0  0.00000000000E+00  0.00000000000E+00 -0.34075770667E+03  0.38091469191E+04  0.37938745942E+04 0.  0.
        5    1    3    3  502    0 -0.12871891235E+04 -0.13527679556E+04 -0.50565729458E+03  0.19345667140E+04  0.46999998093E+01 0. -1.
       -5    1    3    3    0  502  0.12871891235E+04  0.13527679556E+04  0.16489958792E+03  0.18745802051E+04  0.46999998093E+01 0.  1.
</event>
<event>
 5   0  0.1370688E-07  0.3794469E+04  0.7818609E-02  0.8047343E-01
       -2   -1    0    0    0  501  0.00000000000E+00  0.00000000000E+00  0.13896100042E+04  0.13896100042E+04  0.25500000920E-02 0. -1.
        2   -1    0    0  501    0  0.00000000000E+00  0.00000000000E+00 -0.25902943051E+04  0.25902943051E+04  0.25500000920E-02 0.  1.
    10030    2    1    2    0    0  0.00000000000E+00  0.00000000000E+00 -0.12006843010E+04  0.39799043093E+04  0.37944690697E+04 0.  0.
        5    1    3    3  502    0 -0.93866401562E+03  0.13911400598E+04 -0.15285273928E+04  0.22699733216E+04  0.46999998093E+01 0. -1.
       -5    1    3    3    0  502  0.93866401562E+03 -0.13911400598E+04  0.32784309182E+03  0.17099309878E+04  0.46999998093E+01 0.  1.
</event>
<event>
 5   0  0.6725199E-08  0.3803318E+04  0.7818609E-02  0.8045443E-01
        1   -1    0    0  501    0  0.00000000000E+00  0.00000000000E+00  0.17770829706E+04  0.17770829706E+04  0.50400001928E-02 0.  1.
       -1   -1    0    0    0  501  0.00000000000E+00  0.00000000000E+00 -0.20349679823E+04  0.20349679823E+04  0.50400001928E-02 0. -1.
    10030    2    1    2    0    0  0.00000000000E+00  0.00000000000E+00 -0.25788501172E+03  0.38120509529E+04  0.38033179973E+04 0.  0.
        5    1    3    3  502    0 -0.14455462546E+04  0.36527930489E+03 -0.13120137060E+04  0.19860601701E+04  0.46999998093E+01 0. -1.
       -5    1    3    3    0  502  0.14455462546E+04 -0.36527930489E+03  0.10541286943E+04  0.18259907828E+04  0.46999998093E+01 0.  1.
</event>
<event>
 5   0  0.6661000E-08  0.3723214E+04  0.7818609E-02  0.8062837E-01
        3   -1    0    0  501    0  0.00000000000E+00  0.00000000000E+00  0.29081962327E+04  0.29081962344E+04  0.10100000352E+00 0. -1.
       -3   -1    0    0    0  501  0.00000000000E+00  0.00000000000E+00 -0.11916597758E+04  0.11916597801E+04  0.10100000352E+00 0.  1.
    10030    2    1    2    0    0  0.00000000000E+00  0.00000000000E+00  0.17165364569E+04  0.40998560146E+04  0.37232139251E+04 0.  0.
        4    1    3    3  502    0 -0.95186305083E+03 -0.11491530268E+04 -0.36742919972E+03  0.15367503949E+04  0.12699999809E+01 0.  1.
       -4    1    3    3    0  502  0.95186305083E+03  0.11491530268E+04  0.20839656566E+04  0.25631056196E+04  0.12699999809E+01 0. -1.
</event>
<event>
 5   0  0.6661000E-08  0.3789419E+04  0.7818609E-02  0.8048429E-01
       -1   -1    0    0    0  501  0.00000000000E+00  0.00000000000E+00  0.15956296862E+04  0.15956296862E+04  0.50400001928E-02 0. -1.
        1   -1    0    0  501    0  0.00000000000E+00  0.00000000000E+00 -0.22498484393E+04  0.22498484393E+04  0.50400001928E-02 0.  1.
    10030    2    1    2    0    0  0.00000000000E+00  0.00000000000E+00 -0.65421875316E+03  0.38454781255E+04  0.37894194590E+04 0.  0.
        1    1    3    3  502    0 -0.16263427171E+03  0.16791993238E+04 -0.12022854598E+04  0.20716299385E+04  0.50400001928E-02 0.  1.
       -1    1    3    3    0  502  0.16263427171E+03 -0.16791993238E+04  0.54806670665E+03  0.17738481869E+04  0.50400001928E-02 0. -1.
</event>
<event>
 5   0  0.6661000E-08  0.3779193E+04  0.7818609E-02  0.8050635E-01
       -1   -1    0    0    0  501  0.00000000000E+00  0.00000000000E+00  0.14372540263E+04  0.14372540263E+04  0.50400001928E-02 0. -1.
        1   -1    0    0  501    0  0.00000000000E+00  0.00000000000E+00 -0.24843036780E+04  0.24843036780E+04  0.50400001928E-02 0.  1.
    10030    2    1    2    0    0  0.00000000000E+00  0.00000000000E+00 -0.10470496518E+04  0.39215577043E+04  0.37791932810E+04 0.  0.
        3    1    3    3  502    0 -0.84372368835E+03  0.14682677290E+04  0.34644650135E+03  0.17284978955E+04  0.10100000352E+00 0. -1.
       -3    1    3    3    0  502  0.84372368835E+03 -0.14682677290E+04 -0.13934961531E+04  0.21930598088E+04  0.10100000352E+00 0.  1.
</event>
<event>
 5   0  0.6661000E-08  0.3803388E+04  0.7818609E-02  0.8045428E-01
       -1   -1    0    0    0  501  0.00000000000E+00  0.00000000000E+00  0.15281120448E+04  0.15281120448E+04  0.50400001928E-02 0.  1.
        1   -1    0    0  501    0  0.00000000000E+00  0.00000000000E+00 -0.23666064806E+04  0.23666064806E+04  0.50400001928E-02 0. -1.
    10030    2    1    2    0    0  0.00000000000E+00  0.00000000000E+00 -0.83849443581E+03  0.38947185254E+04  0.38033878941E+04 0.  0.
        3    1    3    3  502    0  0.17991761224E+04  0.61587866040E+03 -0.42941616025E+03  0.19495485356E+04  0.10100000352E+00 0. -1.
       -3    1    3    3    0  502 -0.17991761224E+04 -0.61587866040E+03 -0.40907827557E+03  0.19451699898E+04  0.10100000352E+00 0.  1.
</event>
<event>
 5   0  0.2081337E-07  0.3805996E+04  0.7818609E-02  0.8044869E-01
        2   -1    0    0  501    0  0.00000000000E+00  0.00000000000E+00  0.23829328048E+04  0.23829328048E+04  0.25500000920E-02 0.  1.
       -2   -1    0    0    0  501  0.00000000000E+00  0.00000000000E+00 -0.15197242165E+04  0.15197242165E+04  0.25500000920E-02 0. -1.
    10030    2    1    2    0    0  0.00000000000E+00  0.00000000000E+00  0.86320858836E+03  0.39026570213E+04  0.38059956330E+04 0.  0.
        1    1    3    3  502    0  0.14143827276E+04 -0.68196158802E+03  0.15340137966E+04  0.21951647856E+04  0.50400001928E-02 0. -1.
       -1    1    3    3    0  502 -0.14143827276E+04  0.68196158802E+03 -0.67080520822E+03  0.17074922357E+04  0.50400001928E-02 0.  1.
</event>
<event>
 5   0  0.6661000E-08  0.3757997E+04  0.7818609E-02  0.8055229E-01
       -1   -1    0    0    0  501  0.00000000000E+00  0.00000000000E+00  0.26606238048E+04  0.26606238048E+04  0.50400001928E-02 0. -1.
        1   -1    0    0  501    0  0.00000000000E+00  0.00000000000E+00 -0.13269954227E+04  0.13269954227E+04  0.50400001928E-02 0.  1.
    10030    2    1    2    0    0  0.00000000000E+00  0.00000000000E+00  0.13336283821E+04  0.39876192276E+04  0.37579971318E+04 0.  0.
        4    1    3    3  502    0  0.67101666625E+03 -0.12311943528E+04  0.19940538094E+04  0.24376946299E+04  0.12699999809E+01 0. -1.
       -4    1    3    3    0  502 -0.67101666625E+03  0.12311943528E+04 -0.66042542731E+03  0.15499245977E+04  0.12699999809E+01 0.  1.
</event>
<event>
 5   0  0.6661000E-08  0.3766719E+04  0.7818609E-02  0.8053335E-01
       -1   -1    0    0    0  501  0.00000000000E+00  0.00000000000E+00  0.16573901490E+04  0.16573901490E+04  0.50400001928E-02 0. -1.
        1   -1    0    0  501    0  0.00000000000E+00  0.00000000000E+00 -0.21401371579E+04  0.21401371579E+04  0.50400001928E-02 0.  1.
    10030    2    1    2    0    0  0.00000000000E+00  0.00000000000E+00 -0.48274700884E+03  0.37975273069E+04  0.37667185948E+04 0.  0.
        1    1    3    3  502    0  0.71118270402E+03  0.35072346608E+03  0.14808888469E+04  0.16798272426E+04  0.50400001928E-02 0. -1.
       -1    1    3    3    0  502 -0.71118270402E+03 -0.35072346608E+03 -0.19636358558E+04  0.21177000643E+04  0.50400001928E-02 0.  1.
</event>
<event>
 5   0  0.2205204E-07  0.3823636E+04  0.7818609E-02  0.8041102E-01
        2   -1    0    0  501    0  0.00000000000E+00  0.00000000000E+00  0.29876251206E+04  0.29876251206E+04  0.25500000920E-02 0. -1.
       -2   -1    0    0    0  501  0.00000000000E+00  0.00000000000E+00 -0.12233960227E+04  0.12233960227E+04  0.25500000920E-02 0.  1.
    10030    2    1    2    0    0  0.00000000000E+00  0.00000000000E+00  0.17642290978E+04  0.42110211433E+04  0.38236363268E+04 0.  0.
        2    1    3    3  502    0 -0.15635780661E+04 -0.67948692691E+03 -0.70740862726E+02  0.17063068664E+04  0.25500000920E-02 0.  1.
       -2    1    3    3    0  502  0.15635780661E+04  0.67948692691E+03  0.18349699606E+04  0.25047142769E+04  0.25500000920E-02 0. -1.
</event>
<event>
 5   0  0.6661000E-08  0.3713466E+04  0.7818609E-02  0.8064984E-01
       -1   -1    0    0    0  501  0.00000000000E+00  0.00000000000E+00  0.12228579182E+04  0.12228579183E+04  0.50400001928E-02 0. -1.
        1   -1    0    0  501    0  0.00000000000E+00  0.00000000000E+00 -0.28191810047E+04  0.28191810047E+04  0.50400001928E-02 0.  1.
    10030    2    1    2    0    0  0.00000000000E+00  0.00000000000E+00 -0.15963230864E+04  0.40420389229E+04  0.37134662053E+04 0.  0.
        3    1    3    3  502    0 -0.99193973082E+03  0.15568212839E+04 -0.10153698140E+04  0.21068015590E+04  0.10100000352E+00 0. -1.
       -3    1    3    3    0  502  0.99193973082E+03 -0.15568212839E+04 -0.58095327239E+03  0.19352373639E+04  0.10100000352E+00 0.  1.
</event>
<event>
 5   0  0.6661000E-08  0.3768085E+04  0.7818609E-02  0.8053039E-01
       -3   -1    0    0    0  501  0.00000000000E+00  0.00000000000E+00  0.11853799121E+04  0.11853799164E+04  0.10100000352E+00 0.  1.
        3   -1    0    0  501    0  0.00000000000E+00  0.00000000000E+00 -0.29944971158E+04  0.29944971175E+04  0.10100000352E+00 0. -1.
    10030    2    1    2    0    0  0.00000000000E+00  0.00000000000E+00 -0.18091172037E+04  0.41798770339E+04  0.37680853177E+04 0.  0.
        1    1    3    3  502    0  0.66994959344E+03 -0.11332555035E+04 -0.23996316801E+04  0.27370299038E+04  0.50400001928E-02 0. -1.
       -1    1    3    3    0  502 -0.66994959344E+03  0.11332555035E+04  0.59051447638E+03  0.14428471301E+04  0.50400001928E-02 0.  1.
</event>
<event>
 5   0  0.2203998E-07  0.3804902E+04  0.7818609E-02  0.8045104E-01
       -2   -1    0    0    0  501  0.00000000000E+00  0.00000000000E+00  0.14245120569E+04  0.14245120569E+04  0.25500000920E-02 0. -1.
        2   -1    0    0  501    0  0.00000000000E+00  0.00000000000E+00 -0.25407433247E+04  0.25407433247E+04  0.25500000920E-02 0.  1.
    10030    2    1    2    0    0  0.00000000000E+00  0.00000000000E+00 -0.11162312678E+04  0.39652553816E+04  0.38049018382E+04 0.  0.
        3    1    3    3  502    0 -0.13561478869E+04 -0.12640779142E+04 -0.10030627988E+04  0.21078816506E+04  0.10100000352E+00 0.  1.
       -3    1    3    3    0  502  0.13561478869E+04  0.12640779142E+04 -0.11316846897E+03  0.18573737311E+04  0.10100000352E+00 0. -1.
</event>
<event>
 5   0  0.6661000E-08  0.3784723E+04  0.7818609E-02  0.8049441E-01
        1   -1    0    0  501    0  0.00000000000E+00  0.00000000000E+00  0.24743607123E+04  0.24743607123E+04  0.50400001928E-02 0. -1.
       -1   -1    0    0    0  501  0.00000000000E+00  0.00000000000E+00 -0.14472558328E+04  0.14472558328E+04  0.50400001928E-02 0.  1.
    10030    2    1    2    0    0  0.00000000000E+00  0.00000000000E+00  0.10271048795E+04  0.39216165452E+04  0.37847234897E+04 0.  0.
        4    1    3    3  502    0  0.11470851934E+04 -0.14912127917E+04  0.30243977279E+03  0.19055160613E+04  0.12699999809E+01 0.  1.
       -4    1    3    3    0  502 -0.11470851934E+04  0.14912127917E+04  0.72466510675E+03  0.20161004838E+04  0.12699999809E+01 0. -1.
</event>
<event>
 5   0  0.2205204E-07  0.3804587E+04  0.7818609E-02  0.8045171E-01
       -2   -1    0    0    0  501  0.00000000000E+00  0.00000000000E+00  0.21810635681E+04  0.21810635681E+04  0.25500000920E-02 0. -1.
        2   -1    0    0  501    0  0.00000000000E+00  0.00000000000E+00 -0.16591540398E+04  0.16591540398E+04  0.25500000920E-02 0.  1.
    10030    2    1    2    0    0  0.00000000000E+00  0.00000000000E+00  0.52190952822E+03  0.38402176079E+04  0.38045869317E+04 0.  0.
        2    1    3    3  502    0  0.15324453216E+03  0.18868888641E+04  0.44948450601E+03  0.19457311719E+04  0.25500000920E-02 0.  1.
       -2    1    3    3    0  502 -0.15324453216E+03 -0.18868888641E+04  0.72425022218E+02  0.18944864360E+04  0.25500000920E-02 0. -1.
</event>
<event>
 5   0  0.6661000E-08  0.3696784E+04  0.7818609E-02  0.8068675E-01
       -1   -1    0    0    0  501  0.00000000000E+00  0.00000000000E+00  0.14434488373E+04  0.14434488373E+04  0.50400001928E-02 0. -1.
        1   -1    0    0  501    0  0.00000000000E+00  0.00000000000E+00 -0.23669373063E+04  0.23669373063E+04  0.50400001928E-02 0.  1.
    10030    2    1    2    0    0  0.00000000000E+00  0.00000000000E+00 -0.92348846900E+03  0.38103861437E+04  0.36967839552E+04 0.  0.
        2    1    3    3  502    0 -0.17275720729E+04 -0.62618684287E+02 -0.11361650907E+04  0.20686462917E+04  0.25500000920E-02 0.  1.
       -2    1    3    3    0  502  0.17275720729E+04  0.62618684287E+02  0.21267662166E+03  0.17417398520E+04  0.25500000920E-02 0. -1.
</event>
<event>
 5   0  0.2203998E-07  0.3779937E+04  0.7818609E-02  0.8050474E-01
       -2   -1    0    0    0  501  0.00000000000E+00  0.00000000000E+00  0.17286000714E+04  0.17286000714E+04  0.25500000920E-02 0.  1.
        2   -1    0    0  501    0  0.00000000000E+00  0.00000000000E+00 -0.20664008328E+04  0.20664008328E+04  0.25500000920E-02 0. -1.
    10030    2    1    2    0    0  0.00000000000E+00  0.00000000000E+00 -0.33780076145E+03  0.37950009042E+04  0.37799368392E+04 0.  0.
        3    1    3    3  502    0 -0.58429173142E+03 -0.45291952962E+02  0.16350721372E+04  0.17369251833E+04  0.10100000352E+00 0.  1.
       -3    1    3    3    0  502  0.58429173142E+03  0.45291952962E+02 -0.19728728986E+04  0.20580757209E+04  0.10100000352E+00 0. -1.
</event>
<event>
 5   0  0.1370688E-07  0.3803970E+04  0.7818609E-02  0.8045304E-01
        2   -1    0    0  501    0  0.00000000000E+00  0.00000000000E+00  0.18195481039E+04  0.18195481039E+04  0.25500000920E-02 0. -1.
       -2   -1    0    0    0  501  0.00000000000E+00  0.00000000000E+00 -0.19881565004E+04  0.19881565004E+04  0.25500000920E-02 0.  1.
    10030    2    1    2    0    0  0.00000000000E+00  0.00000000000E+00 -0.16860839646E+03  0.38077046043E+04  0.38039697110E+04 0.  0.
        5    1    3    3  502    0 -0.10861067727E+04 -0.42738243621E+03  0.14189161388E+04  0.18372884279E+04  0.46999998093E+01 0. -1.
       -5    1    3    3    0  502  0.10861067727E+04  0.42738243621E+03 -0.15875245352E+04  0.19704161764E+04  0.46999998093E+01 0.  1.
</event>
<event>
 5   0  0.6661000E-08  0.3868079E+04  0.7818609E-02  0.8031701E-01
       -1   -1    0    0    0  501  0.00000000000E+00  0.00000000000E+00  0.17293296443E+04  0.17293296443E+04  0.50400001928E-02 0.  1.
        1   -1    0    0  501    0  0.00000000000E+00  0.00000000000E+00 -0.21629814239E+04  0.21629814239E+04  0.50400001928E-02 0. -1.
    10030    2    1    2    0    0  0.00000000000E+00  0.00000000000E+00 -0.43365177955E+03  0.38923110682E+04  0.38680785392E+04 0.  0.
        2    1    3    3  502    0  0.16271866111E+02 -0.14314500987E+04  0.10917802045E+04  0.18003605677E+04  0.25500000920E-02 0.  1.
       -2    1    3    3    0  502 -0.16271866111E+02  0.14314500987E+04 -0.15254319840E+04  0.20919505005E+04  0.25500000920E-02 0. -1.
</event>
<event>
 5   0  0.2203998E-07  0.3798290E+04  0.7818609E-02  0.8046522E-01
        2   -1    0    0  501    0  0.00000000000E+00  0.00000000000E+00  0.16196823785E+04  0.16196823785E+04  0.25500000920E-02 0.  1.
       -2   -1    0    0    0  501  0.00000000000E+00  0.00000000000E+00 -0.22268266809E+04  0.22268266809E+04  0.25500000920E-02 0. -1.
    10030    2    1    2    0    0  0.00000000000E+00  0.00000000000E+00 -0.60714430236E+03  0.38465090594E+04  0.37982901074E+04 0.  0.
        3    1    3    3  502    0  0.84519135961E+03  0.16525848513E+04  0.10323232270E+03  0.18590433152E+04  0.10100000352E+00 0. -1.
       -3    1    3    3    0  502 -0.84519135961E+03 -0.16525848513E+04 -0.71037662506E+03  0.19874657443E+04  0.10100000352E+00 0.  1.
</event>
<event>
 5   0  0.2081337E-07  0.3792160E+04  0.7818609E-02  0.8047839E-01
       -2   -1    0    0    0  501  0.00000000000E+00  0.00000000000E+00  0.13984514733E+04  0.13984514733E+04  0.25500000920E-02 0. -1.
        2   -1    0    0  501    0  0.00000000000E+00  0.00000000000E+00 -0.25707857511E+04  0.25707857511E+04  0.25500000920E-02 0.  1.
    10030    2    1    2    0    0  0.00000000000E+00  0.00000000000E+00 -0.11723342778E+04  0.39692372244E+04  0.37921598707E+04 0.  0.
        1    1    3    3  502    0  0.17115664963E+04 -0.35965733286E+03  0.18035849993E+03  0.17582213902E+04  0.50400001928E-02 0.  1.
       -1    1    3    3    0  502 -0.17115664963E+04  0.35965733286E+03 -0.13526927777E+04  0.22110158342E+04  0.50400001928E-02 0. -1.
</event>
<event>
 5   0  0.6661000E-08  0.3751835E+04  0.7818609E-02  0.8056571E-01
        1   -1    0    0  501    0  0.00000000000E+00  0.00000000000E+00  0.21407066637E+04  0.21407066637E+04  0.50400001928E-02 0. -1.
       -1   -1    0    0    0  501  0.00000000000E+00  0.00000000000E+00 -0.16438804841E+04  0.16438804841E+04  0.50400001928E-02 0.  1.
    10030    2    1    2    0    0  0.00000000000E+00  0.00000000000E+00  0.49682617960E+03  0.37845871478E+04  0.37518347014E+04 0.  0.
        3    1    3    3  502    0 -0.11460936231E+04  0.82177416960E+03 -0.99940738794E+03  0.17284844564E+04  0.10100000352E+00 0.  1.
       -3    1    3    3    0  502  0.11460936231E+04 -0.82177416960E+03  0.14962335675E+04  0.20561026914E+04  0.10100000352E+00 0. -1.
</event>
<event>
 5   0  0.2203998E-07  0.3836858E+04  0.7818609E-02  0.8038291E-01
        2   -1    0    0  501    0  0.00000000000E+00  0.00000000000E+00  0.26580342734E+04  0.26580342734E+04  0.25500000920E-02 0.  1.
       -2   -1    0    0    0  501  0.00000000000E+00  0.00000000000E+00 -0.13846207103E+04  0.13846207103E+04  0.25500000920E-02 0. -1.
    10030    2    1    2    0    0  0.00000000000E+00  0.00000000000E+00  0.12734135632E+04  0.40426549837E+04  0.38368577266E+04 0.  0.
        3    1    3    3  502    0  0.63344935197E+03 -0.16070587504E+04  0.15160192782E+04  0.22983059785E+04  0.10100000352E+00 0.  1.
       -3    1    3    3    0  502 -0.63344935197E+03  0.16070587504E+04 -0.24260571504E+03  0.17443490052E+04  0.10100000352E+00 0. -1.
</event>
<event>
 5   0  0.6661000E-08  0.3801665E+04  0.7818609E-02  0.8045798E-01
       -1   -1    0    0    0  501  0.00000000000E+00  0.00000000000E+00  0.19804682504E+04  0.19804682504E+04  0.50400001928E-02 0. -1.
        1   -1    0    0  501    0  0.00000000000E+00  0.00000000000E+00 -0.18243987812E+04  0.18243987812E+04  0.50400001928E-02 0.  1.
    10030    2    1    2    0    0  0.00000000000E+00  0.00000000000E+00  0.15606946918E+03  0.38048670316E+04  0.38016648260E+04 0.  0.
        4    1    3    3  502    0 -0.98914343408E+02  0.90163314000E+03  0.17499015726E+04  0.19710107796E+04  0.12699999809E+01 0. -1.
       -4    1    3    3    0  502  0.98914343408E+02 -0.90163314000E+03 -0.15938321034E+04  0.18338562521E+04  0.12699999809E+01 0.  1.
</event>
<event>
 5   0  0.6661000E-08  0.3571075E+04  0.7818609E-02  0.8097150E-01
        1   -1    0    0  501    0  0.00000000000E+00  0.00000000000E+00  0.17034277108E+04  0.17034277108E+04  0.50400001928E-02 0. -1.
       -1   -1    0    0    0  501  0.00000000000E+00  0.00000000000E+00 -0.18716051506E+04  0.18716051506E+04  0.50400001928E-02 0.  1.
    10030    2    1    2    0    0  0.00000000000E+00  0.00000000000E+00 -0.16817743980E+03  0.35750328614E+04  0.35710749514E+04 0.  0.
        4    1    3    3  502    0  0.43865444017E+02 -0.31238331667E+03  0.16753103719E+04  0.17047504125E+04  0.12699999809E+01 0. -1.
       -4    1    3    3    0  502 -0.43865444017E+02  0.31238331667E+03 -0.18434878117E+04  0.18702824489E+04  0.12699999809E+01 0.  1.
</event>
<event>
 5   0  0.6661000E-08  0.3798582E+04  0.7818609E-02  0.8046459E-01
       -1   -1    0    0    0  501  0.00000000000E+00  0.00000000000E+00  0.16877171760E+04  0.16877171760E+04  0.50400001928E-02 0.  1.
        1   -1    0    0  501    0  0.00000000000E+00  0.00000000000E+00 -0.21373881685E+04  0.21373881685E+04  0.50400001928E-02 0. -1.
    10030    2    1    2    0    0  0.00000000000E+00  0.00000000000E+00 -0.44967099249E+03  0.38251053446E+04  0.37985822218E+04 0.  0.
        3    1    3    3  502    0  0.99038883160E+03  0.14477216358E+04  0.50863123576E+03  0.18263279324E+04  0.10100000352E+00 0.  1.
       -3    1    3    3    0  502 -0.99038883160E+03 -0.14477216358E+04 -0.95830222824E+03  0.19987774122E+04  0.10100000352E+00 0. -1.
</event>
<event>
 5   0  0.2135314E-07  0.3786875E+04  0.7818609E-02  0.8048977E-01
       -2   -1    0    0    0  501  0.00000000000E+00  0.00000000000E+00  0.17598740580E+04  0.17598740580E+04  0.25500000920E-02 0. -1.
        2   -1    0    0  501    0  0.00000000000E+00  0.00000000000E+00 -0.20371374658E+04  0.20371374658E+04  0.25500000920E-02 0.  1.
    10030    2    1    2    0    0  0.00000000000E+00  0.00000000000E+00 -0.27726340785E+03  0.37970115238E+04  0.37868749008E+04 0.  0.
        4    1    3    3  502    0  0.13688435387E+04  0.12436198045E+04  0.26838704079E+03  0.18687846500E+04  0.12699999809E+01 0.  1.
       -4    1    3    3    0  502 -0.13688435387E+04 -0.12436198045E+04 -0.54565044864E+03  0.19282268737E+04  0.12699999809E+01 0. -1.
</event>
<event>
 5   0  0.2135314E-07  0.3813050E+04  0.7818609E-02  0.8043360E-01
       -2   -1    0    0    0  501  0.00000000000E+00  0.00000000000E+00  0.17386779107E+04  0.17386779107E+04  0.25500000920E-02 0. -1.
        2   -1    0    0  501    0  0.00000000000E+00  0.00000000000E+00 -0.20905758589E+04  0.20905758589E+04  0.25500000920E-02 0.  1.
    10030    2    1    2    0    0  0.00000000000E+00  0.00000000000E+00 -0.35189794823E+03  0.38292537696E+04  0.38130502574E+04 0.  0.
        4    1    3    3  502    0 -0.74564525647E+03  0.10303744898E+04  0.12503603860E+04  0.17835529556E+04  0.12699999809E+01 0. -1.
       -4    1    3    3    0  502  0.74564525647E+03 -0.10303744898E+04 -0.16022583342E+04  0.20457008140E+04  0.12699999809E+01 0.  1.
</event>
<event>
 5   0  0.1370688E-07  0.3798669E+04  0.7818609E-02  0.8046441E-01
        2   -1    0    0  501    0  0.00000000000E+00  0.00000000000E+00  0.20461794562E+04  0.20461794562E+04  0.25500000920E-02 0.  1.
       -2   -1    0    0    0  501  0.00000000000E+00  0.00000000000E+00 -0.17630281144E+04  0.17630281144E+04  0.25500000920E-02 0. -1.
    10030    2    1    2    0    0  0.00000000000E+00  0.00000000000E+00  0.28315134177E+03  0.38092075706E+04  0.37986691924E+04 0.  0.
        5    1    3    3  502    0 -0.10981921992E+04 -0.19845691413E+03  0.16827318654E+04  0.20191631618E+04  0.46999998093E+01 0.  1.
       -5    1    3    3    0  502  0.10981921992E+04  0.19845691413E+03 -0.13995805236E+04  0.17900444087E+04  0.46999998093E+01 0. -1.
</event>
<event>
 5   0  0.6661000E-08  0.3717973E+04  0.7818609E-02  0.8063990E-01
       -1   -1    0    0    0  501  0.00000000000E+00  0.00000000000E+00  0.23794044261E+04  0.23794044261E+04  0.50400001928E-02 0. -1.
        1   -1    0    0  501    0  0.00000000000E+00  0.00000000000E+00 -0.14523933641E+04  0.14523933642E+04  0.50400001928E-02 0.  1.
    10030    2    1    2    0    0  0.00000000000E+00  0.00000000000E+00  0.92701106193E+03  0.38317977902E+04  0.37179732108E+04 0.  0.
        3    1    3    3  502    0 -0.85059866858E+03 -0.39344743364E+03 -0.11911084594E+04  0.15156049453E+04  0.10100000352E+00 0.  1.
       -3    1    3    3    0  502  0.85059866858E+03  0.39344743364E+03  0.21181195213E+04  0.23161928449E+04  0.10100000352E+00 0. -1.
</event>
<event>
 5   0  0.6725199E-08  0.3725535E+04  0.7818609E-02  0.8062326E-01
        1   -1    0    0  501    0  0.00000000000E+00  0.00000000000E+00  0.24027727057E+04  0.24027727057E+04  0.50400001928E-02 0.  1.
       -1   -1    0    0    0  501  0.00000000000E+00  0.00000000000E+00 -0.14441241195E+04  0.14441241195E+04  0.50400001928E-02 0. -1.
    10030    2    1    2    0    0  0.00000000000E+00  0.00000000000E+00  0.95864858618E+03  0.38468968252E+04  0.37255346022E+04 0.  0.
        5    1    3    3  502    0 -0.52598499726E+03  0.16157251692E+04 -0.30885771370E+03  0.17270330678E+04  0.46999998093E+01 0. -1.
       -5    1    3    3    0  502  0.52598499726E+03 -0.16157251692E+04  0.12675062999E+04  0.21198637574E+04  0.46999998093E+01 0.  1.
</event>
<event>
 5   0  0.2205204E-07  0.3817709E+04  0.7818609E-02  0.8042365E-01
        2   -1    0    0  501    0  0.00000000000E+00  0.00000000000E+00  0.24369241334E+04  0.24369241334E+04  0.25500000920E-02 0. -1.
       -2   -1    0    0    0  501  0.00000000000E+00  0.00000000000E+00 -0.14952147262E+04  0.14952147262E+04  0.25500000920E-02 0.  1.
    10030    2    1    2    0    0  0.00000000000E+00  0.00000000000E+00  0.94170940720E+03  0.39321388597E+04  0.38177086589E+04 0.  0.
        2    1    3    3  502    0  0.16556314507E+04  0.51893123481E+03 -0.34881252186E+03  0.17697670192E+04  0.25500000920E-02 0.  1.
       -2    1    3    3    0  502 -0.16556314507E+04 -0.51893123481E+03  0.12905219291E+04  0.21623718404E+04  0.25500000920E-02 0. -1.
</event>
<event>
 5   0  0.2203998E-07  0.3756550E+04  0.7818609E-02  0.8055544E-01
        2   -1    0    0  501    0  0.00000000000E+00  0.00000000000E+00  0.26846382517E+04  0.26846382517E+04  0.25500000920E-02 0. -1.
       -2   -1    0    0    0  501  0.00000000000E+00  0.00000000000E+00 -0.13141126143E+04  0.13141126143E+04  0.25500000920E-02 0.  1.
    10030    2    1    2    0    0  0.00000000000E+00  0.00000000000E+00  0.13705256375E+04  0.39987508660E+04  0.37565500084E+04 0.  0.
        3    1    3    3  502    0  0.17409041129E+04  0.24041726143E+03  0.13908490082E+04  0.22412069435E+04  0.10100000352E+00 0. -1.
       -3    1    3    3    0  502 -0.17409041129E+04 -0.24041726143E+03 -0.20323370748E+02  0.17575439225E+04  0.10100000352E+00 0.  1.
</event>
<event>
 5   0  0.2081337E-07  0.3800169E+04  0.7818609E-02  0.8046119E-01
       -2   -1    0    0    0  501  0.00000000000E+00  0.00000000000E+00  0.15974640145E+04  0.15974640145E+04  0.25500000920E-02 0. -1.
        2   -1    0    0  501    0  0.00000000000E+00  0.00000000000E+00 -0.22600330745E+04  0.22600330745E+04  0.25500000920E-02 0.  1.
    10030    2    1    2    0    0  0.00000000000E+00  0.00000000000E+00 -0.66256906001E+03  0.38574970889E+04  0.38001692109E+04 0.  0.
        1    1    3    3  502    0  0.14668851530E+04 -0.11124502481E+04 -0.80850854704E+03  0.20107172047E+04  0.50400001928E-02 0. -1.
       -1    1    3    3    0  502 -0.14668851530E+04  0.11124502481E+04  0.14593948703E+03  0.18467798842E+04  0.50400001928E-02 0.  1.
</event>
<event>
 5   0  0.2205204E-07  0.3812570E+04  0.7818609E-02  0.8043463E-01
        2   -1    0    0  501    0  0.00000000000E+00  0.00000000000E+00  0.19972626342E+04  0.19972626342E+04  0.25500000920E-02 0.  1.
       -2   -1    0    0    0  501  0.00000000000E+00  0.00000000000E+00 -0.18194514012E+04  0.18194514012E+04  0.25500000920E-02 0. -1.
    10030    2    1    2    0    0  0.00000000000E+00  0.00000000000E+00  0.17781123303E+03  0.38167140354E+04  0.38125698936E+04 0.  0.
        2    1    3    3  502    0  0.53298335671E+03  0.17198526864E+04  0.71565144302E+03  0.19375555500E+04  0.25500000920E-02 0. -1.
       -2    1    3    3    0  502 -0.53298335671E+03 -0.17198526864E+04 -0.53784020999E+03  0.18791584853E+04  0.25500000920E-02 0.  1.
</event>
<event>
 5   0  0.2203998E-07  0.3580982E+04  0.7818609E-02  0.8094862E-01
        2   -1    0    0  501    0  0.00000000000E+00  0.00000000000E+00  0.30049071833E+04  0.30049071833E+04  0.25500000920E-02 0. -1.
       -2   -1    0    0    0  501  0.00000000000E+00  0.00000000000E+00 -0.10668744003E+04  0.10668744003E+04  0.25500000920E-02 0.  1.
    10030    2    1    2    0    0  0.00000000000E+00  0.00000000000E+00  0.19380327830E+04  0.40717815835E+04  0.35809822948E+04 0.  0.
        3    1    3    3  502    0  0.10258693427E+03  0.15537730034E+04 -0.35928546066E+02  0.15575703823E+04  0.10100000352E+00 0.  1.
       -3    1    3    3    0  502 -0.10258693427E+03 -0.15537730034E+04  0.19739613291E+04  0.25142112012E+04  0.10100000352E+00 0. -1.
</event>
<event>
 5   0  0.6661000E-08  0.3811897E+04  0.7818609E-02  0.8043607E-01
        1   -1    0    0  501    0  0.00000000000E+00  0.00000000000E+00  0.17314627389E+04  0.17314627389E+04  0.50400001928E-02 0. -1.
       -1   -1    0    0    0  501  0.00000000000E+00  0.00000000000E+00 -0.20980181480E+04  0.20980181480E+04  0.50400001928E-02 0.  1.
    10030    2    1    2    0    0  0.00000000000E+00  0.00000000000E+00 -0.36655540903E+03  0.38294808869E+04  0.38118972960E+04 0.  0.
        3    1    3    3  502    0  0.74478835848E+03  0.57148393749E+03 -0.18496444187E+04  0.20742439768E+04  0.10100000352E+00 0.  1.
       -3    1    3    3    0  502 -0.74478835848E+03 -0.57148393749E+03  0.14830890097E+04  0.17552369101E+04  0.10100000352E+00 0. -1.
</event>
<event>
 5   0  0.1370688E-07  0.3819607E+04  0.7818609E-02  0.8041960E-01
       -2   -1    0    0    0  501  0.00000000000E+00  0.00000000000E+00  0.13066755844E+04  0.13066755844E+04  0.25500000920E-02 0.  1.
        2   -1    0    0  501    0  0.00000000000E+00  0.00000000000E+00 -0.27913191911E+04  0.27913191911E+04  0.25500000920E-02 0. -1.
    10030    2    1    2    0    0  0.00000000000E+00  0.00000000000E+00 -0.14846436068E+04  0.40979947755E+04  0.38196065950E+04 0.  0.
        5    1    3    3  502    0 -0.33021984414E+03 -0.80965161891E+03 -0.25639340150E+04  0.27089408655E+04  0.46999998093E+01 0. -1.
       -5    1    3    3    0  502  0.33021984414E+03  0.80965161891E+03  0.10792904082E+04  0.13890539100E+04  0.46999998093E+01 0.  1.
</event>
<event>
 5   0  0.6725199E-08  0.3754848E+04  0.7818609E-02  0.8055914E-01
       -1   -1    0    0    0  501  0.00000000000E+00  0.00000000000E+00  0.12416533670E+04  0.12416533670E+04  0.50400001928E-02 0. -1.
        1   -1    0    0  501    0  0.00000000000E+00  0.00000000000E+00 -0.28387321803E+04  0.28387321803E+04  0.50400001928E-02 0.  1.
    10030    2    1    2    0    0  0.00000000000E+00  0.00000000000E+00 -0.15970788133E+04  0.40803855473E+04  0.37548482631E+04 0.  0.
        5    1    3    3  502    0 -0.65846919050E+03  0.89140456741E+03 -0.24453494231E+04  0.26847606353E+04  0.46999998093E+01 0.  1.
       -5    1    3    3    0  502  0.65846919050E+03 -0.89140456741E+03  0.84827060982E+03  0.13956249120E+04  0.46999998093E+01 0. -1.
</event>
<event>
 5   0  0.6661000E-08  0.3669079E+04  0.7818609E-02  0.8074849E-01
       -1   -1    0    0    0  501  0.00000000000E+00  0.00000000000E+00  0.16100323463E+04  0.16100323464E+04  0.50400001928E-02 0. -1.
        1   -1    0    0  501    0  0.00000000000E+00  0.00000000000E+00 -0.20903527926E+04  0.20903527926E+04  0.50400001928E-02 0.  1.
    10030    2    1    2    0    0  0.00000000000E+00  0.00000000000E+00 -0.48032044627E+03  0.37003851390E+04  0.36690792368E+04 0.  0.
        3    1    3    3  502    0 -0.10200863955E+04  0.71856816914E+03 -0.15964840706E+04  0.20262472371E+04  0.10100000352E+00 0.  1.
       -3    1    3    3    0  502  0.10200863955E+04 -0.71856816914E+03  0.11161636243E+04  0.16741379019E+04  0.10100000352E+00 0. -1.
</event>
<event>
 5   0  0.2203998E-07  0.3796257E+04  0.7818609E-02  0.8046959E-01
       -2   -1    0    0    0  501  0.00000000000E+00  0.00000000000E+00  0.15404573372E+04  0.15404573372E+04  0.25500000920E-02 0.  1.
        2   -1    0    0  501    0  0.00000000000E+00  0.00000000000E+00 -0.23388454720E+04  0.23388454720E+04  0.25500000920E-02 0. -1.
    10030    2    1    2    0    0  0.00000000000E+00  0.00000000000E+00 -0.79838813482E+03  0.38793028092E+04  0.37962569291E+04 0.  0.
        3    1    3    3  502    0  0.35389683280E+03  0.32139061930E+03  0.14779326101E+04  0.15533253711E+04  0.10100000352E+00 0.  1.
       -3    1    3    3    0  502 -0.35389683280E+03 -0.32139061930E+03 -0.22763207449E+04  0.23259774380E+04  0.10100000352E+00 0. -1.
</event>
<event>
 5   0  0.6661000E-08  0.3777666E+04  0.7818609E-02  0.8050965E-01
        1   -1    0    0  501    0  0.00000000000E+00  0.00000000000E+00  0.20667661046E+04  0.20667661046E+04  0.50400001928E-02 0.  1.
       -1   -1    0    0    0  501  0.00000000000E+00  0.00000000000E+00 -0.17262188271E+04  0.17262188271E+04  0.50400001928E-02 0. -1.
    10030    2    1    2    0    0  0.00000000000E+00  0.00000000000E+00  0.34054727747E+03  0.37929849317E+04  0.37776662431E+04 0.  0.
        1    1    3    3  502    0 -0.95220843047E+03 -0.14519442837E+04  0.91682586089E+03  0.19635205008E+04  0.50400001928E-02 0.  1.
       -1    1    3    3    0  502  0.95220843047E+03  0.14519442837E+04 -0.57627858342E+03  0.18294644309E+04  0.50400001928E-02 0. -1.
</event>
<event>
 5   0  0.6661000E-08  0.3824432E+04  0.7818609E-02  0.8040932E-01
        1   -1    0    0  501    0  0.00000000000E+00  0.00000000000E+00  0.23383090975E+04  0.23383090975E+04  0.50400001928E-02 0.  1.
       -1   -1    0    0    0  501  0.00000000000E+00  0.00000000000E+00 -0.15637666375E+04  0.15637666375E+04  0.50400001928E-02 0. -1.
    10030    2    1    2    0    0  0.00000000000E+00  0.00000000000E+00  0.77454246001E+03  0.39020757350E+04  0.38244318558E+04 0.  0.
        3    1    3    3  502    0  0.33400966145E+01 -0.17648799261E+04  0.11382561345E+04  0.21001046040E+04  0.10100000352E+00 0.  1.
       -3    1    3    3    0  502 -0.33400966145E+01  0.17648799261E+04 -0.36371367446E+03  0.18019711310E+04  0.10100000352E+00 0. -1.
</event>
<event>
 5   0  0.6661000E-08  0.3773819E+04  0.7818609E-02  0.8051797E-01
        1   -1    0    0  501    0  0.00000000000E+00  0.00000000000E+00  0.22168566971E+04  0.22168566971E+04  0.50400001928E-02 0. -1.
       -1   -1    0    0    0  501  0.00000000000E+00  0.00000000000E+00 -0.16060699896E+04  0.16060699896E+04  0.50400001928E-02 0.  1.
    10030    2    1    2    0    0  0.00000000000E+00  0.00000000000E+00  0.61078670750E+03  0.38229266867E+04  0.37738187622E+04 0.  0.
        2    1    3    3  502    0 -0.28768799774E+03 -0.49420672447E+03 -0.15161778310E+04  0.16204320060E+04  0.25500000920E-02 0.  1.
       -2    1    3    3    0  502  0.28768799774E+03  0.49420672447E+03  0.21269645385E+04  0.22024946808E+04  0.25500000920E-02 0. -1.
</event>
<event>
 5   0  0.6661000E-08  0.3805245E+04  0.7818609E-02  0.8045030E-01
        1   -1    0    0  501    0  0.00000000000E+00  0.00000000000E+00  0.28303856300E+04  0.28303856300E+04  0.50400001928E-02 0.  1.
       -1   -1    0    0    0  501  0.00000000000E+00  0.00000000000E+00 -0.12789682401E+04  0.12789682401E+04  0.50400001928E-02 0. -1.
    10030    2    1    2    0    0  0.00000000000E+00  0.00000000000E+00  0.15514173899E+04  0.41093538701E+04  0.38052454995E+04 0.  0.
        3    1    3    3  502    0  0.41146123953E+03  0.17554872657E+04  0.14316533797E+04  0.23023178107E+04  0.10100000352E+00 0. -1.
       -3    1    3    3    0  502 -0.41146123953E+03 -0.17554872657E+04  0.11976401016E+03  0.18070360594E+04  0.10100000352E+00 0.  1.
</event>
<event>
 5   0  0.2135314E-07  0.3786216E+04  0.7818609E-02  0.8049119E-01
        2   -1    0    0  501    0  0.00000000000E+00  0.00000000000E+00  0.17551238553E+04  0.17551238553E+04  0.25500000920E-02 0. -1.
       -2   -1    0    0    0  501  0.00000000000E+00  0.00000000000E+00 -0.20419406508E+04  0.20419406508E+04  0.25500000920E-02 0.  1.
    10030    2    1    2    0    0  0.00000000000E+00  0.00000000000E+00 -0.28681679552E+03  0.37970645062E+04  0.37862164478E+04 0.  0.
        4    1    3    3  502    0 -0.89054796735E+03  0.14556469821E+03  0.15255690356E+04  0.17724636128E+04  0.12699999809E+01 0. -1.
       -4    1    3    3    0  502  0.89054796735E+03 -0.14556469821E+03 -0.18123858311E+04  0.20246008933E+04  0.12699999809E+01 0.  1.
</event>
<event>
 5   0  0.2081337E-07  0.3802809E+04  0.7818609E-02  0.8045552E-01
       -2   -1    0    0    0  501  0.00000000000E+00  0.00000000000E+00  0.14791882600E+04  0.14791882600E+04  0.25500000920E-02 0. -1.
        2   -1    0    0  501    0  0.00000000000E+00  0.00000000000E+00 -0.24441367725E+04  0.24441367725E+04  0.25500000920E-02 0.  1.
    10030    2    1    2    0    0  0.00000000000E+00  0.00000000000E+00 -0.96494851253E+03  0.39233250326E+04  0.38028086567E+04 0.  0.
        1    1    3    3  502    0 -0.17150628076E+03  0.17711929061E+04 -0.11736302789E+04  0.21316535240E+04  0.50400001928E-02 0.  1.
       -1    1    3    3    0  502  0.17150628076E+03 -0.17711929061E+04  0.20868176642E+03  0.17916715085E+04  0.50400001928E-02 0. -1.
</event>
<event>
 5   0  0.6661000E-08  0.3795186E+04  0.7818609E-02  0.8047189E-01
       -1   -1    0    0    0  501  0.00000000000E+00  0.00000000000E+00  0.17454119402E+04  0.17454119402E+04  0.50400001928E-02 0.  1.
        1   -1    0    0  501    0  0.00000000000E+00  0.00000000000E+00 -0.20630430577E+04  0.20630430577E+04  0.50400001928E-02 0. -1.
    10030    2    1    2    0    0  0.00000000000E+00  0.00000000000E+00 -0.31763111750E+03  0.38084549980E+04  0.37951864177E+04 0.  0.
        4    1    3    3  502    0 -0.27178560638E+03 -0.47320903242E+03 -0.19826029989E+04  0.20563342307E+04  0.12699999809E+01 0. -1.
       -4    1    3    3    0  502  0.27178560638E+03  0.47320903242E+03  0.16649718814E+04  0.17521207673E+04  0.12699999809E+01 0.  1.
</event>
<event>
 5   0  0.2205204E-07  0.3792157E+04  0.7818609E-02  0.8047840E-01
        2   -1    0    0  501    0  0.00000000000E+00  0.00000000000E+00  0.25643465580E+04  0.25643465580E+04  0.25500000920E-02 0. -1.
       -2   -1    0    0    0  501  0.00000000000E+00  0.00000000000E+00 -0.14019612660E+04  0.14019612660E+04  0.25500000920E-02 0.  1.
    10030    2    1    2    0    0  0.00000000000E+00  0.00000000000E+00  0.11623852921E+04  0.39663078240E+04  0.37921574582E+04 0.  0.
        2    1    3    3  502    0  0.26032503649E+03  0.99533560441E+03  0.22470221105E+04  0.24713499256E+04  0.25500000920E-02 0. -1.
       -2    1    3    3    0  502 -0.26032503649E+03 -0.99533560441E+03 -0.10846368184E+04  0.14949578984E+04  0.25500000920E-02 0.  1.
</event>
<event>
 5   0  0.6661000E-08  0.3834323E+04  0.7818609E-02  0.8038829E-01
       -1   -1    0    0    0  501  0.00000000000E+00  0.00000000000E+00  0.14747163834E+04  0.14747163834E+04  0.50400001928E-02 0.  1.
        1   -1    0    0  501    0  0.00000000000E+00  0.00000000000E+00 -0.24923486570E+04  0.24923486570E+04  0.50400001928E-02 0. -1.
    10030    2    1    2    0    0  0.00000000000E+00  0.00000000000E+00 -0.10176322736E+04  0.39670650405E+04  0.38343225726E+04 0.  0.
        3    1    3    3  502    0 -0.14413908099E+04 -0.12012039667E+04 -0.10147425693E+03  0.18790411043E+04  0.10100000352E+00 0.  1.
       -3    1    3    3    0  502  0.14413908099E+04  0.12012039667E+04 -0.91615801667E+03  0.20880239362E+04  0.10100000352E+00 0. -1.
</event>
<event>
 5   0  0.2205204E-07  0.3767823E+04  0.7818609E-02  0.8053095E-01
       -2   -1    0    0    0  501  0.00000000000E+00  0.00000000000E+00  0.24434544980E+04  0.24434544980E+04  0.25500000920E-02 0. -1.
        2   -1    0    0  501    0  0.00000000000E+00  0.00000000000E+00 -0.14525021061E+04  0.14525021061E+04  0.25500000920E-02 0.  1.
    10030    2    1    2    0    0  0.00000000000E+00  0.00000000000E+00  0.99095239189E+03  0.38959566041E+04  0.37678231405E+04 0.  0.
        2    1    3    3  502    0 -0.41611929668E+03  0.12075298834E+03 -0.14002814288E+04  0.14657846476E+04  0.25500000920E-02 0.  1.
       -2    1    3    3    0  502  0.41611929668E+03 -0.12075298834E+03  0.23912338207E+04  0.24301719565E+04  0.25500000920E-02 0. -1.
</event>
<event>
 5   0  0.6661000E-08  0.3793154E+04  0.7818609E-02  0.8047626E-01
        1   -1    0    0  501    0  0.00000000000E+00  0.00000000000E+00  0.15011547964E+04  0.15011547964E+04  0.50400001928E-02 0.  1.
       -1   -1    0    0    0  501  0.00000000000E+00  0.00000000000E+00 -0.23961585022E+04  0.23961585022E+04  0.50400001928E-02 0. -1.
    10030    2    1    2    0    0  0.00000000000E+00  0.00000000000E+00 -0.89500370576E+03  0.38973132986E+04  0.37931542697E+04 0.  0.
        2    1    3    3  502    0 -0.26490539504E+03 -0.43688282199E+03 -0.23241180022E+04  0.23796146656E+04  0.25500000920E-02 0. -1.
       -2    1    3    3    0  502  0.26490539504E+03  0.43688282199E+03  0.14291142964E+04  0.15176986330E+04  0.25500000920E-02 0.  1.
</event>
<event>
 5   0  0.6661000E-08  0.3784981E+04  0.7818609E-02  0.8049386E-01
       -1   -1    0    0    0  501  0.00000000000E+00  0.00000000000E+00  0.23566105842E+04  0.23566105842E+04  0.50400001928E-02 0.  1.
        1   -1    0    0  501    0  0.00000000000E+00  0.00000000000E+00 -0.15197760164E+04  0.15197760165E+04  0.50400001928E-02 0. -1.
    10030    2    1    2    0    0  0.00000000000E+00  0.00000000000E+00  0.83683456779E+03  0.38763866007E+04  0.37849809754E+04 0.  0.
        2    1    3    3  502    0 -0.27213260696E+03  0.12120467770E+04 -0.10437895250E+04  0.16225320083E+04  0.25500000920E-02 0. -1.
       -2    1    3    3    0  502  0.27213260696E+03 -0.12120467770E+04  0.18806240928E+04  0.22538545924E+04  0.25500000920E-02 0.  1.
</event>
<event>
 5   0  0.6661000E-08  0.3754474E+04  0.7818609E-02  0.8055996E-01
        1   -1    0    0  501    0  0.00000000000E+00  0.00000000000E+00  0.18874918741E+04  0.18874918741E+04  0.50400001928E-02 0.  1.
       -1   -1    0    0    0  501  0.00000000000E+00  0.00000000000E+00 -0.18670374307E+04  0.18670374307E+04  0.50400001928E-02 0. -1.
    10030    2    1    2    0    0  0.00000000000E+00  0.00000000000E+00  0.20454443457E+02  0.37545293048E+04  0.37544735871E+04 0.  0.
        2    1    3    3  502    0 -0.53849511720E+03  0.15609364679E+04 -0.88282484961E+03  0.18723993600E+04  0.25500000920E-02 0.  1.
       -2    1    3    3    0  502  0.53849511720E+03 -0.15609364679E+04  0.90327929306E+03  0.18821299449E+04  0.25500000920E-02 0. -1.
</event>
<event>
 5   0  0.2135314E-07  0.3786836E+04  0.7818609E-02  0.8048986E-01
       -2   -1    0    0    0  501  0.00000000000E+00  0.00000000000E+00  0.13242250562E+04  0.13242250562E+04  0.25500000920E-02 0. -1.
        2   -1    0    0  501    0  0.00000000000E+00  0.00000000000E+00 -0.27072680264E+04  0.27072680264E+04  0.25500000920E-02 0.  1.
    10030    2    1    2    0    0  0.00000000000E+00  0.00000000000E+00 -0.13830429701E+04  0.40314930826E+04  0.37868362280E+04 0.  0.
        4    1    3    3  502    0  0.14160190135E+04  0.90484472244E+01 -0.20296437173E+04  0.24748024068E+04  0.12699999809E+01 0.  1.
       -4    1    3    3    0  502 -0.14160190135E+04 -0.90484472244E+01  0.64660074713E+03  0.15566906758E+04  0.12699999809E+01 0. -1.
</event>
<event>
 5   0  0.6725199E-08  0.3738029E+04  0.7818609E-02  0.8059586E-01
        1   -1    0    0  501    0  0.00000000000E+00  0.00000000000E+00  0.25796028819E+04  0.25796028819E+04  0.50400001928E-02 0.  1.
       -1   -1    0    0    0  501  0.00000000000E+00  0.00000000000E+00 -0.13541675182E+04  0.13541675182E+04  0.50400001928E-02 0. -1.
    10030    2    1    2    0    0  0.00000000000E+00  0.00000000000E+00  0.12254353637E+04  0.39337704002E+04  0.37380285888E+04 0.  0.
        5    1    3    3  502    0 -0.65847622502E+02  0.17748313543E+04  0.12252900173E+04  0.21577117421E+04  0.46999998093E+01 0. -1.
       -5    1    3    3    0  502  0.65847622502E+02 -0.17748313543E+04  0.14534641070E+00  0.17760586580E+04  0.46999998093E+01 0.  1.
</event>
<event>
 5   0  0.1370688E-07  0.3697968E+04  0.7818609E-02  0.8068412E-01
        2   -1    0    0  501    0  0.00000000000E+00  0.00000000000E+00  0.13278505826E+04  0.13278505826E+04  0.25500000920E-02 0.  1.
       -2   -1    0    0    0  501  0.00000000000E+00  0.00000000000E+00 -0.25746436197E+04  0.25746436197E+04  0.25500000920E-02 0. -1.
    10030    2    1    2    0    0  0.00000000000E+00  0.00000000000E+00 -0.12467930371E+04  0.39024942023E+04  0.36979681072E+04 0.  0.
        5    1    3    3  502    0  0.16716414413E+04 -0.10555927280E+02  0.21037898104E+03  0.16848673364E+04  0.46999998093E+01 0. -1.
       -5    1    3    3    0  502 -0.16716414413E+04  0.10555927280E+02 -0.14571720181E+04  0.22176268659E+04  0.46999998093E+01 0.  1.
</event>
<event>
 5   0  0.1370688E-07  0.3802751E+04  0.7818609E-02  0.8045565E-01
        2   -1    0    0  501    0  0.00000000000E+00  0.00000000000E+00  0.23393575120E+04  0.23393575120E+04  0.25500000920E-02 0.  1.
       -2   -1    0    0    0  501  0.00000000000E+00  0.00000000000E+00 -0.15453935546E+04  0.15453935546E+04  0.25500000920E-02 0. -1.
    10030    2    1    2    0    0  0.00000000000E+00  0.00000000000E+00  0.79396395743E+03  0.38847510666E+04  0.38027505945E+04 0.  0.
        5    1    3    3  502    0  0.49838701394E+03  0.15973818878E+04  0.13193284405E+04  0.21308843552E+04  0.46999998093E+01 0. -1.
       -5    1    3    3    0  502 -0.49838701394E+03 -0.15973818878E+04 -0.52536448307E+03  0.17538667114E+04  0.46999998093E+01 0.  1.
</event>
<event>
 5   0  0.2135314E-07  0.3791861E+04  0.7818609E-02  0.8047904E-01
        2   -1    0    0  501    0  0.00000000000E+00  0.00000000000E+00  0.17689227036E+04  0.17689227036E+04  0.25500000920E-02 0.  1.
       -2   -1    0    0    0  501  0.00000000000E+00  0.00000000000E+00 -0.20320577821E+04  0.20320577821E+04  0.25500000920E-02 0. -1.
    10030    2    1    2    0    0  0.00000000000E+00  0.00000000000E+00 -0.26313507849E+03  0.38009804858E+04  0.37918613614E+04 0.  0.
        4    1    3    3  502    0  0.21245929837E+03 -0.73670692965E+03 -0.18697143969E+04  0.20208190400E+04  0.12699999809E+01 0. -1.
       -4    1    3    3    0  502 -0.21245929837E+03  0.73670692965E+03  0.16065793184E+04  0.17801614458E+04  0.12699999809E+01 0.  1.
</event>
<event>
 5   0  0.6661000E-08  0.3345341E+04  0.7818609E-02  0.8151453E-01
       -1   -1    0    0    0  501  0.00000000000E+00  0.00000000000E+00  0.12064692748E+04  0.12064692748E+04  0.50400001928E-02 0.  1.
        1   -1    0    0  501    0  0.00000000000E+00  0.00000000000E+00 -0.23190207711E+04  0.23190207711E+04  0.50400001928E-02 0. -1.
    10030    2    1    2    0    0  0.00000000000E+00  0.00000000000E+00 -0.11125514963E+04  0.35254900459E+04  0.33453414223E+04 0.  0.
        4    1    3    3  502    0  0.13125317035E+04  0.10362392672E+04 -0.59419099120E+03  0.17747100717E+04  0.12699999809E+01 0.  1.
       -4    1    3    3    0  502 -0.13125317035E+04 -0.10362392672E+04 -0.51836050512E+03  0.17507799742E+04  0.12699999809E+01 0. -1.
</event>
<event>
 5   0  0.1370688E-07  0.3839631E+04  0.7818609E-02  0.8037703E-01
        2   -1    0    0  501    0  0.00000000000E+00  0.00000000000E+00  0.21569229182E+04  0.21569229182E+04  0.25500000920E-02 0. -1.
       -2   -1    0    0    0  501  0.00000000000E+00  0.00000000000E+00 -0.17087727318E+04  0.17087727318E+04  0.25500000920E-02 0.  1.
    10030    2    1    2    0    0  0.00000000000E+00  0.00000000000E+00  0.44815018637E+03  0.38656956500E+04  0.38396307464E+04 0.  0.
        5    1    3    3  502    0  0.16615809638E+04 -0.93820996578E+03  0.43664753102E+03  0.19574913526E+04  0.46999998093E+01 0. -1.
       -5    1    3    3    0  502 -0.16615809638E+04  0.93820996578E+03  0.11502655345E+02  0.19082042973E+04  0.46999998093E+01 0.  1.
</event>
<event>
 5   0  0.6661000E-08  0.3803408E+04  0.7818609E-02  0.8045424E-01
       -3   -1    0    0    0  501  0.00000000000E+00  0.00000000000E+00  0.18683089963E+04  0.18683089990E+04  0.10100000352E+00 0. -1.
        3   -1    0    0  501    0  0.00000000000E+00  0.00000000000E+00 -0.19356961242E+04  0.19356961268E+04  0.10100000352E+00 0.  1.
    10030    2    1    2    0    0  0.00000000000E+00  0.00000000000E+00 -0.67387127961E+02  0.38040051258E+04  0.38034082048E+04 0.  0.
        5    1    3    3  502    0 -0.17302467201E+04  0.75613835983E+03 -0.25946660823E+03  0.19060020836E+04  0.46999998093E+01 0. -1.
       -5    1    3    3    0  502  0.17302467201E+04 -0.75613835983E+03  0.19207948027E+03  0.18980030423E+04  0.46999998093E+01 0.  1.
</event>
<event>
 5   0  0.2205204E-07  0.3801239E+04  0.7818609E-02  0.8045889E-01
        2   -1    0    0  501    0  0.00000000000E+00  0.00000000000E+00  0.20686192256E+04  0.20686192256E+04  0.25500000920E-02 0.  1.
       -2   -1    0    0    0  501  0.00000000000E+00  0.00000000000E+00 -0.17462635550E+04  0.17462635550E+04  0.25500000920E-02 0. -1.
    10030    2    1    2    0    0  0.00000000000E+00  0.00000000000E+00  0.32235567063E+03  0.38148827807E+04  0.38012389364E+04 0.  0.
        2    1    3    3  502    0  0.20554955324E+02 -0.18595159114E+04 -0.23282835435E+03  0.18741480661E+04  0.25500000920E-02 0. -1.
       -2    1    3    3    0  502 -0.20554955324E+02  0.18595159114E+04  0.55518402498E+03  0.19407347146E+04  0.25500000920E-02 0.  1.
</event>
<event>
 5   0  0.6661000E-08  0.3796562E+04  0.7818609E-02  0.8046893E-01
       -1   -1    0    0    0  501  0.00000000000E+00  0.00000000000E+00  0.26405417731E+04  0.26405417731E+04  0.50400001928E-02 0.  1.
        1   -1    0    0  501    0  0.00000000000E+00  0.00000000000E+00 -0.13646713126E+04  0.13646713126E+04  0.50400001928E-02 0. -1.
    10030    2    1    2    0    0  0.00000000000E+00  0.00000000000E+00  0.12758704605E+04  0.40052130858E+04  0.37965624492E+04 0.  0.
        2    1    3    3  502    0 -0.10622457836E+04  0.15727591432E+04  0.59661399321E+03  0.19894435614E+04  0.25500000920E-02 0. -1.
       -2    1    3    3    0  502  0.10622457836E+04 -0.15727591432E+04  0.67925646730E+03  0.20157695244E+04  0.25500000920E-02 0.  1.
</event>
<event>
 5   0  0.2203998E-07  0.3799406E+04  0.7818609E-02  0.8046282E-01
        2   -1    0    0  501    0  0.00000000000E+00  0.00000000000E+00  0.17813785798E+04  0.17813785798E+04  0.25500000920E-02 0. -1.
       -2   -1    0    0    0  501  0.00000000000E+00  0.00000000000E+00 -0.20258865290E+04  0.20258865290E+04  0.25500000920E-02 0.  1.
    10030    2    1    2    0    0  0.00000000000E+00  0.00000000000E+00 -0.24450794920E+03  0.38072651087E+04  0.37994056734E+04 0.  0.
        3    1    3    3  502    0 -0.12849593529E+04  0.21531356098E+03  0.12631363521E+04  0.18146608285E+04  0.10100000352E+00 0. -1.
       -3    1    3    3    0  502  0.12849593529E+04 -0.21531356098E+03 -0.15076443013E+04  0.19926042802E+04  0.10100000352E+00 0.  1.
</event>
<event>
 5   0  0.1370688E-07  0.3786574E+04  0.7818609E-02  0.8049042E-01
        2   -1    0    0  501    0  0.00000000000E+00  0.00000000000E+00  0.15371959767E+04  0.15371959767E+04  0.25500000920E-02 0. -1.
       -2   -1    0    0    0  501  0.00000000000E+00  0.00000000000E+00 -0.23318661086E+04  0.23318661086E+04  0.25500000920E-02 0.  1.
    10030    2    1    2    0    0  0.00000000000E+00  0.00000000000E+00 -0.79467013191E+03  0.38690620852E+04  0.37865737549E+04 0.  0.
        5    1    3    3  502    0 -0.67461988823E+03  0.17504206544E+04 -0.13597257787E+03  0.18808495668E+04  0.46999998093E+01 0. -1.
       -5    1    3    3    0  502  0.67461988823E+03 -0.17504206544E+04 -0.65869755404E+03  0.19882125185E+04  0.46999998093E+01 0.  1.
</event>
<event>
 5   0  0.6725199E-08  0.3657355E+04  0.7818609E-02  0.8077479E-01
        1   -1    0    0  501    0  0.00000000000E+00  0.00000000000E+00  0.17959168653E+04  0.17959168653E+04  0.50400001928E-02 0. -1.
       -1   -1    0    0    0  501  0.00000000000E+00  0.00000000000E+00 -0.18620360921E+04  0.18620360921E+04  0.50400001928E-02 0.  1.
    10030    2    1    2    0    0  0.00000000000E+00  0.00000000000E+00 -0.66119226805E+02  0.36579529575E+04  0.36573553405E+04 0.  0.
        5    1    3    3  502    0 -0.86119257447E+03  0.12473145533E+04  0.99013916698E+03  0.18104816777E+04  0.46999998093E+01 0. -1.
       -5    1    3    3    0  502  0.86119257447E+03 -0.12473145533E+04 -0.10562583938E+04  0.18474712798E+04  0.46999998093E+01 0.  1.
</event>
<event>
 5   0  0.6661000E-08  0.3924517E+04  0.7818609E-02  0.8019949E-01
        1   -1    0    0  501    0  0.00000000000E+00  0.00000000000E+00  0.14754629453E+04  0.14754629453E+04  0.50400001928E-02 0.  1.
       -1   -1    0    0    0  501  0.00000000000E+00  0.00000000000E+00 -0.26096609639E+04  0.26096609639E+04  0.50400001928E-02 0. -1.
    10030    2    1    2    0    0  0.00000000000E+00  0.00000000000E+00 -0.11341980186E+04  0.40851239092E+04  0.39245168121E+04 0.  0.
        3    1    3    3  502    0 -0.12600278213E+04  0.14551124717E+04 -0.17013197489E+03  0.19323476175E+04  0.10100000352E+00 0.  1.
       -3    1    3    3    0  502  0.12600278213E+04 -0.14551124717E+04 -0.96406604371E+03  0.21527762918E+04  0.10100000352E+00 0. -1.
</event>
<event>
 5   0  0.2203998E-07  0.3770038E+04  0.7818609E-02  0.8052615E-01
       -2   -1    0    0    0  501  0.00000000000E+00  0.00000000000E+00  0.10220911539E+04  0.10220911539E+04  0.25500000920E-02 0. -1.
        2   -1    0    0  501    0  0.00000000000E+00  0.00000000000E+00 -0.34764966217E+04  0.34764966217E+04  0.25500000920E-02 0.  1.
    10030    2    1    2    0    0  0.00000000000E+00  0.00000000000E+00 -0.24544054678E+04  0.44985877756E+04  0.37700379010E+04 0.  0.
        3    1    3    3  502    0 -0.11460243527E+04 -0.47158670717E+03  0.46768347960E+03  0.13245730205E+04  0.10100000352E+00 0. -1.
       -3    1    3    3    0  502  0.11460243527E+04  0.47158670717E+03 -0.29220889474E+04  0.31740147552E+04  0.10100000352E+00 0.  1.
</event>
<event>
 5   0  0.2081337E-07  0.3798391E+04  0.7818609E-02  0.8046500E-01
        2   -1    0    0  501    0  0.00000000000E+00  0.00000000000E+00  0.29547132637E+04  0.29547132637E+04  0.25500000920E-02 0. -1.
       -2   -1    0    0    0  501  0.00000000000E+00  0.00000000000E+00 -0.12207425390E+04  0.12207425390E+04  0.25500000920E-02 0.  1.
    10030    2    1    2    0    0  0.00000000000E+00  0.00000000000E+00  0.17339707247E+04  0.41754558027E+04  0.37983913287E+04 0.  0.
        1    1    3    3  502    0  0.39710386971E+02 -0.18941000827E+04  0.72052184478E+03  0.20269049724E+04  0.50400001928E-02 0. -1.
       -1    1    3    3    0  502 -0.39710386971E+02  0.18941000827E+04  0.10134488800E+04  0.21485508303E+04  0.50400001928E-02 0.  1.
</event>
<event>
 5   0  0.2081337E-07  0.3789383E+04  0.7818609E-02  0.8048437E-01
        2   -1    0    0  501    0  0.00000000000E+00  0.00000000000E+00  0.13382575648E+04  0.13382575648E+04  0.25500000920E-02 0.  1.
       -2   -1    0    0    0  501  0.00000000000E+00  0.00000000000E+00 -0.26824843610E+04  0.26824843610E+04  0.25500000920E-02 0. -1.
    10030    2    1    2    0    0  0.00000000000E+00  0.00000000000E+00 -0.13442267962E+04  0.40207419258E+04  0.37893825294E+04 0.  0.
        1    1    3    3  502    0 -0.27014578840E+03 -0.21189079963E+02  0.13175910431E+04  0.13451668599E+04  0.50400001928E-02 0.  1.
       -1    1    3    3    0  502  0.27014578840E+03  0.21189079963E+02 -0.26618178392E+04  0.26755750659E+04  0.50400001928E-02 0. -1.
</event>
<event>
 5   0  0.2205204E-07  0.3794030E+04  0.7818609E-02  0.8047437E-01
       -2   -1    0    0    0  501  0.00000000000E+00  0.00000000000E+00  0.20264198271E+04  0.20264198271E+04  0.25500000920E-02 0.  1.
        2   -1    0    0  501    0  0.00000000000E+00  0.00000000000E+00 -0.17758741060E+04  0.17758741060E+04  0.25500000920E-02 0. -1.
    10030    2    1    2    0    0  0.00000000000E+00  0.00000000000E+00  0.25054572116E+03  0.38022939331E+04  0.37940303103E+04 0.  0.
        2    1    3    3  502    0 -0.56430481245E+03  0.40229940575E+03 -0.16444674027E+04  0.17845329282E+04  0.25500000920E-02 0. -1.
       -2    1    3    3    0  502  0.56430481245E+03 -0.40229940575E+03  0.18950131239E+04  0.20177610049E+04  0.25500000920E-02 0.  1.
</event>
<event>
 5   0  0.6661000E-08  0.3791614E+04  0.7818609E-02  0.8047957E-01
        1   -1    0    0  501    0  0.00000000000E+00  0.00000000000E+00  0.14036361484E+04  0.14036361484E+04  0.50400001928E-02 0. -1.
       -1   -1    0    0    0  501  0.00000000000E+00  0.00000000000E+00 -0.25605531100E+04  0.25605531100E+04  0.50400001928E-02 0.  1.
    10030    2    1    2    0    0  0.00000000000E+00  0.00000000000E+00 -0.11569169616E+04  0.39641892584E+04  0.37916143818E+04 0.  0.
        4    1    3    3  502    0 -0.70366229699E+03  0.11593383225E+04 -0.19634706805E+04  0.23862993736E+04  0.12699999809E+01 0.  1.
       -4    1    3    3    0  502  0.70366229699E+03 -0.11593383225E+04  0.80655371887E+03  0.15778898848E+04  0.12699999809E+01 0. -1.
</event>
<event>
 5   0  0.2081337E-07  0.3838083E+04  0.7818609E-02  0.8038031E-01
       -2   -1    0    0    0  501  0.00000000000E+00  0.00000000000E+00  0.17843539137E+04  0.17843539137E+04  0.25500000920E-02 0. -1.
        2   -1    0    0  501    0  0.00000000000E+00  0.00000000000E+00 -0.20638955505E+04  0.20638955505E+04  0.25500000920E-02 0.  1.
    10030    2    1    2    0    0  0.00000000000E+00  0.00000000000E+00 -0.27954163684E+03  0.38482494642E+04  0.38380829085E+04 0.  0.
        1    1    3    3  502    0 -0.17895054690E+04 -0.42606140755E+02 -0.83339442924E+03  0.19745104156E+04  0.50400001928E-02 0.  1.
       -1    1    3    3    0  502  0.17895054690E+04  0.42606140755E+02  0.55385279241E+03  0.18737390486E+04  0.50400001928E-02 0. -1.
</event>
<event>
 5   0  0.2135314E-07  0.3793933E+04  0.7818609E-02  0.8047458E-01
        2   -1    0    0  501    0  0.00000000000E+00  0.00000000000E+00  0.18754515656E+04  0.18754515656E+04  0.25500000920E-02 0.  1.
       -2   -1    0    0    0  501  0.00000000000E+00  0.00000000000E+00 -0.19187287422E+04  0.19187287422E+04  0.25500000920E-02 0. -1.
    10030    2    1    2    0    0  0.00000000000E+00  0.00000000000E+00 -0.43277176571E+02  0.37941803079E+04  0.37939334858E+04 0.  0.
        4    1    3    3  502    0 -0.25659466364E+03  0.55973175650E+03  0.17727302827E+04  0.18766232251E+04  0.12699999809E+01 0.  1.
       -4    1    3    3    0  502  0.25659466364E+03 -0.55973175650E+03 -0.18160074593E+04  0.19175570828E+04  0.12699999809E+01 0. -1.
</event>
<event>
 5   0  0.2203998E-07  0.3772438E+04  0.7818609E-02  0.8052096E-01
        2   -1    0    0  501    0  0.00000000000E+00  0.00000000000E+00  0.24513350619E+04  0.24513350619E+04  0.25500000920E-02 0.  1.
       -2   -1    0    0    0  501  0.00000000000E+00  0.00000000000E+00 -0.14513817386E+04  0.14513817386E+04  0.25500000920E-02 0. -1.
    10030    2    1    2    0    0  0.00000000000E+00  0.00000000000E+00  0.99995332329E+03  0.39027168005E+04  0.37724384390E+04 0.  0.
        3    1    3    3  502    0 -0.17297575524E+03 -0.84463238502E+02 -0.14411934605E+04  0.14539921772E+04  0.10100000352E+00 0. -1.
       -3    1    3    3    0  502  0.17297575524E+03  0.84463238502E+02  0.24411467838E+04  0.24487246233E+04  0.10100000352E+00 0.  1.
</event>
<event>
 5   0  0.6661000E-08  0.3771573E+04  0.7818609E-02  0.8052283E-01
       -1   -1    0    0    0  501  0.00000000000E+00  0.00000000000E+00  0.15188194168E+04  0.15188194168E+04  0.50400001928E-02 0. -1.
        1   -1    0    0  501    0  0.00000000000E+00  0.00000000000E+00 -0.23414171795E+04  0.23414171795E+04  0.50400001928E-02 0.  1.
    10030    2    1    2    0    0  0.00000000000E+00  0.00000000000E+00 -0.82259776265E+03  0.38602365963E+04  0.37715725500E+04 0.  0.
        3    1    3    3  502    0 -0.13999602795E+03  0.12983840859E+04  0.98112030666E+03  0.16334004986E+04  0.10100000352E+00 0. -1.
       -3    1    3    3    0  502  0.13999602795E+03 -0.12983840859E+04 -0.18037180693E+04  0.22268360977E+04  0.10100000352E+00 0.  1.
</event>
<event>
 5   0  0.1370688E-07  0.3810441E+04  0.7818609E-02  0.8043918E-01
       -2   -1    0    0    0  501  0.00000000000E+00  0.00000000000E+00  0.13070270638E+04  0.13070270638E+04  0.25500000920E-02 0.  1.
        2   -1    0    0  501    0  0.00000000000E+00  0.00000000000E+00 -0.27771918547E+04  0.27771918547E+04  0.25500000920E-02 0. -1.
    10030    2    1    2    0    0  0.00000000000E+00  0.00000000000E+00 -0.14701647910E+04  0.40842189185E+04  0.38104408750E+04 0.  0.
        5    1    3    3  502    0 -0.17102908881E+03  0.71046676463E+03  0.11508332229E+04  0.13632509563E+04  0.46999998093E+01 0.  1.
       -5    1    3    3    0  502  0.17102908881E+03 -0.71046676463E+03 -0.26209980138E+04  0.27209679622E+04  0.46999998093E+01 0. -1.
</event>
<event>
 5   0  0.2081337E-07  0.3787970E+04  0.7818609E-02  0.8048741E-01
       -2   -1    0    0    0  501  0.00000000000E+00  0.00000000000E+00  0.17696764278E+04  0.17696764278E+04  0.25500000920E-02 0. -1.
        2   -1    0    0  501    0  0.00000000000E+00  0.00000000000E+00 -0.20270252305E+04  0.20270252305E+04  0.25500000920E-02 0.  1.
    10030    2    1    2    0    0  0.00000000000E+00  0.00000000000E+00 -0.25734880275E+03  0.37967016583E+04  0.37879697828E+04 0.  0.
        1    1    3    3  502    0  0.44513088707E+03 -0.14132632372E+04  0.10537586722E+04  0.18182029104E+04  0.50400001928E-02 0. -1.
       -1    1    3    3    0  502 -0.44513088707E+03  0.14132632372E+04 -0.13111074750E+04  0.19784987478E+04  0.50400001928E-02 0.  1.
</event>
<event>
 5   0  0.2135314E-07  0.3867347E+04  0.7818609E-02  0.8031855E-01
        2   -1    0    0  501    0  0.00000000000E+00  0.00000000000E+00  0.28916861118E+04  0.28916861118E+04  0.25500000920E-02 0.  1.
       -2   -1    0    0    0  501  0.00000000000E+00  0.00000000000E+00 -0.12930495324E+04  0.12930495325E+04  0.25500000920E-02 0. -1.
    10030    2    1    2    0    0  0.00000000000E+00  0.00000000000E+00  0.15986365794E+04  0.41847356443E+04  0.38673470881E+04 0.  0.
        4    1    3    3  502    0 -0.14199423654E+04  0.88016938966E+02  0.22164188562E+04  0.26337231179E+04  0.12699999809E+01 0.  1.
       -4    1    3    3    0  502  0.14199423654E+04 -0.88016938966E+02 -0.61778227678E+03  0.15510125264E+04  0.12699999809E+01 0. -1.
</event>
<event>
 5   0  0.2203998E-07  0.3688885E+04  0.7818609E-02  0.8070430E-01
       -2   -1    0    0    0  501  0.00000000000E+00  0.00000000000E+00  0.19111163602E+04  0.19111163602E+04  0.25500000920E-02 0. -1.
        2   -1    0    0  501    0  0.00000000000E+00  0.00000000000E+00 -0.17800946044E+04  0.17800946044E+04  0.25500000920E-02 0.  1.
    10030    2    1    2    0    0  0.00000000000E+00  0.00000000000E+00  0.13102175578E+03  0.36912109645E+04  0.36888848836E+04 0.  0.
        3    1    3    3  502    0 -0.71764999758E+02 -0.68194187540E+03  0.17788326473E+04  0.19064208701E+04  0.10100000352E+00 0. -1.
       -3    1    3    3    0  502  0.71764999758E+02  0.68194187540E+03 -0.16478108915E+04  0.17847900944E+04  0.10100000352E+00 0.  1.
</event>
<event>
 5   0  0.6661000E-08  0.3806905E+04  0.7818609E-02  0.8044675E-01
        1   -1    0    0  501    0  0.00000000000E+00  0.00000000000E+00  0.30017883145E+04  0.30017883146E+04  0.50400001928E-02 0. -1.
       -1   -1    0    0    0  501  0.00000000000E+00  0.00000000000E+00 -0.12069907864E+04  0.12069907864E+04  0.50400001928E-02 0.  1.
    10030    2    1    2    0    0  0.00000000000E+00  0.00000000000E+00  0.17947975281E+04  0.42087791010E+04  0.38069046946E+04 0.  0.
        1    1    3    3  502    0 -0.11832230990E+04  0.43516703812E+03  0.24740376216E+04  0.27767335858E+04  0.50400001928E-02 0. -1.
       -1    1    3    3    0  502  0.11832230990E+04 -0.43516703812E+03 -0.67924009353E+03  0.14320455152E+04  0.50400001928E-02 0.  1.
</event>
<event>
 5   0  0.2205204E-07  0.3779892E+04  0.7818609E-02  0.8050484E-01
        2   -1    0    0  501    0  0.00000000000E+00  0.00000000000E+00  0.19951843682E+04  0.19951843682E+04  0.25500000920E-02 0. -1.
       -2   -1    0    0    0  501  0.00000000000E+00  0.00000000000E+00 -0.17902586373E+04  0.17902586373E+04  0.25500000920E-02 0.  1.
    10030    2    1    2    0    0  0.00000000000E+00  0.00000000000E+00  0.20492573091E+03  0.37854430055E+04  0.37798920875E+04 0.  0.
        2    1    3    3  502    0  0.13880383658E+03  0.18470018394E+04 -0.27387316611E+03  0.18723484748E+04  0.25500000920E-02 0. -1.
       -2    1    3    3    0  502 -0.13880383658E+03 -0.18470018394E+04  0.47879889702E+03  0.19130945308E+04  0.25500000920E-02 0.  1.
</event>
<event>
 5   0  0.6661000E-08  0.3823868E+04  0.7818609E-02  0.8041052E-01
       -1   -1    0    0    0  501  0.00000000000E+00  0.00000000000E+00  0.16265820230E+04  0.16265820230E+04  0.50400001928E-02 0. -1.
        1   -1    0    0  501    0  0.00000000000E+00  0.00000000000E+00 -0.22473453965E+04  0.22473453965E+04  0.50400001928E-02 0.  1.
    10030    2    1    2    0    0  0.00000000000E+00  0.00000000000E+00 -0.62076337344E+03  0.38739274195E+04  0.38238680006E+04 0.  0.
        4    1    3    3  502    0  0.97563032694E+03  0.48935418701E+03  0.12799354553E+04  0.16821291383E+04  0.12699999809E+01 0. -1.
       -4    1    3    3    0  502 -0.97563032694E+03 -0.48935418701E+03 -0.19006988287E+04  0.21917982813E+04  0.12699999809E+01 0.  1.
</event>
<event>
 5   0  0.6661000E-08  0.3807023E+04  0.7818609E-02  0.8044649E-01
        1   -1    0    0  501    0  0.00000000000E+00  0.00000000000E+00  0.26705929503E+04  0.26705929503E+04  0.50400001928E-02 0.  1.
       -1   -1    0    0    0  501  0.00000000000E+00  0.00000000000E+00 -0.13567607072E+04  0.13567607072E+04  0.50400001928E-02 0. -1.
    10030    2    1    2    0    0  0.00000000000E+00  0.00000000000E+00  0.13138322432E+04  0.40273536575E+04  0.38070227632E+04 0.  0.
        2    1    3    3  502    0 -0.45501395059E+03 -0.91810909475E+03  0.23539378419E+04  0.25672914460E+04  0.25500000920E-02 0.  1.
       -2    1    3    3    0  502  0.45501395059E+03  0.91810909475E+03 -0.10401055987E+04  0.14600622115E+04  0.25500000920E-02 0. -1.
</event>
<event>
 5   0  0.1370688E-07  0.3793590E+04  0.7818609E-02  0.8047532E-01
        2   -1    0    0  501    0  0.00000000000E+00  0.00000000000E+00  0.21755466580E+04  0.21755466580E+04  0.25500000920E-02 0. -1.
       -2   -1    0    0    0  501  0.00000000000E+00  0.00000000000E+00 -0.16537597692E+04  0.16537597692E+04  0.25500000920E-02 0.  1.
    10030    2    1    2    0    0  0.00000000000E+00  0.00000000000E+00  0.52178688881E+03  0.38293064272E+04  0.37935901408E+04 0.  0.
        5    1    3    3  502    0  0.21101625671E+03  0.13197136806E+04 -0.10977495394E+04  0.17295225355E+04  0.46999998093E+01 0.  1.
       -5    1    3    3    0  502 -0.21101625671E+03 -0.13197136806E+04  0.16195364283E+04  0.20997838917E+04  0.46999998093E+01 0. -1.
</event>
<event>
 5   0  0.6661000E-08  0.3834672E+04  0.7818609E-02  0.8038755E-01
       -1   -1    0    0    0  501  0.00000000000E+00  0.00000000000E+00  0.15540018323E+04  0.15540018323E+04  0.50400001928E-02 0.  1.
        1   -1    0    0  501    0  0.00000000000E+00  0.00000000000E+00 -0.23656199413E+04  0.23656199413E+04  0.50400001928E-02 0. -1.
    10030    2    1    2    0    0  0.00000000000E+00  0.00000000000E+00 -0.81161810903E+03  0.39196217736E+04  0.38346722015E+04 0.  0.
        1    1    3    3  502    0  0.13253802247E+03 -0.30503323687E+03  0.15242925137E+04  0.15601536047E+04  0.50400001928E-02 0.  1.
       -1    1    3    3    0  502 -0.13253802247E+03  0.30503323687E+03 -0.23359106227E+04  0.23594681689E+04  0.50400001928E-02 0. -1.
</event>
<event>
 5   0  0.2135314E-07  0.3782192E+04  0.7818609E-02  0.8049987E-01
        2   -1    0    0  501    0  0.00000000000E+00  0.00000000000E+00  0.14905799995E+04  0.14905799995E+04  0.25500000920E-02 0.  1.
       -2   -1    0    0    0  501  0.00000000000E+00  0.00000000000E+00 -0.23992303585E+04  0.23992303585E+04  0.25500000920E-02 0. -1.
    10030    2    1    2    0    0  0.00000000000E+00  0.00000000000E+00 -0.90865035895E+03  0.38898103580E+04  0.37821923730E+04 0.  0.
        4    1    3    3  502    0 -0.14806984646E+04  0.10827283520E+03  0.75035047853E+03  0.16634958381E+04  0.12699999809E+01 0.  1.
       -4    1    3    3    0  502  0.14806984646E+04 -0.10827283520E+03 -0.16590008375E+04  0.22263145199E+04  0.12699999809E+01 0. -1.
</event>
<event>
 5   0  0.6725199E-08  0.3787713E+04  0.7818609E-02  0.8048797E-01
       -1   -1    0    0    0  501  0.00000000000E+00  0.00000000000E+00  0.23271064050E+04  0.23271064050E+04  0.50400001928E-02 0. -1.
        1   -1    0    0  501    0  0.00000000000E+00  0.00000000000E+00 -0.15412669783E+04  0.15412669783E+04  0.50400001928E-02 0.  1.
    10030    2    1    2    0    0  0.00000000000E+00  0.00000000000E+00  0.78583942667E+03  0.38683733833E+04  0.37877129020E+04 0.  0.
        5    1    3    3  502    0  0.10501197139E+04  0.38692548756E+03 -0.11674268036E+04  0.16172106165E+04  0.46999998093E+01 0.  1.
       -5    1    3    3    0  502 -0.10501197139E+04 -0.38692548756E+03  0.19532662302E+04  0.22511627668E+04  0.46999998093E+01 0. -1.
</event>
<event>
 5   0  0.2203998E-07  0.3836262E+04  0.7818609E-02  0.8038418E-01
        2   -1    0    0  501    0  0.00000000000E+00  0.00000000000E+00  0.31309711208E+04  0.31309711208E+04  0.25500000920E-02 0. -1.
       -2   -1    0    0    0  501  0.00000000000E+00  0.00000000000E+00 -0.11751073709E+04  0.11751073709E+04  0.25500000920E-02 0.  1.
    10030    2    1    2    0    0  0.00000000000E+00  0.00000000000E+00  0.19558637500E+04  0.43060784917E+04  0.38362623696E+04 0.  0.
        3    1    3    3  502    0  0.10283615943E+04 -0.14423356772E+04  0.18038171313E+04  0.25281645571E+04  0.10100000352E+00 0. -1.
       -3    1    3    3    0  502 -0.10283615943E+04  0.14423356772E+04  0.15204661863E+03  0.17779139346E+04  0.10100000352E+00 0.  1.
</event>
<event>
 5   0  0.1370688E-07  0.3814799E+04  0.7818609E-02  0.8042987E-01
        2   -1    0    0  501    0  0.00000000000E+00  0.00000000000E+00  0.21549155813E+04  0.21549155813E+04  0.25500000920E-02 0.  1.
       -2   -1    0    0    0  501  0.00000000000E+00  0.00000000000E+00 -0.16883131172E+04  0.16883131172E+04  0.25500000920E-02 0. -1.
    10030    2    1    2    0    0  0.00000000000E+00  0.00000000000E+00  0.46660246408E+03  0.38432286985E+04  0.38147986801E+04 0.  0.
        5    1    3    3  502    0  0.77007949385E+03 -0.45287966035E+02 -0.15241409911E+04  0.17082450871E+04  0.46999998093E+01 0. -1.
       -5    1    3    3    0  502 -0.77007949385E+03  0.45287966035E+02  0.19907434552E+04  0.21349836115E+04  0.46999998093E+01 0.  1.
</event>
<event>
 5   0  0.6661000E-08  0.3772512E+04  0.7818609E-02  0.8052080E-01
        1   -1    0    0  501    0  0.00000000000E+00  0.00000000000E+00  0.16288517241E+04  0.16288517241E+04  0.50400001928E-02 0. -1.
       -1   -1    0    0    0  501  0.00000000000E+00  0.00000000000E+00 -0.21843371710E+04  0.21843371710E+04  0.50400001928E-02 0.  1.
    10030    2    1    2    0    0  0.00000000000E+00  0.00000000000E+00 -0.55548544690E+03  0.38131888950E+04  0.37725118247E+04 0.  0.
        3    1    3    3  502    0  0.41880932292E+02  0.14743242064E+04  0.91076534626E+03  0.17334587980E+04  0.10100000352E+00 0. -1.
       -3    1    3    3    0  502 -0.41880932292E+02 -0.14743242064E+04 -0.14662507932E+04  0.20797300971E+04  0.10100000352E+00 0.  1.
</event>
<event>
 5   0  0.2205204E-07  0.3813111E+04  0.7818609E-02  0.8043347E-01
       -2   -1    0    0    0  501  0.00000000000E+00  0.00000000000E+00  0.18067699953E+04  0.18067699953E+04  0.25500000920E-02 0.  1.
        2   -1    0    0  501    0  0.00000000000E+00  0.00000000000E+00 -0.20118517529E+04  0.20118517529E+04  0.25500000920E-02 0. -1.
    10030    2    1    2    0    0  0.00000000000E+00  0.00000000000E+00 -0.20508175755E+03  0.38186217482E+04  0.38131107417E+04 0.  0.
        2    1    3    3  502    0 -0.66759577825E+03 -0.15418844053E+04 -0.10048768294E+04  0.19577714588E+04  0.25500000920E-02 0. -1.
       -2    1    3    3    0  502  0.66759577825E+03  0.15418844053E+04  0.79979507188E+03  0.18608502894E+04  0.25500000920E-02 0.  1.
</event>
<event>
 5   0  0.2135314E-07  0.3784444E+04  0.7818609E-02  0.8049501E-01
       -2   -1    0    0    0  501  0.00000000000E+00  0.00000000000E+00  0.14725598888E+04  0.14725598888E+04  0.25500000920E-02 0. -1.
        2   -1    0    0  501    0  0.00000000000E+00  0.00000000000E+00 -0.24314829915E+04  0.24314829915E+04  0.25500000920E-02 0.  1.
    10030    2    1    2    0    0  0.00000000000E+00  0.00000000000E+00 -0.95892310270E+03  0.39040428804E+04  0.37844441197E+04 0.  0.
        4    1    3    3  502    0 -0.10378630592E+04 -0.95900020187E+03  0.81874463552E+03  0.16331520161E+04  0.12699999809E+01 0. -1.
       -4    1    3    3    0  502  0.10378630592E+04  0.95900020187E+03 -0.17776677382E+04  0.22708908642E+04  0.12699999809E+01 0.  1.
</event>
<event>
 5   0  0.2135314E-07  0.3763818E+04  0.7818609E-02  0.8053964E-01
        2   -1    0    0  501    0  0.00000000000E+00  0.00000000000E+00  0.23026744177E+04  0.23026744177E+04  0.25500000920E-02 0.  1.
       -2   -1    0    0    0  501  0.00000000000E+00  0.00000000000E+00 -0.15380295846E+04  0.15380295846E+04  0.25500000920E-02 0. -1.
    10030    2    1    2    0    0  0.00000000000E+00  0.00000000000E+00  0.76464483312E+03  0.38407040022E+04  0.37638179435E+04 0.  0.
        4    1    3    3  502    0 -0.12516073276E+04  0.44092047352E+03 -0.97934569683E+03  0.16492578250E+04  0.12699999809E+01 0. -1.
       -4    1    3    3    0  502  0.12516073276E+04 -0.44092047352E+03  0.17439905300E+04  0.21914461773E+04  0.12699999809E+01 0.  1.
</event>
<event>
 5   0  0.6661000E-08  0.3504592E+04  0.7818609E-02  0.8112703E-01
        1   -1    0    0  501    0  0.00000000000E+00  0.00000000000E+00  0.27448446547E+04  0.27448446547E+04  0.50400001928E-02 0. -1.
       -1   -1    0    0    0  501  0.00000000000E+00  0.00000000000E+00 -0.11186573226E+04  0.11186573226E+04  0.50400001928E-02 0.  1.
    10030    2    1    2    0    0  0.00000000000E+00  0.00000000000E+00  0.16261873321E+04  0.38635019774E+04  0.35045916010E+04 0.  0.
        2    1    3    3  502    0  0.49856275482E+03  0.14933753764E+04 -0.34979473997E+02  0.15747883664E+04  0.25500000920E-02 0.  1.
       -2    1    3    3    0  502 -0.49856275482E+03 -0.14933753764E+04  0.16611668061E+04  0.22887136110E+04  0.25500000920E-02 0. -1.
</event>
<event>
 5   0  0.6661000E-08  0.3810685E+04  0.7818609E-02  0.8043866E-01
       -1   -1    0    0    0  501  0.00000000000E+00  0.00000000000E+00  0.20835741670E+04  0.20835741671E+04  0.50400001928E-02 0. -1.
        1   -1    0    0  501    0  0.00000000000E+00  0.00000000000E+00 -0.17423568319E+04  0.17423568319E+04  0.50400001928E-02 0.  1.
    10030    2    1    2    0    0  0.00000000000E+00  0.00000000000E+00  0.34121733514E+03  0.38259309990E+04  0.38106848123E+04 0.  0.
        3    1    3    3  502    0 -0.15920498256E+04  0.53447007129E+03 -0.73301934915E+03  0.18323750383E+04  0.10100000352E+00 0.  1.
       -3    1    3    3    0  502  0.15920498256E+04 -0.53447007129E+03  0.10742366843E+04  0.19935559607E+04  0.10100000352E+00 0. -1.
</event>
<event>
 5   0  0.6661000E-08  0.3818551E+04  0.7818609E-02  0.8042186E-01
        1   -1    0    0  501    0  0.00000000000E+00  0.00000000000E+00  0.19491134461E+04  0.19491134461E+04  0.50400001928E-02 0. -1.
       -1   -1    0    0    0  501  0.00000000000E+00  0.00000000000E+00 -0.18702518944E+04  0.18702518945E+04  0.50400001928E-02 0.  1.
    10030    2    1    2    0    0  0.00000000000E+00  0.00000000000E+00  0.78861551690E+02  0.38193653406E+04  0.38185510944E+04 0.  0.
        4    1    3    3  502    0  0.73404712360E+03  0.13065204453E+04 -0.11438306321E+04  0.18852509068E+04  0.12699999809E+01 0.  1.
       -4    1    3    3    0  502 -0.73404712360E+03 -0.13065204453E+04  0.12226921838E+04  0.19341144338E+04  0.12699999809E+01 0. -1.
</event>
<event>
 5   0  0.6661000E-08  0.3744131E+04  0.7818609E-02  0.8058252E-01
       -1   -1    0    0    0  501  0.00000000000E+00  0.00000000000E+00  0.14877175590E+04  0.14877175590E+04  0.50400001928E-02 0.  1.
        1   -1    0    0  501    0  0.00000000000E+00  0.00000000000E+00 -0.23557088443E+04  0.23557088443E+04  0.50400001928E-02 0. -1.
    10030    2    1    2    0    0  0.00000000000E+00  0.00000000000E+00 -0.86799128533E+03  0.38434264033E+04  0.37441310936E+04 0.  0.
        2    1    3    3  502    0  0.11633345047E+03  0.17027287325E+04  0.35569859205E+03  0.17433703268E+04  0.25500000920E-02 0.  1.
       -2    1    3    3    0  502 -0.11633345047E+03 -0.17027287325E+04 -0.12236898774E+04  0.21000560764E+04  0.25500000920E-02 0. -1.
</event>
<event>
 5   0  0.6661000E-08  0.3808923E+04  0.7818609E-02  0.8044243E-01
       -1   -1    0    0    0  501  0.00000000000E+00  0.00000000000E+00  0.12573861167E+04  0.12573861167E+04  0.50400001928E-02 0.  1.
        1   -1    0    0  501    0  0.00000000000E+00  0.00000000000E+00 -0.28845340395E+04  0.28845340395E+04  0.50400001928E-02 0. -1.
    10030    2    1    2    0    0  0.00000000000E+00  0.00000000000E+00 -0.16271479227E+04  0.41419201562E+04  0.38089227110E+04 0.  0.
        1    1    3    3  502    0 -0.58887517772E+03  0.16501638270E+04 -0.16252615643E+04  0.23898304926E+04  0.50400001928E-02 0. -1.
       -1    1    3    3    0  502  0.58887517772E+03 -0.16501638270E+04 -0.18863584507E+01  0.17520896636E+04  0.50400001928E-02 0.  1.
</event>
<event>
 5   0  0.2205204E-07  0.3709252E+04  0.7818609E-02  0.8065915E-01
        2   -1    0    0  501    0  0.00000000000E+00  0.00000000000E+00  0.16970600994E+04  0.16970600994E+04  0.25500000920E-02 0. -1.
       -2   -1    0    0    0  501  0.00000000000E+00  0.00000000000E+00 -0.20268207874E+04  0.20268207875E+04  0.25500000920E-02 0.  1.
    10030    2    1    2    0    0  0.00000000000E+00  0.00000000000E+00 -0.32976068809E+03  0.37238808868E+04  0.37092515077E+04 0.  0.
        2    1    3    3  502    0  0.65734552949E+03 -0.55343906993E+03  0.14851464012E+04  0.17158256853E+04  0.25500000920E-02 0. -1.
       -2    1    3    3    0  502 -0.65734552949E+03  0.55343906993E+03 -0.18149070893E+04  0.20080552015E+04  0.25500000920E-02 0.  1.
</event>
<event>
 5   0  0.6661000E-08  0.3827767E+04  0.7818609E-02  0.8040222E-01
        1   -1    0    0  501    0  0.00000000000E+00  0.00000000000E+00  0.19003871367E+04  0.19003871367E+04  0.50400001928E-02 0.  1.
       -1   -1    0    0    0  501  0.00000000000E+00  0.00000000000E+00 -0.19274758518E+04  0.19274758518E+04  0.50400001928E-02 0. -1.
    10030    2    1    2    0    0  0.00000000000E+00  0.00000000000E+00 -0.27088715111E+02  0.38278629885E+04  0.38277671377E+04 0.  0.
        2    1    3    3  502    0  0.27277385860E+03  0.14473437001E+04 -0.12357619164E+04  0.19225807859E+04  0.25500000920E-02 0. -1.
       -2    1    3    3    0  502 -0.27277385860E+03 -0.14473437001E+04  0.12086732013E+04  0.19052822026E+04  0.25500000920E-02 0.  1.
</event>
<event>
 5   0  0.2135314E-07  0.3804240E+04  0.7818609E-02  0.8045246E-01
       -2   -1    0    0    0  501  0.00000000000E+00  0.00000000000E+00  0.26603308881E+04  0.26603308881E+04  0.25500000920E-02 0. -1.
        2   -1    0    0  501    0  0.00000000000E+00  0.00000000000E+00 -0.13600039355E+04  0.13600039355E+04  0.25500000920E-02 0.  1.
    10030    2    1    2    0    0  0.00000000000E+00  0.00000000000E+00  0.13003269526E+04  0.40203348236E+04  0.38042399911E+04 0.  0.
        4    1    3    3  502    0  0.97045231296E+03  0.16340259512E+04  0.73364670966E+03  0.20371690182E+04  0.12699999809E+01 0. -1.
       -4    1    3    3    0  502 -0.97045231296E+03 -0.16340259512E+04  0.56668024295E+03  0.19831658054E+04  0.12699999809E+01 0.  1.
</event>
<event>
 5   0  0.6661000E-08  0.3774023E+04  0.7818609E-02  0.8051753E-01
       -1   -1    0    0    0  501  0.00000000000E+00  0.00000000000E+00  0.16825739565E+04  0.16825739565E+04  0.50400001928E-02 0.  1.
        1   -1    0    0  501    0  0.00000000000E+00  0.00000000000E+00 -0.21162888033E+04  0.21162888033E+04  0.50400001928E-02 0. -1.
    10030    2    1    2    0    0  0.00000000000E+00  0.00000000000E+00 -0.43371484678E+03  0.37988627598E+04  0.37740230126E+04 0.  0.
        4    1    3    3  502    0  0.23826682287E+02 -0.18400822770E+04 -0.63714637502E+03  0.19474156241E+04  0.12699999809E+01 0. -1.
       -4    1    3    3    0  502 -0.23826682287E+02  0.18400822770E+04  0.20343152824E+03  0.18514471357E+04  0.12699999809E+01 0.  1.
</event>
<event>
 5   0  0.6661000E-08  0.3786748E+04  0.7818609E-02  0.8049005E-01
       -1   -1    0    0    0  501  0.00000000000E+00  0.00000000000E+00  0.24838505717E+04  0.24838505717E+04  0.50400001928E-02 0.  1.
        1   -1    0    0  501    0  0.00000000000E+00  0.00000000000E+00 -0.14432689562E+04  0.14432689562E+04  0.50400001928E-02 0. -1.
    10030    2    1    2    0    0  0.00000000000E+00  0.00000000000E+00  0.10405816156E+04  0.39271195279E+04  0.37867476399E+04 0.  0.
        3    1    3    3  502    0 -0.75393368521E+03  0.19625510259E+03  0.23099287138E+04  0.24377659322E+04  0.10100000352E+00 0.  1.
       -3    1    3    3    0  502  0.75393368521E+03 -0.19625510259E+03 -0.12693470983E+04  0.14893535957E+04  0.10100000352E+00 0. -1.
</event>
<event>
 5   0  0.2205204E-07  0.3825311E+04  0.7818609E-02  0.8040745E-01
        2   -1    0    0  501    0  0.00000000000E+00  0.00000000000E+00  0.11382479910E+04  0.11382479910E+04  0.25500000920E-02 0. -1.
       -2   -1    0    0    0  501  0.00000000000E+00  0.00000000000E+00 -0.32139307669E+04  0.32139307669E+04  0.25500000920E-02 0.  1.
    10030    2    1    2    0    0  0.00000000000E+00  0.00000000000E+00 -0.20756827759E+04  0.43521787579E+04  0.38253105697E+04 0.  0.
        2    1    3    3  502    0 -0.63912367084E+03  0.41512887267E+03  0.95804016672E+03  0.12241944325E+04  0.25500000920E-02 0. -1.
       -2    1    3    3    0  502  0.63912367084E+03 -0.41512887267E+03 -0.30337229426E+04  0.31279843254E+04  0.25500000920E-02 0.  1.
</event>
<event>
 5   0  0.2203998E-07  0.3786294E+04  0.7818609E-02  0.8049103E-01
       -2   -1    0    0    0  501  0.00000000000E+00  0.00000000000E+00  0.18673050127E+04  0.18673050127E+04  0.25500000920E-02 0.  1.
        2   -1    0    0  501    0  0.00000000000E+00  0.00000000000E+00 -0.19193468020E+04  0.19193468020E+04  0.25500000920E-02 0. -1.
    10030    2    1    2    0    0  0.00000000000E+00  0.00000000000E+00 -0.52041789278E+02  0.37866518147E+04  0.37862941801E+04 0.  0.
        3    1    3    3  502    0 -0.61855362890E+03 -0.11150694769E+04  0.13734030121E+04  0.18740929471E+04  0.10100000352E+00 0.  1.
       -3    1    3    3    0  502  0.61855362890E+03  0.11150694769E+04 -0.14254448014E+04  0.19125588677E+04  0.10100000352E+00 0. -1.
</event>
<event>
 5   0  0.1370688E-07  0.3778582E+04  0.7818609E-02  0.8050767E-01
        2   -1    0    0  501    0  0.00000000000E+00  0.00000000000E+00  0.13827335928E+04  0.13827335928E+04  0.25500000920E-02 0.  1.
       -2   -1    0    0    0  501  0.00000000000E+00  0.00000000000E+00 -0.25814233692E+04  0.25814233692E+04  0.25500000920E-02 0. -1.
    10030    2    1    2    0    0  0.00000000000E+00  0.00000000000E+00 -0.11986897764E+04  0.39641569620E+04  0.37785821731E+04 0.  0.
        5    1    3    3  502    0  0.38325208975E+03 -0.16266430857E+04  0.32515391857E+03  0.17025266674E+04  0.46999998093E+01 0.  1.
       -5    1    3    3    0  502 -0.38325208975E+03  0.16266430857E+04 -0.15238436950E+04  0.22616302946E+04  0.46999998093E+01 0. -1.
</event>
<event>
 5   0  0.6661000E-08  0.3801185E+04  0.7818609E-02  0.8045901E-01
        1   -1    0    0  501    0  0.00000000000E+00  0.00000000000E+00  0.19900096214E+04  0.19900096214E+04  0.50400001928E-02 0.  1.
       -1   -1    0    0    0  501  0.00000000000E+00  0.00000000000E+00 -0.18151928923E+04  0.18151928923E+04  0.50400001928E-02 0. -1.
    10030    2    1    2    0    0  0.00000000000E+00  0.00000000000E+00  0.17481672909E+03  0.38052025137E+04  0.38011847207E+04 0.  0.
        2    1    3    3  502    0 -0.13029613248E+04 -0.13761599916E+04  0.23152853283E+03  0.19092223542E+04  0.25500000920E-02 0.  1.
       -2    1    3    3    0  502  0.13029613248E+04  0.13761599916E+04 -0.56711803735E+02  0.18959801594E+04  0.25500000920E-02 0. -1.
</event>
<event>
 5   0  0.6661000E-08  0.3795173E+04  0.7818609E-02  0.8047191E-01
        1   -1    0    0  501    0  0.00000000000E+00  0.00000000000E+00  0.21428854241E+04  0.21428854241E+04  0.50400001928E-02 0. -1.
       -1   -1    0    0    0  501  0.00000000000E+00  0.00000000000E+00 -0.16803677059E+04  0.16803677059E+04  0.50400001928E-02 0.  1.
    10030    2    1    2    0    0  0.00000000000E+00  0.00000000000E+00  0.46251771818E+03  0.38232531300E+04  0.37951734949E+04 0.  0.
        1    1    3    3  502    0  0.37478558483E+03  0.37913201001E+03 -0.16033772651E+04  0.16896816179E+04  0.50400001928E-02 0.  1.
       -1    1    3    3    0  502 -0.37478558483E+03 -0.37913201001E+03  0.20658949832E+04  0.21335715121E+04  0.50400001928E-02 0. -1.
</event>
<event>
 5   0  0.6661000E-08  0.3552141E+04  0.7818609E-02  0.8101543E-01
       -1   -1    0    0    0  501  0.00000000000E+00  0.00000000000E+00  0.18221941225E+04  0.18221941225E+04  0.50400001928E-02 0. -1.
        1   -1    0    0  501    0  0.00000000000E+00  0.00000000000E+00 -0.17311142748E+04  0.17311142748E+04  0.50400001928E-02 0.  1.
    10030    2    1    2    0    0  0.00000000000E+00  0.00000000000E+00  0.91079847672E+02  0.35533083973E+04  0.35521409076E+04 0.  0.
        3    1    3    3  502    0 -0.13743157747E+04  0.76210608037E+03 -0.78230486476E+03  0.17554345439E+04  0.10100000352E+00 0. -1.
       -3    1    3    3    0  502  0.13743157747E+04 -0.76210608037E+03  0.87338471244E+03  0.17978738533E+04  0.10100000352E+00 0.  1.
</event>
<event>
 5   0  0.2203998E-07  0.3866159E+04  0.7818609E-02  0.8032105E-01
       -2   -1    0    0    0  501  0.00000000000E+00  0.00000000000E+00  0.17403667928E+04  0.17403667928E+04  0.25500000920E-02 0.  1.
        2   -1    0    0  501    0  0.00000000000E+00  0.00000000000E+00 -0.21471315676E+04  0.21471315676E+04  0.25500000920E-02 0. -1.
    10030    2    1    2    0    0  0.00000000000E+00  0.00000000000E+00 -0.40676477477E+03  0.38874983604E+04  0.38661590655E+04 0.  0.
        3    1    3    3  502    0 -0.69663671754E+03 -0.21660523429E+03  0.15966312005E+04  0.17554064328E+04  0.10100000352E+00 0.  1.
       -3    1    3    3    0  502  0.69663671754E+03  0.21660523429E+03 -0.20033959753E+04  0.21320919276E+04  0.10100000352E+00 0. -1.
</event>
<event>
 5   0  0.2205204E-07  0.3801597E+04  0.7818609E-02  0.8045812E-01
        2   -1    0    0  501    0  0.00000000000E+00  0.00000000000E+00  0.17018741463E+04  0.17018741463E+04  0.25500000920E-02 0.  1.
       -2   -1    0    0    0  501  0.00000000000E+00  0.00000000000E+00 -0.21229743413E+04  0.21229743413E+04  0.25500000920E-02 0. -1.
    10030    2    1    2    0    0  0.00000000000E+00  0.00000000000E+00 -0.42110019507E+03  0.38248484876E+04  0.38015971089E+04 0.  0.
        2    1    3    3  502    0 -0.18114300237E+04  0.25497778281E+03  0.30908018780E+03  0.18552150719E+04  0.25500000920E-02 0. -1.
       -2    1    3    3    0  502  0.18114300237E+04 -0.25497778281E+03 -0.73018038287E+03  0.19696334157E+04  0.25500000920E-02 0.  1.
</event>
<event>
 5   0  0.1370688E-07  0.3889065E+04  0.7818609E-02  0.8027307E-01
       -2   -1    0    0    0  501  0.00000000000E+00  0.00000000000E+00  0.20413973552E+04  0.20413973552E+04  0.25500000920E-02 0. -1.
        2   -1    0    0  501    0  0.00000000000E+00  0.00000000000E+00 -0.18522640102E+04  0.18522640102E+04  0.25500000920E-02 0.  1.
    10030    2    1    2    0    0  0.00000000000E+00  0.00000000000E+00  0.18913334507E+03  0.38936613654E+04  0.38890651070E+04 0.  0.
        5    1    3    3  502    0  0.18097109699E+04 -0.14464099865E+03 -0.60282669481E+03  0.19129550248E+04  0.46999998093E+01 0.  1.
       -5    1    3    3    0  502 -0.18097109699E+04  0.14464099865E+03  0.79196003988E+03  0.19807063406E+04  0.46999998093E+01 0. -1.
</event>
<event>
 5   0  0.1370688E-07  0.3768533E+04  0.7818609E-02  0.8052942E-01
        2   -1    0    0  501    0  0.00000000000E+00  0.00000000000E+00  0.13396173080E+04  0.13396173080E+04  0.25500000920E-02 0.  1.
       -2   -1    0    0    0  501  0.00000000000E+00  0.00000000000E+00 -0.26503534250E+04  0.26503534250E+04  0.25500000920E-02 0. -1.
    10030    2    1    2    0    0  0.00000000000E+00  0.00000000000E+00 -0.13107361170E+04  0.39899707329E+04  0.37685325103E+04 0.  0.
        5    1    3    3  502    0  0.14419063184E+04  0.18331695882E+02  0.62874973838E+03  0.15731427798E+04  0.46999998093E+01 0.  1.
       -5    1    3    3    0  502 -0.14419063184E+04 -0.18331695882E+02 -0.19394858553E+04  0.24168279532E+04  0.46999998093E+01 0. -1.
</event>
<event>
 5   0  0.2081337E-07  0.3799469E+04  0.7818609E-02  0.8046269E-01
        2   -1    0    0  501    0  0.00000000000E+00  0.00000000000E+00  0.13916619560E+04  0.13916619560E+04  0.25500000920E-02 0. -1.
       -2   -1    0    0    0  501  0.00000000000E+00  0.00000000000E+00 -0.25932961623E+04  0.25932961623E+04  0.25500000920E-02 0.  1.
    10030    2    1    2    0    0  0.00000000000E+00  0.00000000000E+00 -0.12016342063E+04  0.39849581183E+04  0.37994692311E+04 0.  0.
        1    1    3    3  502    0 -0.37528523711E+03  0.67104169922E+03 -0.24228241823E+04  0.25418916164E+04  0.50400001928E-02 0.  1.
       -1    1    3    3    0  502  0.37528523711E+03 -0.67104169922E+03  0.12211899760E+04  0.14430665018E+04  0.50400001928E-02 0. -1.
</event>
<event>
 5   0  0.6661000E-08  0.3372590E+04  0.7818609E-02  0.8144667E-01
        1   -1    0    0  501    0  0.00000000000E+00  0.00000000000E+00  0.19379786631E+04  0.19379786631E+04  0.50400001928E-02 0.  1.
       -1   -1    0    0    0  501  0.00000000000E+00  0.00000000000E+00 -0.14672971642E+04  0.14672971642E+04  0.50400001928E-02 0. -1.
    10030    2    1    2    0    0  0.00000000000E+00  0.00000000000E+00  0.47068149888E+03  0.34052758273E+04  0.33725898634E+04 0.  0.
        1    1    3    3  502    0  0.50081914958E+03 -0.85768989041E+02  0.18588465760E+04  0.19270409267E+04  0.50400001928E-02 0.  1.
       -1    1    3    3    0  502 -0.50081914958E+03  0.85768989041E+02 -0.13881650771E+04  0.14782349006E+04  0.50400001928E-02 0. -1.
</event>
<event>
 5   0  0.2081337E-07  0.3800781E+04  0.7818609E-02  0.8045987E-01
       -2   -1    0    0    0  501  0.00000000000E+00  0.00000000000E+00  0.19590981270E+04  0.19590981271E+04  0.25500000920E-02 0. -1.
        2   -1    0    0  501    0  0.00000000000E+00  0.00000000000E+00 -0.18434425447E+04  0.18434425447E+04  0.25500000920E-02 0.  1.
    10030    2    1    2    0    0  0.00000000000E+00  0.00000000000E+00  0.11565558237E+03  0.38025406717E+04  0.38007814126E+04 0.  0.
        1    1    3    3  502    0 -0.15108418831E+04  0.78654498666E+03 -0.78528917797E+03  0.18756266433E+04  0.50400001928E-02 0. -1.
       -1    1    3    3    0  502  0.15108418831E+04 -0.78654498666E+03  0.90094476034E+03  0.19269140285E+04  0.50400001928E-02 0.  1.
</event>
<event>
 5   0  0.1370688E-07  0.3768670E+04  0.7818609E-02  0.8052912E-01
       -2   -1    0    0    0  501  0.00000000000E+00  0.00000000000E+00  0.11576337170E+04  0.11576337170E+04  0.25500000920E-02 0. -1.
        2   -1    0    0  501    0  0.00000000000E+00  0.00000000000E+00 -0.30672207818E+04  0.30672207818E+04  0.25500000920E-02 0.  1.
    10030    2    1    2    0    0  0.00000000000E+00  0.00000000000E+00 -0.19095870648E+04  0.42248544988E+04  0.37686698950E+04 0.  0.
        5    1    3    3  502    0 -0.15570094490E+04  0.64613823144E+03 -0.18986875029E+04  0.25390567859E+04  0.46999998093E+01 0.  1.
       -5    1    3    3    0  502  0.15570094490E+04 -0.64613823144E+03 -0.10899561880E+02  0.16857977129E+04  0.46999998093E+01 0. -1.
</event>
<event>
 5   0  0.6661000E-08  0.3807040E+04  0.7818609E-02  0.8044646E-01
       -1   -1    0    0    0  501  0.00000000000E+00  0.00000000000E+00  0.11911922255E+04  0.11911922255E+04  0.50400001928E-02 0. -1.
        1   -1    0    0  501    0  0.00000000000E+00  0.00000000000E+00 -0.30418174690E+04  0.30418174690E+04  0.50400001928E-02 0.  1.
    10030    2    1    2    0    0  0.00000000000E+00  0.00000000000E+00 -0.18506252435E+04  0.42330096945E+04  0.38070404886E+04 0.  0.
        2    1    3    3  502    0 -0.88620118592E+01  0.12149377005E+04  0.70399007229E+03  0.14041916440E+04  0.25500000920E-02 0. -1.
       -2    1    3    3    0  502  0.88620118592E+01 -0.12149377005E+04 -0.25546153158E+04  0.28288180505E+04  0.25500000920E-02 0.  1.
</event>
<event>
 5   0  0.2135314E-07  0.3810016E+04  0.7818609E-02  0.8044009E-01
       -2   -1    0    0    0  501  0.00000000000E+00  0.00000000000E+00  0.25815326861E+04  0.25815326861E+04  0.25500000920E-02 0.  1.
        2   -1    0    0  501    0  0.00000000000E+00  0.00000000000E+00 -0.14057751929E+04  0.14057751929E+04  0.25500000920E-02 0. -1.
    10030    2    1    2    0    0  0.00000000000E+00  0.00000000000E+00  0.11757574932E+04  0.39873078789E+04  0.38100155431E+04 0.  0.
        4    1    3    3  502    0 -0.18771747187E+04  0.31252047366E+03  0.49664994203E+03  0.19667528438E+04  0.12699999809E+01 0.  1.
       -4    1    3    3    0  502  0.18771747187E+04 -0.31252047366E+03  0.67910755114E+03  0.20205550351E+04  0.12699999809E+01 0. -1.
</event>
<event>
 5   0  0.2205204E-07  0.3798346E+04  0.7818609E-02  0.8046510E-01
       -2   -1    0    0    0  501  0.00000000000E+00  0.00000000000E+00  0.17171724146E+04  0.17171724146E+04  0.25500000920E-02 0.  1.
        2   -1    0    0  501    0  0.00000000000E+00  0.00000000000E+00 -0.21004634890E+04  0.21004634890E+04  0.25500000920E-02 0. -1.
    10030    2    1    2    0    0  0.00000000000E+00  0.00000000000E+00 -0.38329107446E+03  0.38176359036E+04  0.37983459354E+04 0.  0.
        2    1    3    3  502    0 -0.10546809557E+04 -0.13388543652E+04 -0.10337400224E+04  0.19933643329E+04  0.25500000920E-02 0. -1.
       -2    1    3    3    0  502  0.10546809557E+04  0.13388543652E+04  0.65044894797E+03  0.18242715707E+04  0.25500000920E-02 0.  1.
</event>
<event>
 5   0  0.6725199E-08  0.3794773E+04  0.7818609E-02  0.8047278E-01
        1   -1    0    0  501    0  0.00000000000E+00  0.00000000000E+00  0.25792221719E+04  0.25792221719E+04  0.50400001928E-02 0. -1.
       -1   -1    0    0    0  501  0.00000000000E+00  0.00000000000E+00 -0.13957987737E+04  0.13957987737E+04  0.50400001928E-02 0.  1.
    10030    2    1    2    0    0  0.00000000000E+00  0.00000000000E+00  0.11834233982E+04  0.39750209455E+04  0.37947727966E+04 0.  0.
        5    1    3    3  502    0 -0.13777992987E+04  0.12366772611E+04  0.15683997018E+03  0.18580426319E+04  0.46999998093E+01 0. -1.
       -5    1    3    3    0  502  0.13777992987E+04 -0.12366772611E+04  0.10265834280E+04  0.21169783136E+04  0.46999998093E+01 0.  1.
</event>
<event>
 5   0  0.1370688E-07  0.3806067E+04  0.7818609E-02  0.8044854E-01
       -2   -1    0    0    0  501  0.00000000000E+00  0.00000000000E+00  0.14394032220E+04  0.14394032220E+04  0.25500000920E-02 0. -1.
        2   -1    0    0  501    0  0.00000000000E+00  0.00000000000E+00 -0.25159989555E+04  0.25159989555E+04  0.25500000920E-02 0.  1.
    10030    2    1    2    0    0  0.00000000000E+00  0.00000000000E+00 -0.10765957334E+04  0.39554021775E+04  0.38060672633E+04 0.  0.
        5    1    3    3  502    0  0.15853978738E+04  0.10199708106E+04 -0.26792060819E+03  0.19041088243E+04  0.46999998093E+01 0. -1.
       -5    1    3    3    0  502 -0.15853978738E+04 -0.10199708106E+04 -0.80867512524E+03  0.20512933532E+04  0.46999998093E+01 0.  1.
</event>
<event>
 5   0  0.2205204E-07  0.3824699E+04  0.7818609E-02  0.8040875E-01
        2   -1    0    0  501    0  0.00000000000E+00  0.00000000000E+00  0.15175248990E+04  0.15175248990E+04  0.25500000920E-02 0. -1.
       -2   -1    0    0    0  501  0.00000000000E+00  0.00000000000E+00 -0.24098981573E+04  0.24098981573E+04  0.25500000920E-02 0.  1.
    10030    2    1    2    0    0  0.00000000000E+00  0.00000000000E+00 -0.89237325835E+03  0.39274230563E+04  0.38246989203E+04 0.  0.
        2    1    3    3  502    0  0.41357699681E+03 -0.10465083303E+04 -0.20339545987E+04  0.23244777752E+04  0.25500000920E-02 0.  1.
       -2    1    3    3    0  502 -0.41357699681E+03  0.10465083303E+04  0.11415813403E+04  0.16029452811E+04  0.25500000920E-02 0. -1.
</event>
<event>
 5   0  0.1370688E-07  0.3805625E+04  0.7818609E-02  0.8044949E-01
       -2   -1    0    0    0  501  0.00000000000E+00  0.00000000000E+00  0.28715080156E+04  0.28715080156E+04  0.25500000920E-02 0.  1.
        2   -1    0    0  501    0  0.00000000000E+00  0.00000000000E+00 -0.12609037907E+04  0.12609037907E+04  0.25500000920E-02 0. -1.
    10030    2    1    2    0    0  0.00000000000E+00  0.00000000000E+00  0.16106042249E+04  0.41324118063E+04  0.38056249642E+04 0.  0.
        5    1    3    3  502    0 -0.77002520522E+03  0.87700126019E+03 -0.82661305282E+03  0.14301682615E+04  0.46999998093E+01 0. -1.
       -5    1    3    3    0  502  0.77002520522E+03 -0.87700126019E+03  0.24372172777E+04  0.27022435449E+04  0.46999998093E+01 0.  1.
</event>
<event>
 5   0  0.6661000E-08  0.3801819E+04  0.7818609E-02  0.8045765E-01
        1   -1    0    0  501    0  0.00000000000E+00  0.00000000000E+00  0.12067622707E+04  0.12067622707E+04  0.50400001928E-02 0.  1.
       -1   -1    0    0    0  501  0.00000000000E+00  0.00000000000E+00 -0.29943409361E+04  0.29943409361E+04  0.50400001928E-02 0. -1.
    10030    2    1    2    0    0  0.00000000000E+00  0.00000000000E+00 -0.17875786654E+04  0.42011032068E+04  0.38018193893E+04 0.  0.
        3    1    3    3  502    0 -0.14519356926E+04 -0.38872110466E+03 -0.21797245658E+04  0.26477198767E+04  0.10100000352E+00 0. -1.
       -3    1    3    3    0  502  0.14519356926E+04  0.38872110466E+03  0.39214590042E+03  0.15533833300E+04  0.10100000352E+00 0.  1.
</event>
<event>
 5   0  0.2081337E-07  0.3731609E+04  0.7818609E-02  0.8060993E-01
        2   -1    0    0  501    0  0.00000000000E+00  0.00000000000E+00  0.16647553065E+04  0.16647553065E+04  0.25500000920E-02 0. -1.
       -2   -1    0    0    0  501  0.00000000000E+00  0.00000000000E+00 -0.20911343285E+04  0.20911343285E+04  0.25500000920E-02 0.  1.
    10030    2    1    2    0    0  0.00000000000E+00  0.00000000000E+00 -0.42637902205E+03  0.37558896350E+04  0.37316092882E+04 0.  0.
        1    1    3    3  502    0  0.14191867877E+04  0.16270129802E+03  0.99489697666E+03  0.17407994844E+04  0.50400001928E-02 0. -1.
       -1    1    3    3    0  502 -0.14191867877E+04 -0.16270129802E+03 -0.14212759987E+04  0.20150901506E+04  0.50400001928E-02 0.  1.
</event>
<event>
 5   0  0.6661000E-08  0.3805064E+04  0.7818609E-02  0.8045069E-01
       -1   -1    0    0    0  501  0.00000000000E+00  0.00000000000E+00  0.15864277583E+04  0.15864277583E+04  0.50400001928E-02 0.  1.
        1   -1    0    0  501    0  0.00000000000E+00  0.00000000000E+00 -0.22816221305E+04  0.22816221305E+04  0.50400001928E-02 0. -1.
    10030    2    1    2    0    0  0.00000000000E+00  0.00000000000E+00 -0.69519437222E+03  0.38680498888E+04  0.38050643525E+04 0.  0.
        3    1    3    3  502    0 -0.15639236028E+04 -0.10625099242E+04 -0.56286726567E+03  0.19727148662E+04  0.10100000352E+00 0. -1.
       -3    1    3    3    0  502  0.15639236028E+04  0.10625099242E+04 -0.13232710655E+03  0.18953350226E+04  0.10100000352E+00 0.  1.
</event>
<event>
 5   0  0.2205204E-07  0.3799009E+04  0.7818609E-02  0.8046367E-01
       -2   -1    0    0    0  501  0.00000000000E+00  0.00000000000E+00  0.14813637916E+04  0.14813637916E+04  0.25500000920E-02 0. -1.
        2   -1    0    0  501    0  0.00000000000E+00  0.00000000000E+00 -0.24356732698E+04  0.24356732698E+04  0.25500000920E-02 0.  1.
    10030    2    1    2    0    0  0.00000000000E+00  0.00000000000E+00 -0.95430947818E+03  0.39170370615E+04  0.37990094447E+04 0.  0.
        2    1    3    3  502    0 -0.10841255648E+04 -0.89840272597E+03  0.83747211743E+03  0.16382354061E+04  0.25500000920E-02 0. -1.
       -2    1    3    3    0  502  0.10841255648E+04  0.89840272597E+03 -0.17917815956E+04  0.22788016554E+04  0.25500000920E-02 0.  1.
</event>
<event>
 5   0  0.2203998E-07  0.3788560E+04  0.7818609E-02  0.8048614E-01
        2   -1    0    0  501    0  0.00000000000E+00  0.00000000000E+00  0.19524273927E+04  0.19524273927E+04  0.25500000920E-02 0. -1.
       -2   -1    0    0    0  501  0.00000000000E+00  0.00000000000E+00 -0.18378644992E+04  0.18378644992E+04  0.25500000920E-02 0.  1.
    10030    2    1    2    0    0  0.00000000000E+00  0.00000000000E+00  0.11456289347E+03  0.37902918920E+04  0.37885601447E+04 0.  0.
        3    1    3    3  502    0 -0.18476424781E+04 -0.35058043813E+03 -0.16999548140E+03  0.18882764216E+04  0.10100000352E+00 0.  1.
       -3    1    3    3    0  502  0.18476424781E+04  0.35058043813E+03  0.28455837487E+03  0.19020154703E+04  0.10100000352E+00 0. -1.
</event>
<event>
 5   0  0.2081337E-07  0.3780654E+04  0.7818609E-02  0.8050319E-01
        2   -1    0    0  501    0  0.00000000000E+00  0.00000000000E+00  0.18388963230E+04  0.18388963230E+04  0.25500000920E-02 0.  1.
       -2   -1    0    0    0  501  0.00000000000E+00  0.00000000000E+00 -0.19431957934E+04  0.19431957934E+04  0.25500000920E-02 0. -1.
    10030    2    1    2    0    0  0.00000000000E+00  0.00000000000E+00 -0.10429947039E+03  0.37820921163E+04  0.37806536997E+04 0.  0.
        1    1    3    3  502    0 -0.19248932062E+03  0.18496402067E+03 -0.19242440515E+04  0.19426731576E+04  0.50400001928E-02 0. -1.
       -1    1    3    3    0  502  0.19248932062E+03 -0.18496402067E+03  0.18199445811E+04  0.18394189587E+04  0.50400001928E-02 0.  1.
</event>
<event>
 5   0  0.1370688E-07  0.3799461E+04  0.7818609E-02  0.8046271E-01
        2   -1    0    0  501    0  0.00000000000E+00  0.00000000000E+00  0.23546085855E+04  0.23546085855E+04  0.25500000920E-02 0.  1.
       -2   -1    0    0    0  501  0.00000000000E+00  0.00000000000E+00 -0.15327285001E+04  0.15327285001E+04  0.25500000920E-02 0. -1.
    10030    2    1    2    0    0  0.00000000000E+00  0.00000000000E+00  0.82188008543E+03  0.38873370856E+04  0.37994608489E+04 0.  0.
        5    1    3    3  502    0  0.34704845975E+03 -0.16936522263E+04  0.12165868102E+04  0.21140023779E+04  0.46999998093E+01 0.  1.
       -5    1    3    3    0  502 -0.34704845975E+03  0.16936522263E+04 -0.39470672474E+03  0.17733347077E+04  0.46999998093E+01 0. -1.
</event>
<event>
 5   0  0.6661000E-08  0.3811697E+04  0.7818609E-02  0.8043649E-01
       -1   -1    0    0    0  501  0.00000000000E+00  0.00000000000E+00  0.22839852604E+04  0.22839852604E+04  0.50400001928E-02 0. -1.
        1   -1    0    0  501    0  0.00000000000E+00  0.00000000000E+00 -0.15903160619E+04  0.15903160619E+04  0.50400001928E-02 0.  1.
    10030    2    1    2    0    0  0.00000000000E+00  0.00000000000E+00  0.69366919846E+03  0.38743013223E+04  0.38116969684E+04 0.  0.
        2    1    3    3  502    0  0.10520463406E+04  0.72972507252E+03  0.17817428395E+04  0.21940619249E+04  0.25500000920E-02 0. -1.
       -2    1    3    3    0  502 -0.10520463406E+04 -0.72972507252E+03 -0.10880736410E+04  0.16802393974E+04  0.25500000920E-02 0.  1.
</event>
<event>
 5   0  0.6661000E-08  0.3793729E+04  0.7818609E-02  0.8047502E-01
        1   -1    0    0  501    0  0.00000000000E+00  0.00000000000E+00  0.17888609508E+04  0.17888609508E+04  0.50400001928E-02 0.  1.
       -1   -1    0    0    0  501  0.00000000000E+00  0.00000000000E+00 -0.20113884669E+04  0.20113884669E+04  0.50400001928E-02 0. -1.
    10030    2    1    2    0    0  0.00000000000E+00  0.00000000000E+00 -0.22252751603E+03  0.38002494177E+04  0.37937286594E+04 0.  0.
        3    1    3    3  502    0 -0.16419751909E+04 -0.81349459219E+03  0.37971980728E+03  0.18713746608E+04  0.10100000352E+00 0.  1.
       -3    1    3    3    0  502  0.16419751909E+04  0.81349459219E+03 -0.60224732331E+03  0.19288747569E+04  0.10100000352E+00 0. -1.
</event>
<event>
 5   0  0.6661000E-08  0.3891800E+04  0.7818609E-02  0.8026737E-01
       -3   -1    0    0    0  501  0.00000000000E+00  0.00000000000E+00  0.17956623672E+04  0.17956623700E+04  0.10100000352E+00 0.  1.
        3   -1    0    0  501    0  0.00000000000E+00  0.00000000000E+00 -0.21087079072E+04  0.21087079096E+04  0.10100000352E+00 0. -1.
    10030    2    1    2    0    0  0.00000000000E+00  0.00000000000E+00 -0.31304554001E+03  0.39043702796E+04  0.38918003251E+04 0.  0.
        3    1    3    3  502    0  0.12918779270E+04 -0.56465752766E+02  0.13022681278E+04  0.18352218521E+04  0.10100000352E+00 0.  1.
       -3    1    3    3    0  502 -0.12918779270E+04  0.56465752766E+02 -0.16153136678E+04  0.20691484275E+04  0.10100000352E+00 0. -1.
</event>
<event>
 5   0  0.2135314E-07  0.3846163E+04  0.7818609E-02  0.8036320E-01
       -2   -1    0    0    0  501  0.00000000000E+00  0.00000000000E+00  0.18090413025E+04  0.18090413025E+04  0.25500000920E-02 0.  1.
        2   -1    0    0  501    0  0.00000000000E+00  0.00000000000E+00 -0.20443111242E+04  0.20443111242E+04  0.25500000920E-02 0. -1.
    10030    2    1    2    0    0  0.00000000000E+00  0.00000000000E+00 -0.23526982174E+03  0.38533524267E+04  0.38461634177E+04 0.  0.
        4    1    3    3  502    0 -0.13225473096E+04 -0.13637005101E+04 -0.41724433887E+03  0.19449691305E+04  0.12699999809E+01 0. -1.
       -4    1    3    3    0  502  0.13225473096E+04  0.13637005101E+04  0.18197451712E+03  0.19083832962E+04  0.12699999809E+01 0.  1.
</event>
<event>
 5   0  0.6661000E-08  0.3792800E+04  0.7818609E-02  0.8047702E-01
       -1   -1    0    0    0  501  0.00000000000E+00  0.00000000000E+00  0.27683525580E+04  0.27683525580E+04  0.50400001928E-02 0. -1.
        1   -1    0    0  501    0  0.00000000000E+00  0.00000000000E+00 -0.12990881072E+04  0.12990881072E+04  0.50400001928E-02 0.  1.
    10030    2    1    2    0    0  0.00000000000E+00  0.00000000000E+00  0.14692644508E+04  0.40674406652E+04  0.37928004875E+04 0.  0.
        4    1    3    3  502    0  0.65838455389E+03 -0.12567735715E+04 -0.61480943259E+03  0.15462672092E+04  0.12699999809E+01 0.  1.
       -4    1    3    3    0  502 -0.65838455389E+03  0.12567735715E+04  0.20840738834E+04  0.25211734560E+04  0.12699999809E+01 0. -1.
</event>
<event>
 5   0  0.6661000E-08  0.3801591E+04  0.7818609E-02  0.8045814E-01
       -3   -1    0    0    0  501  0.00000000000E+00  0.00000000000E+00  0.25737186851E+04  0.25737186871E+04  0.10100000352E+00 0.  1.
        3   -1    0    0  501    0  0.00000000000E+00  0.00000000000E+00 -0.14038141670E+04  0.14038141706E+04  0.10100000352E+00 0. -1.
    10030    2    1    2    0    0  0.00000000000E+00  0.00000000000E+00  0.11699045181E+04  0.39775328577E+04  0.38015905951E+04 0.  0.
        5    1    3    3  502    0  0.10863385918E+04 -0.14417700531E+04 -0.37711006236E+02  0.18056236131E+04  0.46999998093E+01 0.  1.
       -5    1    3    3    0  502 -0.10863385918E+04  0.14417700531E+04  0.12076155243E+04  0.21719092446E+04  0.46999998093E+01 0. -1.
</event>
<event>
 5   0  0.6661000E-08  0.3798064E+04  0.7818609E-02  0.8046571E-01
        1   -1    0    0  501    0  0.00000000000E+00  0.00000000000E+00  0.27537826540E+04  0.27537826540E+04  0.50400001928E-02 0. -1.
       -1   -1    0    0    0  501  0.00000000000E+00  0.00000000000E+00 -0.13095884553E+04  0.13095884553E+04  0.50400001928E-02 0.  1.
    10030    2    1    2    0    0  0.00000000000E+00  0.00000000000E+00  0.14441941987E+04  0.40633711092E+04  0.37980637024E+04 0.  0.
        1    1    3    3  502    0 -0.49992915208E+03 -0.13719442471E+04  0.20210602171E+04  0.24933600974E+04  0.50400001928E-02 0. -1.
       -1    1    3    3    0  502  0.49992915208E+03  0.13719442471E+04 -0.57686601835E+03  0.15700110119E+04  0.50400001928E-02 0.  1.
</event>
<event>
 5   0  0.2081337E-07  0.3673537E+04  0.7818609E-02  0.8073852E-01
       -2   -1    0    0    0  501  0.00000000000E+00  0.00000000000E+00  0.12075468326E+04  0.12075468326E+04  0.25500000920E-02 0. -1.
        2   -1    0    0  501    0  0.00000000000E+00  0.00000000000E+00 -0.27938609383E+04  0.27938609383E+04  0.25500000920E-02 0.  1.
    10030    2    1    2    0    0  0.00000000000E+00  0.00000000000E+00 -0.15863141057E+04  0.40014077709E+04  0.36735366756E+04 0.  0.
        1    1    3    3  502    0  0.89818444904E+03  0.11021196010E+04  0.47352426422E+03  0.14985420075E+04  0.50400001928E-02 0. -1.
       -1    1    3    3    0  502 -0.89818444904E+03 -0.11021196010E+04 -0.20598383699E+04  0.25028657634E+04  0.50400001928E-02 0.  1.
</event>
<event>
 5   0  0.6725199E-08  0.3803627E+04  0.7818609E-02  0.8045377E-01
        1   -1    0    0  501    0  0.00000000000E+00  0.00000000000E+00  0.19036063899E+04  0.19036063899E+04  0.50400001928E-02 0. -1.
       -1   -1    0    0    0  501  0.00000000000E+00  0.00000000000E+00 -0.19000221129E+04  0.19000221129E+04  0.50400001928E-02 0.  1.
    10030    2    1    2    0    0  0.00000000000E+00  0.00000000000E+00  0.35842770748E+01  0.38036285028E+04  0.38036268140E+04 0.  0.
        5    1    3    3  502    0 -0.16558856968E+04  0.68362542863E+03 -0.63662100312E+03  0.19012126549E+04  0.46999998093E+01 0.  1.
       -5    1    3    3    0  502  0.16558856968E+04 -0.68362542863E+03  0.64020528019E+03  0.19024158479E+04  0.46999998093E+01 0. -1.
</event>
<event>
 5   0  0.2135314E-07  0.3756785E+04  0.7818609E-02  0.8055493E-01
       -2   -1    0    0    0  501  0.00000000000E+00  0.00000000000E+00  0.31342980864E+04  0.31342980864E+04  0.25500000920E-02 0.  1.
        2   -1    0    0  501    0  0.00000000000E+00  0.00000000000E+00 -0.11257250456E+04  0.11257250456E+04  0.25500000920E-02 0. -1.
    10030    2    1    2    0    0  0.00000000000E+00  0.00000000000E+00  0.20085730408E+04  0.42600231320E+04  0.37567847190E+04 0.  0.
        4    1    3    3  502    0  0.68937280600E+03  0.16302535656E+04  0.17173218760E+04  0.24662030720E+04  0.12699999809E+01 0.  1.
       -4    1    3    3    0  502 -0.68937280600E+03 -0.16302535656E+04  0.29125116482E+03  0.17938200600E+04  0.12699999809E+01 0. -1.
</event>
<event>
 5   0  0.2081337E-07  0.3798154E+04  0.7818609E-02  0.8046551E-01
       -2   -1    0    0    0  501  0.00000000000E+00  0.00000000000E+00  0.18781859920E+04  0.18781859920E+04  0.25500000920E-02 0. -1.
        2   -1    0    0  501    0  0.00000000000E+00  0.00000000000E+00 -0.19202003992E+04  0.19202003992E+04  0.25500000920E-02 0.  1.
    10030    2    1    2    0    0  0.00000000000E+00  0.00000000000E+00 -0.42014407221E+02  0.37983863913E+04  0.37981540210E+04 0.  0.
        1    1    3    3  502    0 -0.14987714309E+04  0.43006506601E+03 -0.11051499676E+04  0.19111850287E+04  0.50400001928E-02 0.  1.
       -1    1    3    3    0  502  0.14987714309E+04 -0.43006506601E+03  0.10631355604E+04  0.18872013626E+04  0.50400001928E-02 0. -1.
</event>
<event>
 5   0  0.2203998E-07  0.3802358E+04  0.7818609E-02  0.8045649E-01
       -2   -1    0    0    0  501  0.00000000000E+00  0.00000000000E+00  0.29134222881E+04  0.29134222881E+04  0.25500000920E-02 0. -1.
        2   -1    0    0  501    0  0.00000000000E+00  0.00000000000E+00 -0.12406309634E+04  0.12406309634E+04  0.25500000920E-02 0.  1.
    10030    2    1    2    0    0  0.00000000000E+00  0.00000000000E+00  0.16727913248E+04  0.41540532515E+04  0.38023581631E+04 0.  0.
        3    1    3    3  502    0  0.16177049889E+03  0.18821260035E+04  0.10704901244E+04  0.21712938779E+04  0.10100000352E+00 0. -1.
       -3    1    3    3    0  502 -0.16177049889E+03 -0.18821260035E+04  0.60230120032E+03  0.19827593736E+04  0.10100000352E+00 0.  1.
</event>
<event>
 5   0  0.2205204E-07  0.3493516E+04  0.7818609E-02  0.8115328E-01
        2   -1    0    0  501    0  0.00000000000E+00  0.00000000000E+00  0.12874543638E+04  0.12874543638E+04  0.25500000920E-02 0. -1.
       -2   -1    0    0    0  501  0.00000000000E+00  0.00000000000E+00 -0.23699195173E+04  0.23699195173E+04  0.25500000920E-02 0.  1.
    10030    2    1    2    0    0  0.00000000000E+00  0.00000000000E+00 -0.10824651535E+04  0.36573738811E+04  0.34935158362E+04 0.  0.
        2    1    3    3  502    0 -0.12366988014E+03 -0.53999041209E+03 -0.22755189066E+04  0.23419799697E+04  0.25500000920E-02 0.  1.
       -2    1    3    3    0  502  0.12366988014E+03  0.53999041209E+03  0.11930537531E+04  0.13153939114E+04  0.25500000920E-02 0. -1.
</event>
<event>
 5   0  0.2081337E-07  0.3805363E+04  0.7818609E-02  0.8045005E-01
       -2   -1    0    0    0  501  0.00000000000E+00  0.00000000000E+00  0.18641110518E+04  0.18641110518E+04  0.25500000920E-02 0.  1.
        2   -1    0    0  501    0  0.00000000000E+00  0.00000000000E+00 -0.19420499907E+04  0.19420499907E+04  0.25500000920E-02 0. -1.
    10030    2    1    2    0    0  0.00000000000E+00  0.00000000000E+00 -0.77938938833E+02  0.38061610425E+04  0.38053629792E+04 0.  0.
        1    1    3    3  502    0  0.21940295375E+03 -0.24103099473E+03 -0.19139194182E+04  0.19414739596E+04  0.50400001928E-02 0. -1.
       -1    1    3    3    0  502 -0.21940295375E+03  0.24103099473E+03  0.18359804793E+04  0.18646870829E+04  0.50400001928E-02 0.  1.
</event>
<event>
 5   0  0.1370688E-07  0.3770672E+04  0.7818609E-02  0.8052478E-01
       -2   -1    0    0    0  501  0.00000000000E+00  0.00000000000E+00  0.18129226430E+04  0.18129226430E+04  0.25500000920E-02 0.  1.
        2   -1    0    0  501    0  0.00000000000E+00  0.00000000000E+00 -0.19606416517E+04  0.19606416517E+04  0.25500000920E-02 0. -1.
    10030    2    1    2    0    0  0.00000000000E+00  0.00000000000E+00 -0.14771900872E+03  0.37735642948E+04  0.37706719005E+04 0.  0.
        5    1    3    3  502    0  0.17160856636E+04  0.75314009311E+03  0.13196680495E+03  0.18787249219E+04  0.46999998093E+01 0. -1.
       -5    1    3    3    0  502 -0.17160856636E+04 -0.75314009311E+03 -0.27968581367E+03  0.18948393729E+04  0.46999998093E+01 0.  1.
</event>
<event>
 5   0  0.2205204E-07  0.3790770E+04  0.7818609E-02  0.8048139E-01
       -2   -1    0    0    0  501  0.00000000000E+00  0.00000000000E+00  0.17842164311E+04  0.17842164311E+04  0.25500000920E-02 0. -1.
        2   -1    0    0  501    0  0.00000000000E+00  0.00000000000E+00 -0.20134796986E+04  0.20134796986E+04  0.25500000920E-02 0.  1.
    10030    2    1    2    0    0  0.00000000000E+00  0.00000000000E+00 -0.22926326751E+03  0.37976961297E+04  0.37907696115E+04 0.  0.
        2    1    3    3  502    0  0.18033555742E+04  0.18896506465E+03  0.43835923347E+03  0.18654645374E+04  0.25500000920E-02 0. -1.
       -2    1    3    3    0  502 -0.18033555742E+04 -0.18896506465E+03 -0.66762250098E+03  0.19322315923E+04  0.25500000920E-02 0.  1.
</event>
<event>
 5   0  0.6661000E-08  0.3787006E+04  0.7818609E-02  0.8048949E-01
        1   -1    0    0  501    0  0.00000000000E+00  0.00000000000E+00  0.20897553359E+04  0.20897553359E+04  0.50400001928E-02 0. -1.
       -1   -1    0    0    0  501  0.00000000000E+00  0.00000000000E+00 -0.17156813221E+04  0.17156813221E+04  0.50400001928E-02 0.  1.
    10030    2    1    2    0    0  0.00000000000E+00  0.00000000000E+00  0.37407401380E+03  0.38054366581E+04  0.37870063098E+04 0.  0.
        3    1    3    3  502    0 -0.36603584175E+03  0.18429111101E+04  0.42280750350E+03  0.19258945435E+04  0.10100000352E+00 0.  1.
       -3    1    3    3    0  502  0.36603584175E+03 -0.18429111101E+04 -0.48733489693E+02  0.18795421146E+04  0.10100000352E+00 0. -1.
</event>
<event>
 5   0  0.6661000E-08  0.3829046E+04  0.7818609E-02  0.8039950E-01
        1   -1    0    0  501    0  0.00000000000E+00  0.00000000000E+00  0.26857128155E+04  0.26857128155E+04  0.50400001928E-02 0.  1.
       -1   -1    0    0    0  501  0.00000000000E+00  0.00000000000E+00 -0.13647767149E+04  0.13647767149E+04  0.50400001928E-02 0. -1.
    10030    2    1    2    0    0  0.00000000000E+00  0.00000000000E+00  0.13209361007E+04  0.40504895304E+04  0.38290459979E+04 0.  0.
        1    1    3    3  502    0  0.16592272142E+04 -0.78504314643E+03  0.84876262130E+02  0.18375341276E+04  0.50400001928E-02 0. -1.
       -1    1    3    3    0  502 -0.16592272142E+04  0.78504314643E+03  0.12360598385E+04  0.22129554028E+04  0.50400001928E-02 0.  1.
</event>
<event>
 5   0  0.2135314E-07  0.3781587E+04  0.7818609E-02  0.8050118E-01
        2   -1    0    0  501    0  0.00000000000E+00  0.00000000000E+00  0.23873691629E+04  0.23873691629E+04  0.25500000920E-02 0.  1.
       -2   -1    0    0    0  501  0.00000000000E+00  0.00000000000E+00 -0.14975059193E+04  0.14975059193E+04  0.25500000920E-02 0. -1.
    10030    2    1    2    0    0  0.00000000000E+00  0.00000000000E+00  0.88986324363E+03  0.38848750823E+04  0.37815866792E+04 0.  0.
        4    1    3    3  502    0 -0.96666654387E+03 -0.12551356255E+04  0.15052506528E+04  0.21853125145E+04  0.12699999809E+01 0.  1.
       -4    1    3    3    0  502  0.96666654387E+03  0.12551356255E+04 -0.61538740918E+03  0.16995625678E+04  0.12699999809E+01 0. -1.
</event>
<event>
 5   0  0.1370688E-07  0.3812948E+04  0.7818609E-02  0.8043382E-01
       -2   -1    0    0    0  501  0.00000000000E+00  0.00000000000E+00  0.25469281350E+04  0.25469281350E+04  0.25500000920E-02 0.  1.
        2   -1    0    0  501    0  0.00000000000E+00  0.00000000000E+00 -0.14270695614E+04  0.14270695614E+04  0.25500000920E-02 0. -1.
    10030    2    1    2    0    0  0.00000000000E+00  0.00000000000E+00  0.11198585736E+04  0.39739976964E+04  0.38129482643E+04 0.  0.
        5    1    3    3  502    0  0.18298020168E+04 -0.43173057733E+03  0.23025453065E+03  0.18940976615E+04  0.46999998093E+01 0.  1.
       -5    1    3    3    0  502 -0.18298020168E+04  0.43173057733E+03  0.88960404297E+03  0.20799000350E+04  0.46999998093E+01 0. -1.
</event>
<event>
 5   0  0.1370688E-07  0.3791501E+04  0.7818609E-02  0.8047981E-01
        2   -1    0    0  501    0  0.00000000000E+00  0.00000000000E+00  0.20114842044E+04  0.20114842044E+04  0.25500000920E-02 0. -1.
       -2   -1    0    0    0  501  0.00000000000E+00  0.00000000000E+00 -0.17866755984E+04  0.17866755984E+04  0.25500000920E-02 0.  1.
    10030    2    1    2    0    0  0.00000000000E+00  0.00000000000E+00  0.22480860600E+03  0.37981598028E+04  0.37915008873E+04 0.  0.
        5    1    3    3  502    0 -0.10076479128E+04  0.48034171977E+03 -0.14225286113E+04  0.18082290297E+04  0.46999998093E+01 0.  1.
       -5    1    3    3    0  502  0.10076479128E+04 -0.48034171977E+03  0.16473372173E+04  0.19899307731E+04  0.46999998093E+01 0. -1.
</event>
<event>
 5   0  0.6661000E-08  0.3818294E+04  0.7818609E-02  0.8042240E-01
       -1   -1    0    0    0  501  0.00000000000E+00  0.00000000000E+00  0.26089839128E+04  0.26089839128E+04  0.50400001928E-02 0. -1.
        1   -1    0    0  501    0  0.00000000000E+00  0.00000000000E+00 -0.13970351638E+04  0.13970351638E+04  0.50400001928E-02 0.  1.
    10030    2    1    2    0    0  0.00000000000E+00  0.00000000000E+00  0.12119487490E+04  0.40060190766E+04  0.38182940001E+04 0.  0.
        2    1    3    3  502    0 -0.83589890081E+02 -0.11946888011E+04  0.21658721693E+04  0.24749284545E+04  0.25500000920E-02 0. -1.
       -2    1    3    3    0  502  0.83589890081E+02  0.11946888011E+04 -0.95392342022E+03  0.15310906221E+04  0.25500000920E-02 0.  1.
</event>
<event>
 5   0  0.6725199E-08  0.3800163E+04  0.7818609E-02  0.8046120E-01
        1   -1    0    0  501    0  0.00000000000E+00  0.00000000000E+00  0.26738307066E+04  0.26738307066E+04  0.50400001928E-02 0. -1.
       -1   -1    0    0    0  501  0.00000000000E+00  0.00000000000E+00 -0.13502383545E+04  0.13502383545E+04  0.50400001928E-02 0.  1.
    10030    2    1    2    0    0  0.00000000000E+00  0.00000000000E+00  0.13235923521E+04  0.40240690612E+04  0.38001625089E+04 0.  0.
        5    1    3    3  502    0  0.61759636713E+03 -0.21250848872E+03  0.25512201913E+04  0.26335017913E+04  0.46999998093E+01 0. -1.
       -5    1    3    3    0  502 -0.61759636713E+03  0.21250848872E+03 -0.12276278392E+04  0.13905672699E+04  0.46999998093E+01 0.  1.
</event>
<event>
 5   0  0.2081337E-07  0.3806244E+04  0.7818609E-02  0.8044816E-01
        2   -1    0    0  501    0  0.00000000000E+00  0.00000000000E+00  0.13797996041E+04  0.13797996041E+04  0.25500000920E-02 0. -1.
       -2   -1    0    0    0  501  0.00000000000E+00  0.00000000000E+00 -0.26249264709E+04  0.26249264709E+04  0.25500000920E-02 0.  1.
    10030    2    1    2    0    0  0.00000000000E+00  0.00000000000E+00 -0.12451268668E+04  0.40047260750E+04  0.38062435578E+04 0.  0.
        1    1    3    3  502    0 -0.46038207247E+03  0.62184413838E+03  0.12068500960E+04  0.14335720907E+04  0.50400001928E-02 0. -1.
       -1    1    3    3    0  502  0.46038207247E+03 -0.62184413838E+03 -0.24519769628E+04  0.25711539843E+04  0.50400001928E-02 0.  1.
</event>
<event>
 5   0  0.2135314E-07  0.3750284E+04  0.7818609E-02  0.8056909E-01
       -2   -1    0    0    0  501  0.00000000000E+00  0.00000000000E+00  0.22528430547E+04  0.22528430547E+04  0.25500000920E-02 0.  1.
        2   -1    0    0  501    0  0.00000000000E+00  0.00000000000E+00 -0.15607643213E+04  0.15607643213E+04  0.25500000920E-02 0. -1.
    10030    2    1    2    0    0  0.00000000000E+00  0.00000000000E+00  0.69207873340E+03  0.38136073761E+04  0.37502837553E+04 0.  0.
        4    1    3    3  502    0  0.12385384317E+04  0.23647518467E+03 -0.10652920860E+04  0.16506807084E+04  0.12699999809E+01 0. -1.
       -4    1    3    3    0  502 -0.12385384317E+04 -0.23647518467E+03  0.17573708194E+04  0.21629266676E+04  0.12699999809E+01 0.  1.
</event>
<event>
 5   0  0.2135314E-07  0.3790127E+04  0.7818609E-02  0.8048277E-01
        2   -1    0    0  501    0  0.00000000000E+00  0.00000000000E+00  0.27430407715E+04  0.27430407715E+04  0.25500000920E-02 0.  1.
       -2   -1    0    0    0  501  0.00000000000E+00  0.00000000000E+00 -0.13092277532E+04  0.13092277532E+04  0.25500000920E-02 0. -1.
    10030    2    1    2    0    0  0.00000000000E+00  0.00000000000E+00  0.14338130184E+04  0.40522685247E+04  0.37901267030E+04 0.  0.
        4    1    3    3  502    0 -0.86849746184E+03  0.11754442983E+03  0.25133441807E+04  0.26617672922E+04  0.12699999809E+01 0.  1.
       -4    1    3    3    0  502  0.86849746184E+03 -0.11754442983E+03 -0.10795311623E+04  0.13905012325E+04  0.12699999809E+01 0. -1.
</event>
<event>
 5   0  0.2205204E-07  0.3799841E+04  0.7818609E-02  0.8046189E-01
        2   -1    0    0  501    0  0.00000000000E+00  0.00000000000E+00  0.15379082953E+04  0.15379082953E+04  0.25500000920E-02 0.  1.
       -2   -1    0    0    0  501  0.00000000000E+00  0.00000000000E+00 -0.23471480235E+04  0.23471480235E+04  0.25500000920E-02 0. -1.
    10030    2    1    2    0    0  0.00000000000E+00  0.00000000000E+00 -0.80923972819E+03  0.38850563188E+04  0.37998412681E+04 0.  0.
        2    1    3    3  502    0 -0.12012536233E+04 -0.14125014854E+04  0.18827075212E+02  0.18543260697E+04  0.25500000920E-02 0.  1.
       -2    1    3    3    0  502  0.12012536233E+04  0.14125014854E+04 -0.82806680340E+03  0.20307302491E+04  0.25500000920E-02 0. -1.
</event>
<event>
 5   0  0.1370688E-07  0.3814058E+04  0.7818609E-02  0.8043145E-01
       -2   -1    0    0    0  501  0.00000000000E+00  0.00000000000E+00  0.15464862105E+04  0.15464862105E+04  0.25500000920E-02 0. -1.
        2   -1    0    0  501    0  0.00000000000E+00  0.00000000000E+00 -0.23516270489E+04  0.23516270489E+04  0.25500000920E-02 0.  1.
    10030    2    1    2    0    0  0.00000000000E+00  0.00000000000E+00 -0.80514083841E+03  0.38981132593E+04  0.38140575786E+04 0.  0.
        5    1    3    3  502    0  0.16604581091E+04 -0.93057644263E+03 -0.28319272318E+03  0.19243996092E+04  0.46999998093E+01 0. -1.
       -5    1    3    3    0  502 -0.16604581091E+04  0.93057644263E+03 -0.52194811523E+03  0.19737136501E+04  0.46999998093E+01 0.  1.
</event>
<event>
 5   0  0.6661000E-08  0.3836133E+04  0.7818609E-02  0.8038445E-01
       -1   -1    0    0    0  501  0.00000000000E+00  0.00000000000E+00  0.16003708344E+04  0.16003708345E+04  0.50400001928E-02 0. -1.
        1   -1    0    0  501    0  0.00000000000E+00  0.00000000000E+00 -0.22988294483E+04  0.22988294483E+04  0.50400001928E-02 0.  1.
    10030    2    1    2    0    0  0.00000000000E+00  0.00000000000E+00 -0.69845861389E+03  0.38992002828E+04  0.38361332628E+04 0.  0.
        1    1    3    3  502    0  0.10073537600E+03  0.11797801736E+03  0.15939836154E+04  0.16015149686E+04  0.50400001928E-02 0. -1.
       -1    1    3    3    0  502 -0.10073537600E+03 -0.11797801736E+03 -0.22924422293E+04  0.22976853142E+04  0.50400001928E-02 0.  1.
</event>
<event>
 5   0  0.1370688E-07  0.3781776E+04  0.7818609E-02  0.8050077E-01
       -2   -1    0    0    0  501  0.00000000000E+00  0.00000000000E+00  0.15726541149E+04  0.15726541149E+04  0.25500000920E-02 0. -1.
        2   -1    0    0  501    0  0.00000000000E+00  0.00000000000E+00 -0.22735184364E+04  0.22735184364E+04  0.25500000920E-02 0.  1.
    10030    2    1    2    0    0  0.00000000000E+00  0.00000000000E+00 -0.70086432158E+03  0.38461725513E+04  0.37817763680E+04 0.  0.
        5    1    3    3  502    0  0.12498543469E+04  0.46541573941E+03  0.10127983407E+04  0.16746731824E+04  0.46999998093E+01 0. -1.
       -5    1    3    3    0  502 -0.12498543469E+04 -0.46541573941E+03 -0.17136626623E+04  0.21714993689E+04  0.46999998093E+01 0.  1.
</event>
<event>
 5   0  0.2081337E-07  0.3794481E+04  0.7818609E-02  0.8047340E-01
        2   -1    0    0  501    0  0.00000000000E+00  0.00000000000E+00  0.23171111799E+04  0.23171111799E+04  0.25500000920E-02 0. -1.
       -2   -1    0    0    0  501  0.00000000000E+00  0.00000000000E+00 -0.15534520957E+04  0.15534520957E+04  0.25500000920E-02 0.  1.
    10030    2    1    2    0    0  0.00000000000E+00  0.00000000000E+00  0.76365908419E+03  0.38705632756E+04  0.37944808437E+04 0.  0.
        1    1    3    3  502    0 -0.49608922422E+03  0.63010997474E+03  0.21357172998E+04  0.22813223103E+04  0.50400001928E-02 0. -1.
       -1    1    3    3    0  502  0.49608922422E+03 -0.63010997474E+03 -0.13720582156E+04  0.15892409653E+04  0.50400001928E-02 0.  1.
</event>
<event>
 5   0  0.6661000E-08  0.3796094E+04  0.7818609E-02  0.8046994E-01
       -1   -1    0    0    0  501  0.00000000000E+00  0.00000000000E+00  0.21197629179E+04  0.21197629179E+04  0.50400001928E-02 0.  1.
        1   -1    0    0  501    0  0.00000000000E+00  0.00000000000E+00 -0.16995209664E+04  0.16995209664E+04  0.50400001928E-02 0. -1.
    10030    2    1    2    0    0  0.00000000000E+00  0.00000000000E+00  0.42024195144E+03  0.38192838843E+04  0.37960935304E+04 0.  0.
        4    1    3    3  502    0  0.17407359351E+04 -0.62311382403E+03  0.64186657732E+03  0.19571476054E+04  0.12699999809E+01 0.  1.
       -4    1    3    3    0  502 -0.17407359351E+04  0.62311382403E+03 -0.22162462588E+03  0.18621362789E+04  0.12699999809E+01 0. -1.
</event>
<event>
 5   0  0.6661000E-08  0.3799443E+04  0.7818609E-02  0.8046274E-01
        1   -1    0    0  501    0  0.00000000000E+00  0.00000000000E+00  0.11706035609E+04  0.11706035610E+04  0.50400001928E-02 0.  1.
       -1   -1    0    0    0  501  0.00000000000E+00  0.00000000000E+00 -0.30829752862E+04  0.30829752862E+04  0.50400001928E-02 0. -1.
    10030    2    1    2    0    0  0.00000000000E+00  0.00000000000E+00 -0.19123717253E+04  0.42535788472E+04  0.37994430373E+04 0.  0.
        3    1    3    3  502    0 -0.54233034281E+03 -0.54823820540E+03 -0.28998647143E+04  0.30006503799E+04  0.10100000352E+00 0. -1.
       -3    1    3    3    0  502  0.54233034281E+03  0.54823820540E+03  0.98749298905E+03  0.12529284673E+04  0.10100000352E+00 0.  1.
</event>
<event>
 5   0  0.1370688E-07  0.3833021E+04  0.7818609E-02  0.8039106E-01
       -2   -1    0    0    0  501  0.00000000000E+00  0.00000000000E+00  0.18683450690E+04  0.18683450690E+04  0.25500000920E-02 0. -1.
        2   -1    0    0  501    0  0.00000000000E+00  0.00000000000E+00 -0.19659172354E+04  0.19659172354E+04  0.25500000920E-02 0.  1.
    10030    2    1    2    0    0  0.00000000000E+00  0.00000000000E+00 -0.97572166366E+02  0.38342623044E+04  0.38330206223E+04 0.  0.
        5    1    3    3  502    0  0.84251914266E+03 -0.11064127399E+04 -0.13679255319E+04  0.19506998764E+04  0.46999998093E+01 0.  1.
       -5    1    3    3    0  502 -0.84251914266E+03  0.11064127399E+04  0.12703533656E+04  0.18835624280E+04  0.46999998093E+01 0. -1.
</event>
<event>
 5   0  0.1370688E-07  0.3790579E+04  0.7818609E-02  0.8048180E-01
       -2   -1    0    0    0  501  0.00000000000E+00  0.00000000000E+00  0.14326051169E+04  0.14326051169E+04  0.25500000920E-02 0. -1.
        2   -1    0    0  501    0  0.00000000000E+00  0.00000000000E+00 -0.25074056081E+04  0.25074056081E+04  0.25500000920E-02 0.  1.
    10030    2    1    2    0    0  0.00000000000E+00  0.00000000000E+00 -0.10748004912E+04  0.39400107250E+04  0.37905789027E+04 0.  0.
        5    1    3    3  502    0 -0.46715079180E+03 -0.63074716513E+03  0.12557239942E+04  0.14808567413E+04  0.46999998093E+01 0. -1.
       -5    1    3    3    0  502  0.46715079180E+03  0.63074716513E+03 -0.23305244854E+04  0.24591539837E+04  0.46999998093E+01 0.  1.
</event>
<event>
 5   0  0.2205204E-07  0.3785855E+04  0.7818609E-02  0.8049197E-01
        2   -1    0    0  501    0  0.00000000000E+00  0.00000000000E+00  0.26309646996E+04  0.26309646996E+04  0.25500000920E-02 0.  1.
       -2   -1    0    0    0  501  0.00000000000E+00  0.00000000000E+00 -0.13619244699E+04  0.13619244699E+04  0.25500000920E-02 0. -1.
    10030    2    1    2    0    0  0.00000000000E+00  0.00000000000E+00  0.12690402297E+04  0.39928891696E+04  0.37858553612E+04 0.  0.
        2    1    3    3  502    0  0.18166396599E+04 -0.50279323608E+03  0.81778836949E+03  0.20546918283E+04  0.25500000920E-02 0. -1.
       -2    1    3    3    0  502 -0.18166396599E+04  0.50279323608E+03  0.45125186020E+03  0.19381973412E+04  0.25500000920E-02 0.  1.
</event>
<event>
 5   0  0.2135314E-07  0.3838626E+04  0.7818609E-02  0.8037916E-01
       -2   -1    0    0    0  501  0.00000000000E+00  0.00000000000E+00  0.30953059132E+04  0.30953059132E+04  0.25500000920E-02 0. -1.
        2   -1    0    0  501    0  0.00000000000E+00  0.00000000000E+00 -0.11901126517E+04  0.11901126517E+04  0.25500000920E-02 0.  1.
    10030    2    1    2    0    0  0.00000000000E+00  0.00000000000E+00  0.19051932614E+04  0.42854185649E+04  0.38386261752E+04 0.  0.
        4    1    3    3  502    0  0.14999587568E+04 -0.10098699580E+04  0.16709572489E+04  0.24620750080E+04  0.12699999809E+01 0. -1.
       -4    1    3    3    0  502 -0.14999587568E+04  0.10098699580E+04  0.23423601250E+03  0.18233435569E+04  0.12699999809E+01 0.  1.
</event>
<event>
 5   0  0.6661000E-08  0.3798002E+04  0.7818609E-02  0.8046584E-01
        1   -1    0    0  501    0  0.00000000000E+00  0.00000000000E+00  0.22629420581E+04  0.22629420581E+04  0.50400001928E-02 0.  1.
       -1   -1    0    0    0  501  0.00000000000E+00  0.00000000000E+00 -0.15935913602E+04  0.15935913602E+04  0.50400001928E-02 0. -1.
    10030    2    1    2    0    0  0.00000000000E+00  0.00000000000E+00  0.66935069790E+03  0.38565334183E+04  0.37980020603E+04 0.  0.
        1    1    3    3  502    0  0.21157185841E+03 -0.78383130467E+03  0.20778291618E+04  0.22308133474E+04  0.50400001928E-02 0.  1.
       -1    1    3    3    0  502 -0.21157185841E+03  0.78383130467E+03 -0.14084784639E+04  0.16257200709E+04  0.50400001928E-02 0. -1.
</event>
<event>
 5   0  0.6661000E-08  0.3804371E+04  0.7818609E-02  0.8045218E-01
        1   -1    0    0  501    0  0.00000000000E+00  0.00000000000E+00  0.26540370486E+04  0.26540370486E+04  0.50400001928E-02 0. -1.
       -1   -1    0    0    0  501  0.00000000000E+00  0.00000000000E+00 -0.13633228951E+04  0.13633228951E+04  0.50400001928E-02 0.  1.
    10030    2    1    2    0    0  0.00000000000E+00  0.00000000000E+00  0.12907141535E+04  0.40173599437E+04  0.38043708929E+04 0.  0.
        1    1    3    3  502    0  0.17693780796E+04 -0.69251738762E+03  0.73998627988E+03  0.20390828368E+04  0.50400001928E-02 0. -1.
       -1    1    3    3    0  502 -0.17693780796E+04  0.69251738762E+03  0.55072787364E+03  0.19782771069E+04  0.50400001928E-02 0.  1.
</event>
<event>
 5   0  0.6661000E-08  0.3796183E+04  0.7818609E-02  0.8046974E-01
       -1   -1    0    0    0  501  0.00000000000E+00  0.00000000000E+00  0.19114214023E+04  0.19114214023E+04  0.50400001928E-02 0. -1.
        1   -1    0    0  501    0  0.00000000000E+00  0.00000000000E+00 -0.18848548242E+04  0.18848548242E+04  0.50400001928E-02 0.  1.
    10030    2    1    2    0    0  0.00000000000E+00  0.00000000000E+00  0.26566578060E+02  0.37962762265E+04  0.37961832681E+04 0.  0.
        3    1    3    3  502    0 -0.31626152774E+03  0.37553461878E+03 -0.18202566962E+04  0.18853068859E+04  0.10100000352E+00 0.  1.
       -3    1    3    3    0  502  0.31626152774E+03 -0.37553461878E+03  0.18468232743E+04  0.19109693405E+04  0.10100000352E+00 0. -1.
</event>
<event>
 5   0  0.2081337E-07  0.3740724E+04  0.7818609E-02  0.8058996E-01
        2   -1    0    0  501    0  0.00000000000E+00  0.00000000000E+00  0.16333791993E+04  0.16333791993E+04  0.25500000920E-02 0. -1.
       -2   -1    0    0    0  501  0.00000000000E+00  0.00000000000E+00 -0.21417278166E+04  0.21417278166E+04  0.25500000920E-02 0.  1.
    10030    2    1    2    0    0  0.00000000000E+00  0.00000000000E+00 -0.50834861735E+03  0.37751070159E+04  0.37407238156E+04 0.  0.
        1    1    3    3  502    0 -0.14443255268E+04 -0.16476987685E+03  0.93351528313E+03  0.17276215221E+04  0.50400001928E-02 0.  1.
       -1    1    3    3    0  502  0.14443255268E+04  0.16476987685E+03 -0.14418639005E+04  0.20474854938E+04  0.50400001928E-02 0. -1.
</event>
<event>
 5   0  0.6725199E-08  0.3812039E+04  0.7818609E-02  0.8043576E-01
        1   -1    0    0  501    0  0.00000000000E+00  0.00000000000E+00  0.12396386161E+04  0.12396386161E+04  0.50400001928E-02 0. -1.
       -1   -1    0    0    0  501  0.00000000000E+00  0.00000000000E+00 -0.29306210733E+04  0.29306210733E+04  0.50400001928E-02 0.  1.
    10030    2    1    2    0    0  0.00000000000E+00  0.00000000000E+00 -0.16909824573E+04  0.41702596894E+04  0.38120393763E+04 0.  0.
        5    1    3    3  502    0  0.28669740448E+03  0.14706539313E+03 -0.29006035882E+04  0.29184493995E+04  0.46999998093E+01 0.  1.
       -5    1    3    3    0  502 -0.28669740448E+03 -0.14706539313E+03  0.12096211309E+04  0.12518102899E+04  0.46999998093E+01 0. -1.
</event>
<event>
 5   0  0.2135314E-07  0.3948143E+04  0.7818609E-02  0.8015090E-01
        2   -1    0    0  501    0  0.00000000000E+00  0.00000000000E+00  0.18676381585E+04  0.18676381585E+04  0.25500000920E-02 0.  1.
       -2   -1    0    0    0  501  0.00000000000E+00  0.00000000000E+00 -0.20865701539E+04  0.20865701539E+04  0.25500000920E-02 0. -1.
    10030    2    1    2    0    0  0.00000000000E+00  0.00000000000E+00 -0.21893199549E+03  0.39542083124E+04  0.39481428747E+04 0.  0.
        4    1    3    3  502    0  0.18589664026E+04  0.79864125880E+02  0.55095742874E+03  0.19405386019E+04  0.12699999809E+01 0.  1.
       -4    1    3    3    0  502 -0.18589664026E+04 -0.79864125880E+02 -0.76988942423E+03  0.20136697105E+04  0.12699999809E+01 0. -1.
</event>
<event>
 5   0  0.6661000E-08  0.3816548E+04  0.7818609E-02  0.8042613E-01
       -1   -1    0    0    0  501  0.00000000000E+00  0.00000000000E+00  0.16510706447E+04  0.16510706447E+04  0.50400001928E-02 0. -1.
        1   -1    0    0  501    0  0.00000000000E+00  0.00000000000E+00 -0.22055444582E+04  0.22055444582E+04  0.50400001928E-02 0.  1.
    10030    2    1    2    0    0  0.00000000000E+00  0.00000000000E+00 -0.55447381358E+03  0.38566151029E+04  0.38165480270E+04 0.  0.
        4    1    3    3  502    0  0.13080007789E+04 -0.71257965136E+03 -0.14826017721E+04  0.21016054398E+04  0.12699999809E+01 0.  1.
       -4    1    3    3    0  502 -0.13080007789E+04  0.71257965136E+03  0.92812795854E+03  0.17550096631E+04  0.12699999809E+01 0. -1.
</event>
<event>
 5   0  0.6725199E-08  0.3806931E+04  0.7818609E-02  0.8044669E-01
       -1   -1    0    0    0  501  0.00000000000E+00  0.00000000000E+00  0.21350762789E+04  0.21350762789E+04  0.50400001928E-02 0. -1.
        1   -1    0    0  501    0  0.00000000000E+00  0.00000000000E+00 -0.16969799480E+04  0.16969799480E+04  0.50400001928E-02 0.  1.
    10030    2    1    2    0    0  0.00000000000E+00  0.00000000000E+00  0.43809633089E+03  0.38320562269E+04  0.38069313798E+04 0.  0.
        5    1    3    3  502    0 -0.17399272793E+03 -0.47669918702E+03  0.20657250360E+04  0.21271477613E+04  0.46999998093E+01 0. -1.
       -5    1    3    3    0  502  0.17399272793E+03  0.47669918702E+03 -0.16276287051E+04  0.17049084655E+04  0.46999998093E+01 0.  1.
</event>
<event>
 5   0  0.2081337E-07  0.3816535E+04  0.7818609E-02  0.8042616E-01
        2   -1    0    0  501    0  0.00000000000E+00  0.00000000000E+00  0.18729230490E+04  0.18729230490E+04  0.25500000920E-02 0. -1.
       -2   -1    0    0    0  501  0.00000000000E+00  0.00000000000E+00 -0.19442790979E+04  0.19442790979E+04  0.25500000920E-02 0.  1.
    10030    2    1    2    0    0  0.00000000000E+00  0.00000000000E+00 -0.71356048904E+02  0.38172021469E+04  0.38165351491E+04 0.  0.
        1    1    3    3  502    0 -0.29975884849E+03 -0.14651363660E+03 -0.19148793258E+04  0.19437295196E+04  0.50400001928E-02 0.  1.
       -1    1    3    3    0  502  0.29975884849E+03  0.14651363660E+03  0.18435232769E+04  0.18734726273E+04  0.50400001928E-02 0. -1.
</event>
<event>
 5   0  0.6661000E-08  0.3811096E+04  0.7818609E-02  0.8043778E-01
        1   -1    0    0  501    0  0.00000000000E+00  0.00000000000E+00  0.19630896822E+04  0.19630896822E+04  0.50400001928E-02 0.  1.
       -1   -1    0    0    0  501  0.00000000000E+00  0.00000000000E+00 -0.18496929690E+04  0.18496929690E+04  0.50400001928E-02 0. -1.
    10030    2    1    2    0    0  0.00000000000E+00  0.00000000000E+00  0.11339671326E+03  0.38127826512E+04  0.38110960012E+04 0.  0.
        3    1    3    3  502    0  0.11422430255E+04 -0.66045746569E+01 -0.14692144821E+04  0.18610088539E+04  0.10100000352E+00 0. -1.
       -3    1    3    3    0  502 -0.11422430255E+04  0.66045746569E+01  0.15826111954E+04  0.19517737973E+04  0.10100000352E+00 0.  1.
</event>
<event>
 5   0  0.2205204E-07  0.3803663E+04  0.7818609E-02  0.8045369E-01
        2   -1    0    0  501    0  0.00000000000E+00  0.00000000000E+00  0.24256090851E+04  0.24256090851E+04  0.25500000920E-02 0.  1.
       -2   -1    0    0    0  501  0.00000000000E+00  0.00000000000E+00 -0.14911569172E+04  0.14911569172E+04  0.25500000920E-02 0. -1.
    10030    2    1    2    0    0  0.00000000000E+00  0.00000000000E+00  0.93445216796E+03  0.39167660023E+04  0.38036633740E+04 0.  0.
        2    1    3    3  502    0 -0.48397420694E+03 -0.58002047417E+03 -0.13300406141E+04  0.15295956390E+04  0.25500000920E-02 0. -1.
       -2    1    3    3    0  502  0.48397420694E+03  0.58002047417E+03  0.22644927821E+04  0.23871703633E+04  0.25500000920E-02 0.  1.
</event>
<event>
 5   0  0.2205204E-07  0.3728525E+04  0.7818609E-02  0.8061670E-01
       -2   -1    0    0    0  501  0.00000000000E+00  0.00000000000E+00  0.16403244941E+04  0.16403244941E+04  0.25500000920E-02 0.  1.
        2   -1    0    0  501    0  0.00000000000E+00  0.00000000000E+00 -0.21187728480E+04  0.21187728480E+04  0.25500000920E-02 0. -1.
    10030    2    1    2    0    0  0.00000000000E+00  0.00000000000E+00 -0.47844835391E+03  0.37590973422E+04  0.37285251777E+04 0.  0.
        2    1    3    3  502    0 -0.24181426879E+03  0.13035979770E+04 -0.15605554123E+04  0.20477243518E+04  0.25500000920E-02 0. -1.
       -2    1    3    3    0  502  0.24181426879E+03 -0.13035979770E+04  0.10821070584E+04  0.17113729903E+04  0.25500000920E-02 0.  1.
</event>
<event>
 5   0  0.2135314E-07  0.3764507E+04  0.7818609E-02  0.8053815E-01
       -2   -1    0    0    0  501  0.00000000000E+00  0.00000000000E+00  0.23428036628E+04  0.23428036629E+04  0.25500000920E-02 0.  1.
        2   -1    0    0  501    0  0.00000000000E+00  0.00000000000E+00 -0.15122387695E+04  0.15122387695E+04  0.25500000920E-02 0. -1.
    10030    2    1    2    0    0  0.00000000000E+00  0.00000000000E+00  0.83056489332E+03  0.38550424324E+04  0.37645071541E+04 0.  0.
        4    1    3    3  502    0  0.10174446540E+04  0.11048655584E+04 -0.74644107402E+03  0.16772290887E+04  0.12699999809E+01 0. -1.
       -4    1    3    3    0  502 -0.10174446540E+04 -0.11048655584E+04  0.15770059673E+04  0.21778133437E+04  0.12699999809E+01 0.  1.
</event>
<event>
 5   0  0.1370688E-07  0.3789723E+04  0.7818609E-02  0.8048364E-01
        2   -1    0    0  501    0  0.00000000000E+00  0.00000000000E+00  0.25714805002E+04  0.25714805002E+04  0.25500000920E-02 0. -1.
       -2   -1    0    0    0  501  0.00000000000E+00  0.00000000000E+00 -0.13962770753E+04  0.13962770753E+04  0.25500000920E-02 0.  1.
    10030    2    1    2    0    0  0.00000000000E+00  0.00000000000E+00  0.11752034249E+04  0.39677575756E+04  0.37897225609E+04 0.  0.
        5    1    3    3  502    0 -0.57402441064E+02 -0.11885729321E+04 -0.95628373743E+03  0.15265979601E+04  0.46999998093E+01 0.  1.
       -5    1    3    3    0  502  0.57402441064E+02  0.11885729321E+04  0.21314871623E+04  0.24411596155E+04  0.46999998093E+01 0. -1.
</event>
<event>
 5   0  0.2081337E-07  0.3829120E+04  0.7818609E-02  0.8039935E-01
       -2   -1    0    0    0  501  0.00000000000E+00  0.00000000000E+00  0.22932654114E+04  0.22932654114E+04  0.25500000920E-02 0. -1.
        2   -1    0    0  501    0  0.00000000000E+00  0.00000000000E+00 -0.15983930827E+04  0.15983930827E+04  0.25500000920E-02 0.  1.
    10030    2    1    2    0    0  0.00000000000E+00  0.00000000000E+00  0.69487232875E+03  0.38916584941E+04  0.38291197789E+04 0.  0.
        1    1    3    3  502    0  0.15815910274E+04  0.90052808546E+02 -0.74529836353E+03  0.17507168066E+04  0.50400001928E-02 0.  1.
       -1    1    3    3    0  502 -0.15815910274E+04 -0.90052808546E+02  0.14401706923E+04  0.21409416875E+04  0.50400001928E-02 0. -1.
</event>
<event>
 5   0  0.1370688E-07  0.3827896E+04  0.7818609E-02  0.8040195E-01
        2   -1    0    0  501    0  0.00000000000E+00  0.00000000000E+00  0.17164045277E+04  0.17164045277E+04  0.25500000920E-02 0.  1.
       -2   -1    0    0    0  501  0.00000000000E+00  0.00000000000E+00 -0.21342274905E+04  0.21342274906E+04  0.25500000920E-02 0. -1.
    10030    2    1    2    0    0  0.00000000000E+00  0.00000000000E+00 -0.41782296280E+03  0.38506320183E+04  0.38278964082E+04 0.  0.
        5    1    3    3  502    0  0.13813585154E+04  0.10425208884E+04 -0.10311859125E+04  0.20145390607E+04  0.46999998093E+01 0. -1.
       -5    1    3    3    0  502 -0.13813585154E+04 -0.10425208884E+04  0.61336294974E+03  0.18360929576E+04  0.46999998093E+01 0.  1.
</event>
<event>
 5   0  0.6661000E-08  0.3803282E+04  0.7818609E-02  0.8045451E-01
        1   -1    0    0  501    0  0.00000000000E+00  0.00000000000E+00  0.19873192013E+04  0.19873192013E+04  0.50400001928E-02 0.  1.
       -1   -1    0    0    0  501  0.00000000000E+00  0.00000000000E+00 -0.18196564120E+04  0.18196564120E+04  0.50400001928E-02 0. -1.
    10030    2    1    2    0    0  0.00000000000E+00  0.00000000000E+00  0.16766278926E+03  0.38069756133E+04  0.38032818078E+04 0.  0.
        2    1    3    3  502    0 -0.12263959262E+04 -0.11835698537E+04 -0.76040553126E+03  0.18663068178E+04  0.25500000920E-02 0.  1.
       -2    1    3    3    0  502  0.12263959262E+04  0.11835698537E+04  0.92806832053E+03  0.19406687955E+04  0.25500000920E-02 0. -1.
</event>
<event>
 5   0  0.6661000E-08  0.3814952E+04  0.7818609E-02  0.8042954E-01
        1   -1    0    0  501    0  0.00000000000E+00  0.00000000000E+00  0.23453990514E+04  0.23453990514E+04  0.50400001928E-02 0. -1.
       -1   -1    0    0    0  501  0.00000000000E+00  0.00000000000E+00 -0.15513203107E+04  0.15513203107E+04  0.50400001928E-02 0.  1.
    10030    2    1    2    0    0  0.00000000000E+00  0.00000000000E+00  0.79407874071E+03  0.38967193620E+04  0.38149522592E+04 0.  0.
        3    1    3    3  502    0 -0.13280941639E+04  0.10838739193E+04 -0.45746051150E+03  0.17742285396E+04  0.10100000352E+00 0.  1.
       -3    1    3    3    0  502  0.13280941639E+04 -0.10838739193E+04  0.12515392522E+04  0.21224908224E+04  0.10100000352E+00 0. -1.
</event>
<event>
 5   0  0.2135314E-07  0.3794796E+04  0.7818609E-02  0.8047272E-01
       -2   -1    0    0    0  501  0.00000000000E+00  0.00000000000E+00  0.17799244969E+04  0.17799244969E+04  0.25500000920E-02 0.  1.
        2   -1    0    0  501    0  0.00000000000E+00  0.00000000000E+00 -0.20226251630E+04  0.20226251630E+04  0.25500000920E-02 0. -1.
    10030    2    1    2    0    0  0.00000000000E+00  0.00000000000E+00 -0.24270066618E+03  0.38025496599E+04  0.37947964771E+04 0.  0.
        4    1    3    3  502    0 -0.56503696042E+03  0.29987502435E+03 -0.19113164802E+04  0.20155208005E+04  0.12699999809E+01 0. -1.
       -4    1    3    3    0  502  0.56503696042E+03 -0.29987502435E+03  0.16686158140E+04  0.17870288594E+04  0.12699999809E+01 0.  1.
</event>
<event>
 5   0  0.2205204E-07  0.3801847E+04  0.7818609E-02  0.8045759E-01
        2   -1    0    0  501    0  0.00000000000E+00  0.00000000000E+00  0.20405917623E+04  0.20405917623E+04  0.25500000920E-02 0. -1.
       -2   -1    0    0    0  501  0.00000000000E+00  0.00000000000E+00 -0.17708145905E+04  0.17708145905E+04  0.25500000920E-02 0.  1.
    10030    2    1    2    0    0  0.00000000000E+00  0.00000000000E+00  0.26977717184E+03  0.38114063528E+04  0.38018467439E+04 0.  0.
        2    1    3    3  502    0 -0.14180031173E+04 -0.12030986392E+03  0.13983361963E+04  0.19951319309E+04  0.25500000920E-02 0. -1.
       -2    1    3    3    0  502  0.14180031173E+04  0.12030986392E+03 -0.11285590245E+04  0.18162744219E+04  0.25500000920E-02 0.  1.
</event>
<event>
 5   0  0.6725199E-08  0.3648543E+04  0.7818609E-02  0.8079462E-01
       -1   -1    0    0    0  501  0.00000000000E+00  0.00000000000E+00  0.11996781428E+04  0.11996781428E+04  0.50400001928E-02 0.  1.
        1   -1    0    0  501    0  0.00000000000E+00  0.00000000000E+00 -0.27740496114E+04  0.27740496114E+04  0.50400001928E-02 0. -1.
    10030    2    1    2    0    0  0.00000000000E+00  0.00000000000E+00 -0.15743714687E+04  0.39737277542E+04  0.36485430987E+04 0.  0.
        5    1    3    3  502    0 -0.13224118506E+04  0.48073270360E+03 -0.20517312272E+04  0.24878706063E+04  0.46999998093E+01 0.  1.
       -5    1    3    3    0  502  0.13224118506E+04 -0.48073270360E+03  0.47735975856E+03  0.14858571479E+04  0.46999998093E+01 0. -1.
</event>
<event>
 5   0  0.6661000E-08  0.3730950E+04  0.7818609E-02  0.8061137E-01
       -1   -1    0    0    0  501  0.00000000000E+00  0.00000000000E+00  0.20814666923E+04  0.20814666923E+04  0.50400001928E-02 0.  1.
        1   -1    0    0  501    0  0.00000000000E+00  0.00000000000E+00 -0.16718967047E+04  0.16718967047E+04  0.50400001928E-02 0. -1.
    10030    2    1    2    0    0  0.00000000000E+00  0.00000000000E+00  0.40956998763E+03  0.37533633970E+04  0.37309501759E+04 0.  0.
        2    1    3    3  502    0  0.85599017664E+03  0.88667374050E+03 -0.12040161121E+04  0.17229522056E+04  0.25500000920E-02 0. -1.
       -2    1    3    3    0  502 -0.85599017664E+03 -0.88667374050E+03  0.16135860998E+04  0.20304111914E+04  0.25500000920E-02 0.  1.
</event>
<event>
 5   0  0.1370688E-07  0.3792170E+04  0.7818609E-02  0.8047837E-01
       -2   -1    0    0    0  501  0.00000000000E+00  0.00000000000E+00  0.14242753140E+04  0.14242753140E+04  0.25500000920E-02 0.  1.
        2   -1    0    0  501    0  0.00000000000E+00  0.00000000000E+00 -0.25241879190E+04  0.25241879190E+04  0.25500000920E-02 0. -1.
    10030    2    1    2    0    0  0.00000000000E+00  0.00000000000E+00 -0.10999126050E+04  0.39484632330E+04  0.37921701127E+04 0.  0.
        5    1    3    3  502    0 -0.18634455828E+04  0.18636198306E+03 -0.24115894830E+03  0.18882107820E+04  0.46999998093E+01 0.  1.
       -5    1    3    3    0  502  0.18634455828E+04 -0.18636198306E+03 -0.85875365665E+03  0.20602524510E+04  0.46999998093E+01 0. -1.
</event>
<event>
 5   0  0.1370688E-07  0.3773186E+04  0.7818609E-02  0.8051934E-01
       -2   -1    0    0    0  501  0.00000000000E+00  0.00000000000E+00  0.15478200257E+04  0.15478200257E+04  0.25500000920E-02 0. -1.
        2   -1    0    0  501    0  0.00000000000E+00  0.00000000000E+00 -0.22995141165E+04  0.22995141165E+04  0.25500000920E-02 0.  1.
    10030    2    1    2    0    0  0.00000000000E+00  0.00000000000E+00 -0.75169409077E+03  0.38473341421E+04  0.37731864512E+04 0.  0.
        5    1    3    3  502    0  0.17099955434E+04  0.45006528939E+03  0.29477685646E+03  0.17926402339E+04  0.46999998093E+01 0.  1.
       -5    1    3    3    0  502 -0.17099955434E+04 -0.45006528939E+03 -0.10464709472E+04  0.20546939082E+04  0.46999998093E+01 0. -1.
</event>
<event>
 5   0  0.6661000E-08  0.3819953E+04  0.7818609E-02  0.8041887E-01
        1   -1    0    0  501    0  0.00000000000E+00  0.00000000000E+00  0.25811970837E+04  0.25811970837E+04  0.50400001928E-02 0.  1.
       -1   -1    0    0    0  501  0.00000000000E+00  0.00000000000E+00 -0.14133017104E+04  0.14133017104E+04  0.50400001928E-02 0. -1.
    10030    2    1    2    0    0  0.00000000000E+00  0.00000000000E+00  0.11678953733E+04  0.39944987941E+04  0.38199530120E+04 0.  0.
        1    1    3    3  502    0 -0.97013587559E+03 -0.14175391055E+04 -0.28933416864E+03  0.17419227864E+04  0.50400001928E-02 0. -1.
       -1    1    3    3    0  502  0.97013587559E+03  0.14175391055E+04  0.14572295419E+04  0.22525760077E+04  0.50400001928E-02 0.  1.
</event>
<event>
 5   0  0.6661000E-08  0.3808215E+04  0.7818609E-02  0.8044394E-01
       -1   -1    0    0    0  501  0.00000000000E+00  0.00000000000E+00  0.25220603294E+04  0.25220603295E+04  0.50400001928E-02 0.  1.
        1   -1    0    0  501    0  0.00000000000E+00  0.00000000000E+00 -0.14375645712E+04  0.14375645712E+04  0.50400001928E-02 0. -1.
    10030    2    1    2    0    0  0.00000000000E+00  0.00000000000E+00  0.10844957582E+04  0.39596249007E+04  0.38082145822E+04 0.  0.
        1    1    3    3  502    0  0.14419986305E+04 -0.94384953517E+03 -0.29951548821E+03  0.17492631372E+04  0.50400001928E-02 0.  1.
       -1    1    3    3    0  502 -0.14419986305E+04  0.94384953517E+03  0.13840112464E+04  0.22103617635E+04  0.50400001928E-02 0. -1.
</event>
<event>
 5   0  0.2081337E-07  0.3802763E+04  0.7818609E-02  0.8045562E-01
       -2   -1    0    0    0  501  0.00000000000E+00  0.00000000000E+00  0.23977204680E+04  0.23977204680E+04  0.25500000920E-02 0.  1.
        2   -1    0    0  501    0  0.00000000000E+00  0.00000000000E+00 -0.15077870567E+04  0.15077870567E+04  0.25500000920E-02 0. -1.
    10030    2    1    2    0    0  0.00000000000E+00  0.00000000000E+00  0.88993341134E+03  0.39055075247E+04  0.38027631465E+04 0.  0.
        1    1    3    3  502    0  0.12342414352E+04  0.97671651957E+03 -0.65059031209E+03  0.17031132770E+04  0.50400001928E-02 0. -1.
       -1    1    3    3    0  502 -0.12342414352E+04 -0.97671651957E+03  0.15405237234E+04  0.22023942477E+04  0.50400001928E-02 0.  1.
</event>
<event>
 5   0  0.6661000E-08  0.3839817E+04  0.7818609E-02  0.8037664E-01
       -3   -1    0    0    0  501  0.00000000000E+00  0.00000000000E+00  0.21501197551E+04  0.21501197575E+04  0.10100000352E+00 0.  1.
        3   -1    0    0  501    0  0.00000000000E+00  0.00000000000E+00 -0.17143455675E+04  0.17143455705E+04  0.10100000352E+00 0. -1.
    10030    2    1    2    0    0  0.00000000000E+00  0.00000000000E+00  0.43577418757E+03  0.38644653279E+04  0.38398168092E+04 0.  0.
        2    1    3    3  502    0  0.76449457312E+03 -0.92987719165E+03 -0.12873489039E+04  0.17624956012E+04  0.25500000920E-02 0. -1.
       -2    1    3    3    0  502 -0.76449457312E+03  0.92987719165E+03  0.17231230915E+04  0.21019697268E+04  0.25500000920E-02 0.  1.
</event>
<event>
 5   0  0.2203998E-07  0.3787946E+04  0.7818609E-02  0.8048747E-01
       -2   -1    0    0    0  501  0.00000000000E+00  0.00000000000E+00  0.19715516288E+04  0.19715516288E+04  0.25500000920E-02 0. -1.
        2   -1    0    0  501    0  0.00000000000E+00  0.00000000000E+00 -0.18194472324E+04  0.18194472324E+04  0.25500000920E-02 0.  1.
    10030    2    1    2    0    0  0.00000000000E+00  0.00000000000E+00  0.15210439648E+03  0.37909988612E+04  0.37879462270E+04 0.  0.
        3    1    3    3  502    0  0.61123356809E+03 -0.17495776546E+04  0.46688669260E+03  0.19111806922E+04  0.10100000352E+00 0. -1.
       -3    1    3    3    0  502 -0.61123356809E+03  0.17495776546E+04 -0.31478229611E+03  0.18798181690E+04  0.10100000352E+00 0.  1.
</event>
<event>
 5   0  0.1370688E-07  0.3801032E+04  0.7818609E-02  0.8045933E-01
        2   -1    0    0  501    0  0.00000000000E+00  0.00000000000E+00  0.22507844952E+04  0.22507844952E+04  0.25500000920E-02 0. -1.
       -2   -1    0    0    0  501  0.00000000000E+00  0.00000000000E+00 -0.16047566456E+04  0.16047566456E+04  0.25500000920E-02 0.  1.
    10030    2    1    2    0    0  0.00000000000E+00  0.00000000000E+00  0.64602784960E+03  0.38555411407E+04  0.38010321632E+04 0.  0.
        5    1    3    3  502    0  0.57459012228E+03  0.16578859329E+04 -0.41766288937E+03  0.18036640359E+04  0.46999998093E+01 0.  1.
       -5    1    3    3    0  502 -0.57459012228E+03 -0.16578859329E+04  0.10636907390E+04  0.20518771048E+04  0.46999998093E+01 0. -1.
</event>
<event>
 5   0  0.2135314E-07  0.3803737E+04  0.7818609E-02  0.8045353E-01
       -2   -1    0    0    0  501  0.00000000000E+00  0.00000000000E+00  0.16096354201E+04  0.16096354201E+04  0.25500000920E-02 0. -1.
        2   -1    0    0  501    0  0.00000000000E+00  0.00000000000E+00 -0.22471576856E+04  0.22471576856E+04  0.25500000920E-02 0.  1.
    10030    2    1    2    0    0  0.00000000000E+00  0.00000000000E+00 -0.63752226550E+03  0.38567931058E+04  0.38037374281E+04 0.  0.
        4    1    3    3  502    0 -0.11073164882E+04 -0.75413116358E+03  0.10499711973E+04  0.17021470985E+04  0.12699999809E+01 0. -1.
       -4    1    3    3    0  502  0.11073164882E+04  0.75413116358E+03 -0.16874934628E+04  0.21546460073E+04  0.12699999809E+01 0.  1.
</event>
<event>
 5   0  0.2081337E-07  0.3797967E+04  0.7818609E-02  0.8046591E-01
       -2   -1    0    0    0  501  0.00000000000E+00  0.00000000000E+00  0.21767232968E+04  0.21767232968E+04  0.25500000920E-02 0.  1.
        2   -1    0    0  501    0  0.00000000000E+00  0.00000000000E+00 -0.16566816023E+04  0.16566816023E+04  0.25500000920E-02 0. -1.
    10030    2    1    2    0    0  0.00000000000E+00  0.00000000000E+00  0.52004169454E+03  0.38334048992E+04  0.37979665292E+04 0.  0.
        1    1    3    3  502    0 -0.43892356220E+03 -0.69613987234E+03  0.19873846621E+04  0.21510375196E+04  0.50400001928E-02 0.  1.
       -1    1    3    3    0  502  0.43892356220E+03  0.69613987234E+03 -0.14673429676E+04  0.16823673796E+04  0.50400001928E-02 0. -1.
</event>
<event>
 5   0  0.6661000E-08  0.3804031E+04  0.7818609E-02  0.8045290E-01
       -1   -1    0    0    0  501  0.00000000000E+00  0.00000000000E+00  0.19646997733E+04  0.19646997733E+04  0.50400001928E-02 0.  1.
        1   -1    0    0  501    0  0.00000000000E+00  0.00000000000E+00 -0.18413314826E+04  0.18413314826E+04  0.50400001928E-02 0. -1.
    10030    2    1    2    0    0  0.00000000000E+00  0.00000000000E+00  0.12336829066E+03  0.38060312559E+04  0.38040313071E+04 0.  0.
        2    1    3    3  502    0  0.15148510034E+04  0.44135855897E+03 -0.10009912968E+04  0.18685701796E+04  0.25500000920E-02 0. -1.
       -2    1    3    3    0  502 -0.15148510034E+04 -0.44135855897E+03  0.11243595874E+04  0.19374610762E+04  0.25500000920E-02 0.  1.
</event>
<event>
 5   0  0.6661000E-08  0.3801626E+04  0.7818609E-02  0.8045806E-01
       -1   -1    0    0    0  501  0.00000000000E+00  0.00000000000E+00  0.24010090311E+04  0.24010090311E+04  0.50400001928E-02 0. -1.
        1   -1    0    0  501    0  0.00000000000E+00  0.00000000000E+00 -0.15048218442E+04  0.15048218442E+04  0.50400001928E-02 0.  1.
    10030    2    1    2    0    0  0.00000000000E+00  0.00000000000E+00  0.89618718683E+03  0.39058308753E+04  0.38016264089E+04 0.  0.
        3    1    3    3  502    0 -0.64830741107E+03 -0.12669811361E+04 -0.84642207621E+03  0.16558907089E+04  0.10100000352E+00 0.  1.
       -3    1    3    3    0  502  0.64830741107E+03  0.12669811361E+04  0.17426092630E+04  0.22499401664E+04  0.10100000352E+00 0. -1.
</event>
<event>
 5   0  0.2203998E-07  0.3801511E+04  0.7818609E-02  0.8045831E-01
       -2   -1    0    0    0  501  0.00000000000E+00  0.00000000000E+00  0.23193408023E+04  0.23193408023E+04  0.25500000920E-02 0.  1.
        2   -1    0    0  501    0  0.00000000000E+00  0.00000000000E+00 -0.15577143844E+04  0.15577143844E+04  0.25500000920E-02 0. -1.
    10030    2    1    2    0    0  0.00000000000E+00  0.00000000000E+00  0.76162641789E+03  0.38770551866E+04  0.38015105050E+04 0.  0.
        3    1    3    3  502    0 -0.33193326773E+03  0.17768698693E+04  0.98022078353E+03  0.20562779533E+04  0.10100000352E+00 0.  1.
       -3    1    3    3    0  502  0.33193326773E+03 -0.17768698693E+04 -0.21859436564E+03  0.18207772333E+04  0.10100000352E+00 0. -1.
</event>
<event>
 5   0  0.2203998E-07  0.3759217E+04  0.7818609E-02  0.8054964E-01
        2   -1    0    0  501    0  0.00000000000E+00  0.00000000000E+00  0.11072399756E+04  0.11072399756E+04  0.25500000920E-02 0.  1.
       -2   -1    0    0    0  501  0.00000000000E+00  0.00000000000E+00 -0.31907515440E+04  0.31907515440E+04  0.25500000920E-02 0. -1.
    10030    2    1    2    0    0  0.00000000000E+00  0.00000000000E+00 -0.20835115685E+04  0.42979915196E+04  0.37592167597E+04 0.  0.
        3    1    3    3  502    0 -0.10203293101E+04 -0.12758220986E+04  0.21061633253E+02  0.16337801354E+04  0.10100000352E+00 0.  1.
       -3    1    3    3    0  502  0.10203293101E+04  0.12758220986E+04 -0.21045732017E+04  0.26642113842E+04  0.10100000352E+00 0. -1.
</event>
<event>
 5   0  0.6661000E-08  0.3626271E+04  0.7818609E-02  0.8084500E-01
       -1   -1    0    0    0  501  0.00000000000E+00  0.00000000000E+00  0.14546678025E+04  0.14546678025E+04  0.50400001928E-02 0. -1.
        1   -1    0    0  501    0  0.00000000000E+00  0.00000000000E+00 -0.22599384950E+04  0.22599384950E+04  0.50400001928E-02 0.  1.
    10030    2    1    2    0    0  0.00000000000E+00  0.00000000000E+00 -0.80527069251E+03  0.37146062976E+04  0.36262706818E+04 0.  0.
        2    1    3    3  502    0 -0.17637875784E+04  0.41291467583E+03 -0.32319220168E+03  0.18400810717E+04  0.25500000920E-02 0. -1.
       -2    1    3    3    0  502  0.17637875784E+04 -0.41291467583E+03 -0.48207849083E+03  0.18745252259E+04  0.25500000920E-02 0.  1.
</event>
<event>
 5   0  0.6661000E-08  0.3780486E+04  0.7818609E-02  0.8050356E-01
       -1   -1    0    0    0  501  0.00000000000E+00  0.00000000000E+00  0.13073911844E+04  0.13073911844E+04  0.50400001928E-02 0. -1.
        1   -1    0    0  501    0  0.00000000000E+00  0.00000000000E+00 -0.27329371815E+04  0.27329371815E+04  0.50400001928E-02 0.  1.
    10030    2    1    2    0    0  0.00000000000E+00  0.00000000000E+00 -0.14255459972E+04  0.40403283659E+04  0.37804856718E+04 0.  0.
        1    1    3    3  502    0 -0.10577425058E+04  0.13090085841E+04 -0.16325633715E+04  0.23446931236E+04  0.50400001928E-02 0.  1.
       -1    1    3    3    0  502  0.10577425058E+04 -0.13090085841E+04  0.20701737431E+03  0.16956352423E+04  0.50400001928E-02 0. -1.
</event>
<event>
 5   0  0.1370688E-07  0.3799779E+04  0.7818609E-02  0.8046202E-01
        2   -1    0    0  501    0  0.00000000000E+00  0.00000000000E+00  0.19694334813E+04  0.19694334813E+04  0.25500000920E-02 0.  1.
       -2   -1    0    0    0  501  0.00000000000E+00  0.00000000000E+00 -0.18328014828E+04  0.18328014828E+04  0.25500000920E-02 0. -1.
    10030    2    1    2    0    0  0.00000000000E+00  0.00000000000E+00  0.13663199846E+03  0.38022349641E+04  0.37997792593E+04 0.  0.
        5    1    3    3  502    0  0.84718573995E+03  0.51570754053E+03  0.16898201626E+04  0.19593856734E+04  0.46999998093E+01 0.  1.
       -5    1    3    3    0  502 -0.84718573995E+03 -0.51570754053E+03 -0.15531881641E+04  0.18428492907E+04  0.46999998093E+01 0. -1.
</event>
<event>
 5   0  0.6661000E-08  0.3666574E+04  0.7818609E-02  0.8075410E-01
        1   -1    0    0  501    0  0.00000000000E+00  0.00000000000E+00  0.24514408420E+04  0.24514408420E+04  0.50400001928E-02 0. -1.
       -1   -1    0    0    0  501  0.00000000000E+00  0.00000000000E+00 -0.13710062750E+04  0.13710062750E+04  0.50400001928E-02 0.  1.
    10030    2    1    2    0    0  0.00000000000E+00  0.00000000000E+00  0.10804345670E+04  0.38224471170E+04  0.36665737560E+04 0.  0.
        4    1    3    3  502    0 -0.13678968359E+04 -0.89997363474E+03  0.13997966293E+04  0.21541881332E+04  0.12699999809E+01 0. -1.
       -4    1    3    3    0  502  0.13678968359E+04  0.89997363474E+03 -0.31936206231E+03  0.16682589837E+04  0.12699999809E+01 0.  1.
</event>
<event>
 5   0  0.6661000E-08  0.3836349E+04  0.7818609E-02  0.8038399E-01
        1   -1    0    0  501    0  0.00000000000E+00  0.00000000000E+00  0.19985999306E+04  0.19985999306E+04  0.50400001928E-02 0. -1.
       -1   -1    0    0    0  501  0.00000000000E+00  0.00000000000E+00 -0.18409851467E+04  0.18409851467E+04  0.50400001928E-02 0.  1.
    10030    2    1    2    0    0  0.00000000000E+00  0.00000000000E+00  0.15761478392E+03  0.38395850772E+04  0.38363486736E+04 0.  0.
        4    1    3    3  502    0  0.10060869249E+04 -0.16105561774E+04 -0.19214053704E+03  0.19086701391E+04  0.12699999809E+01 0.  1.
       -4    1    3    3    0  502 -0.10060869249E+04  0.16105561774E+04  0.34975532096E+03  0.19309149382E+04  0.12699999809E+01 0. -1.
</event>
<event>
 5   0  0.2135314E-07  0.3781958E+04  0.7818609E-02  0.8050038E-01
       -2   -1    0    0    0  501  0.00000000000E+00  0.00000000000E+00  0.19360345349E+04  0.19360345349E+04  0.25500000920E-02 0.  1.
        2   -1    0    0  501    0  0.00000000000E+00  0.00000000000E+00 -0.18469719693E+04  0.18469719693E+04  0.25500000920E-02 0. -1.
    10030    2    1    2    0    0  0.00000000000E+00  0.00000000000E+00  0.89062565556E+02  0.37830065042E+04  0.37819579678E+04 0.  0.
        4    1    3    3  502    0 -0.18294969222E+04  0.16936208270E+03  0.49193305684E+03  0.19020363426E+04  0.12699999809E+01 0.  1.
       -4    1    3    3    0  502  0.18294969222E+04 -0.16936208270E+03 -0.40287049128E+03  0.18809701616E+04  0.12699999809E+01 0. -1.
</event>
<event>
 5   0  0.6661000E-08  0.3864253E+04  0.7818609E-02  0.8032505E-01
        1   -1    0    0  501    0  0.00000000000E+00  0.00000000000E+00  0.13026512898E+04  0.13026512898E+04  0.50400001928E-02 0.  1.
       -1   -1    0    0    0  501  0.00000000000E+00  0.00000000000E+00 -0.28657804363E+04  0.28657804363E+04  0.50400001928E-02 0. -1.
    10030    2    1    2    0    0  0.00000000000E+00  0.00000000000E+00 -0.15631291465E+04  0.41684317260E+04  0.38642528807E+04 0.  0.
        1    1    3    3  502    0  0.88123806860E+03  0.51330822089E+03  0.98866298364E+03  0.14203944376E+04  0.50400001928E-02 0.  1.
       -1    1    3    3    0  502 -0.88123806860E+03 -0.51330822089E+03 -0.25517921301E+04  0.27480372884E+04  0.50400001928E-02 0. -1.
</event>
<event>
 5   0  0.6661000E-08  0.3823319E+04  0.7818609E-02  0.8041169E-01
        1   -1    0    0  501    0  0.00000000000E+00  0.00000000000E+00  0.25410236085E+04  0.25410236085E+04  0.50400001928E-02 0.  1.
       -1   -1    0    0    0  501  0.00000000000E+00  0.00000000000E+00 -0.14381771151E+04  0.14381771151E+04  0.50400001928E-02 0. -1.
    10030    2    1    2    0    0  0.00000000000E+00  0.00000000000E+00  0.11028464934E+04  0.39792007236E+04  0.38233189784E+04 0.  0.
        1    1    3    3  502    0 -0.73137188685E+03 -0.17658552775E+04  0.51400893600E+03  0.19792308820E+04  0.50400001928E-02 0. -1.
       -1    1    3    3    0  502  0.73137188685E+03  0.17658552775E+04  0.58883755743E+03  0.19999698416E+04  0.50400001928E-02 0.  1.
</event>
<event>
 5   0  0.6661000E-08  0.3810724E+04  0.7818609E-02  0.8043858E-01
       -1   -1    0    0    0  501  0.00000000000E+00  0.00000000000E+00  0.15846918775E+04  0.15846918775E+04  0.50400001928E-02 0.  1.
        1   -1    0    0  501    0  0.00000000000E+00  0.00000000000E+00 -0.22909210248E+04  0.22909210248E+04  0.50400001928E-02 0. -1.
    10030    2    1    2    0    0  0.00000000000E+00  0.00000000000E+00 -0.70622914725E+03  0.38756129023E+04  0.38107237842E+04 0.  0.
        1    1    3    3  502    0 -0.56743516453E+03 -0.14941470120E+04  0.70182638944E+03  0.17455710356E+04  0.50400001928E-02 0.  1.
       -1    1    3    3    0  502  0.56743516453E+03  0.14941470120E+04 -0.14080555367E+04  0.21300418667E+04  0.50400001928E-02 0. -1.
</event>
<event>
 5   0  0.6725199E-08  0.3779748E+04  0.7818609E-02  0.8050515E-01
        1   -1    0    0  501    0  0.00000000000E+00  0.00000000000E+00  0.21075419485E+04  0.21075419485E+04  0.50400001928E-02 0.  1.
       -1   -1    0    0    0  501  0.00000000000E+00  0.00000000000E+00 -0.16946864935E+04  0.16946864935E+04  0.50400001928E-02 0. -1.
    10030    2    1    2    0    0  0.00000000000E+00  0.00000000000E+00  0.41285545494E+03  0.38022284420E+04  0.37797475443E+04 0.  0.
        5    1    3    3  502    0 -0.81512095309E+03  0.13412556923E+03  0.19162988791E+04  0.20867762986E+04  0.46999998093E+01 0.  1.
       -5    1    3    3    0  502  0.81512095309E+03 -0.13412556923E+03 -0.15034434242E+04  0.17154521434E+04  0.46999998093E+01 0. -1.
</event>
<event>
 5   0  0.6661000E-08  0.3819127E+04  0.7818609E-02  0.8042063E-01
        1   -1    0    0  501    0  0.00000000000E+00  0.00000000000E+00  0.22636391849E+04  0.22636391850E+04  0.50400001928E-02 0. -1.
       -1   -1    0    0    0  501  0.00000000000E+00  0.00000000000E+00 -0.16108715592E+04  0.16108715592E+04  0.50400001928E-02 0.  1.
    10030    2    1    2    0    0  0.00000000000E+00  0.00000000000E+00  0.65276762578E+03  0.38745107441E+04  0.38191265930E+04 0.  0.
        3    1    3    3  502    0  0.61572363567E+03  0.17629405721E+04  0.73136819424E+03  0.20054861012E+04  0.10100000352E+00 0. -1.
       -3    1    3    3    0  502 -0.61572363567E+03 -0.17629405721E+04 -0.78600568461E+02  0.18690246429E+04  0.10100000352E+00 0.  1.
</event>
<event>
 5   0  0.6661000E-08  0.3423726E+04  0.7818609E-02  0.8132108E-01
       -4   -1    0    0    0  501  0.00000000000E+00  0.00000000000E+00  0.10181619684E+04  0.10181627604E+04  0.12699999809E+01 0. -1.
        4   -1    0    0  501    0  0.00000000000E+00  0.00000000000E+00 -0.28781984042E+04  0.28781986844E+04  0.12699999809E+01 0.  1.
    10030    2    1    2    0    0  0.00000000000E+00  0.00000000000E+00 -0.18600364358E+04  0.38963614448E+04  0.34237255974E+04 0.  0.
        2    1    3    3  502    0 -0.43206258193E+03  0.15759504633E+02  0.95500434726E+03  0.10483128064E+04  0.25500000920E-02 0. -1.
       -2    1    3    3    0  502  0.43206258193E+03 -0.15759504633E+02 -0.28150407831E+04  0.28480486385E+04  0.25500000920E-02 0.  1.
</event>
<event>
 5   0  0.6661000E-08  0.3813970E+04  0.7818609E-02  0.8043164E-01
        1   -1    0    0  501    0  0.00000000000E+00  0.00000000000E+00  0.19885543711E+04  0.19885543711E+04  0.50400001928E-02 0. -1.
       -1   -1    0    0    0  501  0.00000000000E+00  0.00000000000E+00 -0.18287611376E+04  0.18287611376E+04  0.50400001928E-02 0.  1.
    10030    2    1    2    0    0  0.00000000000E+00  0.00000000000E+00  0.15979323345E+03  0.38173155087E+04  0.38139695614E+04 0.  0.
        2    1    3    3  502    0  0.23675915118E+03  0.47837464642E+03 -0.17524726508E+04  0.18319545818E+04  0.25500000920E-02 0.  1.
       -2    1    3    3    0  502 -0.23675915118E+03 -0.47837464642E+03  0.19122658842E+04  0.19853609269E+04  0.25500000920E-02 0. -1.
</event>
<event>
 5   0  0.1370688E-07  0.3778088E+04  0.7818609E-02  0.8050873E-01
       -2   -1    0    0    0  501  0.00000000000E+00  0.00000000000E+00  0.18143650619E+04  0.18143650619E+04  0.25500000920E-02 0. -1.
        2   -1    0    0  501    0  0.00000000000E+00  0.00000000000E+00 -0.19667971398E+04  0.19667971398E+04  0.25500000920E-02 0.  1.
    10030    2    1    2    0    0  0.00000000000E+00  0.00000000000E+00 -0.15243207785E+03  0.37811622017E+04  0.37780884131E+04 0.  0.
        5    1    3    3  502    0  0.13890659852E+03  0.94746429338E+03 -0.17058781054E+04  0.19562785668E+04  0.46999998093E+01 0.  1.
       -5    1    3    3    0  502 -0.13890659852E+03 -0.94746429338E+03  0.15534460276E+04  0.18248836349E+04  0.46999998093E+01 0. -1.
</event>
<event>
 5   0  0.1370688E-07  0.3776911E+04  0.7818609E-02  0.8051128E-01
        2   -1    0    0  501    0  0.00000000000E+00  0.00000000000E+00  0.22655692604E+04  0.22655692604E+04  0.25500000920E-02 0.  1.
       -2   -1    0    0    0  501  0.00000000000E+00  0.00000000000E+00 -0.15741139066E+04  0.15741139066E+04  0.25500000920E-02 0. -1.
    10030    2    1    2    0    0  0.00000000000E+00  0.00000000000E+00  0.69145535383E+03  0.38396831670E+04  0.37769109490E+04 0.  0.
        5    1    3    3  502    0 -0.17609266320E+04  0.23498294210E+03  0.99681099627E+03  0.20370895509E+04  0.46999998093E+01 0. -1.
       -5    1    3    3    0  502  0.17609266320E+04 -0.23498294210E+03 -0.30535564245E+03  0.18025936160E+04  0.46999998093E+01 0.  1.
</event>
<event>
 5   0  0.6661000E-08  0.3804290E+04  0.7818609E-02  0.8045235E-01
       -1   -1    0    0    0  501  0.00000000000E+00  0.00000000000E+00  0.13280327840E+04  0.13280327840E+04  0.50400001928E-02 0. -1.
        1   -1    0    0  501    0  0.00000000000E+00  0.00000000000E+00 -0.27244474310E+04  0.27244474310E+04  0.50400001928E-02 0.  1.
    10030    2    1    2    0    0  0.00000000000E+00  0.00000000000E+00 -0.13964146470E+04  0.40524802150E+04  0.38042899504E+04 0.  0.
        1    1    3    3  502    0  0.78852644790E+03  0.77194119124E+03 -0.23486372657E+04  0.25949497428E+04  0.50400001928E-02 0.  1.
       -1    1    3    3    0  502 -0.78852644790E+03 -0.77194119124E+03  0.95222261872E+03  0.14575304722E+04  0.50400001928E-02 0. -1.
</event>
<event>
 5   0  0.6725199E-08  0.3769163E+04  0.7818609E-02  0.8052805E-01
        1   -1    0    0  501    0  0.00000000000E+00  0.00000000000E+00  0.16527148801E+04  0.16527148801E+04  0.50400001928E-02 0.  1.
       -1   -1    0    0    0  501  0.00000000000E+00  0.00000000000E+00 -0.21489779577E+04  0.21489779577E+04  0.50400001928E-02 0. -1.
    10030    2    1    2    0    0  0.00000000000E+00  0.00000000000E+00 -0.49626307754E+03  0.38016928378E+04  0.37691632216E+04 0.  0.
        5    1    3    3  502    0  0.75390139203E+03  0.14104764853E+04  0.75737465838E+03  0.17695902598E+04  0.46999998093E+01 0.  1.
       -5    1    3    3    0  502 -0.75390139203E+03 -0.14104764853E+04 -0.12536377359E+04  0.20321025780E+04  0.46999998093E+01 0. -1.
</event>
<event>
 5   0  0.1370688E-07  0.3808289E+04  0.7818609E-02  0.8044378E-01
        2   -1    0    0  501    0  0.00000000000E+00  0.00000000000E+00  0.13491384870E+04  0.13491384870E+04  0.25500000920E-02 0.  1.
       -2   -1    0    0    0  501  0.00000000000E+00  0.00000000000E+00 -0.26874679202E+04  0.26874679202E+04  0.25500000920E-02 0. -1.
    10030    2    1    2    0    0  0.00000000000E+00  0.00000000000E+00 -0.13383294333E+04  0.40366064072E+04  0.38082890666E+04 0.  0.
        5    1    3    3  502    0  0.13222220054E+03  0.14310094906E+04 -0.19932461324E+04  0.24572999628E+04  0.46999998093E+01 0. -1.
       -5    1    3    3    0  502 -0.13222220054E+03 -0.14310094906E+04  0.65491669917E+03  0.15793064444E+04  0.46999998093E+01 0.  1.
</event>
<event>
 5   0  0.6661000E-08  0.3696954E+04  0.7818609E-02  0.8068637E-01
        1   -1    0    0  501    0  0.00000000000E+00  0.00000000000E+00  0.12354285334E+04  0.12354285334E+04  0.50400001928E-02 0. -1.
       -1   -1    0    0    0  501  0.00000000000E+00  0.00000000000E+00 -0.27657339761E+04  0.27657339761E+04  0.50400001928E-02 0.  1.
    10030    2    1    2    0    0  0.00000000000E+00  0.00000000000E+00 -0.15303054428E+04  0.40011625095E+04  0.36969537026E+04 0.  0.
        4    1    3    3  502    0 -0.15109319860E+04 -0.10638762453E+04 -0.81494877835E+03  0.20196265139E+04  0.12699999809E+01 0.  1.
       -4    1    3    3    0  502  0.15109319860E+04  0.10638762453E+04 -0.71535666441E+03  0.19815359956E+04  0.12699999809E+01 0. -1.
</event>
<event>
 5   0  0.2135314E-07  0.3802056E+04  0.7818609E-02  0.8045714E-01
        2   -1    0    0  501    0  0.00000000000E+00  0.00000000000E+00  0.23882744272E+04  0.23882744272E+04  0.25500000920E-02 0. -1.
       -2   -1    0    0    0  501  0.00000000000E+00  0.00000000000E+00 -0.15131879046E+04  0.15131879046E+04  0.25500000920E-02 0.  1.
    10030    2    1    2    0    0  0.00000000000E+00  0.00000000000E+00  0.87508652257E+03  0.39014623318E+04  0.38020562732E+04 0.  0.
        4    1    3    3  502    0  0.14216445360E+04 -0.12284923235E+04  0.14077644457E+03  0.18841672420E+04  0.12699999809E+01 0.  1.
       -4    1    3    3    0  502 -0.14216445360E+04  0.12284923235E+04  0.73431007800E+03  0.20172950898E+04  0.12699999809E+01 0. -1.
</event>
<event>
 5   0  0.2081337E-07  0.3799527E+04  0.7818609E-02  0.8046256E-01
       -2   -1    0    0    0  501  0.00000000000E+00  0.00000000000E+00  0.17247995029E+04  0.17247995029E+04  0.25500000920E-02 0.  1.
        2   -1    0    0  501    0  0.00000000000E+00  0.00000000000E+00 -0.20924753821E+04  0.20924753821E+04  0.25500000920E-02 0. -1.
    10030    2    1    2    0    0  0.00000000000E+00  0.00000000000E+00 -0.36767587918E+03  0.38172748849E+04  0.37995265488E+04 0.  0.
        1    1    3    3  502    0  0.14580335114E+04 -0.11336274872E+04 -0.63103231206E+03  0.19517107314E+04  0.50400001928E-02 0. -1.
       -1    1    3    3    0  502 -0.14580335114E+04  0.11336274872E+04  0.26335643287E+03  0.18655641535E+04  0.50400001928E-02 0.  1.
</event>
<event>
 5   0  0.6661000E-08  0.3845052E+04  0.7818609E-02  0.8036555E-01
        1   -1    0    0  501    0  0.00000000000E+00  0.00000000000E+00  0.26046962806E+04  0.26046962807E+04  0.50400001928E-02 0. -1.
       -1   -1    0    0    0  501  0.00000000000E+00  0.00000000000E+00 -0.14190164124E+04  0.14190164124E+04  0.50400001928E-02 0.  1.
    10030    2    1    2    0    0  0.00000000000E+00  0.00000000000E+00  0.11856798683E+04  0.40237126930E+04  0.38450522865E+04 0.  0.
        3    1    3    3  502    0 -0.90985443427E+03  0.13404312909E+04 -0.49039826656E+03  0.16926551945E+04  0.10100000352E+00 0.  1.
       -3    1    3    3    0  502  0.90985443427E+03 -0.13404312909E+04  0.16760781349E+04  0.23310574986E+04  0.10100000352E+00 0. -1.
</event>
<event>
 5   0  0.2203998E-07  0.3812188E+04  0.7818609E-02  0.8043544E-01
        2   -1    0    0  501    0  0.00000000000E+00  0.00000000000E+00  0.22356971874E+04  0.22356971875E+04  0.25500000920E-02 0.  1.
       -2   -1    0    0    0  501  0.00000000000E+00  0.00000000000E+00 -0.16250833588E+04  0.16250833588E+04  0.25500000920E-02 0. -1.
    10030    2    1    2    0    0  0.00000000000E+00  0.00000000000E+00  0.61061382864E+03  0.38607805463E+04  0.38121879779E+04 0.  0.
        3    1    3    3  502    0 -0.65961869953E+02  0.11434914074E+04  0.18482990240E+04  0.21744270186E+04  0.10100000352E+00 0.  1.
       -3    1    3    3    0  502  0.65961869953E+02 -0.11434914074E+04 -0.12376851954E+04  0.16863535276E+04  0.10100000352E+00 0. -1.
</event>
<event>
 5   0  0.6661000E-08  0.3776648E+04  0.7818609E-02  0.8051185E-01
        1   -1    0    0  501    0  0.00000000000E+00  0.00000000000E+00  0.18318440489E+04  0.18318440489E+04  0.50400001928E-02 0.  1.
       -1   -1    0    0    0  501  0.00000000000E+00  0.00000000000E+00 -0.19465449970E+04  0.19465449970E+04  0.50400001928E-02 0. -1.
    10030    2    1    2    0    0  0.00000000000E+00  0.00000000000E+00 -0.11470094807E+03  0.37783890459E+04  0.37766476503E+04 0.  0.
        4    1    3    3  502    0 -0.77804954614E+03  0.81790651138E+03 -0.15717964865E+04  0.19351687176E+04  0.12699999809E+01 0. -1.
       -4    1    3    3    0  502  0.77804954614E+03 -0.81790651138E+03  0.14570955384E+04  0.18432203283E+04  0.12699999809E+01 0.  1.
</event>
<event>
 5   0  0.2205204E-07  0.3805314E+04  0.7818609E-02  0.8045016E-01
        2   -1    0    0  501    0  0.00000000000E+00  0.00000000000E+00  0.29238741168E+04  0.29238741168E+04  0.25500000920E-02 0. -1.
       -2   -1    0    0    0  501  0.00000000000E+00  0.00000000000E+00 -0.12381187039E+04  0.12381187039E+04  0.25500000920E-02 0.  1.
    10030    2    1    2    0    0  0.00000000000E+00  0.00000000000E+00  0.16857554129E+04  0.41619928207E+04  0.38053137752E+04 0.  0.
        2    1    3    3  502    0 -0.11942998031E+04 -0.13989952092E+04  0.13748448744E+04  0.22964620710E+04  0.25500000920E-02 0. -1.
       -2    1    3    3    0  502  0.11942998031E+04  0.13989952092E+04  0.31091053845E+03  0.18655307496E+04  0.25500000920E-02 0.  1.
</event>
<event>
 5   0  0.6661000E-08  0.3792371E+04  0.7818609E-02  0.8047794E-01
        1   -1    0    0  501    0  0.00000000000E+00  0.00000000000E+00  0.15963501102E+04  0.15963501102E+04  0.50400001928E-02 0. -1.
       -1   -1    0    0    0  501  0.00000000000E+00  0.00000000000E+00 -0.22523370923E+04  0.22523370923E+04  0.50400001928E-02 0.  1.
    10030    2    1    2    0    0  0.00000000000E+00  0.00000000000E+00 -0.65598698212E+03  0.38486872025E+04  0.37923705333E+04 0.  0.
        4    1    3    3  502    0 -0.18662179715E+04  0.39217584051E+02  0.10439454130E+02  0.18666596185E+04  0.12699999809E+01 0. -1.
       -4    1    3    3    0  502  0.18662179715E+04 -0.39217584051E+02 -0.66642643626E+03  0.19820275841E+04  0.12699999809E+01 0.  1.
</event>
<event>
 5   0  0.6661000E-08  0.3780884E+04  0.7818609E-02  0.8050270E-01
        1   -1    0    0  501    0  0.00000000000E+00  0.00000000000E+00  0.19705959173E+04  0.19705959173E+04  0.50400001928E-02 0.  1.
       -1   -1    0    0    0  501  0.00000000000E+00  0.00000000000E+00 -0.18135486836E+04  0.18135486836E+04  0.50400001928E-02 0. -1.
    10030    2    1    2    0    0  0.00000000000E+00  0.00000000000E+00  0.15704723371E+03  0.37841446008E+04  0.37808843577E+04 0.  0.
        4    1    3    3  502    0 -0.43526955992E+03  0.91537837185E+03 -0.15185944907E+04  0.18257896904E+04  0.12699999809E+01 0. -1.
       -4    1    3    3    0  502  0.43526955992E+03 -0.91537837185E+03  0.16756417245E+04  0.19583549104E+04  0.12699999809E+01 0.  1.
</event>
<event>
 5   0  0.1370688E-07  0.3784387E+04  0.7818609E-02  0.8049514E-01
        2   -1    0    0  501    0  0.00000000000E+00  0.00000000000E+00  0.20307094002E+04  0.20307094002E+04  0.25500000920E-02 0. -1.
       -2   -1    0    0    0  501  0.00000000000E+00  0.00000000000E+00 -0.17631258300E+04  0.17631258300E+04  0.25500000920E-02 0.  1.
    10030    2    1    2    0    0  0.00000000000E+00  0.00000000000E+00  0.26758357019E+03  0.37938352302E+04  0.37843869764E+04 0.  0.
        5    1    3    3  502    0  0.17255016548E+04  0.13359212791E+03 -0.63308295135E+03  0.18428290563E+04  0.46999998093E+01 0.  1.
       -5    1    3    3    0  502 -0.17255016548E+04 -0.13359212791E+03  0.90066652154E+03  0.19510061739E+04  0.46999998093E+01 0. -1.
</event>
<event>
 5   0  0.2205204E-07  0.3756033E+04  0.7818609E-02  0.8055656E-01
       -2   -1    0    0    0  501  0.00000000000E+00  0.00000000000E+00  0.14164909082E+04  0.14164909082E+04  0.25500000920E-02 0. -1.
        2   -1    0    0  501    0  0.00000000000E+00  0.00000000000E+00 -0.24899184013E+04  0.24899184013E+04  0.25500000920E-02 0.  1.
    10030    2    1    2    0    0  0.00000000000E+00  0.00000000000E+00 -0.10734274931E+04  0.39064093095E+04  0.37560334277E+04 0.  0.
        2    1    3    3  502    0 -0.46403410209E+03 -0.14979082677E+04 -0.16114738773E+04  0.22485339409E+04  0.25500000920E-02 0.  1.
       -2    1    3    3    0  502  0.46403410209E+03  0.14979082677E+04  0.53804638420E+03  0.16578753686E+04  0.25500000920E-02 0. -1.
</event>
<event>
 5   0  0.2081337E-07  0.3826315E+04  0.7818609E-02  0.8040531E-01
       -2   -1    0    0    0  501  0.00000000000E+00  0.00000000000E+00  0.32027661481E+04  0.32027661481E+04  0.25500000920E-02 0. -1.
        2   -1    0    0  501    0  0.00000000000E+00  0.00000000000E+00 -0.11428157124E+04  0.11428157124E+04  0.25500000920E-02 0.  1.
    10030    2    1    2    0    0  0.00000000000E+00  0.00000000000E+00  0.20599504356E+04  0.43455818605E+04  0.38263149255E+04 0.  0.
        1    1    3    3  502    0 -0.82718711064E+03 -0.16663691815E+04  0.52315516010E+03  0.19325413544E+04  0.50400001928E-02 0.  1.
       -1    1    3    3    0  502  0.82718711064E+03  0.16663691815E+04  0.15367952755E+04  0.24130405061E+04  0.50400001928E-02 0. -1.
</event>
<event>
 5   0  0.1370688E-07  0.3823954E+04  0.7818609E-02  0.8041034E-01
        2   -1    0    0  501    0  0.00000000000E+00  0.00000000000E+00  0.29019872932E+04  0.29019872932E+04  0.25500000920E-02 0.  1.
       -2   -1    0    0    0  501  0.00000000000E+00  0.00000000000E+00 -0.12597078162E+04  0.12597078162E+04  0.25500000920E-02 0. -1.
    10030    2    1    2    0    0  0.00000000000E+00  0.00000000000E+00  0.16422794770E+04  0.41616951094E+04  0.38239540143E+04 0.  0.
        5    1    3    3  502    0  0.11547615633E+04 -0.15168363462E+04  0.66205388093E+03  0.20180694241E+04  0.46999998093E+01 0. -1.
       -5    1    3    3    0  502 -0.11547615633E+04  0.15168363462E+04  0.98022559608E+03  0.21436256853E+04  0.46999998093E+01 0.  1.
</event>
<event>
 5   0  0.2081337E-07  0.3805650E+04  0.7818609E-02  0.8044944E-01
        2   -1    0    0  501    0  0.00000000000E+00  0.00000000000E+00  0.11848603498E+04  0.11848603498E+04  0.25500000920E-02 0. -1.
       -2   -1    0    0    0  501  0.00000000000E+00  0.00000000000E+00 -0.30558387345E+04  0.30558387345E+04  0.25500000920E-02 0.  1.
    10030    2    1    2    0    0  0.00000000000E+00  0.00000000000E+00 -0.18709783847E+04  0.42406990843E+04  0.38056495645E+04 0.  0.
        1    1    3    3  502    0 -0.15153880405E+04  0.68579956905E+03 -0.19652651088E+04  0.25746822930E+04  0.50400001928E-02 0.  1.
       -1    1    3    3    0  502  0.15153880405E+04 -0.68579956905E+03  0.94286724111E+02  0.16660167912E+04  0.50400001928E-02 0. -1.
</event>
<event>
 5   0  0.6661000E-08  0.3789142E+04  0.7818609E-02  0.8048489E-01
        1   -1    0    0  501    0  0.00000000000E+00  0.00000000000E+00  0.10748049358E+04  0.10748049358E+04  0.50400001928E-02 0. -1.
       -1   -1    0    0    0  501  0.00000000000E+00  0.00000000000E+00 -0.33395814371E+04  0.33395814371E+04  0.50400001928E-02 0.  1.
    10030    2    1    2    0    0  0.00000000000E+00  0.00000000000E+00 -0.22647765013E+04  0.44143863730E+04  0.37891416507E+04 0.  0.
        1    1    3    3  502    0  0.72702582111E+03  0.84510631983E+03 -0.29170321346E+04  0.31227948557E+04  0.50400001928E-02 0.  1.
       -1    1    3    3    0  502 -0.72702582111E+03 -0.84510631983E+03  0.65225563328E+03  0.12915915173E+04  0.50400001928E-02 0. -1.
</event>
<event>
 5   0  0.1370688E-07  0.3830807E+04  0.7818609E-02  0.8039576E-01
       -2   -1    0    0    0  501  0.00000000000E+00  0.00000000000E+00  0.15575609072E+04  0.15575609072E+04  0.25500000920E-02 0.  1.
        2   -1    0    0  501    0  0.00000000000E+00  0.00000000000E+00 -0.23554593659E+04  0.23554593659E+04  0.25500000920E-02 0. -1.
    10030    2    1    2    0    0  0.00000000000E+00  0.00000000000E+00 -0.79789845872E+03  0.39130202731E+04  0.38308074484E+04 0.  0.
        5    1    3    3  502    0 -0.64326907716E+03  0.15793357224E+03 -0.22347425700E+04  0.23308441739E+04  0.46999998093E+01 0. -1.
       -5    1    3    3    0  502  0.64326907716E+03 -0.15793357224E+03  0.14368441112E+04  0.15821760992E+04  0.46999998093E+01 0.  1.
</event>
<event>
 5   0  0.6725199E-08  0.3767843E+04  0.7818609E-02  0.8053091E-01
        1   -1    0    0  501    0  0.00000000000E+00  0.00000000000E+00  0.20676158407E+04  0.20676158407E+04  0.50400001928E-02 0. -1.
       -1   -1    0    0    0  501  0.00000000000E+00  0.00000000000E+00 -0.17165470686E+04  0.17165470686E+04  0.50400001928E-02 0.  1.
    10030    2    1    2    0    0  0.00000000000E+00  0.00000000000E+00  0.35106877212E+03  0.37841629093E+04  0.37678428366E+04 0.  0.
        5    1    3    3  502    0 -0.60950517134E+03 -0.13338938900E+03  0.19608301654E+04  0.20577089956E+04  0.46999998093E+01 0. -1.
       -5    1    3    3    0  502  0.60950517134E+03  0.13338938900E+03 -0.16097613933E+04  0.17264539137E+04  0.46999998093E+01 0.  1.
</event>
<event>
 5   0  0.2135314E-07  0.3819566E+04  0.7818609E-02  0.8041969E-01
        2   -1    0    0  501    0  0.00000000000E+00  0.00000000000E+00  0.22014104770E+04  0.22014104770E+04  0.25500000920E-02 0. -1.
       -2   -1    0    0    0  501  0.00000000000E+00  0.00000000000E+00 -0.16567885965E+04  0.16567885965E+04  0.25500000920E-02 0.  1.
    10030    2    1    2    0    0  0.00000000000E+00  0.00000000000E+00  0.54462188052E+03  0.38581990735E+04  0.38195663494E+04 0.  0.
        4    1    3    3  502    0  0.14453019589E+04 -0.48938020857E+03  0.14323513545E+04  0.20928503904E+04  0.12699999809E+01 0. -1.
       -4    1    3    3    0  502 -0.14453019589E+04  0.48938020857E+03 -0.88772947400E+03  0.17653486831E+04  0.12699999809E+01 0.  1.
</event>
<event>
 5   0  0.2135314E-07  0.3799611E+04  0.7818609E-02  0.8046238E-01
        2   -1    0    0  501    0  0.00000000000E+00  0.00000000000E+00  0.11830085587E+04  0.11830085587E+04  0.25500000920E-02 0. -1.
       -2   -1    0    0    0  501  0.00000000000E+00  0.00000000000E+00 -0.30509163618E+04  0.30509163618E+04  0.25500000920E-02 0.  1.
    10030    2    1    2    0    0  0.00000000000E+00  0.00000000000E+00 -0.18679078031E+04  0.42339249206E+04  0.37996105948E+04 0.  0.
        4    1    3    3  502    0 -0.97438327973E+03 -0.12549335706E+04 -0.20946390595E+04  0.26290293732E+04  0.12699999809E+01 0.  1.
       -4    1    3    3    0  502  0.97438327973E+03  0.12549335706E+04  0.22673125641E+03  0.16048955474E+04  0.12699999809E+01 0. -1.
</event>
<event>
 5   0  0.1370688E-07  0.3836657E+04  0.7818609E-02  0.8038334E-01
        2   -1    0    0  501    0  0.00000000000E+00  0.00000000000E+00  0.19927141352E+04  0.19927141352E+04  0.25500000920E-02 0.  1.
       -2   -1    0    0    0  501  0.00000000000E+00  0.00000000000E+00 -0.18467197791E+04  0.18467197791E+04  0.25500000920E-02 0. -1.
    10030    2    1    2    0    0  0.00000000000E+00  0.00000000000E+00  0.14599435614E+03  0.38394339143E+04  0.38366571947E+04 0.  0.
        5    1    3    3  502    0 -0.15418862619E+01  0.12166797575E+04 -0.14111980867E+04  0.18632804780E+04  0.46999998093E+01 0. -1.
       -5    1    3    3    0  502  0.15418862619E+01 -0.12166797575E+04  0.15571924429E+04  0.19761534363E+04  0.46999998093E+01 0.  1.
</event>
<event>
 5   0  0.6661000E-08  0.3560820E+04  0.7818609E-02  0.8099526E-01
       -1   -1    0    0    0  501  0.00000000000E+00  0.00000000000E+00  0.11192052867E+04  0.11192052868E+04  0.50400001928E-02 0.  1.
        1   -1    0    0  501    0  0.00000000000E+00  0.00000000000E+00 -0.28322421680E+04  0.28322421681E+04  0.50400001928E-02 0. -1.
    10030    2    1    2    0    0  0.00000000000E+00  0.00000000000E+00 -0.17130368813E+04  0.39514474548E+04  0.35608203593E+04 0.  0.
        1    1    3    3  502    0  0.15102907149E+04  0.73955770320E+03 -0.20761653729E+03  0.16944108906E+04  0.50400001928E-02 0. -1.
       -1    1    3    3    0  502 -0.15102907149E+04 -0.73955770320E+03 -0.15054203440E+04  0.22570365642E+04  0.50400001928E-02 0.  1.
</event>
<event>
 5   0  0.6725199E-08  0.3794774E+04  0.7818609E-02  0.8047277E-01
        1   -1    0    0  501    0  0.00000000000E+00  0.00000000000E+00  0.14969393327E+04  0.14969393327E+04  0.50400001928E-02 0.  1.
       -1   -1    0    0    0  501  0.00000000000E+00  0.00000000000E+00 -0.24049588124E+04  0.24049588124E+04  0.50400001928E-02 0. -1.
    10030    2    1    2    0    0  0.00000000000E+00  0.00000000000E+00 -0.90801947966E+03  0.39018981451E+04  0.37947740064E+04 0.  0.
        5    1    3    3  502    0 -0.91672215472E+03 -0.13399952215E+04  0.55558829309E+03  0.17160032471E+04  0.46999998093E+01 0.  1.
       -5    1    3    3    0  502  0.91672215472E+03  0.13399952215E+04 -0.14636077727E+04  0.21858948980E+04  0.46999998093E+01 0. -1.
</event>
<event>
 5   0  0.2135314E-07  0.3772073E+04  0.7818609E-02  0.8052175E-01
        2   -1    0    0  501    0  0.00000000000E+00  0.00000000000E+00  0.22057815900E+04  0.22057815901E+04  0.25500000920E-02 0. -1.
       -2   -1    0    0    0  501  0.00000000000E+00  0.00000000000E+00 -0.16126411317E+04  0.16126411317E+04  0.25500000920E-02 0.  1.
    10030    2    1    2    0    0  0.00000000000E+00  0.00000000000E+00  0.59314045831E+03  0.38184227218E+04  0.37720732335E+04 0.  0.
        4    1    3    3  502    0 -0.11260227852E+04 -0.11644667667E+03 -0.12304900521E+04  0.16720031467E+04  0.12699999809E+01 0.  1.
       -4    1    3    3    0  502  0.11260227852E+04  0.11644667667E+03  0.18236305104E+04  0.21464195751E+04  0.12699999809E+01 0. -1.
</event>
<event>
 5   0  0.1370688E-07  0.3721389E+04  0.7818609E-02  0.8063238E-01
        2   -1    0    0  501    0  0.00000000000E+00  0.00000000000E+00  0.26885260811E+04  0.26885260811E+04  0.25500000920E-02 0. -1.
       -2   -1    0    0    0  501  0.00000000000E+00  0.00000000000E+00 -0.12877627873E+04  0.12877627873E+04  0.25500000920E-02 0.  1.
    10030    2    1    2    0    0  0.00000000000E+00  0.00000000000E+00  0.14007632938E+04  0.39762888684E+04  0.37213889020E+04 0.  0.
        5    1    3    3  502    0  0.54021394854E+03 -0.30709746919E+03  0.25743729568E+04  0.26483123261E+04  0.46999998093E+01 0. -1.
       -5    1    3    3    0  502 -0.54021394854E+03  0.30709746919E+03 -0.11736096630E+04  0.13279765423E+04  0.46999998093E+01 0.  1.
</event>
<event>
 5   0  0.2081337E-07  0.3763911E+04  0.7818609E-02  0.8053944E-01
       -2   -1    0    0    0  501  0.00000000000E+00  0.00000000000E+00  0.12752530526E+04  0.12752530526E+04  0.25500000920E-02 0.  1.
        2   -1    0    0  501    0  0.00000000000E+00  0.00000000000E+00 -0.27772976783E+04  0.27772976783E+04  0.25500000920E-02 0. -1.
    10030    2    1    2    0    0  0.00000000000E+00  0.00000000000E+00 -0.15020446258E+04  0.40525507309E+04  0.37639114454E+04 0.  0.
        1    1    3    3  502    0  0.10818341722E+04 -0.37200559230E+03 -0.23599399559E+04  0.26226074682E+04  0.50400001928E-02 0. -1.
       -1    1    3    3    0  502 -0.10818341722E+04  0.37200559230E+03  0.85789533016E+03  0.14299432627E+04  0.50400001928E-02 0.  1.
</event>
<event>
 5   0  0.2081337E-07  0.3803478E+04  0.7818609E-02  0.8045409E-01
       -2   -1    0    0    0  501  0.00000000000E+00  0.00000000000E+00  0.26547091059E+04  0.26547091059E+04  0.25500000920E-02 0.  1.
        2   -1    0    0  501    0  0.00000000000E+00  0.00000000000E+00 -0.13623381475E+04  0.13623381475E+04  0.25500000920E-02 0. -1.
    10030    2    1    2    0    0  0.00000000000E+00  0.00000000000E+00  0.12923709584E+04  0.40170472534E+04  0.38034781374E+04 0.  0.
        1    1    3    3  502    0 -0.76666734780E+03  0.12941658962E+04  0.18751238477E+04  0.24038996720E+04  0.50400001928E-02 0.  1.
       -1    1    3    3    0  502  0.76666734780E+03 -0.12941658962E+04 -0.58275288929E+03  0.16131475813E+04  0.50400001928E-02 0. -1.
</event>
<event>
 5   0  0.6725199E-08  0.3789663E+04  0.7818609E-02  0.8048377E-01
       -1   -1    0    0    0  501  0.00000000000E+00  0.00000000000E+00  0.12151761180E+04  0.12151761180E+04  0.50400001928E-02 0. -1.
        1   -1    0    0  501    0  0.00000000000E+00  0.00000000000E+00 -0.29546228681E+04  0.29546228681E+04  0.50400001928E-02 0.  1.
    10030    2    1    2    0    0  0.00000000000E+00  0.00000000000E+00 -0.17394467501E+04  0.41697989861E+04  0.37896633871E+04 0.  0.
        5    1    3    3  502    0  0.15433731530E+04 -0.58890793365E+03  0.15158098004E+03  0.16588586821E+04  0.46999998093E+01 0. -1.
       -5    1    3    3    0  502 -0.15433731530E+04  0.58890793365E+03 -0.18910277301E+04  0.25109403039E+04  0.46999998093E+01 0.  1.
</event>
<event>
 5   0  0.6725199E-08  0.3810883E+04  0.7818609E-02  0.8043823E-01
        1   -1    0    0  501    0  0.00000000000E+00  0.00000000000E+00  0.24527991808E+04  0.24527991808E+04  0.50400001928E-02 0. -1.
       -1   -1    0    0    0  501  0.00000000000E+00  0.00000000000E+00 -0.14802305301E+04  0.14802305301E+04  0.50400001928E-02 0.  1.
    10030    2    1    2    0    0  0.00000000000E+00  0.00000000000E+00  0.97256865067E+03  0.39330297108E+04  0.38108834837E+04 0.  0.
        5    1    3    3  502    0 -0.13356490627E+04 -0.11514090153E+04 -0.25864344935E+03  0.17823073986E+04  0.46999998093E+01 0.  1.
       -5    1    3    3    0  502  0.13356490627E+04  0.11514090153E+04  0.12312121000E+04  0.21507223123E+04  0.46999998093E+01 0. -1.
</event>
<event>
 5   0  0.2135314E-07  0.3810999E+04  0.7818609E-02  0.8043799E-01
        2   -1    0    0  501    0  0.00000000000E+00  0.00000000000E+00  0.17816226443E+04  0.17816226443E+04  0.25500000920E-02 0. -1.
       -2   -1    0    0    0  501  0.00000000000E+00  0.00000000000E+00 -0.20379893401E+04  0.20379893401E+04  0.25500000920E-02 0.  1.
    10030    2    1    2    0    0  0.00000000000E+00  0.00000000000E+00 -0.25636669573E+03  0.38196119844E+04  0.38109987968E+04 0.  0.
        4    1    3    3  502    0  0.12349123412E+04 -0.21915005979E+03  0.13095939789E+04  0.18133045088E+04  0.12699999809E+01 0. -1.
       -4    1    3    3    0  502 -0.12349123412E+04  0.21915005979E+03 -0.15659606747E+04  0.20063074756E+04  0.12699999809E+01 0.  1.
</event>
<event>
 5   0  0.6661000E-08  0.3840272E+04  0.7818609E-02  0.8037567E-01
        1   -1    0    0  501    0  0.00000000000E+00  0.00000000000E+00  0.21795616709E+04  0.21795616709E+04  0.50400001928E-02 0. -1.
       -1   -1    0    0    0  501  0.00000000000E+00  0.00000000000E+00 -0.16915889517E+04  0.16915889518E+04  0.50400001928E-02 0.  1.
    10030    2    1    2    0    0  0.00000000000E+00  0.00000000000E+00  0.48797271917E+03  0.38711506227E+04  0.38402720957E+04 0.  0.
        4    1    3    3  502    0  0.60106261853E+03 -0.69315501560E+03  0.19443155031E+04  0.21499080296E+04  0.12699999809E+01 0. -1.
       -4    1    3    3    0  502 -0.60106261853E+03  0.69315501560E+03 -0.14563427840E+04  0.17212425931E+04  0.12699999809E+01 0.  1.
</event>
<event>
 5   0  0.2135314E-07  0.3820498E+04  0.7818609E-02  0.8041770E-01
       -2   -1    0    0    0  501  0.00000000000E+00  0.00000000000E+00  0.14024345931E+04  0.14024345931E+04  0.25500000920E-02 0.  1.
        2   -1    0    0  501    0  0.00000000000E+00  0.00000000000E+00 -0.26019400540E+04  0.26019400540E+04  0.25500000920E-02 0. -1.
    10030    2    1    2    0    0  0.00000000000E+00  0.00000000000E+00 -0.11995054608E+04  0.40043746471E+04  0.38204977377E+04 0.  0.
        4    1    3    3  502    0 -0.24751614271E+03  0.42966044501E+03  0.13338044128E+04  0.14229926786E+04  0.12699999809E+01 0.  1.
       -4    1    3    3    0  502  0.24751614271E+03 -0.42966044501E+03 -0.25333098736E+04  0.25813819685E+04  0.12699999809E+01 0. -1.
</event>
<event>
 5   0  0.6661000E-08  0.3818674E+04  0.7818609E-02  0.8042159E-01
       -1   -1    0    0    0  501  0.00000000000E+00  0.00000000000E+00  0.14931538111E+04  0.14931538111E+04  0.50400001928E-02 0.  1.
        1   -1    0    0  501    0  0.00000000000E+00  0.00000000000E+00 -0.24415214653E+04  0.24415214653E+04  0.50400001928E-02 0. -1.
    10030    2    1    2    0    0  0.00000000000E+00  0.00000000000E+00 -0.94836765423E+03  0.39346752764E+04  0.38186736340E+04 0.  0.
        3    1    3    3  502    0  0.80007011521E+03 -0.21737077922E+03 -0.22463746137E+04  0.23944855732E+04  0.10100000352E+00 0. -1.
       -3    1    3    3    0  502 -0.80007011521E+03  0.21737077922E+03  0.12980069594E+04  0.15401897032E+04  0.10100000352E+00 0.  1.
</event>
<event>
 5   0  0.6661000E-08  0.3816765E+04  0.7818609E-02  0.8042567E-01
        1   -1    0    0  501    0  0.00000000000E+00  0.00000000000E+00  0.21711219166E+04  0.21711219166E+04  0.50400001928E-02 0.  1.
       -1   -1    0    0    0  501  0.00000000000E+00  0.00000000000E+00 -0.16774384986E+04  0.16774384986E+04  0.50400001928E-02 0. -1.
    10030    2    1    2    0    0  0.00000000000E+00  0.00000000000E+00  0.49368341803E+03  0.38485604152E+04  0.38167648542E+04 0.  0.
        4    1    3    3  502    0  0.11182824416E+04 -0.52272584867E+02 -0.13115538208E+04  0.17243732427E+04  0.12699999809E+01 0. -1.
       -4    1    3    3    0  502 -0.11182824416E+04  0.52272584867E+02  0.18052372388E+04  0.21241871725E+04  0.12699999809E+01 0.  1.
</event>
<event>
 5   0  0.6661000E-08  0.3466634E+04  0.7818609E-02  0.8121743E-01
       -1   -1    0    0    0  501  0.00000000000E+00  0.00000000000E+00  0.20578738483E+04  0.20578738483E+04  0.50400001928E-02 0. -1.
        1   -1    0    0  501    0  0.00000000000E+00  0.00000000000E+00 -0.14599474923E+04  0.14599474923E+04  0.50400001928E-02 0.  1.
    10030    2    1    2    0    0  0.00000000000E+00  0.00000000000E+00  0.59792635605E+03  0.35178213406E+04  0.34666339664E+04 0.  0.
        2    1    3    3  502    0 -0.10427277388E+04 -0.13840257342E+04  0.25863477341E+03  0.17520560254E+04  0.25500000920E-02 0. -1.
       -2    1    3    3    0  502  0.10427277388E+04  0.13840257342E+04  0.33929158263E+03  0.17657653152E+04  0.25500000920E-02 0.  1.
</event>
<event>
 5   0  0.2081337E-07  0.3368105E+04  0.7818609E-02  0.8145779E-01
        2   -1    0    0  501    0  0.00000000000E+00  0.00000000000E+00  0.31224015481E+04  0.31224015481E+04  0.25500000920E-02 0. -1.
       -2   -1    0    0    0  501  0.00000000000E+00  0.00000000000E+00 -0.90828562158E+03  0.90828562158E+03  0.25500000920E-02 0.  1.
    10030    2    1    2    0    0  0.00000000000E+00  0.00000000000E+00  0.22141159265E+04  0.40306871696E+04  0.33681047673E+04 0.  0.
        1    1    3    3  502    0 -0.90089444088E+03  0.11695077274E+04  0.13728921521E+03  0.14826353047E+04  0.50400001928E-02 0.  1.
       -1    1    3    3    0  502  0.90089444088E+03 -0.11695077274E+04  0.20768267113E+04  0.25480518650E+04  0.50400001928E-02 0. -1.
</event>
<event>
 5   0  0.6661000E-08  0.3791515E+04  0.7818609E-02  0.8047978E-01
        1   -1    0    0  501    0  0.00000000000E+00  0.00000000000E+00  0.24269404425E+04  0.24269404425E+04  0.50400001928E-02 0. -1.
       -1   -1    0    0    0  501  0.00000000000E+00  0.00000000000E+00 -0.14808345367E+04  0.14808345367E+04  0.50400001928E-02 0.  1.
    10030    2    1    2    0    0  0.00000000000E+00  0.00000000000E+00  0.94610590576E+03  0.39077749792E+04  0.37915153835E+04 0.  0.
        1    1    3    3  502    0  0.83298065554E+03  0.10658497682E+03 -0.12786741519E+04  0.15297793032E+04  0.50400001928E-02 0.  1.
       -1    1    3    3    0  502 -0.83298065554E+03 -0.10658497682E+03  0.22247800577E+04  0.23779956760E+04  0.50400001928E-02 0. -1.
</event>
<event>
 5   0  0.2081337E-07  0.3496493E+04  0.7818609E-02  0.8114622E-01
       -2   -1    0    0    0  501  0.00000000000E+00  0.00000000000E+00  0.17956095386E+04  0.17956095386E+04  0.25500000920E-02 0. -1.
        2   -1    0    0  501    0  0.00000000000E+00  0.00000000000E+00 -0.17021327353E+04  0.17021327353E+04  0.25500000920E-02 0.  1.
    10030    2    1    2    0    0  0.00000000000E+00  0.00000000000E+00  0.93476803268E+02  0.34977422739E+04  0.34964929718E+04 0.  0.
        1    1    3    3  502    0  0.54642921683E+03  0.15202753818E+04  0.71521638071E+03  0.17667361423E+04  0.50400001928E-02 0. -1.
       -1    1    3    3    0  502 -0.54642921683E+03 -0.15202753818E+04 -0.62173957744E+03  0.17310061316E+04  0.50400001928E-02 0.  1.
</event>
<event>
 5   0  0.2205204E-07  0.3774954E+04  0.7818609E-02  0.8051551E-01
       -2   -1    0    0    0  501  0.00000000000E+00  0.00000000000E+00  0.14088207271E+04  0.14088207271E+04  0.25500000920E-02 0. -1.
        2   -1    0    0  501    0  0.00000000000E+00  0.00000000000E+00 -0.25287597382E+04  0.25287597382E+04  0.25500000920E-02 0.  1.
    10030    2    1    2    0    0  0.00000000000E+00  0.00000000000E+00 -0.11199390111E+04  0.39375804653E+04  0.37749538451E+04 0.  0.
        2    1    3    3  502    0  0.11870252840E+04  0.29885206117E+03 -0.20586069556E+04  0.23950374062E+04  0.25500000920E-02 0.  1.
       -2    1    3    3    0  502 -0.11870252840E+04 -0.29885206117E+03  0.93866794453E+03  0.15425430592E+04  0.25500000920E-02 0. -1.
</event>
<event>
 5   0  0.2135314E-07  0.3737662E+04  0.7818609E-02  0.8059666E-01
       -2   -1    0    0    0  501  0.00000000000E+00  0.00000000000E+00  0.11225646229E+04  0.11225646229E+04  0.25500000920E-02 0. -1.
        2   -1    0    0  501    0  0.00000000000E+00  0.00000000000E+00 -0.31112053249E+04  0.31112053249E+04  0.25500000920E-02 0.  1.
    10030    2    1    2    0    0  0.00000000000E+00  0.00000000000E+00 -0.19886407020E+04  0.42337699478E+04  0.37376618532E+04 0.  0.
        4    1    3    3  502    0  0.13760245431E+04  0.12479023647E+04 -0.12259732653E+04  0.22256944793E+04  0.12699999809E+01 0. -1.
       -4    1    3    3    0  502 -0.13760245431E+04 -0.12479023647E+04 -0.76266743674E+03  0.20080754685E+04  0.12699999809E+01 0.  1.
</event>
<event>
 5   0  0.6661000E-08  0.3798120E+04  0.7818609E-02  0.8046559E-01
       -1   -1    0    0    0  501  0.00000000000E+00  0.00000000000E+00  0.14324503721E+04  0.14324503721E+04  0.50400001928E-02 0.  1.
        1   -1    0    0  501    0  0.00000000000E+00  0.00000000000E+00 -0.25176635873E+04  0.25176635873E+04  0.50400001928E-02 0. -1.
    10030    2    1    2    0    0  0.00000000000E+00  0.00000000000E+00 -0.10852132152E+04  0.39501139594E+04  0.37981196097E+04 0.  0.
        2    1    3    3  502    0  0.83767687911E+03  0.12585195084E+04 -0.17378832542E+04  0.23034348508E+04  0.25500000920E-02 0. -1.
       -2    1    3    3    0  502 -0.83767687911E+03 -0.12585195084E+04  0.65267003898E+03  0.16466791086E+04  0.25500000920E-02 0.  1.
</event>
<event>
 5   0  0.6661000E-08  0.3930795E+04  0.7818609E-02  0.8018655E-01
        1   -1    0    0  501    0  0.00000000000E+00  0.00000000000E+00  0.28940473184E+04  0.28940473184E+04  0.50400001928E-02 0. -1.
       -1   -1    0    0    0  501  0.00000000000E+00  0.00000000000E+00 -0.13347352911E+04  0.13347352912E+04  0.50400001928E-02 0.  1.
    10030    2    1    2    0    0  0.00000000000E+00  0.00000000000E+00  0.15593120273E+04  0.42287826096E+04  0.39307948764E+04 0.  0.
        1    1    3    3  502    0 -0.16809947560E+04 -0.50386436548E+03 -0.17239770415E+03  0.17633331044E+04  0.50400001928E-02 0.  1.
       -1    1    3    3    0  502  0.16809947560E+04  0.50386436548E+03  0.17317097314E+04  0.24654495052E+04  0.50400001928E-02 0. -1.
</event>
<event>
 5   0  0.2135314E-07  0.3789316E+04  0.7818609E-02  0.8048452E-01
       -2   -1    0    0    0  501  0.00000000000E+00  0.00000000000E+00  0.17279026460E+04  0.17279026460E+04  0.25500000920E-02 0. -1.
        2   -1    0    0  501    0  0.00000000000E+00  0.00000000000E+00 -0.20775060656E+04  0.20775060656E+04  0.25500000920E-02 0.  1.
    10030    2    1    2    0    0  0.00000000000E+00  0.00000000000E+00 -0.34960341958E+03  0.38054087117E+04  0.37893156258E+04 0.  0.
        4    1    3    3  502    0  0.17096736588E+04 -0.79340154748E+03  0.19037673799E+02  0.18848963051E+04  0.12699999809E+01 0. -1.
       -4    1    3    3    0  502 -0.17096736588E+04  0.79340154748E+03 -0.36864109338E+03  0.19205124065E+04  0.12699999809E+01 0.  1.
</event>
<event>
 5   0  0.1370688E-07  0.3817476E+04  0.7818609E-02  0.8042415E-01
       -2   -1    0    0    0  501  0.00000000000E+00  0.00000000000E+00  0.13451195651E+04  0.13451195651E+04  0.25500000920E-02 0. -1.
        2   -1    0    0  501    0  0.00000000000E+00  0.00000000000E+00 -0.27085188433E+04  0.27085188433E+04  0.25500000920E-02 0.  1.
    10030    2    1    2    0    0  0.00000000000E+00  0.00000000000E+00 -0.13633992781E+04  0.40536384084E+04  0.38174764904E+04 0.  0.
        5    1    3    3  502    0 -0.84485279649E+03 -0.74811340132E+03 -0.23163518663E+04  0.25766175439E+04  0.46999998093E+01 0.  1.
       -5    1    3    3    0  502  0.84485279649E+03  0.74811340132E+03  0.95295258817E+03  0.14770208645E+04  0.46999998093E+01 0. -1.
</event>
<event>
 5   0  0.1370688E-07  0.3789701E+04  0.7818609E-02  0.8048369E-01
        2   -1    0    0  501    0  0.00000000000E+00  0.00000000000E+00  0.26992115238E+04  0.26992115238E+04  0.25500000920E-02 0. -1.
       -2   -1    0    0    0  501  0.00000000000E+00  0.00000000000E+00 -0.13301879051E+04  0.13301879051E+04  0.25500000920E-02 0.  1.
    10030    2    1    2    0    0  0.00000000000E+00  0.00000000000E+00  0.13690236187E+04  0.40293994289E+04  0.37897010554E+04 0.  0.
        5    1    3    3  502    0 -0.92231992970E+03 -0.83480713980E+03  0.22042004196E+04  0.25310271814E+04  0.46999998093E+01 0. -1.
       -5    1    3    3    0  502  0.92231992970E+03  0.83480713980E+03 -0.83517680089E+03  0.14983722475E+04  0.46999998093E+01 0.  1.
</event>
<event>
 5   0  0.6661000E-08  0.3814884E+04  0.7818609E-02  0.8042968E-01
       -3   -1    0    0    0  501  0.00000000000E+00  0.00000000000E+00  0.18634497114E+04  0.18634497141E+04  0.10100000352E+00 0.  1.
        3   -1    0    0  501    0  0.00000000000E+00  0.00000000000E+00 -0.19524731751E+04  0.19524731777E+04  0.10100000352E+00 0. -1.
    10030    2    1    2    0    0  0.00000000000E+00  0.00000000000E+00 -0.89023463690E+02  0.38159228918E+04  0.38148843153E+04 0.  0.
        4    1    3    3  502    0 -0.19771886070E+03  0.18664012173E+04 -0.38488031662E+03  0.19159020650E+04  0.12699999809E+01 0.  1.
       -4    1    3    3    0  502  0.19771886070E+03 -0.18664012173E+04  0.29585685293E+03  0.19000208268E+04  0.12699999809E+01 0. -1.
</event>
<event>
 5   0  0.6661000E-08  0.3951255E+04  0.7818609E-02  0.8014453E-01
        1   -1    0    0  501    0  0.00000000000E+00  0.00000000000E+00  0.23611288368E+04  0.23611288368E+04  0.50400001928E-02 0.  1.
       -1   -1    0    0    0  501  0.00000000000E+00  0.00000000000E+00 -0.16530670657E+04  0.16530670657E+04  0.50400001928E-02 0. -1.
    10030    2    1    2    0    0  0.00000000000E+00  0.00000000000E+00  0.70806177105E+03  0.40141959025E+04  0.39512551514E+04 0.  0.
        3    1    3    3  502    0  0.19304169407E+04  0.94868145307E+02  0.76993549052E+03  0.20804591320E+04  0.10100000352E+00 0.  1.
       -3    1    3    3    0  502 -0.19304169407E+04 -0.94868145307E+02 -0.61873719466E+02  0.19337367705E+04  0.10100000352E+00 0. -1.
</event>
<event>
 5   0  0.2205204E-07  0.3795395E+04  0.7818609E-02  0.8047144E-01
       -2   -1    0    0    0  501  0.00000000000E+00  0.00000000000E+00  0.12932542588E+04  0.12932542588E+04  0.25500000920E-02 0. -1.
        2   -1    0    0  501    0  0.00000000000E+00  0.00000000000E+00 -0.27846471190E+04  0.27846471190E+04  0.25500000920E-02 0.  1.
    10030    2    1    2    0    0  0.00000000000E+00  0.00000000000E+00 -0.14913928602E+04  0.40779013778E+04  0.37953954976E+04 0.  0.
        2    1    3    3  502    0  0.50367837216E+02 -0.15628722903E+04  0.40958230062E+03  0.16164357011E+04  0.25500000920E-02 0. -1.
       -2    1    3    3    0  502 -0.50367837216E+02  0.15628722903E+04 -0.19009751609E+04  0.24614656766E+04  0.25500000920E-02 0.  1.
</event>
<event>
 5   0  0.2135314E-07  0.3832802E+04  0.7818609E-02  0.8039152E-01
        2   -1    0    0  501    0  0.00000000000E+00  0.00000000000E+00  0.20268188736E+04  0.20268188736E+04  0.25500000920E-02 0.  1.
       -2   -1    0    0    0  501  0.00000000000E+00  0.00000000000E+00 -0.18119988899E+04  0.18119988899E+04  0.25500000920E-02 0. -1.
    10030    2    1    2    0    0  0.00000000000E+00  0.00000000000E+00  0.21481998363E+03  0.38388177635E+04  0.38328023946E+04 0.  0.
        4    1    3    3  502    0 -0.12424682555E+03 -0.76943072959E+03  0.18609092556E+04  0.20175345825E+04  0.12699999809E+01 0.  1.
       -4    1    3    3    0  502  0.12424682555E+03  0.76943072959E+03 -0.16460892719E+04  0.18212831810E+04  0.12699999809E+01 0. -1.
</event>
<event>
 5   0  0.6661000E-08  0.3735200E+04  0.7818609E-02  0.8060206E-01
       -1   -1    0    0    0  501  0.00000000000E+00  0.00000000000E+00  0.17219532530E+04  0.17219532530E+04  0.50400001928E-02 0. -1.
        1   -1    0    0  501    0  0.00000000000E+00  0.00000000000E+00 -0.20255653478E+04  0.20255653478E+04  0.50400001928E-02 0.  1.
    10030    2    1    2    0    0  0.00000000000E+00  0.00000000000E+00 -0.30361209477E+03  0.37475186009E+04  0.37351995073E+04 0.  0.
        1    1    3    3  502    0  0.90891415331E+03 -0.16081297360E+04  0.12427901346E+03  0.18513917627E+04  0.50400001928E-02 0. -1.
       -1    1    3    3    0  502 -0.90891415331E+03  0.16081297360E+04 -0.42789110823E+03  0.18961268381E+04  0.50400001928E-02 0.  1.
</event>
<event>
 5   0  0.6661000E-08  0.3792790E+04  0.7818609E-02  0.8047704E-01
        1   -1    0    0  501    0  0.00000000000E+00  0.00000000000E+00  0.22425069785E+04  0.22425069785E+04  0.50400001928E-02 0. -1.
       -1   -1    0    0    0  501  0.00000000000E+00  0.00000000000E+00 -0.16037028491E+04  0.16037028491E+04  0.50400001928E-02 0.  1.
    10030    2    1    2    0    0  0.00000000000E+00  0.00000000000E+00  0.63880412933E+03  0.38462098276E+04  0.37927904401E+04 0.  0.
        1    1    3    3  502    0 -0.11251069021E+03  0.16396361952E+04 -0.64010046947E+03  0.17637443463E+04  0.50400001928E-02 0.  1.
       -1    1    3    3    0  502  0.11251069021E+03 -0.16396361952E+04  0.12789045988E+04  0.20824654813E+04  0.50400001928E-02 0. -1.
</event>
<event>
 5   0  0.2203998E-07  0.3793253E+04  0.7818609E-02  0.8047604E-01
       -2   -1    0    0    0  501  0.00000000000E+00  0.00000000000E+00  0.20244620297E+04  0.20244620297E+04  0.25500000920E-02 0. -1.
        2   -1    0    0  501    0  0.00000000000E+00  0.00000000000E+00 -0.17768634142E+04  0.17768634142E+04  0.25500000920E-02 0.  1.
    10030    2    1    2    0    0  0.00000000000E+00  0.00000000000E+00  0.24759861548E+03  0.38013254440E+04  0.37932532286E+04 0.  0.
        3    1    3    3  502    0  0.81292557361E+03  0.43655572144E+03  0.17843601382E+04  0.20088230383E+04  0.10100000352E+00 0. -1.
       -3    1    3    3    0  502 -0.81292557361E+03 -0.43655572144E+03 -0.15367615228E+04  0.17925024056E+04  0.10100000352E+00 0.  1.
</event>
<event>
 5   0  0.6661000E-08  0.3816782E+04  0.7818609E-02  0.8042563E-01
        1   -1    0    0  501    0  0.00000000000E+00  0.00000000000E+00  0.20074144998E+04  0.20074144998E+04  0.50400001928E-02 0.  1.
       -1   -1    0    0    0  501  0.00000000000E+00  0.00000000000E+00 -0.18142524285E+04  0.18142524285E+04  0.50400001928E-02 0. -1.
    10030    2    1    2    0    0  0.00000000000E+00  0.00000000000E+00  0.19316207127E+03  0.38216669283E+04  0.38167822213E+04 0.  0.
        4    1    3    3  502    0  0.11954308009E+03  0.13890170467E+04 -0.12082736862E+04  0.18448809765E+04  0.12699999809E+01 0. -1.
       -4    1    3    3    0  502 -0.11954308009E+03 -0.13890170467E+04  0.14014357574E+04  0.19767859518E+04  0.12699999809E+01 0.  1.
</event>
<event>
 5   0  0.6661000E-08  0.3805503E+04  0.7818609E-02  0.8044975E-01
       -1   -1    0    0    0  501  0.00000000000E+00  0.00000000000E+00  0.17523785731E+04  0.17523785731E+04  0.50400001928E-02 0. -1.
        1   -1    0    0  501    0  0.00000000000E+00  0.00000000000E+00 -0.20660280985E+04  0.20660280985E+04  0.50400001928E-02 0.  1.
    10030    2    1    2    0    0  0.00000000000E+00  0.00000000000E+00 -0.31364952537E+03  0.38184066716E+04  0.38055030528E+04 0.  0.
        1    1    3    3  502    0  0.18617178815E+04  0.54980095516E+02  0.23365683561E+03  0.18771286045E+04  0.50400001928E-02 0.  1.
       -1    1    3    3    0  502 -0.18617178815E+04 -0.54980095516E+02 -0.54730636098E+03  0.19412780671E+04  0.50400001928E-02 0. -1.
</event>
<event>
 5   0  0.6661000E-08  0.3823014E+04  0.7818609E-02  0.8041234E-01
       -3   -1    0    0    0  501  0.00000000000E+00  0.00000000000E+00  0.25085006634E+04  0.25085006654E+04  0.10100000352E+00 0. -1.
        3   -1    0    0  501    0  0.00000000000E+00  0.00000000000E+00 -0.14565904349E+04  0.14565904385E+04  0.10100000352E+00 0.  1.
    10030    2    1    2    0    0  0.00000000000E+00  0.00000000000E+00  0.10519102285E+04  0.39650911039E+04  0.38230135147E+04 0.  0.
        3    1    3    3  502    0  0.26740917500E+03 -0.12811190520E+04 -0.91905053366E+03  0.15991959185E+04  0.10100000352E+00 0.  1.
       -3    1    3    3    0  502 -0.26740917500E+03  0.12811190520E+04  0.19709607621E+04  0.23658951854E+04  0.10100000352E+00 0. -1.
</event>
<event>
 5   0  0.6661000E-08  0.3819578E+04  0.7818609E-02  0.8041967E-01
        1   -1    0    0  501    0  0.00000000000E+00  0.00000000000E+00  0.20004113478E+04  0.20004113478E+04  0.50400001928E-02 0. -1.
       -1   -1    0    0    0  501  0.00000000000E+00  0.00000000000E+00 -0.18232719076E+04  0.18232719076E+04  0.50400001928E-02 0.  1.
    10030    2    1    2    0    0  0.00000000000E+00  0.00000000000E+00  0.17713944021E+03  0.38236832554E+04  0.38195778898E+04 0.  0.
        1    1    3    3  502    0 -0.20639216949E+03 -0.18032359686E+04  0.68337677935E+03  0.19393972024E+04  0.50400001928E-02 0. -1.
       -1    1    3    3    0  502  0.20639216949E+03  0.18032359686E+04 -0.50623733913E+03  0.18842860530E+04  0.50400001928E-02 0.  1.
</event>
<event>
 5   0  0.6661000E-08  0.4028609E+04  0.7818609E-02  0.7998800E-01
        1   -1    0    0  501    0  0.00000000000E+00  0.00000000000E+00  0.17231747229E+04  0.17231747229E+04  0.50400001928E-02 0.  1.
       -1   -1    0    0    0  501  0.00000000000E+00  0.00000000000E+00 -0.23546202325E+04  0.23546202325E+04  0.50400001928E-02 0. -1.
    10030    2    1    2    0    0  0.00000000000E+00  0.00000000000E+00 -0.63144550955E+03  0.40777949554E+04  0.40286087259E+04 0.  0.
        3    1    3    3  502    0  0.41925131409E+03  0.18341698308E+04 -0.10438603935E+04  0.21516494055E+04  0.10100000352E+00 0.  1.
       -3    1    3    3    0  502 -0.41925131409E+03 -0.18341698308E+04  0.41241488394E+03  0.19261455499E+04  0.10100000352E+00 0. -1.
</event>
<event>
 5   0  0.1370688E-07  0.3827274E+04  0.7818609E-02  0.8040327E-01
       -2   -1    0    0    0  501  0.00000000000E+00  0.00000000000E+00  0.29587486477E+04  0.29587486477E+04  0.25500000920E-02 0. -1.
        2   -1    0    0  501    0  0.00000000000E+00  0.00000000000E+00 -0.12376875272E+04  0.12376875272E+04  0.25500000920E-02 0.  1.
    10030    2    1    2    0    0  0.00000000000E+00  0.00000000000E+00  0.17210611205E+04  0.41964361750E+04  0.38272738588E+04 0.  0.
        5    1    3    3  502    0 -0.65134149179E+03 -0.42294406906E+03  0.27781863451E+04  0.28846956309E+04  0.46999998093E+01 0. -1.
       -5    1    3    3    0  502  0.65134149179E+03  0.42294406906E+03 -0.10571252246E+04  0.13117405441E+04  0.46999998093E+01 0.  1.
</event>
<event>
 5   0  0.6661000E-08  0.3819723E+04  0.7818609E-02  0.8041936E-01
        1   -1    0    0  501    0  0.00000000000E+00  0.00000000000E+00  0.12027024880E+04  0.12027024880E+04  0.50400001928E-02 0. -1.
       -1   -1    0    0    0  501  0.00000000000E+00  0.00000000000E+00 -0.30328119662E+04  0.30328119662E+04  0.50400001928E-02 0.  1.
    10030    2    1    2    0    0  0.00000000000E+00  0.00000000000E+00 -0.18301094782E+04  0.42355144543E+04  0.38197227635E+04 0.  0.
        4    1    3    3  502    0 -0.70807659320E+03  0.16761943659E+04 -0.27175807693E+03  0.18397972930E+04  0.12699999809E+01 0. -1.
       -4    1    3    3    0  502  0.70807659320E+03 -0.16761943659E+04 -0.15583514013E+04  0.23957171613E+04  0.12699999809E+01 0.  1.
</event>
<event>
 5   0  0.6661000E-08  0.3813796E+04  0.7818609E-02  0.8043201E-01
       -1   -1    0    0    0  501  0.00000000000E+00  0.00000000000E+00  0.17421058098E+04  0.17421058098E+04  0.50400001928E-02 0. -1.
        1   -1    0    0  501    0  0.00000000000E+00  0.00000000000E+00 -0.20872782960E+04  0.20872782960E+04  0.50400001928E-02 0.  1.
    10030    2    1    2    0    0  0.00000000000E+00  0.00000000000E+00 -0.34517248614E+03  0.38293841058E+04  0.38137958237E+04 0.  0.
        1    1    3    3  502    0  0.85267298901E+03 -0.79014278782E+03  0.13451749881E+04  0.17778843045E+04  0.50400001928E-02 0. -1.
       -1    1    3    3    0  502 -0.85267298901E+03  0.79014278782E+03 -0.16903474743E+04  0.20514998014E+04  0.50400001928E-02 0.  1.
</event>
<event>
 5   0  0.6661000E-08  0.3817506E+04  0.7818609E-02  0.8042408E-01
        1   -1    0    0  501    0  0.00000000000E+00  0.00000000000E+00  0.26224540625E+04  0.26224540625E+04  0.50400001928E-02 0. -1.
       -1   -1    0    0    0  501  0.00000000000E+00  0.00000000000E+00 -0.13892860658E+04  0.13892860658E+04  0.50400001928E-02 0.  1.
    10030    2    1    2    0    0  0.00000000000E+00  0.00000000000E+00  0.12331679968E+04  0.40117401283E+04  0.38175064570E+04 0.  0.
        1    1    3    3  502    0  0.17620412646E+04  0.24860976650E+03  0.13421802272E+04  0.22289109440E+04  0.50400001928E-02 0. -1.
       -1    1    3    3    0  502 -0.17620412646E+04 -0.24860976650E+03 -0.10901223047E+03  0.17828291843E+04  0.50400001928E-02 0.  1.
</event>
<event>
 5   0  0.1370688E-07  0.3798466E+04  0.7818609E-02  0.8046484E-01
       -2   -1    0    0    0  501  0.00000000000E+00  0.00000000000E+00  0.22607939455E+04  0.22607939455E+04  0.25500000920E-02 0.  1.
        2   -1    0    0  501    0  0.00000000000E+00  0.00000000000E+00 -0.15954954142E+04  0.15954954142E+04  0.25500000920E-02 0. -1.
    10030    2    1    2    0    0  0.00000000000E+00  0.00000000000E+00  0.66529853127E+03  0.38562893598E+04  0.37984662024E+04 0.  0.
        5    1    3    3  502    0  0.68433246266E+03  0.17613667385E+04  0.13911527576E+03  0.18947556193E+04  0.46999998093E+01 0. -1.
       -5    1    3    3    0  502 -0.68433246266E+03 -0.17613667385E+04  0.52618325551E+03  0.19615337405E+04  0.46999998093E+01 0.  1.
</event>
<event>
 5   0  0.2135314E-07  0.3790136E+04  0.7818609E-02  0.8048275E-01
        2   -1    0    0  501    0  0.00000000000E+00  0.00000000000E+00  0.19083784009E+04  0.19083784009E+04  0.25500000920E-02 0.  1.
       -2   -1    0    0    0  501  0.00000000000E+00  0.00000000000E+00 -0.18818500592E+04  0.18818500592E+04  0.25500000920E-02 0. -1.
    10030    2    1    2    0    0  0.00000000000E+00  0.00000000000E+00  0.26528341644E+02  0.37902284601E+04  0.37901356212E+04 0.  0.
        4    1    3    3  502    0  0.16653284763E+04 -0.90012133234E+03  0.10126091095E+03  0.18957301316E+04  0.12699999809E+01 0.  1.
       -4    1    3    3    0  502 -0.16653284763E+04  0.90012133234E+03 -0.74732569310E+02  0.18944983285E+04  0.12699999809E+01 0. -1.
</event>
<event>
 5   0  0.6725199E-08  0.3783132E+04  0.7818609E-02  0.8049784E-01
       -1   -1    0    0    0  501  0.00000000000E+00  0.00000000000E+00  0.17748455062E+04  0.17748455062E+04  0.50400001928E-02 0.  1.
        1   -1    0    0  501    0  0.00000000000E+00  0.00000000000E+00 -0.20159628802E+04  0.20159628803E+04  0.50400001928E-02 0. -1.
    10030    2    1    2    0    0  0.00000000000E+00  0.00000000000E+00 -0.24111737405E+03  0.37908083865E+04  0.37831323840E+04 0.  0.
        5    1    3    3  502    0  0.69917684430E+03 -0.10203307509E+04  0.13134556179E+04  0.18041925760E+04  0.46999998093E+01 0.  1.
       -5    1    3    3    0  502 -0.69917684430E+03  0.10203307509E+04 -0.15545729920E+04  0.19866158105E+04  0.46999998093E+01 0. -1.
</event>
<event>
 5   0  0.2135314E-07  0.3733085E+04  0.7818609E-02  0.8060669E-01
       -2   -1    0    0    0  501  0.00000000000E+00  0.00000000000E+00  0.27939241413E+04  0.27939241413E+04  0.25500000920E-02 0. -1.
        2   -1    0    0  501    0  0.00000000000E+00  0.00000000000E+00 -0.12469846801E+04  0.12469846801E+04  0.25500000920E-02 0.  1.
    10030    2    1    2    0    0  0.00000000000E+00  0.00000000000E+00  0.15469394612E+04  0.40409088214E+04  0.37330848379E+04 0.  0.
        4    1    3    3  502    0  0.74224500038E+03  0.16730509448E+03  0.26184374466E+04  0.27267443793E+04  0.12699999809E+01 0. -1.
       -4    1    3    3    0  502 -0.74224500038E+03 -0.16730509448E+03 -0.10714979854E+04  0.13141644421E+04  0.12699999809E+01 0.  1.
</event>
<event>
 5   0  0.6661000E-08  0.3778695E+04  0.7818609E-02  0.8050742E-01
        1   -1    0    0  501    0  0.00000000000E+00  0.00000000000E+00  0.20172587355E+04  0.20172587355E+04  0.50400001928E-02 0. -1.
       -1   -1    0    0    0  501  0.00000000000E+00  0.00000000000E+00 -0.17695472788E+04  0.17695472788E+04  0.50400001928E-02 0.  1.
    10030    2    1    2    0    0  0.00000000000E+00  0.00000000000E+00  0.24771145666E+03  0.37868060143E+04  0.37786953865E+04 0.  0.
        3    1    3    3  502    0  0.10647228273E+04 -0.14140338754E+04  0.78596150359E+03  0.19367142265E+04  0.10100000352E+00 0. -1.
       -3    1    3    3    0  502 -0.10647228273E+04  0.14140338754E+04 -0.53825004693E+03  0.18500917878E+04  0.10100000352E+00 0.  1.
</event>
<event>
 5   0  0.2205204E-07  0.3755466E+04  0.7818609E-02  0.8055780E-01
       -2   -1    0    0    0  501  0.00000000000E+00  0.00000000000E+00  0.12286558974E+04  0.12286558974E+04  0.25500000920E-02 0.  1.
        2   -1    0    0  501    0  0.00000000000E+00  0.00000000000E+00 -0.28697062064E+04  0.28697062064E+04  0.25500000920E-02 0. -1.
    10030    2    1    2    0    0  0.00000000000E+00  0.00000000000E+00 -0.16410503091E+04  0.40983621038E+04  0.37554661251E+04 0.  0.
        2    1    3    3  502    0 -0.15377313602E+04  0.10431800436E+04 -0.11154587385E+04  0.21672772174E+04  0.25500000920E-02 0. -1.
       -2    1    3    3    0  502  0.15377313602E+04 -0.10431800436E+04 -0.52559157057E+03  0.19310848864E+04  0.25500000920E-02 0.  1.
</event>
<event>
 5   0  0.2081337E-07  0.3794222E+04  0.7818609E-02  0.8047396E-01
        2   -1    0    0  501    0  0.00000000000E+00  0.00000000000E+00  0.12893031425E+04  0.12893031425E+04  0.25500000920E-02 0.  1.
       -2   -1    0    0    0  501  0.00000000000E+00  0.00000000000E+00 -0.27914536223E+04  0.27914536223E+04  0.25500000920E-02 0. -1.
    10030    2    1    2    0    0  0.00000000000E+00  0.00000000000E+00 -0.15021504798E+04  0.40807567648E+04  0.37942218845E+04 0.  0.
        1    1    3    3  502    0 -0.44113086794E+03  0.22197842835E+03  0.12189624802E+04  0.13151959525E+04  0.50400001928E-02 0.  1.
       -1    1    3    3    0  502  0.44113086794E+03 -0.22197842835E+03 -0.27211129600E+04  0.27655608123E+04  0.50400001928E-02 0. -1.
</event>
<event>
 5   0  0.6661000E-08  0.3812499E+04  0.7818609E-02  0.8043478E-01
        1   -1    0    0  501    0  0.00000000000E+00  0.00000000000E+00  0.15738764522E+04  0.15738764522E+04  0.50400001928E-02 0. -1.
       -1   -1    0    0    0  501  0.00000000000E+00  0.00000000000E+00 -0.23088131273E+04  0.23088131273E+04  0.50400001928E-02 0.  1.
    10030    2    1    2    0    0  0.00000000000E+00  0.00000000000E+00 -0.73493667511E+03  0.38826895795E+04  0.38124987153E+04 0.  0.
        2    1    3    3  502    0 -0.17190648539E+04 -0.73872971986E+03  0.37714177169E+01  0.18710745027E+04  0.25500000920E-02 0. -1.
       -2    1    3    3    0  502  0.17190648539E+04  0.73872971986E+03 -0.73870809282E+03  0.20116150768E+04  0.25500000920E-02 0.  1.
</event>
<event>
 5   0  0.2081337E-07  0.3794562E+04  0.7818609E-02  0.8047323E-01
       -2   -1    0    0    0  501  0.00000000000E+00  0.00000000000E+00  0.14701568077E+04  0.14701568077E+04  0.25500000920E-02 0. -1.
        2   -1    0    0  501    0  0.00000000000E+00  0.00000000000E+00 -0.24484971331E+04  0.24484971331E+04  0.25500000920E-02 0.  1.
    10030    2    1    2    0    0  0.00000000000E+00  0.00000000000E+00 -0.97834032542E+03  0.39186539408E+04  0.37945617554E+04 0.  0.
        1    1    3    3  502    0 -0.99731524522E+03 -0.14482029552E+04 -0.12250352756E+04  0.21430447788E+04  0.50400001928E-02 0. -1.
       -1    1    3    3    0  502  0.99731524522E+03  0.14482029552E+04  0.24669495014E+03  0.17756091620E+04  0.50400001928E-02 0.  1.
</event>
<event>
 5   0  0.1370688E-07  0.3796492E+04  0.7818609E-02  0.8046908E-01
       -2   -1    0    0    0  501  0.00000000000E+00  0.00000000000E+00  0.16805999035E+04  0.16805999035E+04  0.25500000920E-02 0.  1.
        2   -1    0    0  501    0  0.00000000000E+00  0.00000000000E+00 -0.21440783998E+04  0.21440783998E+04  0.25500000920E-02 0. -1.
    10030    2    1    2    0    0  0.00000000000E+00  0.00000000000E+00 -0.46347849630E+03  0.38246783034E+04  0.37964920397E+04 0.  0.
        5    1    3    3  502    0  0.55679878065E+03  0.17878257152E+04 -0.54545154735E+03  0.19503551345E+04  0.46999998093E+01 0. -1.
       -5    1    3    3    0  502 -0.55679878065E+03 -0.17878257152E+04  0.81973051049E+02  0.18743231688E+04  0.46999998093E+01 0.  1.
</event>
<event>
 5   0  0.2135314E-07  0.3791170E+04  0.7818609E-02  0.8048053E-01
        2   -1    0    0  501    0  0.00000000000E+00  0.00000000000E+00  0.30868388477E+04  0.30868388477E+04  0.25500000920E-02 0. -1.
       -2   -1    0    0    0  501  0.00000000000E+00  0.00000000000E+00 -0.11640522801E+04  0.11640522801E+04  0.25500000920E-02 0.  1.
    10030    2    1    2    0    0  0.00000000000E+00  0.00000000000E+00  0.19227865675E+04  0.42508911278E+04  0.37911696343E+04 0.  0.
        4    1    3    3  502    0 -0.17155379213E+04 -0.74384417175E+03  0.13103661971E+04  0.22832949207E+04  0.12699999809E+01 0. -1.
       -4    1    3    3    0  502  0.17155379213E+04  0.74384417175E+03  0.61242037039E+03  0.19675962071E+04  0.12699999809E+01 0.  1.
</event>
<event>
 5   0  0.2203998E-07  0.3786248E+04  0.7818609E-02  0.8049112E-01
        2   -1    0    0  501    0  0.00000000000E+00  0.00000000000E+00  0.29622339765E+04  0.29622339765E+04  0.25500000920E-02 0. -1.
       -2   -1    0    0    0  501  0.00000000000E+00  0.00000000000E+00 -0.12098704415E+04  0.12098704415E+04  0.25500000920E-02 0.  1.
    10030    2    1    2    0    0  0.00000000000E+00  0.00000000000E+00  0.17523635350E+04  0.41721044180E+04  0.37862484488E+04 0.  0.
        3    1    3    3  502    0  0.40049761837E+03 -0.17541803633E+04  0.15246931355E+04  0.23584393689E+04  0.10100000352E+00 0. -1.
       -3    1    3    3    0  502 -0.40049761837E+03  0.17541803633E+04  0.22767039954E+03  0.18136650491E+04  0.10100000352E+00 0.  1.
</event>
<event>
 5   0  0.6661000E-08  0.3772306E+04  0.7818609E-02  0.8052124E-01
       -1   -1    0    0    0  501  0.00000000000E+00  0.00000000000E+00  0.16705835179E+04  0.16705835179E+04  0.50400001928E-02 0. -1.
        1   -1    0    0  501    0  0.00000000000E+00  0.00000000000E+00 -0.21295394789E+04  0.21295394789E+04  0.50400001928E-02 0.  1.
    10030    2    1    2    0    0  0.00000000000E+00  0.00000000000E+00 -0.45895596106E+03  0.38001229968E+04  0.37723062199E+04 0.  0.
        2    1    3    3  502    0 -0.14969009211E+04  0.11338943112E+04 -0.40725844162E+03  0.19215327514E+04  0.25500000920E-02 0.  1.
       -2    1    3    3    0  502  0.14969009211E+04 -0.11338943112E+04 -0.51697519434E+02  0.18785902454E+04  0.25500000920E-02 0. -1.
</event>
<event>
 5   0  0.6661000E-08  0.3809996E+04  0.7818609E-02  0.8044013E-01
        1   -1    0    0  501    0  0.00000000000E+00  0.00000000000E+00  0.25789670960E+04  0.25789670960E+04  0.50400001928E-02 0. -1.
       -1   -1    0    0    0  501  0.00000000000E+00  0.00000000000E+00 -0.14071592349E+04  0.14071592349E+04  0.50400001928E-02 0.  1.
    10030    2    1    2    0    0  0.00000000000E+00  0.00000000000E+00  0.11718078611E+04  0.39861263309E+04  0.38099959925E+04 0.  0.
        4    1    3    3  502    0 -0.81733058720E+03  0.40661641837E+03 -0.11634106036E+04  0.14788144055E+04  0.12699999809E+01 0.  1.
       -4    1    3    3    0  502  0.81733058720E+03 -0.40661641837E+03  0.23352184647E+04  0.25073119254E+04  0.12699999809E+01 0. -1.
</event>
<event>
 5   0  0.6661000E-08  0.3829447E+04  0.7818609E-02  0.8039865E-01
       -1   -1    0    0    0  501  0.00000000000E+00  0.00000000000E+00  0.15655562534E+04  0.15655562534E+04  0.50400001928E-02 0. -1.
        1   -1    0    0  501    0  0.00000000000E+00  0.00000000000E+00 -0.23417663149E+04  0.23417663149E+04  0.50400001928E-02 0.  1.
    10030    2    1    2    0    0  0.00000000000E+00  0.00000000000E+00 -0.77621006148E+03  0.39073225683E+04  0.38294474266E+04 0.  0.
        3    1    3    3  502    0  0.42165089640E+02 -0.18639757047E+04  0.56629828096E+02  0.18653123787E+04  0.10100000352E+00 0. -1.
       -3    1    3    3    0  502 -0.42165089640E+02  0.18639757047E+04 -0.83283988957E+03  0.20420101896E+04  0.10100000352E+00 0.  1.
</event>
<event>
 5   0  0.6661000E-08  0.3796985E+04  0.7818609E-02  0.8046802E-01
        1   -1    0    0  501    0  0.00000000000E+00  0.00000000000E+00  0.21475259977E+04  0.21475259977E+04  0.50400001928E-02 0. -1.
       -1   -1    0    0    0  501  0.00000000000E+00  0.00000000000E+00 -0.16783378738E+04  0.16783378738E+04  0.50400001928E-02 0.  1.
    10030    2    1    2    0    0  0.00000000000E+00  0.00000000000E+00  0.46918812391E+03  0.38258638715E+04  0.37969852340E+04 0.  0.
        3    1    3    3  502    0 -0.52906260229E+03 -0.14346464484E+04 -0.89920033372E+03  0.17738880797E+04  0.10100000352E+00 0.  1.
       -3    1    3    3    0  502  0.52906260229E+03  0.14346464484E+04  0.13683884576E+04  0.20519757918E+04  0.10100000352E+00 0. -1.
</event>
<event>
 5   0  0.2203998E-07  0.3790077E+04  0.7818609E-02  0.8048288E-01
       -2   -1    0    0    0  501  0.00000000000E+00  0.00000000000E+00  0.16421514549E+04  0.16421514549E+04  0.25500000920E-02 0. -1.
        2   -1    0    0  501    0  0.00000000000E+00  0.00000000000E+00 -0.21868698021E+04  0.21868698021E+04  0.25500000920E-02 0.  1.
    10030    2    1    2    0    0  0.00000000000E+00  0.00000000000E+00 -0.54471834718E+03  0.38290212571E+04  0.37900772696E+04 0.  0.
        3    1    3    3  502    0 -0.25248065622E+01 -0.10866195515E+04  0.12961474026E+04  0.16913741526E+04  0.10100000352E+00 0. -1.
       -3    1    3    3    0  502  0.25248065622E+01  0.10866195515E+04 -0.18408657498E+04  0.21376471045E+04  0.10100000352E+00 0.  1.
</event>
<event>
 5   0  0.1370688E-07  0.3750898E+04  0.7818609E-02  0.8056775E-01
       -2   -1    0    0    0  501  0.00000000000E+00  0.00000000000E+00  0.16771252179E+04  0.16771252179E+04  0.25500000920E-02 0.  1.
        2   -1    0    0  501    0  0.00000000000E+00  0.00000000000E+00 -0.20972252024E+04  0.20972252024E+04  0.25500000920E-02 0. -1.
    10030    2    1    2    0    0  0.00000000000E+00  0.00000000000E+00 -0.42009998448E+03  0.37743504204E+04  0.37508981723E+04 0.  0.
        5    1    3    3  502    0  0.14363206815E+04  0.51261399333E+03 -0.13084320174E+04  0.20094294315E+04  0.46999998093E+01 0. -1.
       -5    1    3    3    0  502 -0.14363206815E+04 -0.51261399333E+03  0.88833203291E+03  0.17649209888E+04  0.46999998093E+01 0.  1.
</event>
<event>
 5   0  0.2205204E-07  0.3803019E+04  0.7818609E-02  0.8045507E-01
        2   -1    0    0  501    0  0.00000000000E+00  0.00000000000E+00  0.18634333834E+04  0.18634333834E+04  0.25500000920E-02 0.  1.
       -2   -1    0    0    0  501  0.00000000000E+00  0.00000000000E+00 -0.19403632516E+04  0.19403632516E+04  0.25500000920E-02 0. -1.
    10030    2    1    2    0    0  0.00000000000E+00  0.00000000000E+00 -0.76929868208E+02  0.38037966349E+04  0.38030186215E+04 0.  0.
        2    1    3    3  502    0  0.28521743326E+03  0.17529122417E+04  0.64114986024E+03  0.18881534511E+04  0.25500000920E-02 0.  1.
       -2    1    3    3    0  502 -0.28521743326E+03 -0.17529122417E+04 -0.71807972844E+03  0.19156431839E+04  0.25500000920E-02 0. -1.
</event>
<event>
 5   0  0.6661000E-08  0.3742421E+04  0.7818609E-02  0.8058625E-01
       -1   -1    0    0    0  501  0.00000000000E+00  0.00000000000E+00  0.17121291877E+04  0.17121291877E+04  0.50400001928E-02 0. -1.
        1   -1    0    0  501    0  0.00000000000E+00  0.00000000000E+00 -0.20450732163E+04  0.20450732163E+04  0.50400001928E-02 0.  1.
    10030    2    1    2    0    0  0.00000000000E+00  0.00000000000E+00 -0.33294402856E+03  0.37572024040E+04  0.37424214325E+04 0.  0.
        1    1    3    3  502    0  0.64977985550E+03 -0.17040252652E+04  0.25412604218E+03  0.18413299570E+04  0.50400001928E-02 0. -1.
       -1    1    3    3    0  502 -0.64977985550E+03  0.17040252652E+04 -0.58707007073E+03  0.19158724470E+04  0.50400001928E-02 0.  1.
</event>
<event>
 5   0  0.2205204E-07  0.3814370E+04  0.7818609E-02  0.8043078E-01
       -2   -1    0    0    0  501  0.00000000000E+00  0.00000000000E+00  0.16141092944E+04  0.16141092944E+04  0.25500000920E-02 0. -1.
        2   -1    0    0  501    0  0.00000000000E+00  0.00000000000E+00 -0.22534747478E+04  0.22534747478E+04  0.25500000920E-02 0.  1.
    10030    2    1    2    0    0  0.00000000000E+00  0.00000000000E+00 -0.63936545348E+03  0.38675840422E+04  0.38143699533E+04 0.  0.
        2    1    3    3  502    0 -0.58976045772E+03  0.14734283007E+04 -0.13920508762E+04  0.21110693965E+04  0.25500000920E-02 0.  1.
       -2    1    3    3    0  502  0.58976045772E+03 -0.14734283007E+04  0.75268542276E+03  0.17565146457E+04  0.25500000920E-02 0. -1.
</event>
<event>
 5   0  0.6661000E-08  0.3782579E+04  0.7818609E-02  0.8049904E-01
       -1   -1    0    0    0  501  0.00000000000E+00  0.00000000000E+00  0.13699554041E+04  0.13699554041E+04  0.50400001928E-02 0. -1.
        1   -1    0    0  501    0  0.00000000000E+00  0.00000000000E+00 -0.26110165763E+04  0.26110165763E+04  0.50400001928E-02 0.  1.
    10030    2    1    2    0    0  0.00000000000E+00  0.00000000000E+00 -0.12410611722E+04  0.39809719804E+04  0.37825791565E+04 0.  0.
        1    1    3    3  502    0 -0.11262996749E+04  0.78044786757E+02  0.97639724457E+03  0.14926464839E+04  0.50400001928E-02 0. -1.
       -1    1    3    3    0  502  0.11262996749E+04 -0.78044786757E+02 -0.22174584168E+04  0.24883254966E+04  0.50400001928E-02 0.  1.
</event>
<event>
 5   0  0.6725199E-08  0.3461793E+04  0.7818609E-02  0.8122905E-01
       -1   -1    0    0    0  501  0.00000000000E+00  0.00000000000E+00  0.91785204074E+03  0.91785204075E+03  0.50400001928E-02 0.  1.
        1   -1    0    0  501    0  0.00000000000E+00  0.00000000000E+00 -0.32641454356E+04  0.32641454356E+04  0.50400001928E-02 0. -1.
    10030    2    1    2    0    0  0.00000000000E+00  0.00000000000E+00 -0.23462933948E+04  0.41819974763E+04  0.34617929166E+04 0.  0.
        5    1    3    3  502    0 -0.66167011981E+03 -0.88206080526E+03 -0.27849423733E+04  0.29952904240E+04  0.46999998093E+01 0. -1.
       -5    1    3    3    0  502  0.66167011981E+03  0.88206080526E+03  0.43864897849E+03  0.11867070523E+04  0.46999998093E+01 0.  1.
</event>
<event>
 5   0  0.2135314E-07  0.3795705E+04  0.7818609E-02  0.8047077E-01
       -2   -1    0    0    0  501  0.00000000000E+00  0.00000000000E+00  0.15759100101E+04  0.15759100101E+04  0.25500000920E-02 0. -1.
        2   -1    0    0  501    0  0.00000000000E+00  0.00000000000E+00 -0.22855640373E+04  0.22855640373E+04  0.25500000920E-02 0.  1.
    10030    2    1    2    0    0  0.00000000000E+00  0.00000000000E+00 -0.70965402713E+03  0.38614740474E+04  0.37957045434E+04 0.  0.
        4    1    3    3  502    0 -0.79727575232E+03  0.13138379105E+04 -0.14876852916E+04  0.21389314669E+04  0.12699999809E+01 0.  1.
       -4    1    3    3    0  502  0.79727575232E+03 -0.13138379105E+04  0.77803126447E+03  0.17225425805E+04  0.12699999809E+01 0. -1.
</event>
<event>
 5   0  0.6661000E-08  0.3732921E+04  0.7818609E-02  0.8060705E-01
        1   -1    0    0  501    0  0.00000000000E+00  0.00000000000E+00  0.16624847341E+04  0.16624847341E+04  0.50400001928E-02 0. -1.
       -1   -1    0    0    0  501  0.00000000000E+00  0.00000000000E+00 -0.20954630755E+04  0.20954630755E+04  0.50400001928E-02 0.  1.
    10030    2    1    2    0    0  0.00000000000E+00  0.00000000000E+00 -0.43297834141E+03  0.37579478096E+04  0.37329213085E+04 0.  0.
        1    1    3    3  502    0  0.84752444607E+03 -0.12470372901E+04  0.89101166690E+03  0.17513713142E+04  0.50400001928E-02 0. -1.
       -1    1    3    3    0  502 -0.84752444607E+03  0.12470372901E+04 -0.13239900083E+04  0.20065764954E+04  0.50400001928E-02 0.  1.
</event>
<event>
 5   0  0.6725199E-08  0.3801106E+04  0.7818609E-02  0.8045917E-01
        1   -1    0    0  501    0  0.00000000000E+00  0.00000000000E+00  0.22414152036E+04  0.22414152036E+04  0.50400001928E-02 0.  1.
       -1   -1    0    0    0  501  0.00000000000E+00  0.00000000000E+00 -0.16115276603E+04  0.16115276603E+04  0.50400001928E-02 0. -1.
    10030    2    1    2    0    0  0.00000000000E+00  0.00000000000E+00  0.62988754325E+03  0.38529428639E+04  0.38011064699E+04 0.  0.
        5    1    3    3  502    0  0.10990269455E+04  0.94343433175E+03  0.15622332635E+04  0.21303810516E+04  0.46999998093E+01 0.  1.
       -5    1    3    3    0  502 -0.10990269455E+04 -0.94343433175E+03 -0.93234572027E+03  0.17225618123E+04  0.46999998093E+01 0. -1.
</event>
<event>
 5   0  0.6661000E-08  0.4105604E+04  0.7818609E-02  0.7983575E-01
       -1   -1    0    0    0  501  0.00000000000E+00  0.00000000000E+00  0.15687944544E+04  0.15687944544E+04  0.50400001928E-02 0.  1.
        1   -1    0    0  501    0  0.00000000000E+00  0.00000000000E+00 -0.26861367286E+04  0.26861367286E+04  0.50400001928E-02 0. -1.
    10030    2    1    2    0    0  0.00000000000E+00  0.00000000000E+00 -0.11173422742E+04  0.42549311830E+04  0.41056041717E+04 0.  0.
        1    1    3    3  502    0 -0.14720458306E+04  0.72315487579E+03 -0.18381281141E+04  0.24634501955E+04  0.50400001928E-02 0. -1.
       -1    1    3    3    0  502  0.14720458306E+04 -0.72315487579E+03  0.72078583990E+03  0.17914809875E+04  0.50400001928E-02 0.  1.
</event>
<event>
 5   0  0.6661000E-08  0.3771108E+04  0.7818609E-02  0.8052383E-01
       -4   -1    0    0    0  501  0.00000000000E+00  0.00000000000E+00  0.18258950533E+04  0.18258954950E+04  0.12699999809E+01 0.  1.
        4   -1    0    0  501    0  0.00000000000E+00  0.00000000000E+00 -0.19471618235E+04  0.19471622376E+04  0.12699999809E+01 0. -1.
    10030    2    1    2    0    0  0.00000000000E+00  0.00000000000E+00 -0.12126677010E+03  0.37730577326E+04  0.37711084610E+04 0.  0.
        4    1    3    3  502    0 -0.56532733234E+03 -0.52270686571E+03 -0.17827132555E+04  0.19418768304E+04  0.12699999809E+01 0. -1.
       -4    1    3    3    0  502  0.56532733234E+03  0.52270686571E+03  0.16614464854E+04  0.18311809023E+04  0.12699999809E+01 0.  1.
</event>
<event>
 5   0  0.6661000E-08  0.3710794E+04  0.7818609E-02  0.8065574E-01
       -1   -1    0    0    0  501  0.00000000000E+00  0.00000000000E+00  0.30040991438E+04  0.30040991438E+04  0.50400001928E-02 0.  1.
        1   -1    0    0  501    0  0.00000000000E+00  0.00000000000E+00 -0.11459335045E+04  0.11459335045E+04  0.50400001928E-02 0. -1.
    10030    2    1    2    0    0  0.00000000000E+00  0.00000000000E+00  0.18581656393E+04  0.41500326484E+04  0.37107939096E+04 0.  0.
        2    1    3    3  502    0  0.26755176775E+03 -0.39863121363E+03 -0.10752642444E+04  0.11775754703E+04  0.25500000920E-02 0. -1.
       -2    1    3    3    0  502 -0.26755176775E+03  0.39863121363E+03  0.29334298837E+04  0.29724571781E+04  0.25500000920E-02 0.  1.
</event>
<event>
 5   0  0.6725199E-08  0.3789163E+04  0.7818609E-02  0.8048484E-01
       -1   -1    0    0    0  501  0.00000000000E+00  0.00000000000E+00  0.17188381610E+04  0.17188381610E+04  0.50400001928E-02 0. -1.
        1   -1    0    0  501    0  0.00000000000E+00  0.00000000000E+00 -0.20882943192E+04  0.20882943192E+04  0.50400001928E-02 0.  1.
    10030    2    1    2    0    0  0.00000000000E+00  0.00000000000E+00 -0.36945615815E+03  0.38071324802E+04  0.37891634788E+04 0.  0.
        5    1    3    3  502    0  0.18005603100E+04  0.47921758572E+03  0.16004778995E+03  0.18701081010E+04  0.46999998093E+01 0.  1.
       -5    1    3    3    0  502 -0.18005603100E+04 -0.47921758572E+03 -0.52950394810E+03  0.19370243792E+04  0.46999998093E+01 0. -1.
</event>
<event>
 5   0  0.2081337E-07  0.3811004E+04  0.7818609E-02  0.8043798E-01
        2   -1    0    0  501    0  0.00000000000E+00  0.00000000000E+00  0.18676767296E+04  0.18676767296E+04  0.25500000920E-02 0.  1.
       -2   -1    0    0    0  501  0.00000000000E+00  0.00000000000E+00 -0.19440936221E+04  0.19440936221E+04  0.25500000920E-02 0. -1.
    10030    2    1    2    0    0  0.00000000000E+00  0.00000000000E+00 -0.76416892436E+02  0.38117703517E+04  0.38110042866E+04 0.  0.
        1    1    3    3  502    0 -0.41666708402E+03  0.37803855410E+03 -0.18591275635E+04  0.19423902555E+04  0.50400001928E-02 0. -1.
       -1    1    3    3    0  502  0.41666708402E+03 -0.37803855410E+03  0.17827106711E+04  0.18693800962E+04  0.50400001928E-02 0.  1.
</event>
<event>
 5   0  0.1370688E-07  0.3854561E+04  0.7818609E-02  0.8034547E-01
        2   -1    0    0  501    0  0.00000000000E+00  0.00000000000E+00  0.13095671978E+04  0.13095671978E+04  0.25500000920E-02 0.  1.
       -2   -1    0    0    0  501  0.00000000000E+00  0.00000000000E+00 -0.28363650038E+04  0.28363650038E+04  0.25500000920E-02 0. -1.
    10030    2    1    2    0    0  0.00000000000E+00  0.00000000000E+00 -0.15267978060E+04  0.41459322015E+04  0.38545612304E+04 0.  0.
        5    1    3    3  502    0 -0.10337641155E+04 -0.15378508613E+04 -0.13332947572E+04  0.22828382592E+04  0.46999998093E+01 0. -1.
       -5    1    3    3    0  502  0.10337641155E+04  0.15378508613E+04 -0.19350304886E+03  0.18630939424E+04  0.46999998093E+01 0.  1.
</event>
<event>
 5   0  0.2203998E-07  0.3834273E+04  0.7818609E-02  0.8038840E-01
       -2   -1    0    0    0  501  0.00000000000E+00  0.00000000000E+00  0.13103767756E+04  0.13103767756E+04  0.25500000920E-02 0. -1.
        2   -1    0    0  501    0  0.00000000000E+00  0.00000000000E+00 -0.28048511292E+04  0.28048511292E+04  0.25500000920E-02 0.  1.
    10030    2    1    2    0    0  0.00000000000E+00  0.00000000000E+00 -0.14944743536E+04  0.41152279048E+04  0.38342726970E+04 0.  0.
        3    1    3    3  502    0 -0.77387302878E+03 -0.17005662281E+04 -0.28609510011E+03  0.18901469195E+04  0.10100000352E+00 0. -1.
       -3    1    3    3    0  502  0.77387302878E+03  0.17005662281E+04 -0.12083792535E+04  0.22250809853E+04  0.10100000352E+00 0.  1.
</event>
<event>
 5   0  0.6661000E-08  0.3799435E+04  0.7818609E-02  0.8046276E-01
        1   -1    0    0  501    0  0.00000000000E+00  0.00000000000E+00  0.18977504569E+04  0.18977504569E+04  0.50400001928E-02 0. -1.
       -1   -1    0    0    0  501  0.00000000000E+00  0.00000000000E+00 -0.19016868134E+04  0.19016868134E+04  0.50400001928E-02 0.  1.
    10030    2    1    2    0    0  0.00000000000E+00  0.00000000000E+00 -0.39363565182E+01  0.37994372703E+04  0.37994352312E+04 0.  0.
        4    1    3    3  502    0 -0.42377785886E+03  0.77374650343E+03 -0.16844238595E+04  0.19014617210E+04  0.12699999809E+01 0.  1.
       -4    1    3    3    0  502  0.42377785886E+03 -0.77374650343E+03  0.16804875030E+04  0.18979755493E+04  0.12699999809E+01 0. -1.
</event>
<event>
 5   0  0.2081337E-07  0.3792006E+04  0.7818609E-02  0.8047872E-01
       -2   -1    0    0    0  501  0.00000000000E+00  0.00000000000E+00  0.18868478790E+04  0.18868478790E+04  0.25500000920E-02 0.  1.
        2   -1    0    0  501    0  0.00000000000E+00  0.00000000000E+00 -0.19052028511E+04  0.19052028511E+04  0.25500000920E-02 0. -1.
    10030    2    1    2    0    0  0.00000000000E+00  0.00000000000E+00 -0.18354972097E+02  0.37920507300E+04  0.37920063072E+04 0.  0.
        1    1    3    3  502    0 -0.32218058881E+03 -0.21133411372E+03 -0.18656381689E+04  0.19050113429E+04  0.50400001928E-02 0. -1.
       -1    1    3    3    0  502  0.32218058881E+03  0.21133411372E+03  0.18472831968E+04  0.18870393871E+04  0.50400001928E-02 0.  1.
</event>
<event>
 5   0  0.6661000E-08  0.3801264E+04  0.7818609E-02  0.8045884E-01
       -1   -1    0    0    0  501  0.00000000000E+00  0.00000000000E+00  0.19020510231E+04  0.19020510231E+04  0.50400001928E-02 0. -1.
        1   -1    0    0  501    0  0.00000000000E+00  0.00000000000E+00 -0.18992137489E+04  0.18992137489E+04  0.50400001928E-02 0.  1.
    10030    2    1    2    0    0  0.00000000000E+00  0.00000000000E+00  0.28372741963E+01  0.38012647720E+04  0.38012637131E+04 0.  0.
        1    1    3    3  502    0  0.13583615405E+04  0.13079782038E+04 -0.23617014525E+03  0.19004550491E+04  0.50400001928E-02 0. -1.
       -1    1    3    3    0  502 -0.13583615405E+04 -0.13079782038E+04  0.23900741945E+03  0.19008097229E+04  0.50400001928E-02 0.  1.
</event>
<event>
 5   0  0.2135314E-07  0.3808238E+04  0.7818609E-02  0.8044389E-01
       -2   -1    0    0    0  501  0.00000000000E+00  0.00000000000E+00  0.25508986470E+04  0.25508986470E+04  0.25500000920E-02 0. -1.
        2   -1    0    0  501    0  0.00000000000E+00  0.00000000000E+00 -0.14213301243E+04  0.14213301243E+04  0.25500000920E-02 0.  1.
    10030    2    1    2    0    0  0.00000000000E+00  0.00000000000E+00  0.11295685227E+04  0.39722287713E+04  0.38082379605E+04 0.  0.
        4    1    3    3  502    0 -0.10322999798E+04 -0.15505081282E+04  0.97669314421E+03  0.21032474450E+04  0.12699999809E+01 0. -1.
       -4    1    3    3    0  502  0.10322999798E+04  0.15505081282E+04  0.15287537852E+03  0.18689813263E+04  0.12699999809E+01 0.  1.
</event>
<event>
 5   0  0.6661000E-08  0.3784048E+04  0.7818609E-02  0.8049587E-01
       -3   -1    0    0    0  501  0.00000000000E+00  0.00000000000E+00  0.11333239803E+04  0.11333239848E+04  0.10100000352E+00 0. -1.
        3   -1    0    0  501    0  0.00000000000E+00  0.00000000000E+00 -0.31586333344E+04  0.31586333360E+04  0.10100000352E+00 0.  1.
    10030    2    1    2    0    0  0.00000000000E+00  0.00000000000E+00 -0.20253093540E+04  0.42919573208E+04  0.37840480525E+04 0.  0.
        2    1    3    3  502    0 -0.59156070747E+03 -0.17061169109E+04 -0.16532410700E+04  0.24482616322E+04  0.25500000920E-02 0.  1.
       -2    1    3    3    0  502  0.59156070747E+03  0.17061169109E+04 -0.37206828406E+03  0.18436956886E+04  0.25500000920E-02 0. -1.
</event>
<event>
 5   0  0.2135314E-07  0.3792494E+04  0.7818609E-02  0.8047767E-01
        2   -1    0    0  501    0  0.00000000000E+00  0.00000000000E+00  0.25535473012E+04  0.25535473012E+04  0.25500000920E-02 0. -1.
       -2   -1    0    0    0  501  0.00000000000E+00  0.00000000000E+00 -0.14081405115E+04  0.14081405115E+04  0.25500000920E-02 0.  1.
    10030    2    1    2    0    0  0.00000000000E+00  0.00000000000E+00  0.11454067896E+04  0.39616878127E+04  0.37924943786E+04 0.  0.
        4    1    3    3  502    0 -0.94382132353E+03  0.73244199635E+03  0.21109756130E+04  0.24255905715E+04  0.12699999809E+01 0. -1.
       -4    1    3    3    0  502  0.94382132353E+03 -0.73244199635E+03 -0.96556882340E+03  0.15360972412E+04  0.12699999809E+01 0.  1.
</event>
<event>
 5   0  0.1370688E-07  0.3814931E+04  0.7818609E-02  0.8042958E-01
        2   -1    0    0  501    0  0.00000000000E+00  0.00000000000E+00  0.15468139012E+04  0.15468139012E+04  0.25500000920E-02 0. -1.
       -2   -1    0    0    0  501  0.00000000000E+00  0.00000000000E+00 -0.23522056630E+04  0.23522056630E+04  0.25500000920E-02 0.  1.
    10030    2    1    2    0    0  0.00000000000E+00  0.00000000000E+00 -0.80539176182E+03  0.38990195642E+04  0.38149308870E+04 0.  0.
        5    1    3    3  502    0 -0.42242687012E+03  0.17535975242E+04  0.23134390597E+03  0.18185408519E+04  0.46999998093E+01 0. -1.
       -5    1    3    3    0  502  0.42242687012E+03 -0.17535975242E+04 -0.10367356678E+04  0.20804787123E+04  0.46999998093E+01 0.  1.
</event>
<event>
 5   0  0.2205204E-07  0.3792344E+04  0.7818609E-02  0.8047800E-01
        2   -1    0    0  501    0  0.00000000000E+00  0.00000000000E+00  0.30707436483E+04  0.30707436483E+04  0.25500000920E-02 0.  1.
       -2   -1    0    0    0  501  0.00000000000E+00  0.00000000000E+00 -0.11708789765E+04  0.11708789765E+04  0.25500000920E-02 0. -1.
    10030    2    1    2    0    0  0.00000000000E+00  0.00000000000E+00  0.18998646717E+04  0.42416226248E+04  0.37923444886E+04 0.  0.
        2    1    3    3  502    0  0.11188057591E+04 -0.84588316801E+03 -0.47725634069E+03  0.14815594066E+04  0.25500000920E-02 0. -1.
       -2    1    3    3    0  502 -0.11188057591E+04  0.84588316801E+03  0.23771210124E+04  0.27600632182E+04  0.25500000920E-02 0.  1.
</event>
<event>
 5   0  0.2203998E-07  0.3814513E+04  0.7818609E-02  0.8043048E-01
        2   -1    0    0  501    0  0.00000000000E+00  0.00000000000E+00  0.20888890354E+04  0.20888890354E+04  0.25500000920E-02 0.  1.
       -2   -1    0    0    0  501  0.00000000000E+00  0.00000000000E+00 -0.17414168790E+04  0.17414168790E+04  0.25500000920E-02 0. -1.
    10030    2    1    2    0    0  0.00000000000E+00  0.00000000000E+00  0.34747215638E+03  0.38303059145E+04  0.38145126162E+04 0.  0.
        3    1    3    3  502    0 -0.14560795365E+04  0.39509893327E+03  0.13453384262E+04  0.20214366858E+04  0.10100000352E+00 0.  1.
       -3    1    3    3    0  502  0.14560795365E+04 -0.39509893327E+03 -0.99786626977E+03  0.18088692286E+04  0.10100000352E+00 0. -1.
</event>
<event>
 5   0  0.2203998E-07  0.3814828E+04  0.7818609E-02  0.8042980E-01
        2   -1    0    0  501    0  0.00000000000E+00  0.00000000000E+00  0.22851336010E+04  0.22851336010E+04  0.25500000920E-02 0. -1.
       -2   -1    0    0    0  501  0.00000000000E+00  0.00000000000E+00 -0.15921295626E+04  0.15921295626E+04  0.25500000920E-02 0.  1.
    10030    2    1    2    0    0  0.00000000000E+00  0.00000000000E+00  0.69300403844E+03  0.38772631636E+04  0.38148283110E+04 0.  0.
        3    1    3    3  502    0  0.51294438572E+03 -0.15222740330E+04 -0.69882402541E+03  0.17517948519E+04  0.10100000352E+00 0.  1.
       -3    1    3    3    0  502 -0.51294438572E+03  0.15222740330E+04  0.13918280639E+04  0.21254683117E+04  0.10100000352E+00 0. -1.
</event>
<event>
 5   0  0.2205204E-07  0.3811724E+04  0.7818609E-02  0.8043644E-01
        2   -1    0    0  501    0  0.00000000000E+00  0.00000000000E+00  0.11287107565E+04  0.11287107565E+04  0.25500000920E-02 0. -1.
       -2   -1    0    0    0  501  0.00000000000E+00  0.00000000000E+00 -0.32181057732E+04  0.32181057732E+04  0.25500000920E-02 0.  1.
    10030    2    1    2    0    0  0.00000000000E+00  0.00000000000E+00 -0.20893950167E+04  0.43468165298E+04  0.38117243352E+04 0.  0.
        2    1    3    3  502    0  0.18741388898E+04  0.20347185605E+02 -0.14389131085E+04  0.23628968492E+04  0.25500000920E-02 0.  1.
       -2    1    3    3    0  502 -0.18741388898E+04 -0.20347185605E+02 -0.65048190822E+03  0.19839196806E+04  0.25500000920E-02 0. -1.
</event>
<event>
 5   0  0.6725199E-08  0.3783786E+04  0.7818609E-02  0.8049643E-01
        1   -1    0    0  501    0  0.00000000000E+00  0.00000000000E+00  0.14811189272E+04  0.14811189272E+04  0.50400001928E-02 0. -1.
       -1   -1    0    0    0  501  0.00000000000E+00  0.00000000000E+00 -0.24165915587E+04  0.24165915587E+04  0.50400001928E-02 0.  1.
    10030    2    1    2    0    0  0.00000000000E+00  0.00000000000E+00 -0.93547263148E+03  0.38977104859E+04  0.37837861974E+04 0.  0.
        5    1    3    3  502    0 -0.16500825285E+04 -0.69787655871E+03 -0.10938469015E+04  0.20991253360E+04  0.46999998093E+01 0. -1.
       -5    1    3    3    0  502  0.16500825285E+04  0.69787655871E+03  0.15837427006E+03  0.17985851500E+04  0.46999998093E+01 0.  1.
</event>
<event>
 5   0  0.1370688E-07  0.3815393E+04  0.7818609E-02  0.8042860E-01
       -2   -1    0    0    0  501  0.00000000000E+00  0.00000000000E+00  0.14360769286E+04  0.14360769286E+04  0.25500000920E-02 0. -1.
        2   -1    0    0  501    0  0.00000000000E+00  0.00000000000E+00 -0.25342003265E+04  0.25342003265E+04  0.25500000920E-02 0.  1.
    10030    2    1    2    0    0  0.00000000000E+00  0.00000000000E+00 -0.10981233979E+04  0.39702772551E+04  0.38153933592E+04 0.  0.
        5    1    3    3  502    0 -0.93202967058E+03  0.71546669395E+02 -0.22795444386E+04  0.24637660543E+04  0.46999998093E+01 0.  1.
       -5    1    3    3    0  502  0.93202967058E+03 -0.71546669395E+02  0.11814210407E+04  0.15065112008E+04  0.46999998093E+01 0. -1.
</event>
<event>
 5   0  0.2203998E-07  0.3399790E+04  0.7818609E-02  0.8137958E-01
        2   -1    0    0  501    0  0.00000000000E+00  0.00000000000E+00  0.19841648457E+04  0.19841648457E+04  0.25500000920E-02 0.  1.
       -2   -1    0    0    0  501  0.00000000000E+00  0.00000000000E+00 -0.14563518959E+04  0.14563518959E+04  0.25500000920E-02 0. -1.
    10030    2    1    2    0    0  0.00000000000E+00  0.00000000000E+00  0.52781294986E+03  0.34405167416E+04  0.33997895434E+04 0.  0.
        3    1    3    3  502    0 -0.61107481917E+03  0.66665505685E+02  0.18677534013E+04  0.19663060552E+04  0.10100000352E+00 0.  1.
       -3    1    3    3    0  502  0.61107481917E+03 -0.66665505685E+02 -0.13399404515E+04  0.14742106864E+04  0.10100000352E+00 0. -1.
</event>
<event>
 5   0  0.6661000E-08  0.3815320E+04  0.7818609E-02  0.8042875E-01
       -1   -1    0    0    0  501  0.00000000000E+00  0.00000000000E+00  0.30131341169E+04  0.30131341169E+04  0.50400001928E-02 0. -1.
        1   -1    0    0  501    0  0.00000000000E+00  0.00000000000E+00 -0.12077677802E+04  0.12077677802E+04  0.50400001928E-02 0.  1.
    10030    2    1    2    0    0  0.00000000000E+00  0.00000000000E+00  0.18053663368E+04  0.42209018971E+04  0.38153198051E+04 0.  0.
        4    1    3    3  502    0  0.17881935378E+04 -0.16653747936E+03  0.16143329442E+04  0.24148381578E+04  0.12699999809E+01 0. -1.
       -4    1    3    3    0  502 -0.17881935378E+04  0.16653747936E+03  0.19103339257E+03  0.18060637393E+04  0.12699999809E+01 0.  1.
</event>
<event>
 5   0  0.2081337E-07  0.3791231E+04  0.7818609E-02  0.8048039E-01
        2   -1    0    0  501    0  0.00000000000E+00  0.00000000000E+00  0.19286176741E+04  0.19286176741E+04  0.25500000920E-02 0.  1.
       -2   -1    0    0    0  501  0.00000000000E+00  0.00000000000E+00 -0.18631781929E+04  0.18631781929E+04  0.25500000920E-02 0. -1.
    10030    2    1    2    0    0  0.00000000000E+00  0.00000000000E+00  0.65439481216E+02  0.37917958671E+04  0.37912311420E+04 0.  0.
        1    1    3    3  502    0  0.12866803901E+03 -0.86630074079E+03 -0.16486987118E+04  0.18668797176E+04  0.50400001928E-02 0. -1.
       -1    1    3    3    0  502 -0.12866803901E+03  0.86630074079E+03  0.17141381930E+04  0.19249161495E+04  0.50400001928E-02 0.  1.
</event>
<event>
 5   0  0.2205204E-07  0.3732847E+04  0.7818609E-02  0.8060721E-01
        2   -1    0    0  501    0  0.00000000000E+00  0.00000000000E+00  0.26413402045E+04  0.26413402045E+04  0.25500000920E-02 0. -1.
       -2   -1    0    0    0  501  0.00000000000E+00  0.00000000000E+00 -0.13188517754E+04  0.13188517754E+04  0.25500000920E-02 0.  1.
    10030    2    1    2    0    0  0.00000000000E+00  0.00000000000E+00  0.13224884292E+04  0.39601919799E+04  0.37328467518E+04 0.  0.
        2    1    3    3  502    0  0.50927973027E+03  0.12935324093E+04  0.19824612870E+04  0.24213105320E+04  0.25500000920E-02 0. -1.
       -2    1    3    3    0  502 -0.50927973027E+03 -0.12935324093E+04 -0.65997285783E+03  0.15388814479E+04  0.25500000920E-02 0.  1.
</event>
<event>
 5   0  0.6661000E-08  0.3821061E+04  0.7818609E-02  0.8041650E-01
        1   -1    0    0  501    0  0.00000000000E+00  0.00000000000E+00  0.19389735623E+04  0.19389735623E+04  0.50400001928E-02 0. -1.
       -1   -1    0    0    0  501  0.00000000000E+00  0.00000000000E+00 -0.18825042562E+04  0.18825042562E+04  0.50400001928E-02 0.  1.
    10030    2    1    2    0    0  0.00000000000E+00  0.00000000000E+00  0.56469306013E+02  0.38214778185E+04  0.38210605772E+04 0.  0.
        2    1    3    3  502    0  0.55329131868E+03  0.18095851395E+04  0.29169523753E+03  0.19146320200E+04  0.25500000920E-02 0.  1.
       -2    1    3    3    0  502 -0.55329131868E+03 -0.18095851395E+04 -0.23522593152E+03  0.19068457985E+04  0.25500000920E-02 0. -1.
</event>
<event>
 5   0  0.1370688E-07  0.3794635E+04  0.7818609E-02  0.8047307E-01
       -2   -1    0    0    0  501  0.00000000000E+00  0.00000000000E+00  0.28219955709E+04  0.28219955709E+04  0.25500000920E-02 0. -1.
        2   -1    0    0  501    0  0.00000000000E+00  0.00000000000E+00 -0.12756272279E+04  0.12756272279E+04  0.25500000920E-02 0.  1.
    10030    2    1    2    0    0  0.00000000000E+00  0.00000000000E+00  0.15463683429E+04  0.40976227988E+04  0.37946353645E+04 0.  0.
        5    1    3    3  502    0  0.25762817042E+03  0.48625287992E+03  0.27339239640E+04  0.27887589477E+04  0.46999998093E+01 0. -1.
       -5    1    3    3    0  502 -0.25762817042E+03 -0.48625287992E+03 -0.11875556211E+04  0.13088638511E+04  0.46999998093E+01 0.  1.
</event>
<event>
 5   0  0.6661000E-08  0.3790079E+04  0.7818609E-02  0.8048287E-01
        1   -1    0    0  501    0  0.00000000000E+00  0.00000000000E+00  0.16636342495E+04  0.16636342495E+04  0.50400001928E-02 0.  1.
       -1   -1    0    0    0  501  0.00000000000E+00  0.00000000000E+00 -0.21586327520E+04  0.21586327520E+04  0.50400001928E-02 0. -1.
    10030    2    1    2    0    0  0.00000000000E+00  0.00000000000E+00 -0.49499850248E+03  0.38222670015E+04  0.37900793545E+04 0.  0.
        3    1    3    3  502    0 -0.82797753990E+03  0.15122466077E+04  0.54578051835E+03  0.18084006728E+04  0.10100000352E+00 0. -1.
       -3    1    3    3    0  502  0.82797753990E+03 -0.15122466077E+04 -0.10407790208E+04  0.20138663286E+04  0.10100000352E+00 0.  1.
</event>
<event>
 5   0  0.6661000E-08  0.3788156E+04  0.7818609E-02  0.8048701E-01
       -1   -1    0    0    0  501  0.00000000000E+00  0.00000000000E+00  0.17765836977E+04  0.17765836977E+04  0.50400001928E-02 0.  1.
        1   -1    0    0  501    0  0.00000000000E+00  0.00000000000E+00 -0.20193429886E+04  0.20193429886E+04  0.50400001928E-02 0. -1.
    10030    2    1    2    0    0  0.00000000000E+00  0.00000000000E+00 -0.24275929090E+03  0.37959266863E+04  0.37881561919E+04 0.  0.
        3    1    3    3  502    0 -0.98242475236E+03 -0.12682577023E+04 -0.11303690529E+04  0.19624908152E+04  0.10100000352E+00 0. -1.
       -3    1    3    3    0  502  0.98242475236E+03  0.12682577023E+04  0.88760976203E+03  0.18334358711E+04  0.10100000352E+00 0.  1.
</event>
<event>
 5   0  0.6661000E-08  0.3799706E+04  0.7818609E-02  0.8046218E-01
        1   -1    0    0  501    0  0.00000000000E+00  0.00000000000E+00  0.13033159253E+04  0.13033159253E+04  0.50400001928E-02 0. -1.
       -1   -1    0    0    0  501  0.00000000000E+00  0.00000000000E+00 -0.27694290981E+04  0.27694290981E+04  0.50400001928E-02 0.  1.
    10030    2    1    2    0    0  0.00000000000E+00  0.00000000000E+00 -0.14661131728E+04  0.40727450234E+04  0.37997058031E+04 0.  0.
        2    1    3    3  502    0 -0.18221492465E+04 -0.38591571288E+03 -0.11345131711E+04  0.21808894858E+04  0.25500000920E-02 0.  1.
       -2    1    3    3    0  502  0.18221492465E+04  0.38591571288E+03 -0.33160000173E+03  0.18918555376E+04  0.25500000920E-02 0. -1.
</event>
<event>
 5   0  0.2135314E-07  0.3943451E+04  0.7818609E-02  0.8016052E-01
       -2   -1    0    0    0  501  0.00000000000E+00  0.00000000000E+00  0.19577335181E+04  0.19577335181E+04  0.25500000920E-02 0. -1.
        2   -1    0    0  501    0  0.00000000000E+00  0.00000000000E+00 -0.19858175017E+04  0.19858175017E+04  0.25500000920E-02 0.  1.
    10030    2    1    2    0    0  0.00000000000E+00  0.00000000000E+00 -0.28083983567E+02  0.39435510198E+04  0.39434510186E+04 0.  0.
        4    1    3    3  502    0 -0.43467685928E+03 -0.14308570926E+04 -0.12991441807E+04  0.19809273603E+04  0.12699999809E+01 0.  1.
       -4    1    3    3    0  502  0.43467685928E+03  0.14308570926E+04  0.12710601971E+04  0.19626236596E+04  0.12699999809E+01 0. -1.
</event>
<event>
 5   0  0.2205204E-07  0.3783795E+04  0.7818609E-02  0.8049641E-01
        2   -1    0    0  501    0  0.00000000000E+00  0.00000000000E+00  0.16286296388E+04  0.16286296389E+04  0.25500000920E-02 0. -1.
       -2   -1    0    0    0  501  0.00000000000E+00  0.00000000000E+00 -0.21977227519E+04  0.21977227519E+04  0.25500000920E-02 0.  1.
    10030    2    1    2    0    0  0.00000000000E+00  0.00000000000E+00 -0.56909311307E+03  0.38263523908E+04  0.37837951381E+04 0.  0.
        2    1    3    3  502    0 -0.10832815150E+04 -0.13299529145E+04 -0.10916478169E+04  0.20332163072E+04  0.25500000920E-02 0. -1.
       -2    1    3    3    0  502  0.10832815150E+04  0.13299529145E+04  0.52255470384E+03  0.17931360836E+04  0.25500000920E-02 0.  1.
</event>
<event>
 5   0  0.2135314E-07  0.3812379E+04  0.7818609E-02  0.8043504E-01
       -2   -1    0    0    0  501  0.00000000000E+00  0.00000000000E+00  0.18664955307E+04  0.18664955307E+04  0.25500000920E-02 0. -1.
        2   -1    0    0  501    0  0.00000000000E+00  0.00000000000E+00 -0.19467273469E+04  0.19467273469E+04  0.25500000920E-02 0.  1.
    10030    2    1    2    0    0  0.00000000000E+00  0.00000000000E+00 -0.80231816202E+02  0.38132228776E+04  0.38123787285E+04 0.  0.
        4    1    3    3  502    0 -0.18870052754E+04 -0.22281256642E+03  0.11197673139E+03  0.19034113456E+04  0.12699999809E+01 0. -1.
       -4    1    3    3    0  502  0.18870052754E+04  0.22281256642E+03 -0.19220854759E+03  0.19098115320E+04  0.12699999809E+01 0.  1.
</event>
<event>
 5   0  0.2081337E-07  0.3819547E+04  0.7818609E-02  0.8041973E-01
        2   -1    0    0  501    0  0.00000000000E+00  0.00000000000E+00  0.18000409811E+04  0.18000409811E+04  0.25500000920E-02 0. -1.
       -2   -1    0    0    0  501  0.00000000000E+00  0.00000000000E+00 -0.20261959343E+04  0.20261959343E+04  0.25500000920E-02 0.  1.
    10030    2    1    2    0    0  0.00000000000E+00  0.00000000000E+00 -0.22615495322E+03  0.38262369155E+04  0.38195474693E+04 0.  0.
        1    1    3    3  502    0  0.68546222145E+02  0.17650259266E+04 -0.84044873435E+03  0.19561107283E+04  0.50400001928E-02 0. -1.
       -1    1    3    3    0  502 -0.68546222145E+02 -0.17650259266E+04  0.61429378113E+03  0.18701261871E+04  0.50400001928E-02 0.  1.
</event>
<event>
 5   0  0.2203998E-07  0.3815552E+04  0.7818609E-02  0.8042826E-01
       -2   -1    0    0    0  501  0.00000000000E+00  0.00000000000E+00  0.17503753163E+04  0.17503753164E+04  0.25500000920E-02 0. -1.
        2   -1    0    0  501    0  0.00000000000E+00  0.00000000000E+00 -0.20793309859E+04  0.20793309859E+04  0.25500000920E-02 0.  1.
    10030    2    1    2    0    0  0.00000000000E+00  0.00000000000E+00 -0.32895566955E+03  0.38297063023E+04  0.38155521919E+04 0.  0.
        3    1    3    3  502    0 -0.13129634677E+04  0.42787466347E+03  0.11567104801E+04  0.18013686297E+04  0.10100000352E+00 0. -1.
       -3    1    3    3    0  502  0.13129634677E+04 -0.42787466347E+03 -0.14856661497E+04  0.20283376725E+04  0.10100000352E+00 0.  1.
</event>
<event>
 5   0  0.6661000E-08  0.3818410E+04  0.7818609E-02  0.8042216E-01
       -1   -1    0    0    0  501  0.00000000000E+00  0.00000000000E+00  0.17602862201E+04  0.17602862201E+04  0.50400001928E-02 0.  1.
        1   -1    0    0  501    0  0.00000000000E+00  0.00000000000E+00 -0.20707217032E+04  0.20707217032E+04  0.50400001928E-02 0. -1.
    10030    2    1    2    0    0  0.00000000000E+00  0.00000000000E+00 -0.31043548311E+03  0.38310079233E+04  0.38184095536E+04 0.  0.
        1    1    3    3  502    0  0.13313692849E+04 -0.13331363389E+04 -0.46488834717E+03  0.19405972911E+04  0.50400001928E-02 0. -1.
       -1    1    3    3    0  502 -0.13313692849E+04  0.13331363389E+04  0.15445286406E+03  0.18904106322E+04  0.50400001928E-02 0.  1.
</event>
<event>
 5   0  0.2205204E-07  0.3800894E+04  0.7818609E-02  0.8045963E-01
       -2   -1    0    0    0  501  0.00000000000E+00  0.00000000000E+00  0.30693942726E+04  0.30693942726E+04  0.25500000920E-02 0.  1.
        2   -1    0    0  501    0  0.00000000000E+00  0.00000000000E+00 -0.11766811433E+04  0.11766811433E+04  0.25500000920E-02 0. -1.
    10030    2    1    2    0    0  0.00000000000E+00  0.00000000000E+00  0.18927131293E+04  0.42460754159E+04  0.38008937696E+04 0.  0.
        2    1    3    3  502    0 -0.32008436517E+03  0.16062958794E+04 -0.13041446931E+03  0.16430606766E+04  0.25500000920E-02 0. -1.
       -2    1    3    3    0  502  0.32008436517E+03 -0.16062958794E+04  0.20231275986E+04  0.26030147394E+04  0.25500000920E-02 0.  1.
</event>
<event>
 5   0  0.6661000E-08  0.3645576E+04  0.7818609E-02  0.8080131E-01
        1   -1    0    0  501    0  0.00000000000E+00  0.00000000000E+00  0.15478841257E+04  0.15478841257E+04  0.50400001928E-02 0.  1.
       -1   -1    0    0    0  501  0.00000000000E+00  0.00000000000E+00 -0.21465145055E+04  0.21465145055E+04  0.50400001928E-02 0. -1.
    10030    2    1    2    0    0  0.00000000000E+00  0.00000000000E+00 -0.59863037985E+03  0.36943986312E+04  0.36455758001E+04 0.  0.
        2    1    3    3  502    0 -0.51690500117E+02  0.44227775393E+03  0.14919182728E+04  0.15569526814E+04  0.25500000920E-02 0.  1.
       -2    1    3    3    0  502  0.51690500117E+02 -0.44227775393E+03 -0.20905486526E+04  0.21374459498E+04  0.25500000920E-02 0. -1.
</event>
<event>
 5   0  0.2135314E-07  0.3786105E+04  0.7818609E-02  0.8049143E-01
       -2   -1    0    0    0  501  0.00000000000E+00  0.00000000000E+00  0.16260269389E+04  0.16260269389E+04  0.25500000920E-02 0. -1.
        2   -1    0    0  501    0  0.00000000000E+00  0.00000000000E+00 -0.22039289400E+04  0.22039289400E+04  0.25500000920E-02 0.  1.
    10030    2    1    2    0    0  0.00000000000E+00  0.00000000000E+00 -0.57790200109E+03  0.38299558788E+04  0.37861050317E+04 0.  0.
        4    1    3    3  502    0  0.16679814335E+04  0.41022181434E+03 -0.10939073418E+04  0.20364377930E+04  0.12699999809E+01 0.  1.
       -4    1    3    3    0  502 -0.16679814335E+04 -0.41022181434E+03  0.51600534075E+03  0.17935180858E+04  0.12699999809E+01 0. -1.
</event>
<event>
 5   0  0.2135314E-07  0.3802518E+04  0.7818609E-02  0.8045615E-01
        2   -1    0    0  501    0  0.00000000000E+00  0.00000000000E+00  0.12299829605E+04  0.12299829605E+04  0.25500000920E-02 0.  1.
       -2   -1    0    0    0  501  0.00000000000E+00  0.00000000000E+00 -0.29388914434E+04  0.29388914434E+04  0.25500000920E-02 0. -1.
    10030    2    1    2    0    0  0.00000000000E+00  0.00000000000E+00 -0.17089084829E+04  0.41688744039E+04  0.38025183225E+04 0.  0.
        4    1    3    3  502    0  0.12322979267E+03 -0.13947334833E+04 -0.22645771106E+04  0.26624759480E+04  0.12699999809E+01 0. -1.
       -4    1    3    3    0  502 -0.12322979267E+03  0.13947334833E+04  0.55566862768E+03  0.15063984559E+04  0.12699999809E+01 0.  1.
</event>
<event>
 5   0  0.6661000E-08  0.3819030E+04  0.7818609E-02  0.8042083E-01
       -1   -1    0    0    0  501  0.00000000000E+00  0.00000000000E+00  0.27434335066E+04  0.27434335066E+04  0.50400001928E-02 0.  1.
        1   -1    0    0  501    0  0.00000000000E+00  0.00000000000E+00 -0.13290818100E+04  0.13290818100E+04  0.50400001928E-02 0. -1.
    10030    2    1    2    0    0  0.00000000000E+00  0.00000000000E+00  0.14143516966E+04  0.40725153166E+04  0.38190300184E+04 0.  0.
        4    1    3    3  502    0  0.83163970363E+03 -0.38115808879E+03  0.24945348662E+04  0.26569930179E+04  0.12699999809E+01 0.  1.
       -4    1    3    3    0  502 -0.83163970363E+03  0.38115808879E+03 -0.10801831696E+04  0.14155222987E+04  0.12699999809E+01 0. -1.
</event>
<event>
 5   0  0.6661000E-08  0.3784172E+04  0.7818609E-02  0.8049560E-01
        1   -1    0    0  501    0  0.00000000000E+00  0.00000000000E+00  0.17245001959E+04  0.17245001959E+04  0.50400001928E-02 0. -1.
       -1   -1    0    0    0  501  0.00000000000E+00  0.00000000000E+00 -0.20759575455E+04  0.20759575455E+04  0.50400001928E-02 0.  1.
    10030    2    1    2    0    0  0.00000000000E+00  0.00000000000E+00 -0.35145734963E+03  0.38004577414E+04  0.37841718745E+04 0.  0.
        3    1    3    3  502    0 -0.73887317529E+03 -0.76355901320E+03  0.13965866795E+04  0.17548248629E+04  0.10100000352E+00 0. -1.
       -3    1    3    3    0  502  0.73887317529E+03  0.76355901320E+03 -0.17480440291E+04  0.20456328785E+04  0.10100000352E+00 0.  1.
</event>
<event>
 5   0  0.2203998E-07  0.3895103E+04  0.7818609E-02  0.8026048E-01
       -2   -1    0    0    0  501  0.00000000000E+00  0.00000000000E+00  0.34711122317E+04  0.34711122317E+04  0.25500000920E-02 0.  1.
        2   -1    0    0  501    0  0.00000000000E+00  0.00000000000E+00 -0.10927209337E+04  0.10927209337E+04  0.25500000920E-02 0. -1.
    10030    2    1    2    0    0  0.00000000000E+00  0.00000000000E+00  0.23783912980E+04  0.45638331654E+04  0.38951030790E+04 0.  0.
        3    1    3    3  502    0  0.13565646594E+04  0.13770046773E+04  0.14678188322E+04  0.24271179804E+04  0.10100000352E+00 0. -1.
       -3    1    3    3    0  502 -0.13565646594E+04 -0.13770046773E+04  0.91057246576E+03  0.21367151850E+04  0.10100000352E+00 0.  1.
</event>
<event>
 5   0  0.6725199E-08  0.3771430E+04  0.7818609E-02  0.8052314E-01
        1   -1    0    0  501    0  0.00000000000E+00  0.00000000000E+00  0.19768859564E+04  0.19768859564E+04  0.50400001928E-02 0.  1.
       -1   -1    0    0    0  501  0.00000000000E+00  0.00000000000E+00 -0.17987488271E+04  0.17987488271E+04  0.50400001928E-02 0. -1.
    10030    2    1    2    0    0  0.00000000000E+00  0.00000000000E+00  0.17813712936E+03  0.37756347835E+04  0.37714301242E+04 0.  0.
        5    1    3    3  502    0  0.65091252194E+03  0.10996013085E+04  0.14773694832E+04  0.19533184146E+04  0.46999998093E+01 0.  1.
       -5    1    3    3    0  502 -0.65091252194E+03 -0.10996013085E+04 -0.12992323539E+04  0.18223163689E+04  0.46999998093E+01 0. -1.
</event>
<event>
 5   0  0.6661000E-08  0.3825374E+04  0.7818609E-02  0.8040731E-01
        1   -1    0    0  501    0  0.00000000000E+00  0.00000000000E+00  0.19705525610E+04  0.19705525610E+04  0.50400001928E-02 0. -1.
       -1   -1    0    0    0  501  0.00000000000E+00  0.00000000000E+00 -0.18565208050E+04  0.18565208050E+04  0.50400001928E-02 0.  1.
    10030    2    1    2    0    0  0.00000000000E+00  0.00000000000E+00  0.11403175600E+03  0.38270733660E+04  0.38253741396E+04 0.  0.
        4    1    3    3  502    0  0.39923616542E+03 -0.42306574528E+03  0.18799108845E+04  0.19678517950E+04  0.12699999809E+01 0. -1.
       -4    1    3    3    0  502 -0.39923616542E+03  0.42306574528E+03 -0.17658791285E+04  0.18592215710E+04  0.12699999809E+01 0.  1.
</event>
<event>
 5   0  0.2135314E-07  0.3810494E+04  0.7818609E-02  0.8043907E-01
        2   -1    0    0  501    0  0.00000000000E+00  0.00000000000E+00  0.18209012814E+04  0.18209012814E+04  0.25500000920E-02 0. -1.
       -2   -1    0    0    0  501  0.00000000000E+00  0.00000000000E+00 -0.19935000196E+04  0.19935000196E+04  0.25500000920E-02 0.  1.
    10030    2    1    2    0    0  0.00000000000E+00  0.00000000000E+00 -0.17259873823E+03  0.38144013010E+04  0.38104943197E+04 0.  0.
        4    1    3    3  502    0 -0.11797743103E+04 -0.96243685587E+03  0.10602190308E+04  0.18553215708E+04  0.12699999809E+01 0. -1.
       -4    1    3    3    0  502  0.11797743103E+04  0.96243685587E+03 -0.12328177691E+04  0.19590797302E+04  0.12699999809E+01 0.  1.
</event>
<event>
 5   0  0.2081337E-07  0.3803817E+04  0.7818609E-02  0.8045336E-01
       -2   -1    0    0    0  501  0.00000000000E+00  0.00000000000E+00  0.12679199165E+04  0.12679199165E+04  0.25500000920E-02 0.  1.
        2   -1    0    0  501    0  0.00000000000E+00  0.00000000000E+00 -0.28529061804E+04  0.28529061804E+04  0.25500000920E-02 0. -1.
    10030    2    1    2    0    0  0.00000000000E+00  0.00000000000E+00 -0.15849862639E+04  0.41208260968E+04  0.38038173279E+04 0.  0.
        1    1    3    3  502    0 -0.54886558255E+03 -0.92952072991E+03  0.90389164839E+03  0.14079354840E+04  0.50400001928E-02 0.  1.
       -1    1    3    3    0  502  0.54886558255E+03  0.92952072991E+03 -0.24888779123E+04  0.27128906128E+04  0.50400001928E-02 0. -1.
</event>
<event>
 5   0  0.6661000E-08  0.3801431E+04  0.7818609E-02  0.8045848E-01
        1   -1    0    0  501    0  0.00000000000E+00  0.00000000000E+00  0.24422950262E+04  0.24422950262E+04  0.50400001928E-02 0. -1.
       -1   -1    0    0    0  501  0.00000000000E+00  0.00000000000E+00 -0.14792317384E+04  0.14792317384E+04  0.50400001928E-02 0.  1.
    10030    2    1    2    0    0  0.00000000000E+00  0.00000000000E+00  0.96306328783E+03  0.39215267646E+04  0.38014314763E+04 0.  0.
        2    1    3    3  502    0  0.75444056688E+03  0.17269926829E+04  0.73639131965E+03  0.20233527798E+04  0.25500000920E-02 0. -1.
       -2    1    3    3    0  502 -0.75444056688E+03 -0.17269926829E+04  0.22667196818E+03  0.18981739849E+04  0.25500000920E-02 0.  1.
</event>
<event>
 5   0  0.2205204E-07  0.3816447E+04  0.7818609E-02  0.8042634E-01
       -2   -1    0    0    0  501  0.00000000000E+00  0.00000000000E+00  0.18037617676E+04  0.18037617676E+04  0.25500000920E-02 0.  1.
        2   -1    0    0  501    0  0.00000000000E+00  0.00000000000E+00 -0.20187354719E+04  0.20187354719E+04  0.25500000920E-02 0. -1.
    10030    2    1    2    0    0  0.00000000000E+00  0.00000000000E+00 -0.21497370423E+03  0.38224972395E+04  0.38164474911E+04 0.  0.
        2    1    3    3  502    0 -0.88984277891E+03 -0.35906772148E+03 -0.17595159283E+04  0.20041572048E+04  0.25500000920E-02 0. -1.
       -2    1    3    3    0  502  0.88984277891E+03  0.35906772148E+03  0.15445422241E+04  0.18183400347E+04  0.25500000920E-02 0.  1.
</event>
<event>
 5   0  0.2081337E-07  0.3801949E+04  0.7818609E-02  0.8045737E-01
        2   -1    0    0  501    0  0.00000000000E+00  0.00000000000E+00  0.15525043911E+04  0.15525043911E+04  0.25500000920E-02 0.  1.
       -2   -1    0    0    0  501  0.00000000000E+00  0.00000000000E+00 -0.23276605187E+04  0.23276605187E+04  0.25500000920E-02 0. -1.
    10030    2    1    2    0    0  0.00000000000E+00  0.00000000000E+00 -0.77515612762E+03  0.38801649097E+04  0.38019485405E+04 0.  0.
        1    1    3    3  502    0 -0.11948895583E+04  0.11096121127E+04  0.60961238703E+03  0.17408697136E+04  0.50400001928E-02 0.  1.
       -1    1    3    3    0  502  0.11948895583E+04 -0.11096121127E+04 -0.13847685147E+04  0.21392951962E+04  0.50400001928E-02 0. -1.
</event>
<event>
 5   0  0.2203998E-07  0.3771904E+04  0.7818609E-02  0.8052211E-01
       -2   -1    0    0    0  501  0.00000000000E+00  0.00000000000E+00  0.21515733672E+04  0.21515733672E+04  0.25500000920E-02 0.  1.
        2   -1    0    0  501    0  0.00000000000E+00  0.00000000000E+00 -0.16531224627E+04  0.16531224627E+04  0.25500000920E-02 0. -1.
    10030    2    1    2    0    0  0.00000000000E+00  0.00000000000E+00  0.49845090453E+03  0.38046958299E+04  0.37719036379E+04 0.  0.
        3    1    3    3  502    0 -0.56276716116E+03 -0.11544212511E+04  0.16423257974E+04  0.20848571504E+04  0.10100000352E+00 0.  1.
       -3    1    3    3    0  502  0.56276716116E+03  0.11544212511E+04 -0.11438748929E+04  0.17198386795E+04  0.10100000352E+00 0. -1.
</event>
<event>
 5   0  0.2205204E-07  0.3773940E+04  0.7818609E-02  0.8051770E-01
        2   -1    0    0  501    0  0.00000000000E+00  0.00000000000E+00  0.21740807123E+04  0.21740807123E+04  0.25500000920E-02 0.  1.
       -2   -1    0    0    0  501  0.00000000000E+00  0.00000000000E+00 -0.16377754149E+04  0.16377754149E+04  0.25500000920E-02 0. -1.
    10030    2    1    2    0    0  0.00000000000E+00  0.00000000000E+00  0.53630529745E+03  0.38118561272E+04  0.37739400846E+04 0.  0.
        2    1    3    3  502    0 -0.13663714166E+04  0.36543605346E+03  0.15297579515E+04  0.20834283639E+04  0.25500000920E-02 0.  1.
       -2    1    3    3    0  502  0.13663714166E+04 -0.36543605346E+03 -0.99345265400E+03  0.17284277633E+04  0.25500000920E-02 0. -1.
</event>
<event>
 5   0  0.6725199E-08  0.3771168E+04  0.7818609E-02  0.8052371E-01
       -1   -1    0    0    0  501  0.00000000000E+00  0.00000000000E+00  0.12657886009E+04  0.12657886009E+04  0.50400001928E-02 0.  1.
        1   -1    0    0  501    0  0.00000000000E+00  0.00000000000E+00 -0.28088629571E+04  0.28088629571E+04  0.50400001928E-02 0. -1.
    10030    2    1    2    0    0  0.00000000000E+00  0.00000000000E+00 -0.15430743562E+04  0.40746515581E+04  0.37711678365E+04 0.  0.
        5    1    3    3  502    0 -0.20401212948E+03 -0.16477072018E+04 -0.17372450703E+04  0.24030402611E+04  0.46999998093E+01 0. -1.
       -5    1    3    3    0  502  0.20401212948E+03  0.16477072018E+04  0.19417071411E+03  0.16716112970E+04  0.46999998093E+01 0.  1.
</event>
<event>
 5   0  0.2135314E-07  0.3448794E+04  0.7818609E-02  0.8126033E-01
        2   -1    0    0  501    0  0.00000000000E+00  0.00000000000E+00  0.20391098215E+04  0.20391098215E+04  0.25500000920E-02 0.  1.
       -2   -1    0    0    0  501  0.00000000000E+00  0.00000000000E+00 -0.14582566521E+04  0.14582566521E+04  0.25500000920E-02 0. -1.
    10030    2    1    2    0    0  0.00000000000E+00  0.00000000000E+00  0.58085316940E+03  0.34973664736E+04  0.34487942597E+04 0.  0.
        4    1    3    3  502    0  0.16346925744E+04  0.25771804702E+03 -0.20106987799E+03  0.16670540223E+04  0.12699999809E+01 0. -1.
       -4    1    3    3    0  502 -0.16346925744E+04 -0.25771804702E+03  0.78192304740E+03  0.18303124513E+04  0.12699999809E+01 0.  1.
</event>
<event>
 5   0  0.6661000E-08  0.3800895E+04  0.7818609E-02  0.8045963E-01
       -1   -1    0    0    0  501  0.00000000000E+00  0.00000000000E+00  0.11909248939E+04  0.11909248939E+04  0.50400001928E-02 0. -1.
        1   -1    0    0  501    0  0.00000000000E+00  0.00000000000E+00 -0.30326854895E+04  0.30326854895E+04  0.50400001928E-02 0.  1.
    10030    2    1    2    0    0  0.00000000000E+00  0.00000000000E+00 -0.18417605956E+04  0.42236103834E+04  0.38008949708E+04 0.  0.
        1    1    3    3  502    0  0.50637684474E+02 -0.61698010420E+03 -0.29175052458E+04  0.29824596365E+04  0.50400001928E-02 0.  1.
       -1    1    3    3    0  502 -0.50637684474E+02  0.61698010420E+03  0.10757446502E+04  0.12411507469E+04  0.50400001928E-02 0. -1.
</event>
<event>
 5   0  0.6661000E-08  0.3782125E+04  0.7818609E-02  0.8050002E-01
        1   -1    0    0  501    0  0.00000000000E+00  0.00000000000E+00  0.29981360357E+04  0.29981360357E+04  0.50400001928E-02 0. -1.
       -1   -1    0    0    0  501  0.00000000000E+00  0.00000000000E+00 -0.11927800217E+04  0.11927800217E+04  0.50400001928E-02 0.  1.
    10030    2    1    2    0    0  0.00000000000E+00  0.00000000000E+00  0.18053560140E+04  0.41909160574E+04  0.37821246758E+04 0.  0.
        1    1    3    3  502    0  0.23158040390E+03  0.16748643538E+04  0.18411657081E+04  0.24997382367E+04  0.50400001928E-02 0. -1.
       -1    1    3    3    0  502 -0.23158040390E+03 -0.16748643538E+04 -0.35809694086E+02  0.16911778208E+04  0.50400001928E-02 0.  1.
</event>
<event>
 5   0  0.2203998E-07  0.3819961E+04  0.7818609E-02  0.8041885E-01
        2   -1    0    0  501    0  0.00000000000E+00  0.00000000000E+00  0.23507420762E+04  0.23507420762E+04  0.25500000920E-02 0.  1.
       -2   -1    0    0    0  501  0.00000000000E+00  0.00000000000E+00 -0.15518615244E+04  0.15518615244E+04  0.25500000920E-02 0. -1.
    10030    2    1    2    0    0  0.00000000000E+00  0.00000000000E+00  0.79888055185E+03  0.39026036006E+04  0.38199613516E+04 0.  0.
        3    1    3    3  502    0  0.72946037278E+03 -0.11004607854E+04  0.18094806224E+04  0.22399434164E+04  0.10100000352E+00 0.  1.
       -3    1    3    3    0  502 -0.72946037278E+03  0.11004607854E+04 -0.10106000705E+04  0.16626601843E+04  0.10100000352E+00 0. -1.
</event>
<event>
 5   0  0.6725199E-08  0.3805694E+04  0.7818609E-02  0.8044934E-01
        1   -1    0    0  501    0  0.00000000000E+00  0.00000000000E+00  0.15870053773E+04  0.15870053773E+04  0.50400001928E-02 0.  1.
       -1   -1    0    0    0  501  0.00000000000E+00  0.00000000000E+00 -0.22815466427E+04  0.22815466427E+04  0.50400001928E-02 0. -1.
    10030    2    1    2    0    0  0.00000000000E+00  0.00000000000E+00 -0.69454126540E+03  0.38685520200E+04  0.38056940448E+04 0.  0.
        5    1    3    3  502    0 -0.49129660932E+03 -0.96247329263E+03 -0.19393701304E+04  0.22201139137E+04  0.46999998093E+01 0. -1.
       -5    1    3    3    0  502  0.49129660932E+03  0.96247329263E+03  0.12448288650E+04  0.16484381063E+04  0.46999998093E+01 0.  1.
</event>
<event>
 5   0  0.6661000E-08  0.3781316E+04  0.7818609E-02  0.8050176E-01
        1   -1    0    0  501    0  0.00000000000E+00  0.00000000000E+00  0.20997144122E+04  0.20997144122E+04  0.50400001928E-02 0. -1.
       -1   -1    0    0    0  501  0.00000000000E+00  0.00000000000E+00 -0.17024161886E+04  0.17024161886E+04  0.50400001928E-02 0.  1.
    10030    2    1    2    0    0  0.00000000000E+00  0.00000000000E+00  0.39729822360E+03  0.38021306009E+04  0.37813160709E+04 0.  0.
        3    1    3    3  502    0  0.15790081639E+04  0.10368609244E+04  0.27808039922E+03  0.19093653597E+04  0.10100000352E+00 0. -1.
       -3    1    3    3    0  502 -0.15790081639E+04 -0.10368609244E+04  0.11921782438E+03  0.18927652412E+04  0.10100000352E+00 0.  1.
</event>
<event>
 5   0  0.6661000E-08  0.3843104E+04  0.7818609E-02  0.8036968E-01
       -1   -1    0    0    0  501  0.00000000000E+00  0.00000000000E+00  0.14389138406E+04  0.14389138406E+04  0.50400001928E-02 0.  1.
        1   -1    0    0  501    0  0.00000000000E+00  0.00000000000E+00 -0.25660753500E+04  0.25660753500E+04  0.50400001928E-02 0. -1.
    10030    2    1    2    0    0  0.00000000000E+00  0.00000000000E+00 -0.11271615094E+04  0.40049891906E+04  0.38431036088E+04 0.  0.
        4    1    3    3  502    0 -0.82131387932E+03 -0.17284877100E+04 -0.74448295250E+03  0.20534075902E+04  0.12699999809E+01 0. -1.
       -4    1    3    3    0  502  0.82131387932E+03  0.17284877100E+04 -0.38267855694E+03  0.19515816004E+04  0.12699999809E+01 0.  1.
</event>
<event>
 5   0  0.6725199E-08  0.3802521E+04  0.7818609E-02  0.8045614E-01
        1   -1    0    0  501    0  0.00000000000E+00  0.00000000000E+00  0.18933609596E+04  0.18933609596E+04  0.50400001928E-02 0. -1.
       -1   -1    0    0    0  501  0.00000000000E+00  0.00000000000E+00 -0.19091930815E+04  0.19091930815E+04  0.50400001928E-02 0.  1.
    10030    2    1    2    0    0  0.00000000000E+00  0.00000000000E+00 -0.15832121839E+02  0.38025540411E+04  0.38025210821E+04 0.  0.
        5    1    3    3  502    0 -0.94835641526E+03 -0.15864870741E+04 -0.45339543034E+03  0.19031317960E+04  0.46999998093E+01 0.  1.
       -5    1    3    3    0  502  0.94835641526E+03  0.15864870741E+04  0.43756330850E+03  0.18994222452E+04  0.46999998093E+01 0. -1.
</event>
<event>
 5   0  0.6661000E-08  0.3368857E+04  0.7818609E-02  0.8145592E-01
        1   -1    0    0  501    0  0.00000000000E+00  0.00000000000E+00  0.26352059849E+04  0.26352059849E+04  0.50400001928E-02 0.  1.
       -1   -1    0    0    0  501  0.00000000000E+00  0.00000000000E+00 -0.10766895243E+04  0.10766895243E+04  0.50400001928E-02 0. -1.
    10030    2    1    2    0    0  0.00000000000E+00  0.00000000000E+00  0.15585164606E+04  0.37118955092E+04  0.33688565884E+04 0.  0.
        4    1    3    3  502    0 -0.12341836670E+03 -0.16445453413E+04  0.11570025302E+04  0.20145515482E+04  0.12699999809E+01 0.  1.
       -4    1    3    3    0  502  0.12341836670E+03  0.16445453413E+04  0.40151393044E+03  0.16973439610E+04  0.12699999809E+01 0. -1.
</event>
<event>
 5   0  0.2203998E-07  0.3764862E+04  0.7818609E-02  0.8053738E-01
        2   -1    0    0  501    0  0.00000000000E+00  0.00000000000E+00  0.32496902980E+04  0.32496902980E+04  0.25500000920E-02 0. -1.
       -2   -1    0    0    0  501  0.00000000000E+00  0.00000000000E+00 -0.10904256962E+04  0.10904256962E+04  0.25500000920E-02 0.  1.
    10030    2    1    2    0    0  0.00000000000E+00  0.00000000000E+00  0.21592646018E+04  0.43401159942E+04  0.37648616472E+04 0.  0.
        3    1    3    3  502    0  0.74849426774E+02 -0.17155361942E+04  0.19687650508E+04  0.26124131958E+04  0.10100000352E+00 0. -1.
       -3    1    3    3    0  502 -0.74849426774E+02  0.17155361942E+04  0.19049955097E+03  0.17277027983E+04  0.10100000352E+00 0.  1.
</event>
<event>
 5   0  0.6661000E-08  0.3788857E+04  0.7818609E-02  0.8048550E-01
       -1   -1    0    0    0  501  0.00000000000E+00  0.00000000000E+00  0.25701817279E+04  0.25701817279E+04  0.50400001928E-02 0.  1.
        1   -1    0    0  501    0  0.00000000000E+00  0.00000000000E+00 -0.13963449284E+04  0.13963449284E+04  0.50400001928E-02 0. -1.
    10030    2    1    2    0    0  0.00000000000E+00  0.00000000000E+00  0.11738367996E+04  0.39665266563E+04  0.37888574641E+04 0.  0.
        4    1    3    3  502    0  0.15604030169E+04  0.10011862688E+04  0.99457127192E+03  0.21039023618E+04  0.12699999809E+01 0.  1.
       -4    1    3    3    0  502 -0.15604030169E+04 -0.10011862688E+04  0.17926552766E+03  0.18626242945E+04  0.12699999809E+01 0. -1.
</event>
<event>
 5   0  0.2203998E-07  0.3798111E+04  0.7818609E-02  0.8046560E-01
        2   -1    0    0  501    0  0.00000000000E+00  0.00000000000E+00  0.10779619920E+04  0.10779619920E+04  0.25500000920E-02 0.  1.
       -2   -1    0    0    0  501  0.00000000000E+00  0.00000000000E+00 -0.33455832883E+04  0.33455832883E+04  0.25500000920E-02 0. -1.
    10030    2    1    2    0    0  0.00000000000E+00  0.00000000000E+00 -0.22676212962E+04  0.44235452803E+04  0.37981109125E+04 0.  0.
        3    1    3    3  502    0 -0.60489390371E+03 -0.14052661148E+04 -0.24441248608E+04  0.28834728772E+04  0.10100000352E+00 0. -1.
       -3    1    3    3    0  502  0.60489390371E+03  0.14052661148E+04  0.17650356458E+03  0.15400724031E+04  0.10100000352E+00 0.  1.
</event>
<event>
 5   0  0.2135314E-07  0.3797739E+04  0.7818609E-02  0.8046640E-01
        2   -1    0    0  501    0  0.00000000000E+00  0.00000000000E+00  0.18143367562E+04  0.18143367562E+04  0.25500000920E-02 0.  1.
       -2   -1    0    0    0  501  0.00000000000E+00  0.00000000000E+00 -0.19873407553E+04  0.19873407553E+04  0.25500000920E-02 0. -1.
    10030    2    1    2    0    0  0.00000000000E+00  0.00000000000E+00 -0.17300399907E+03  0.38016775116E+04  0.37977390008E+04 0.  0.
        4    1    3    3  502    0  0.37791865238E+02  0.69578577581E+03  0.16817266843E+04  0.18203714798E+04  0.12699999809E+01 0.  1.
       -4    1    3    3    0  502 -0.37791865238E+02 -0.69578577581E+03 -0.18547306833E+04  0.19813060318E+04  0.12699999809E+01 0. -1.
</event>
<event>
 5   0  0.6661000E-08  0.3807839E+04  0.7818609E-02  0.8044475E-01
       -1   -1    0    0    0  501  0.00000000000E+00  0.00000000000E+00  0.18831662872E+04  0.18831662872E+04  0.50400001928E-02 0. -1.
        1   -1    0    0  501    0  0.00000000000E+00  0.00000000000E+00 -0.19249018992E+04  0.19249018992E+04  0.50400001928E-02 0.  1.
    10030    2    1    2    0    0  0.00000000000E+00  0.00000000000E+00 -0.41735612010E+02  0.38080681864E+04  0.38078394728E+04 0.  0.
        4    1    3    3  502    0  0.15111195995E+04  0.11272048176E+04  0.24529777103E+03  0.19011169754E+04  0.12699999809E+01 0.  1.
       -4    1    3    3    0  502 -0.15111195995E+04 -0.11272048176E+04 -0.28703338304E+03  0.19069512109E+04  0.12699999809E+01 0. -1.
</event>
<event>
 5   0  0.6661000E-08  0.3634744E+04  0.7818609E-02  0.8082579E-01
       -1   -1    0    0    0  501  0.00000000000E+00  0.00000000000E+00  0.12737807668E+04  0.12737807668E+04  0.50400001928E-02 0.  1.
        1   -1    0    0  501    0  0.00000000000E+00  0.00000000000E+00 -0.25929424820E+04  0.25929424821E+04  0.50400001928E-02 0. -1.
    10030    2    1    2    0    0  0.00000000000E+00  0.00000000000E+00 -0.13191617153E+04  0.38667232488E+04  0.36347436020E+04 0.  0.
        1    1    3    3  502    0  0.10289197740E+03 -0.52041221519E+03  0.11895821272E+04  0.13025057659E+04  0.50400001928E-02 0.  1.
       -1    1    3    3    0  502 -0.10289197740E+03  0.52041221519E+03 -0.25087438425E+04  0.25642174830E+04  0.50400001928E-02 0. -1.
</event>
<event>
 5   0  0.2205204E-07  0.3817119E+04  0.7818609E-02  0.8042491E-01
       -2   -1    0    0    0  501  0.00000000000E+00  0.00000000000E+00  0.17512453785E+04  0.17512453785E+04  0.25500000920E-02 0.  1.
        2   -1    0    0  501    0  0.00000000000E+00  0.00000000000E+00 -0.20800049976E+04  0.20800049976E+04  0.25500000920E-02 0. -1.
    10030    2    1    2    0    0  0.00000000000E+00  0.00000000000E+00 -0.32875961904E+03  0.38312503761E+04  0.38171188817E+04 0.  0.
        2    1    3    3  502    0 -0.37186538475E+03  0.62639477082E+03  0.16062215589E+04  0.17636898734E+04  0.25500000920E-02 0.  1.
       -2    1    3    3    0  502  0.37186538475E+03 -0.62639477082E+03 -0.19349811779E+04  0.20675605027E+04  0.25500000920E-02 0. -1.
</event>
<event>
 5   0  0.2203998E-07  0.3795540E+04  0.7818609E-02  0.8047113E-01
       -2   -1    0    0    0  501  0.00000000000E+00  0.00000000000E+00  0.16566376880E+04  0.16566376880E+04  0.25500000920E-02 0.  1.
        2   -1    0    0  501    0  0.00000000000E+00  0.00000000000E+00 -0.21740001532E+04  0.21740001532E+04  0.25500000920E-02 0. -1.
    10030    2    1    2    0    0  0.00000000000E+00  0.00000000000E+00 -0.51736246519E+03  0.38306378411E+04  0.37955397968E+04 0.  0.
        3    1    3    3  502    0 -0.11836832417E+02 -0.16720619869E+04 -0.11645328257E+04  0.20376624134E+04  0.10100000352E+00 0. -1.
       -3    1    3    3    0  502  0.11836832417E+02  0.16720619869E+04  0.64717036055E+03  0.17929754277E+04  0.10100000352E+00 0.  1.
</event>
<event>
 5   0  0.6661000E-08  0.3791342E+04  0.7818609E-02  0.8048015E-01
       -1   -1    0    0    0  501  0.00000000000E+00  0.00000000000E+00  0.23178668546E+04  0.23178668546E+04  0.50400001928E-02 0. -1.
        1   -1    0    0  501    0  0.00000000000E+00  0.00000000000E+00 -0.15503773237E+04  0.15503773237E+04  0.50400001928E-02 0.  1.
    10030    2    1    2    0    0  0.00000000000E+00  0.00000000000E+00  0.76748953087E+03  0.38682441783E+04  0.37913418262E+04 0.  0.
        4    1    3    3  502    0  0.90911480740E+03  0.16615953773E+04  0.30355237155E+03  0.19182112986E+04  0.12699999809E+01 0. -1.
       -4    1    3    3    0  502 -0.90911480740E+03 -0.16615953773E+04  0.46393715932E+03  0.19500328797E+04  0.12699999809E+01 0.  1.
</event>
<event>
 5   0  0.6661000E-08  0.3762796E+04  0.7818609E-02  0.8054186E-01
       -1   -1    0    0    0  501  0.00000000000E+00  0.00000000000E+00  0.19211065638E+04  0.19211065638E+04  0.50400001928E-02 0. -1.
        1   -1    0    0  501    0  0.00000000000E+00  0.00000000000E+00 -0.18425098687E+04  0.18425098687E+04  0.50400001928E-02 0.  1.
    10030    2    1    2    0    0  0.00000000000E+00  0.00000000000E+00  0.78596695153E+02  0.37636164325E+04  0.37627956642E+04 0.  0.
        2    1    3    3  502    0  0.44507191907E+03  0.95652275462E+03  0.15974035284E+04  0.19143465793E+04  0.25500000920E-02 0. -1.
       -2    1    3    3    0  502 -0.44507191907E+03 -0.95652275462E+03 -0.15188068332E+04  0.18492698532E+04  0.25500000920E-02 0.  1.
</event>
<event>
 5   0  0.6661000E-08  0.3807517E+04  0.7818609E-02  0.8044544E-01
       -1   -1    0    0    0  501  0.00000000000E+00  0.00000000000E+00  0.15359295857E+04  0.15359295857E+04  0.50400001928E-02 0. -1.
        1   -1    0    0  501    0  0.00000000000E+00  0.00000000000E+00 -0.23596755606E+04  0.23596755606E+04  0.50400001928E-02 0.  1.
    10030    2    1    2    0    0  0.00000000000E+00  0.00000000000E+00 -0.82374597483E+03  0.38956051463E+04  0.38075165167E+04 0.  0.
        1    1    3    3  502    0  0.12587423487E+04  0.64205300725E+02 -0.18716764331E+04  0.22564856063E+04  0.50400001928E-02 0.  1.
       -1    1    3    3    0  502 -0.12587423487E+04 -0.64205300725E+02  0.10479304582E+04  0.16391195400E+04  0.50400001928E-02 0. -1.
</event>
<event>
 5   0  0.2205204E-07  0.3795933E+04  0.7818609E-02  0.8047028E-01
       -2   -1    0    0    0  501  0.00000000000E+00  0.00000000000E+00  0.22193390223E+04  0.22193390223E+04  0.25500000920E-02 0.  1.
        2   -1    0    0  501    0  0.00000000000E+00  0.00000000000E+00 -0.16231305045E+04  0.16231305045E+04  0.25500000920E-02 0. -1.
    10030    2    1    2    0    0  0.00000000000E+00  0.00000000000E+00  0.59620851785E+03  0.38424695268E+04  0.37959330167E+04 0.  0.
        2    1    3    3  502    0 -0.83677084951E+03  0.15409621819E+04 -0.43711051275E+03  0.18071567450E+04  0.25500000920E-02 0.  1.
       -2    1    3    3    0  502  0.83677084951E+03 -0.15409621819E+04  0.10333190306E+04  0.20353127818E+04  0.25500000920E-02 0. -1.
</event>
<event>
 5   0  0.6661000E-08  0.3786495E+04  0.7818609E-02  0.8049059E-01
       -1   -1    0    0    0  501  0.00000000000E+00  0.00000000000E+00  0.23555394805E+04  0.23555394805E+04  0.50400001928E-02 0. -1.
        1   -1    0    0  501    0  0.00000000000E+00  0.00000000000E+00 -0.15216839667E+04  0.15216839667E+04  0.50400001928E-02 0.  1.
    10030    2    1    2    0    0  0.00000000000E+00  0.00000000000E+00  0.83385551388E+03  0.38772234472E+04  0.37864952980E+04 0.  0.
        3    1    3    3  502    0 -0.80429886503E+03 -0.35462684373E+03 -0.13000718649E+04  0.15693449992E+04  0.10100000352E+00 0.  1.
       -3    1    3    3    0  502  0.80429886503E+03  0.35462684373E+03  0.21339273788E+04  0.23078784480E+04  0.10100000352E+00 0. -1.
</event>
<event>
 5   0  0.6661000E-08  0.3802155E+04  0.7818609E-02  0.8045692E-01
        1   -1    0    0  501    0  0.00000000000E+00  0.00000000000E+00  0.21661365812E+04  0.21661365812E+04  0.50400001928E-02 0. -1.
       -1   -1    0    0    0  501  0.00000000000E+00  0.00000000000E+00 -0.16684527092E+04  0.16684527092E+04  0.50400001928E-02 0.  1.
    10030    2    1    2    0    0  0.00000000000E+00  0.00000000000E+00  0.49768387195E+03  0.38345892904E+04  0.38021554137E+04 0.  0.
        1    1    3    3  502    0  0.79518350044E+03 -0.11166100694E+04  0.15772574039E+04  0.20897071002E+04  0.50400001928E-02 0. -1.
       -1    1    3    3    0  502 -0.79518350044E+03  0.11166100694E+04 -0.10795735320E+04  0.17448821902E+04  0.50400001928E-02 0.  1.
</event>
<event>
 5   0  0.2203998E-07  0.3825768E+04  0.7818609E-02  0.8040648E-01
        2   -1    0    0  501    0  0.00000000000E+00  0.00000000000E+00  0.27364264246E+04  0.27364264246E+04  0.25500000920E-02 0.  1.
       -2   -1    0    0    0  501  0.00000000000E+00  0.00000000000E+00 -0.13371912476E+04  0.13371912476E+04  0.25500000920E-02 0. -1.
    10030    2    1    2    0    0  0.00000000000E+00  0.00000000000E+00  0.13992351770E+04  0.40736176722E+04  0.38257681397E+04 0.  0.
        3    1    3    3  502    0 -0.98303022427E+03 -0.79658997854E+03  0.22272106205E+04  0.25615173577E+04  0.10100000352E+00 0.  1.
       -3    1    3    3    0  502  0.98303022427E+03  0.79658997854E+03 -0.82797544350E+03  0.15121003145E+04  0.10100000352E+00 0. -1.
</event>
<event>
 5   0  0.2203998E-07  0.3800362E+04  0.7818609E-02  0.8046077E-01
        2   -1    0    0  501    0  0.00000000000E+00  0.00000000000E+00  0.22097316841E+04  0.22097316841E+04  0.25500000920E-02 0. -1.
       -2   -1    0    0    0  501  0.00000000000E+00  0.00000000000E+00 -0.16339933691E+04  0.16339933691E+04  0.25500000920E-02 0.  1.
    10030    2    1    2    0    0  0.00000000000E+00  0.00000000000E+00  0.57573831505E+03  0.38437250532E+04  0.38003615192E+04 0.  0.
        3    1    3    3  502    0  0.17350506236E+04  0.76655107807E+03  0.40178507312E+03  0.19389255986E+04  0.10100000352E+00 0. -1.
       -3    1    3    3    0  502 -0.17350506236E+04 -0.76655107807E+03  0.17395324193E+03  0.19047994546E+04  0.10100000352E+00 0.  1.
</event>
<event>
 5   0  0.6661000E-08  0.3815404E+04  0.7818609E-02  0.8042857E-01
        1   -1    0    0  501    0  0.00000000000E+00  0.00000000000E+00  0.18069148699E+04  0.18069148699E+04  0.50400001928E-02 0. -1.
       -1   -1    0    0    0  501  0.00000000000E+00  0.00000000000E+00 -0.20141105303E+04  0.20141105303E+04  0.50400001928E-02 0.  1.
    10030    2    1    2    0    0  0.00000000000E+00  0.00000000000E+00 -0.20719566041E+03  0.38210254002E+04  0.38154036572E+04 0.  0.
        4    1    3    3  502    0 -0.40793172795E+03  0.77689299723E+03  0.15928146969E+04  0.18185244830E+04  0.12699999809E+01 0. -1.
       -4    1    3    3    0  502  0.40793172795E+03 -0.77689299723E+03 -0.18000103573E+04  0.20025009171E+04  0.12699999809E+01 0.  1.
</event>
<event>
 5   0  0.2081337E-07  0.3826675E+04  0.7818609E-02  0.8040455E-01
        2   -1    0    0  501    0  0.00000000000E+00  0.00000000000E+00  0.12559392166E+04  0.12559392166E+04  0.25500000920E-02 0. -1.
       -2   -1    0    0    0  501  0.00000000000E+00  0.00000000000E+00 -0.29148387103E+04  0.29148387103E+04  0.25500000920E-02 0.  1.
    10030    2    1    2    0    0  0.00000000000E+00  0.00000000000E+00 -0.16588994937E+04  0.41707779269E+04  0.38266749255E+04 0.  0.
        1    1    3    3  502    0  0.80966544538E+03  0.62872860782E+03 -0.25902737644E+04  0.27857451374E+04  0.50400001928E-02 0.  1.
       -1    1    3    3    0  502 -0.80966544538E+03 -0.62872860782E+03  0.93137427075E+03  0.13850327895E+04  0.50400001928E-02 0. -1.
</event>
<event>
 5   0  0.6661000E-08  0.3819868E+04  0.7818609E-02  0.8041905E-01
        1   -1    0    0  501    0  0.00000000000E+00  0.00000000000E+00  0.15937107609E+04  0.15937107609E+04  0.50400001928E-02 0. -1.
       -1   -1    0    0    0  501  0.00000000000E+00  0.00000000000E+00 -0.22889018305E+04  0.22889018305E+04  0.50400001928E-02 0.  1.
    10030    2    1    2    0    0  0.00000000000E+00  0.00000000000E+00 -0.69519106958E+03  0.38826125915E+04  0.38198677873E+04 0.  0.
        2    1    3    3  502    0  0.11657783595E+04  0.79484155713E+03  0.96080765263E+03  0.17070335760E+04  0.25500000920E-02 0. -1.
       -2    1    3    3    0  502 -0.11657783595E+04 -0.79484155713E+03 -0.16559987222E+04  0.21755790154E+04  0.25500000920E-02 0.  1.
</event>
<event>
 5   0  0.6661000E-08  0.3775431E+04  0.7818609E-02  0.8051448E-01
       -1   -1    0    0    0  501  0.00000000000E+00  0.00000000000E+00  0.13927779169E+04  0.13927779169E+04  0.50400001928E-02 0. -1.
        1   -1    0    0  501    0  0.00000000000E+00  0.00000000000E+00 -0.25585339639E+04  0.25585339639E+04  0.50400001928E-02 0.  1.
    10030    2    1    2    0    0  0.00000000000E+00  0.00000000000E+00 -0.11657560470E+04  0.39513118808E+04  0.37754308918E+04 0.  0.
        1    1    3    3  502    0  0.28249850646E+03  0.18592422435E+04 -0.75447492307E+03  0.20262821955E+04  0.50400001928E-02 0.  1.
       -1    1    3    3    0  502 -0.28249850646E+03 -0.18592422435E+04 -0.41128112397E+03  0.19250296853E+04  0.50400001928E-02 0. -1.
</event>
<event>
 5   0  0.1370688E-07  0.3647394E+04  0.7818609E-02  0.8079721E-01
        2   -1    0    0  501    0  0.00000000000E+00  0.00000000000E+00  0.19537251577E+04  0.19537251577E+04  0.25500000920E-02 0.  1.
       -2   -1    0    0    0  501  0.00000000000E+00  0.00000000000E+00 -0.17023228293E+04  0.17023228293E+04  0.25500000920E-02 0. -1.
    10030    2    1    2    0    0  0.00000000000E+00  0.00000000000E+00  0.25140232838E+03  0.36560479870E+04  0.36473941044E+04 0.  0.
        5    1    3    3  502    0 -0.13507633599E+04  0.11195545010E+04  0.62476286612E+03  0.18623411782E+04  0.46999998093E+01 0. -1.
       -5    1    3    3    0  502  0.13507633599E+04 -0.11195545010E+04 -0.37336053775E+03  0.17937068089E+04  0.46999998093E+01 0.  1.
</event>
<event>
 5   0  0.2081337E-07  0.3852854E+04  0.7818609E-02  0.8034907E-01
        2   -1    0    0  501    0  0.00000000000E+00  0.00000000000E+00  0.16491517287E+04  0.16491517287E+04  0.25500000920E-02 0.  1.
       -2   -1    0    0    0  501  0.00000000000E+00  0.00000000000E+00 -0.22503215822E+04  0.22503215822E+04  0.25500000920E-02 0. -1.
    10030    2    1    2    0    0  0.00000000000E+00  0.00000000000E+00 -0.60116985347E+03  0.38994733109E+04  0.38528543847E+04 0.  0.
        1    1    3    3  502    0  0.13498422126E+02 -0.17769489992E+04  0.45231925012E+03  0.18336637252E+04  0.50400001928E-02 0.  1.
       -1    1    3    3    0  502 -0.13498422126E+02  0.17769489992E+04 -0.10534891036E+04  0.20658095857E+04  0.50400001928E-02 0. -1.
</event>
<event>
 5   0  0.6661000E-08  0.3939884E+04  0.7818609E-02  0.8016785E-01
        1   -1    0    0  501    0  0.00000000000E+00  0.00000000000E+00  0.24670973033E+04  0.24670973033E+04  0.50400001928E-02 0.  1.
       -1   -1    0    0    0  501  0.00000000000E+00  0.00000000000E+00 -0.15729702794E+04  0.15729702794E+04  0.50400001928E-02 0. -1.
    10030    2    1    2    0    0  0.00000000000E+00  0.00000000000E+00  0.89412702399E+03  0.40400675827E+04  0.39398836198E+04 0.  0.
        2    1    3    3  502    0  0.91110625114E+03  0.10446062035E+04 -0.98829930641E+03  0.17023666586E+04  0.25500000920E-02 0. -1.
       -2    1    3    3    0  502 -0.91110625114E+03 -0.10446062035E+04  0.18824263304E+04  0.23377009241E+04  0.25500000920E-02 0.  1.
</event>
<event>
 5   0  0.6661000E-08  0.3805964E+04  0.7818609E-02  0.8044876E-01
       -1   -1    0    0    0  501  0.00000000000E+00  0.00000000000E+00  0.11498514789E+04  0.11498514789E+04  0.50400001928E-02 0. -1.
        1   -1    0    0  501    0  0.00000000000E+00  0.00000000000E+00 -0.31493982256E+04  0.31493982256E+04  0.50400001928E-02 0.  1.
    10030    2    1    2    0    0  0.00000000000E+00  0.00000000000E+00 -0.19995467467E+04  0.42992497045E+04  0.38059638503E+04 0.  0.
        2    1    3    3  502    0  0.92479199980E+03 -0.33557557583E+03 -0.28398531689E+04  0.30054312887E+04  0.25500000920E-02 0.  1.
       -2    1    3    3    0  502 -0.92479199980E+03  0.33557557583E+03  0.84030642218E+03  0.12938184158E+04  0.25500000920E-02 0. -1.
</event>
<event>
 5   0  0.2205204E-07  0.3424722E+04  0.7818609E-02  0.8131865E-01
        2   -1    0    0  501    0  0.00000000000E+00  0.00000000000E+00  0.27227442142E+04  0.27227442142E+04  0.25500000920E-02 0.  1.
       -2   -1    0    0    0  501  0.00000000000E+00  0.00000000000E+00 -0.10769210909E+04  0.10769210909E+04  0.25500000920E-02 0. -1.
    10030    2    1    2    0    0  0.00000000000E+00  0.00000000000E+00  0.16458231233E+04  0.37996653051E+04  0.34247222774E+04 0.  0.
        2    1    3    3  502    0  0.28413279892E+03  0.65282062332E+03  0.25507392560E+04  0.26482403527E+04  0.25500000920E-02 0.  1.
       -2    1    3    3    0  502 -0.28413279892E+03 -0.65282062332E+03 -0.90491613272E+03  0.11514249524E+04  0.25500000920E-02 0. -1.
</event>
<event>
 5   0  0.6661000E-08  0.3803568E+04  0.7818609E-02  0.8045390E-01
        3   -1    0    0  501    0  0.00000000000E+00  0.00000000000E+00  0.20383754547E+04  0.20383754572E+04  0.10100000352E+00 0. -1.
       -3   -1    0    0    0  501  0.00000000000E+00  0.00000000000E+00 -0.17743457782E+04  0.17743457811E+04  0.10100000352E+00 0.  1.
    10030    2    1    2    0    0  0.00000000000E+00  0.00000000000E+00  0.26402967644E+03  0.38127212383E+04  0.38035682682E+04 0.  0.
        4    1    3    3  502    0  0.90880845364E+03  0.14394036452E+04 -0.71794401124E+03  0.18475012518E+04  0.12699999809E+01 0.  1.
       -4    1    3    3    0  502 -0.90880845364E+03 -0.14394036452E+04  0.98197368768E+03  0.19652199865E+04  0.12699999809E+01 0. -1.
</event>
<event>
 5   0  0.6661000E-08  0.3853626E+04  0.7818609E-02  0.8034744E-01
       -1   -1    0    0    0  501  0.00000000000E+00  0.00000000000E+00  0.11578873014E+04  0.11578873014E+04  0.50400001928E-02 0. -1.
        1   -1    0    0  501    0  0.00000000000E+00  0.00000000000E+00 -0.32063643497E+04  0.32063643497E+04  0.50400001928E-02 0.  1.
    10030    2    1    2    0    0  0.00000000000E+00  0.00000000000E+00 -0.20484770484E+04  0.43642516511E+04  0.38536261179E+04 0.  0.
        1    1    3    3  502    0  0.11834328779E+04 -0.56011329353E+03 -0.26251892765E+04  0.29335744435E+04  0.50400001928E-02 0.  1.
       -1    1    3    3    0  502 -0.11834328779E+04  0.56011329353E+03  0.57671222818E+03  0.14306772076E+04  0.50400001928E-02 0. -1.
</event>
<event>
 5   0  0.1370688E-07  0.3809736E+04  0.7818609E-02  0.8044069E-01
       -2   -1    0    0    0  501  0.00000000000E+00  0.00000000000E+00  0.13512663965E+04  0.13512663965E+04  0.25500000920E-02 0.  1.
        2   -1    0    0  501    0  0.00000000000E+00  0.00000000000E+00 -0.26852747623E+04  0.26852747623E+04  0.25500000920E-02 0. -1.
    10030    2    1    2    0    0  0.00000000000E+00  0.00000000000E+00 -0.13340083658E+04  0.40365411587E+04  0.38097357134E+04 0.  0.
        5    1    3    3  502    0 -0.46248265317E+03  0.47630986908E+03  0.12247114686E+04  0.13930906529E+04  0.46999998093E+01 0.  1.
       -5    1    3    3    0  502  0.46248265317E+03 -0.47630986908E+03 -0.25587198344E+04  0.26434505059E+04  0.46999998093E+01 0. -1.
</event>
<event>
 5   0  0.6661000E-08  0.3769778E+04  0.7818609E-02  0.8052672E-01
       -1   -1    0    0    0  501  0.00000000000E+00  0.00000000000E+00  0.14010115878E+04  0.14010115878E+04  0.50400001928E-02 0.  1.
        1   -1    0    0  501    0  0.00000000000E+00  0.00000000000E+00 -0.25358872361E+04  0.25358872361E+04  0.50400001928E-02 0. -1.
    10030    2    1    2    0    0  0.00000000000E+00  0.00000000000E+00 -0.11348756483E+04  0.39368988239E+04  0.37697784566E+04 0.  0.
        3    1    3    3  502    0 -0.83313152432E+03  0.14031895428E+04  0.41764889708E+03  0.16844820098E+04  0.10100000352E+00 0.  1.
       -3    1    3    3    0  502  0.83313152432E+03 -0.14031895428E+04 -0.15525245454E+04  0.22524168141E+04  0.10100000352E+00 0. -1.
</event>
<event>
 5   0  0.2205204E-07  0.3734539E+04  0.7818609E-02  0.8060350E-01
        2   -1    0    0  501    0  0.00000000000E+00  0.00000000000E+00  0.15298287634E+04  0.15298287634E+04  0.25500000920E-02 0. -1.
       -2   -1    0    0    0  501  0.00000000000E+00  0.00000000000E+00 -0.22791414886E+04  0.22791414886E+04  0.25500000920E-02 0.  1.
    10030    2    1    2    0    0  0.00000000000E+00  0.00000000000E+00 -0.74931272520E+03  0.38089702520E+04  0.37345394388E+04 0.  0.
        2    1    3    3  502    0 -0.21103042668E+03 -0.72472562493E+03 -0.21165992680E+04  0.22471656667E+04  0.25500000920E-02 0.  1.
       -2    1    3    3    0  502  0.21103042668E+03  0.72472562493E+03  0.13672865428E+04  0.15618045852E+04  0.25500000920E-02 0. -1.
</event>
<event>
 5   0  0.2135314E-07  0.3748714E+04  0.7818609E-02  0.8057251E-01
       -2   -1    0    0    0  501  0.00000000000E+00  0.00000000000E+00  0.25033077269E+04  0.25033077269E+04  0.25500000920E-02 0.  1.
        2   -1    0    0  501    0  0.00000000000E+00  0.00000000000E+00 -0.14034288396E+04  0.14034288396E+04  0.25500000920E-02 0. -1.
    10030    2    1    2    0    0  0.00000000000E+00  0.00000000000E+00  0.10998788873E+04  0.39067365666E+04  0.37487140507E+04 0.  0.
        4    1    3    3  502    0 -0.17499489697E+04 -0.65065914910E+03  0.72286765249E+03  0.20020534410E+04  0.12699999809E+01 0.  1.
       -4    1    3    3    0  502  0.17499489697E+04  0.65065914910E+03  0.37701123484E+03  0.19046831256E+04  0.12699999809E+01 0. -1.
</event>
<event>
 5   0  0.6661000E-08  0.3828406E+04  0.7818609E-02  0.8040086E-01
        1   -1    0    0  501    0  0.00000000000E+00  0.00000000000E+00  0.20459701433E+04  0.20459701434E+04  0.50400001928E-02 0. -1.
       -1   -1    0    0    0  501  0.00000000000E+00  0.00000000000E+00 -0.17909218578E+04  0.17909218578E+04  0.50400001928E-02 0.  1.
    10030    2    1    2    0    0  0.00000000000E+00  0.00000000000E+00  0.25504828555E+03  0.38368920012E+04  0.38284057518E+04 0.  0.
        1    1    3    3  502    0  0.63565690002E+03 -0.37627238184E+03 -0.16423269198E+04  0.18007993535E+04  0.50400001928E-02 0.  1.
       -1    1    3    3    0  502 -0.63565690002E+03  0.37627238184E+03  0.18973752054E+04  0.20360926477E+04  0.50400001928E-02 0. -1.
</event>
<event>
 5   0  0.2203998E-07  0.3790860E+04  0.7818609E-02  0.8048119E-01
        2   -1    0    0  501    0  0.00000000000E+00  0.00000000000E+00  0.20882458617E+04  0.20882458617E+04  0.25500000920E-02 0.  1.
       -2   -1    0    0    0  501  0.00000000000E+00  0.00000000000E+00 -0.17204175281E+04  0.17204175281E+04  0.25500000920E-02 0. -1.
    10030    2    1    2    0    0  0.00000000000E+00  0.00000000000E+00  0.36782833364E+03  0.38086633898E+04  0.37908599464E+04 0.  0.
        3    1    3    3  502    0 -0.73988675296E+03 -0.83476398525E+03 -0.13557290656E+04  0.17556379547E+04  0.10100000352E+00 0. -1.
       -3    1    3    3    0  502  0.73988675296E+03  0.83476398525E+03  0.17235573993E+04  0.20530254351E+04  0.10100000352E+00 0.  1.
</event>
<event>
 5   0  0.2205204E-07  0.3791346E+04  0.7818609E-02  0.8048015E-01
       -2   -1    0    0    0  501  0.00000000000E+00  0.00000000000E+00  0.19511724571E+04  0.19511724571E+04  0.25500000920E-02 0. -1.
        2   -1    0    0  501    0  0.00000000000E+00  0.00000000000E+00 -0.18417518200E+04  0.18417518200E+04  0.25500000920E-02 0.  1.
    10030    2    1    2    0    0  0.00000000000E+00  0.00000000000E+00  0.10942063709E+03  0.37929242772E+04  0.37913456314E+04 0.  0.
        2    1    3    3  502    0 -0.12600217960E+03  0.17649052227E+04 -0.62587319544E+03  0.18768282424E+04  0.25500000920E-02 0.  1.
       -2    1    3    3    0  502  0.12600217960E+03 -0.17649052227E+04  0.73529383253E+03  0.19160960348E+04  0.25500000920E-02 0. -1.
</event>
<event>
 5   0  0.6661000E-08  0.3794110E+04  0.7818609E-02  0.8047420E-01
       -1   -1    0    0    0  501  0.00000000000E+00  0.00000000000E+00  0.16732339155E+04  0.16732339155E+04  0.50400001928E-02 0.  1.
        1   -1    0    0  501    0  0.00000000000E+00  0.00000000000E+00 -0.21508160033E+04  0.21508160033E+04  0.50400001928E-02 0. -1.
    10030    2    1    2    0    0  0.00000000000E+00  0.00000000000E+00 -0.47758208783E+03  0.38240499188E+04  0.37941103214E+04 0.  0.
        3    1    3    3  502    0  0.46776178565E+03  0.25687881357E+03  0.15960221145E+04  0.16828768265E+04  0.10100000352E+00 0.  1.
       -3    1    3    3    0  502 -0.46776178565E+03 -0.25687881357E+03 -0.20736042023E+04  0.21411730923E+04  0.10100000352E+00 0. -1.
</event>
<event>
 5   0  0.6661000E-08  0.3547092E+04  0.7818609E-02  0.8102719E-01
        1   -1    0    0  501    0  0.00000000000E+00  0.00000000000E+00  0.20614942769E+04  0.20614942769E+04  0.50400001928E-02 0.  1.
       -1   -1    0    0    0  501  0.00000000000E+00  0.00000000000E+00 -0.15258184092E+04  0.15258184092E+04  0.50400001928E-02 0. -1.
    10030    2    1    2    0    0  0.00000000000E+00  0.00000000000E+00  0.53567586774E+03  0.35873126861E+04  0.35470922842E+04 0.  0.
        3    1    3    3  502    0 -0.10948065165E+04 -0.87817621102E+03  0.13644163030E+04  0.19574030306E+04  0.10100000352E+00 0.  1.
       -3    1    3    3    0  502  0.10948065165E+04  0.87817621102E+03 -0.82874043521E+03  0.16299096556E+04  0.10100000352E+00 0. -1.
</event>
<event>
 5   0  0.6661000E-08  0.3804604E+04  0.7818609E-02  0.8045168E-01
       -1   -1    0    0    0  501  0.00000000000E+00  0.00000000000E+00  0.29060298087E+04  0.29060298087E+04  0.50400001928E-02 0.  1.
        1   -1    0    0  501    0  0.00000000000E+00  0.00000000000E+00 -0.12452566427E+04  0.12452566427E+04  0.50400001928E-02 0. -1.
    10030    2    1    2    0    0  0.00000000000E+00  0.00000000000E+00  0.16607731660E+04  0.41512864514E+04  0.38046040126E+04 0.  0.
        4    1    3    3  502    0 -0.96929244081E+03 -0.58727720061E+03 -0.83668508162E+03  0.14087107172E+04  0.12699999809E+01 0. -1.
       -4    1    3    3    0  502  0.96929244081E+03  0.58727720061E+03  0.24974582476E+04  0.27425757341E+04  0.12699999809E+01 0.  1.
</event>
<event>
 5   0  0.2203998E-07  0.3713570E+04  0.7818609E-02  0.8064961E-01
        2   -1    0    0  501    0  0.00000000000E+00  0.00000000000E+00  0.21393737455E+04  0.21393737455E+04  0.25500000920E-02 0. -1.
       -2   -1    0    0    0  501  0.00000000000E+00  0.00000000000E+00 -0.16115231973E+04  0.16115231973E+04  0.25500000920E-02 0.  1.
    10030    2    1    2    0    0  0.00000000000E+00  0.00000000000E+00  0.52785054826E+03  0.37508969428E+04  0.37135699366E+04 0.  0.
        3    1    3    3  502    0 -0.87679140114E+03 -0.12862833099E+04  0.12862064387E+04  0.20193105080E+04  0.10100000352E+00 0. -1.
       -3    1    3    3    0  502  0.87679140114E+03  0.12862833099E+04 -0.75835589041E+03  0.17315864348E+04  0.10100000352E+00 0.  1.
</event>
<event>
 5   0  0.2205204E-07  0.3818353E+04  0.7818609E-02  0.8042228E-01
        2   -1    0    0  501    0  0.00000000000E+00  0.00000000000E+00  0.20013356982E+04  0.20013356982E+04  0.25500000920E-02 0. -1.
       -2   -1    0    0    0  501  0.00000000000E+00  0.00000000000E+00 -0.18212607448E+04  0.18212607448E+04  0.25500000920E-02 0.  1.
    10030    2    1    2    0    0  0.00000000000E+00  0.00000000000E+00  0.18007495341E+03  0.38225964431E+04  0.38183526000E+04 0.  0.
        2    1    3    3  502    0 -0.16158222390E+04  0.92130782624E+03  0.52093952213E+03  0.19315971641E+04  0.25500000920E-02 0.  1.
       -2    1    3    3    0  502  0.16158222390E+04 -0.92130782624E+03 -0.34086456872E+03  0.18909992789E+04  0.25500000920E-02 0. -1.
</event>
<event>
 5   0  0.2135314E-07  0.3801061E+04  0.7818609E-02  0.8045927E-01
       -2   -1    0    0    0  501  0.00000000000E+00  0.00000000000E+00  0.17233554147E+04  0.17233554147E+04  0.25500000920E-02 0. -1.
        2   -1    0    0  501    0  0.00000000000E+00  0.00000000000E+00 -0.20959208067E+04  0.20959208067E+04  0.25500000920E-02 0.  1.
    10030    2    1    2    0    0  0.00000000000E+00  0.00000000000E+00 -0.37256539199E+03  0.38192762215E+04  0.38010611525E+04 0.  0.
        4    1    3    3  502    0 -0.11795481261E+04 -0.13433571530E+04 -0.83441070418E+03  0.19728621489E+04  0.12699999809E+01 0.  1.
       -4    1    3    3    0  502  0.11795481261E+04  0.13433571530E+04  0.46184531220E+03  0.18464140726E+04  0.12699999809E+01 0. -1.
</event>
<event>
 5   0  0.6661000E-08  0.3827453E+04  0.7818609E-02  0.8040289E-01
        1   -1    0    0  501    0  0.00000000000E+00  0.00000000000E+00  0.14094436975E+04  0.14094436976E+04  0.50400001928E-02 0.  1.
       -1   -1    0    0    0  501  0.00000000000E+00  0.00000000000E+00 -0.25984353998E+04  0.25984353998E+04  0.50400001928E-02 0. -1.
    10030    2    1    2    0    0  0.00000000000E+00  0.00000000000E+00 -0.11889917022E+04  0.40078790973E+04  0.38274526242E+04 0.  0.
        2    1    3    3  502    0 -0.96891439182E+02  0.79857210727E+03 -0.24127975723E+04  0.25433634200E+04  0.25500000920E-02 0. -1.
       -2    1    3    3    0  502  0.96891439182E+02 -0.79857210727E+03  0.12238058700E+04  0.14645156773E+04  0.25500000920E-02 0.  1.
</event>
<event>
 5   0  0.6725199E-08  0.3865929E+04  0.7818609E-02  0.8032153E-01
       -1   -1    0    0    0  501  0.00000000000E+00  0.00000000000E+00  0.28640551607E+04  0.28640551607E+04  0.50400001928E-02 0.  1.
        1   -1    0    0  501    0  0.00000000000E+00  0.00000000000E+00 -0.13045666670E+04  0.13045666670E+04  0.50400001928E-02 0. -1.
    10030    2    1    2    0    0  0.00000000000E+00  0.00000000000E+00  0.15594884937E+04  0.41686218278E+04  0.38659285535E+04 0.  0.
        5    1    3    3  502    0  0.12741048855E+04 -0.12649632092E+03  0.23412236378E+04  0.26684630015E+04  0.46999998093E+01 0.  1.
       -5    1    3    3    0  502 -0.12741048855E+04  0.12649632092E+03 -0.78173514408E+03  0.15001588262E+04  0.46999998093E+01 0. -1.
</event>
<event>
 5   0  0.2203998E-07  0.3819924E+04  0.7818609E-02  0.8041893E-01
        2   -1    0    0  501    0  0.00000000000E+00  0.00000000000E+00  0.15316083428E+04  0.15316083428E+04  0.25500000920E-02 0.  1.
       -2   -1    0    0    0  501  0.00000000000E+00  0.00000000000E+00 -0.23817803063E+04  0.23817803064E+04  0.25500000920E-02 0. -1.
    10030    2    1    2    0    0  0.00000000000E+00  0.00000000000E+00 -0.85017196354E+03  0.39133886492E+04  0.38199238673E+04 0.  0.
        3    1    3    3  502    0  0.11551695140E+04  0.14225638428E+04  0.12646414623E+03  0.18368717111E+04  0.10100000352E+00 0.  1.
       -3    1    3    3    0  502 -0.11551695140E+04 -0.14225638428E+04 -0.97663610977E+03  0.20765169380E+04  0.10100000352E+00 0. -1.
</event>
<event>
 5   0  0.2205204E-07  0.3910793E+04  0.7818609E-02  0.8022788E-01
       -2   -1    0    0    0  501  0.00000000000E+00  0.00000000000E+00  0.31784586649E+04  0.31784586649E+04  0.25500000920E-02 0. -1.
        2   -1    0    0  501    0  0.00000000000E+00  0.00000000000E+00 -0.12029651115E+04  0.12029651115E+04  0.25500000920E-02 0.  1.
    10030    2    1    2    0    0  0.00000000000E+00  0.00000000000E+00  0.19754935533E+04  0.43814237764E+04  0.39107926983E+04 0.  0.
        2    1    3    3  502    0 -0.18752427290E+04  0.29068504705E+03  0.45923306823E+03  0.19524159650E+04  0.25500000920E-02 0.  1.
       -2    1    3    3    0  502  0.18752427290E+04 -0.29068504705E+03  0.15162604851E+04  0.24290078115E+04  0.25500000920E-02 0. -1.
</event>
<event>
 5   0  0.6661000E-08  0.3820324E+04  0.7818609E-02  0.8041807E-01
        1   -1    0    0  501    0  0.00000000000E+00  0.00000000000E+00  0.28711090631E+04  0.28711090631E+04  0.50400001928E-02 0. -1.
       -1   -1    0    0    0  501  0.00000000000E+00  0.00000000000E+00 -0.12708398388E+04  0.12708398388E+04  0.50400001928E-02 0.  1.
    10030    2    1    2    0    0  0.00000000000E+00  0.00000000000E+00  0.16002692242E+04  0.41419489019E+04  0.38203244778E+04 0.  0.
        1    1    3    3  502    0  0.23900659972E+03  0.17891128079E+04  0.12247740049E+03  0.18091571263E+04  0.50400001928E-02 0.  1.
       -1    1    3    3    0  502 -0.23900659972E+03 -0.17891128079E+04  0.14777918237E+04  0.23327917756E+04  0.50400001928E-02 0. -1.
</event>
<event>
 5   0  0.6661000E-08  0.3841514E+04  0.7818609E-02  0.8037304E-01
       -1   -1    0    0    0  501  0.00000000000E+00  0.00000000000E+00  0.14409523224E+04  0.14409523224E+04  0.50400001928E-02 0. -1.
        1   -1    0    0  501    0  0.00000000000E+00  0.00000000000E+00 -0.25603255520E+04  0.25603255520E+04  0.50400001928E-02 0.  1.
    10030    2    1    2    0    0  0.00000000000E+00  0.00000000000E+00 -0.11193732296E+04  0.40012778744E+04  0.38415137903E+04 0.  0.
        3    1    3    3  502    0 -0.72285133469E+03 -0.13939522307E+04 -0.17118977052E+04  0.23229745235E+04  0.10100000352E+00 0.  1.
       -3    1    3    3    0  502  0.72285133469E+03  0.13939522307E+04  0.59252447562E+03  0.16783033510E+04  0.10100000352E+00 0. -1.
</event>
<event>
 5   0  0.6661000E-08  0.3796234E+04  0.7818609E-02  0.8046964E-01
        1   -1    0    0  501    0  0.00000000000E+00  0.00000000000E+00  0.20964719706E+04  0.20964719706E+04  0.50400001928E-02 0. -1.
       -1   -1    0    0    0  501  0.00000000000E+00  0.00000000000E+00 -0.17185288782E+04  0.17185288782E+04  0.50400001928E-02 0.  1.
    10030    2    1    2    0    0  0.00000000000E+00  0.00000000000E+00  0.37794309235E+03  0.38150008488E+04  0.37962337251E+04 0.  0.
        2    1    3    3  502    0  0.11448842798E+04  0.84700646022E+03  0.14500327089E+04  0.20324307650E+04  0.25500000920E-02 0.  1.
       -2    1    3    3    0  502 -0.11448842798E+04 -0.84700646022E+03 -0.10720896165E+04  0.17825700838E+04  0.25500000920E-02 0. -1.
</event>
<event>
 5   0  0.6661000E-08  0.3840296E+04  0.7818609E-02  0.8037562E-01
        3   -1    0    0  501    0  0.00000000000E+00  0.00000000000E+00  0.12764050812E+04  0.12764050852E+04  0.10100000352E+00 0. -1.
       -3   -1    0    0    0  501  0.00000000000E+00  0.00000000000E+00 -0.28885564117E+04  0.28885564134E+04  0.10100000352E+00 0.  1.
    10030    2    1    2    0    0  0.00000000000E+00  0.00000000000E+00 -0.16121513305E+04  0.41649614987E+04  0.38402958705E+04 0.  0.
        4    1    3    3  502    0  0.66202671473E+03  0.61237724097E+03 -0.26445839913E+04  0.27941208557E+04  0.12699999809E+01 0.  1.
       -4    1    3    3    0  502 -0.66202671473E+03 -0.61237724097E+03  0.10324326609E+04  0.13708406430E+04  0.12699999809E+01 0. -1.
</event>
<event>
 5   0  0.6661000E-08  0.3820759E+04  0.7818609E-02  0.8041715E-01
       -1   -1    0    0    0  501  0.00000000000E+00  0.00000000000E+00  0.11421479179E+04  0.11421479179E+04  0.50400001928E-02 0. -1.
        1   -1    0    0  501    0  0.00000000000E+00  0.00000000000E+00 -0.31953383892E+04  0.31953383892E+04  0.50400001928E-02 0.  1.
    10030    2    1    2    0    0  0.00000000000E+00  0.00000000000E+00 -0.20531904713E+04  0.43374863071E+04  0.38207586096E+04 0.  0.
        1    1    3    3  502    0 -0.11534825458E+03 -0.15999318267E+04  0.15124902973E+03  0.16111993480E+04  0.50400001928E-02 0. -1.
       -1    1    3    3    0  502  0.11534825458E+03  0.15999318267E+04 -0.22044395010E+04  0.27262869591E+04  0.50400001928E-02 0.  1.
</event>
<event>
 5   0  0.2203998E-07  0.3812533E+04  0.7818609E-02  0.8043471E-01
       -2   -1    0    0    0  501  0.00000000000E+00  0.00000000000E+00  0.15349382754E+04  0.15349382754E+04  0.25500000920E-02 0. -1.
        2   -1    0    0  501    0  0.00000000000E+00  0.00000000000E+00 -0.23674254826E+04  0.23674254826E+04  0.25500000920E-02 0.  1.
    10030    2    1    2    0    0  0.00000000000E+00  0.00000000000E+00 -0.83248720725E+03  0.39023637580E+04  0.38125330097E+04 0.  0.
        3    1    3    3  502    0  0.14666209166E+04  0.65570218410E+03 -0.14665447201E+04  0.21752415253E+04  0.10100000352E+00 0.  1.
       -3    1    3    3    0  502 -0.14666209166E+04 -0.65570218410E+03  0.63405751280E+03  0.17271222328E+04  0.10100000352E+00 0. -1.
</event>
<event>
 5   0  0.6661000E-08  0.3796166E+04  0.7818609E-02  0.8046978E-01
        1   -1    0    0  501    0  0.00000000000E+00  0.00000000000E+00  0.10597419032E+04  0.10597419032E+04  0.50400001928E-02 0. -1.
       -1   -1    0    0    0  501  0.00000000000E+00  0.00000000000E+00 -0.33996202078E+04  0.33996202078E+04  0.50400001928E-02 0.  1.
    10030    2    1    2    0    0  0.00000000000E+00  0.00000000000E+00 -0.23398783046E+04  0.44593621110E+04  0.37961664817E+04 0.  0.
        2    1    3    3  502    0 -0.11110648613E+04  0.95381657746E+03  0.24872318259E+03  0.14852927021E+04  0.25500000920E-02 0. -1.
       -2    1    3    3    0  502  0.11110648613E+04 -0.95381657746E+03 -0.25886014872E+04  0.29740694089E+04  0.25500000920E-02 0.  1.
</event>
<event>
 5   0  0.2081337E-07  0.3788172E+04  0.7818609E-02  0.8048698E-01
       -2   -1    0    0    0  501  0.00000000000E+00  0.00000000000E+00  0.18246582677E+04  0.18246582677E+04  0.25500000920E-02 0.  1.
        2   -1    0    0  501    0  0.00000000000E+00  0.00000000000E+00 -0.19661557753E+04  0.19661557753E+04  0.25500000920E-02 0. -1.
    10030    2    1    2    0    0  0.00000000000E+00  0.00000000000E+00 -0.14149750757E+03  0.37908140430E+04  0.37881723250E+04 0.  0.
        1    1    3    3  502    0  0.11629282528E+04  0.13576465077E+04  0.55575191622E+03  0.18720219959E+04  0.50400001928E-02 0. -1.
       -1    1    3    3    0  502 -0.11629282528E+04 -0.13576465077E+04 -0.69724942380E+03  0.19187920470E+04  0.50400001928E-02 0.  1.
</event>
<event>
 5   0  0.6661000E-08  0.3807258E+04  0.7818609E-02  0.8044599E-01
       -1   -1    0    0    0  501  0.00000000000E+00  0.00000000000E+00  0.22168955820E+04  0.22168955821E+04  0.50400001928E-02 0. -1.
        1   -1    0    0  501    0  0.00000000000E+00  0.00000000000E+00 -0.16346299906E+04  0.16346299907E+04  0.50400001928E-02 0.  1.
    10030    2    1    2    0    0  0.00000000000E+00  0.00000000000E+00  0.58226559140E+03  0.38515255727E+04  0.38072583335E+04 0.  0.
        2    1    3    3  502    0  0.24740171073E+03  0.84234784933E+03 -0.14176027927E+04  0.16674397091E+04  0.25500000920E-02 0.  1.
       -2    1    3    3    0  502 -0.24740171073E+03 -0.84234784933E+03  0.19998683841E+04  0.21840858636E+04  0.25500000920E-02 0. -1.
</event>
<event>
 5   0  0.6661000E-08  0.3785938E+04  0.7818609E-02  0.8049179E-01
       -1   -1    0    0    0  501  0.00000000000E+00  0.00000000000E+00  0.14087780977E+04  0.14087780977E+04  0.50400001928E-02 0.  1.
        1   -1    0    0  501    0  0.00000000000E+00  0.00000000000E+00 -0.25435746885E+04  0.25435746886E+04  0.50400001928E-02 0. -1.
    10030    2    1    2    0    0  0.00000000000E+00  0.00000000000E+00 -0.11347965909E+04  0.39523527862E+04  0.37859383572E+04 0.  0.
        3    1    3    3  502    0 -0.15603346557E+04 -0.13692570706E+03 -0.16771089174E+04  0.22947956811E+04  0.10100000352E+00 0. -1.
       -3    1    3    3    0  502  0.15603346557E+04  0.13692570706E+03  0.54231232656E+03  0.16575571051E+04  0.10100000352E+00 0.  1.
</event>
<event>
 5   0  0.2081337E-07  0.3791410E+04  0.7818609E-02  0.8048001E-01
        2   -1    0    0  501    0  0.00000000000E+00  0.00000000000E+00  0.26145839125E+04  0.26145839125E+04  0.25500000920E-02 0. -1.
       -2   -1    0    0    0  501  0.00000000000E+00  0.00000000000E+00 -0.13744813765E+04  0.13744813765E+04  0.25500000920E-02 0.  1.
    10030    2    1    2    0    0  0.00000000000E+00  0.00000000000E+00  0.12401025360E+04  0.39890652890E+04  0.37914097089E+04 0.  0.
        1    1    3    3  502    0  0.11772012358E+04 -0.11705718268E+04 -0.34289756679E+03  0.16951754755E+04  0.50400001928E-02 0.  1.
       -1    1    3    3    0  502 -0.11772012358E+04  0.11705718268E+04  0.15830001027E+04  0.22938898135E+04  0.50400001928E-02 0. -1.
</event>
<event>
 5   0  0.6661000E-08  0.3766175E+04  0.7818609E-02  0.8053453E-01
       -1   -1    0    0    0  501  0.00000000000E+00  0.00000000000E+00  0.16039881300E+04  0.16039881300E+04  0.50400001928E-02 0. -1.
        1   -1    0    0  501    0  0.00000000000E+00  0.00000000000E+00 -0.22107511232E+04  0.22107511232E+04  0.50400001928E-02 0.  1.
    10030    2    1    2    0    0  0.00000000000E+00  0.00000000000E+00 -0.60676299316E+03  0.38147392532E+04  0.37661750145E+04 0.  0.
        4    1    3    3  502    0  0.11109002807E+03  0.12029260873E+04  0.11597677301E+04  0.16746447284E+04  0.12699999809E+01 0.  1.
       -4    1    3    3    0  502 -0.11109002807E+03 -0.12029260873E+04 -0.17665307232E+04  0.21400945248E+04  0.12699999809E+01 0. -1.
</event>
<event>
 5   0  0.2205204E-07  0.3738987E+04  0.7818609E-02  0.8059376E-01
       -2   -1    0    0    0  501  0.00000000000E+00  0.00000000000E+00  0.18041937696E+04  0.18041937696E+04  0.25500000920E-02 0. -1.
        2   -1    0    0  501    0  0.00000000000E+00  0.00000000000E+00 -0.19371561480E+04  0.19371561480E+04  0.25500000920E-02 0.  1.
    10030    2    1    2    0    0  0.00000000000E+00  0.00000000000E+00 -0.13296237844E+03  0.37413499176E+04  0.37389865221E+04 0.  0.
        2    1    3    3  502    0 -0.18481334358E+04 -0.21667539088E+03 -0.24676063784E+03  0.18770818400E+04  0.25500000920E-02 0. -1.
       -2    1    3    3    0  502  0.18481334358E+04  0.21667539088E+03  0.11379825939E+03  0.18642680777E+04  0.25500000920E-02 0.  1.
</event>
<event>
 5   0  0.6661000E-08  0.3824437E+04  0.7818609E-02  0.8040931E-01
        1   -1    0    0  501    0  0.00000000000E+00  0.00000000000E+00  0.14497331510E+04  0.14497331510E+04  0.50400001928E-02 0.  1.
       -1   -1    0    0    0  501  0.00000000000E+00  0.00000000000E+00 -0.25222434394E+04  0.25222434394E+04  0.50400001928E-02 0. -1.
    10030    2    1    2    0    0  0.00000000000E+00  0.00000000000E+00 -0.10725102884E+04  0.39719765904E+04  0.38244371764E+04 0.  0.
        3    1    3    3  502    0  0.45563558180E+03  0.18521910840E+04 -0.67699808370E+03  0.20239916034E+04  0.10100000352E+00 0. -1.
       -3    1    3    3    0  502 -0.45563558180E+03 -0.18521910840E+04 -0.39551220474E+03  0.19479849870E+04  0.10100000352E+00 0.  1.
</event>
<event>
 5   0  0.2203998E-07  0.3821487E+04  0.7818609E-02  0.8041559E-01
       -2   -1    0    0    0  501  0.00000000000E+00  0.00000000000E+00  0.14096647115E+04  0.14096647115E+04  0.25500000920E-02 0. -1.
        2   -1    0    0  501    0  0.00000000000E+00  0.00000000000E+00 -0.25899356193E+04  0.25899356194E+04  0.25500000920E-02 0.  1.
    10030    2    1    2    0    0  0.00000000000E+00  0.00000000000E+00 -0.11802709078E+04  0.39996003309E+04  0.38214870654E+04 0.  0.
        3    1    3    3  502    0 -0.13834049489E+04  0.13178029350E+04 -0.56610879338E+03  0.19927099649E+04  0.10100000352E+00 0.  1.
       -3    1    3    3    0  502  0.13834049489E+04 -0.13178029350E+04 -0.61416211443E+03  0.20068903660E+04  0.10100000352E+00 0. -1.
</event>
<event>
 5   0  0.6661000E-08  0.3794160E+04  0.7818609E-02  0.8047409E-01
       -1   -1    0    0    0  501  0.00000000000E+00  0.00000000000E+00  0.17328499218E+04  0.17328499218E+04  0.50400001928E-02 0.  1.
        1   -1    0    0  501    0  0.00000000000E+00  0.00000000000E+00 -0.20768746652E+04  0.20768746652E+04  0.50400001928E-02 0. -1.
    10030    2    1    2    0    0  0.00000000000E+00  0.00000000000E+00 -0.34402474333E+03  0.38097245870E+04  0.37941597759E+04 0.  0.
        2    1    3    3  502    0 -0.69870286875E+03 -0.17637227455E+04 -0.17493623987E+03  0.19051263239E+04  0.25500000920E-02 0.  1.
       -2    1    3    3    0  502  0.69870286875E+03  0.17637227455E+04 -0.16908850346E+03  0.19045982631E+04  0.25500000920E-02 0. -1.
</event>
<event>
 5   0  0.2205204E-07  0.3809779E+04  0.7818609E-02  0.8044060E-01
       -2   -1    0    0    0  501  0.00000000000E+00  0.00000000000E+00  0.18048405452E+04  0.18048405452E+04  0.25500000920E-02 0. -1.
        2   -1    0    0  501    0  0.00000000000E+00  0.00000000000E+00 -0.20104842438E+04  0.20104842438E+04  0.25500000920E-02 0.  1.
    10030    2    1    2    0    0  0.00000000000E+00  0.00000000000E+00 -0.20564369860E+03  0.38153247891E+04  0.38097787226E+04 0.  0.
        2    1    3    3  502    0  0.17035914637E+03  0.11876267963E+04 -0.15845445238E+04  0.19875263505E+04  0.25500000920E-02 0.  1.
       -2    1    3    3    0  502 -0.17035914637E+03 -0.11876267963E+04  0.13789008252E+04  0.18277984385E+04  0.25500000920E-02 0. -1.
</event>
<event>
 5   0  0.2081337E-07  0.3808124E+04  0.7818609E-02  0.8044414E-01
       -2   -1    0    0    0  501  0.00000000000E+00  0.00000000000E+00  0.13133658523E+04  0.13133658523E+04  0.25500000920E-02 0.  1.
        2   -1    0    0  501    0  0.00000000000E+00  0.00000000000E+00 -0.27604276246E+04  0.27604276246E+04  0.25500000920E-02 0. -1.
    10030    2    1    2    0    0  0.00000000000E+00  0.00000000000E+00 -0.14470617723E+04  0.40737934770E+04  0.38081236220E+04 0.  0.
        1    1    3    3  502    0 -0.10417757186E+04 -0.15937711935E+04 -0.71611047270E+03  0.20342609160E+04  0.50400001928E-02 0. -1.
       -1    1    3    3    0  502  0.10417757186E+04  0.15937711935E+04 -0.73095129959E+03  0.20395325610E+04  0.50400001928E-02 0.  1.
</event>
<event>
 5   0  0.6661000E-08  0.3764089E+04  0.7818609E-02  0.8053905E-01
        1   -1    0    0  501    0  0.00000000000E+00  0.00000000000E+00  0.23310136807E+04  0.23310136807E+04  0.50400001928E-02 0.  1.
       -1   -1    0    0    0  501  0.00000000000E+00  0.00000000000E+00 -0.15195498699E+04  0.15195498700E+04  0.50400001928E-02 0. -1.
    10030    2    1    2    0    0  0.00000000000E+00  0.00000000000E+00  0.81146381073E+03  0.38505635506E+04  0.37640890188E+04 0.  0.
        1    1    3    3  502    0  0.30621472003E+03  0.50768210807E+03 -0.14215242365E+04  0.15402076913E+04  0.50400001928E-02 0. -1.
       -1    1    3    3    0  502 -0.30621472003E+03 -0.50768210807E+03  0.22329880472E+04  0.23103558593E+04  0.50400001928E-02 0.  1.
</event>
<event>
 5   0  0.6661000E-08  0.3802605E+04  0.7818609E-02  0.8045596E-01
        1   -1    0    0  501    0  0.00000000000E+00  0.00000000000E+00  0.23537080370E+04  0.23537080370E+04  0.50400001928E-02 0. -1.
       -1   -1    0    0    0  501  0.00000000000E+00  0.00000000000E+00 -0.15358534641E+04  0.15358534641E+04  0.50400001928E-02 0.  1.
    10030    2    1    2    0    0  0.00000000000E+00  0.00000000000E+00  0.81785457286E+03  0.38895615011E+04  0.38026047084E+04 0.  0.
        2    1    3    3  502    0  0.22263469449E+03  0.14077807750E+04  0.16960906448E+04  0.22154314237E+04  0.25500000920E-02 0. -1.
       -2    1    3    3    0  502 -0.22263469449E+03 -0.14077807750E+04 -0.87823607199E+03  0.16741300774E+04  0.25500000920E-02 0.  1.
</event>
<event>
 5   0  0.2205204E-07  0.3791729E+04  0.7818609E-02  0.8047932E-01
       -2   -1    0    0    0  501  0.00000000000E+00  0.00000000000E+00  0.23594288761E+04  0.23594288761E+04  0.25500000920E-02 0. -1.
        2   -1    0    0  501    0  0.00000000000E+00  0.00000000000E+00 -0.15233782275E+04  0.15233782275E+04  0.25500000920E-02 0.  1.
    10030    2    1    2    0    0  0.00000000000E+00  0.00000000000E+00  0.83605064860E+03  0.38828071037E+04  0.37917291988E+04 0.  0.
        2    1    3    3  502    0 -0.37690101526E+03 -0.15370903509E+04  0.14869382783E+04  0.21715631618E+04  0.25500000920E-02 0. -1.
       -2    1    3    3    0  502  0.37690101526E+03  0.15370903509E+04 -0.65088762967E+03  0.17112439419E+04  0.25500000920E-02 0.  1.
</event>
<event>
 5   0  0.2135314E-07  0.3790642E+04  0.7818609E-02  0.8048166E-01
        2   -1    0    0  501    0  0.00000000000E+00  0.00000000000E+00  0.14312379076E+04  0.14312379076E+04  0.25500000920E-02 0.  1.
       -2   -1    0    0    0  501  0.00000000000E+00  0.00000000000E+00 -0.25098846639E+04  0.25098846639E+04  0.25500000920E-02 0. -1.
    10030    2    1    2    0    0  0.00000000000E+00  0.00000000000E+00 -0.10786467563E+04  0.39411225715E+04  0.37906422013E+04 0.  0.
        4    1    3    3  502    0  0.12733076610E+04 -0.46801650246E+03  0.83680957235E+03  0.15939271374E+04  0.12699999809E+01 0.  1.
       -4    1    3    3    0  502 -0.12733076610E+04  0.46801650246E+03 -0.19154563286E+04  0.23471954341E+04  0.12699999809E+01 0. -1.
</event>
<event>
 5   0  0.2203998E-07  0.3954966E+04  0.7818609E-02  0.8013693E-01
       -2   -1    0    0    0  501  0.00000000000E+00  0.00000000000E+00  0.15291850340E+04  0.15291850340E+04  0.25500000920E-02 0. -1.
        2   -1    0    0  501    0  0.00000000000E+00  0.00000000000E+00 -0.25572043424E+04  0.25572043424E+04  0.25500000920E-02 0.  1.
    10030    2    1    2    0    0  0.00000000000E+00  0.00000000000E+00 -0.10280193084E+04  0.40863893764E+04  0.39549657947E+04 0.  0.
        3    1    3    3  502    0 -0.55330691990E+03  0.16255879062E+04 -0.15272885976E+04  0.22981068423E+04  0.10100000352E+00 0.  1.
       -3    1    3    3    0  502  0.55330691990E+03 -0.16255879062E+04  0.49926928917E+03  0.17882825340E+04  0.10100000352E+00 0. -1.
</event>
<event>
 5   0  0.1370688E-07  0.3776671E+04  0.7818609E-02  0.8051180E-01
       -2   -1    0    0    0  501  0.00000000000E+00  0.00000000000E+00  0.14768369041E+04  0.14768369041E+04  0.25500000920E-02 0.  1.
        2   -1    0    0  501    0  0.00000000000E+00  0.00000000000E+00 -0.24144917929E+04  0.24144917929E+04  0.25500000920E-02 0. -1.
    10030    2    1    2    0    0  0.00000000000E+00  0.00000000000E+00 -0.93765488878E+03  0.38913286971E+04  0.37766708009E+04 0.  0.
        5    1    3    3  502    0 -0.36716791781E+03  0.12776142394E+04 -0.18506920911E+04  0.22786385695E+04  0.46999998093E+01 0. -1.
       -5    1    3    3    0  502  0.36716791781E+03 -0.12776142394E+04  0.91303720229E+03  0.16126901275E+04  0.46999998093E+01 0.  1.
</event>
<event>
 5   0  0.6661000E-08  0.3791788E+04  0.7818609E-02  0.8047919E-01
        1   -1    0    0  501    0  0.00000000000E+00  0.00000000000E+00  0.23007925486E+04  0.23007925486E+04  0.50400001928E-02 0.  1.
       -1   -1    0    0    0  501  0.00000000000E+00  0.00000000000E+00 -0.15622502081E+04  0.15622502081E+04  0.50400001928E-02 0. -1.
    10030    2    1    2    0    0  0.00000000000E+00  0.00000000000E+00  0.73854234054E+03  0.38630427567E+04  0.37917877777E+04 0.  0.
        4    1    3    3  502    0  0.82795914992E+03  0.11313207107E+04  0.16695822125E+04  0.21801168045E+04  0.12699999809E+01 0.  1.
       -4    1    3    3    0  502 -0.82795914992E+03 -0.11313207107E+04 -0.93103987193E+03  0.16829259521E+04  0.12699999809E+01 0. -1.
</event>
<event>
 5   0  0.6661000E-08  0.3787748E+04  0.7818609E-02  0.8048789E-01
       -1   -1    0    0    0  501  0.00000000000E+00  0.00000000000E+00  0.25441375205E+04  0.25441375205E+04  0.50400001928E-02 0.  1.
        1   -1    0    0  501    0  0.00000000000E+00  0.00000000000E+00 -0.14098129100E+04  0.14098129100E+04  0.50400001928E-02 0. -1.
    10030    2    1    2    0    0  0.00000000000E+00  0.00000000000E+00  0.11343246105E+04  0.39539504305E+04  0.37877475741E+04 0.  0.
        3    1    3    3  502    0 -0.48758920428E+02  0.93807110640E+03 -0.11495040774E+04  0.14844913159E+04  0.10100000352E+00 0. -1.
       -3    1    3    3    0  502  0.48758920428E+02 -0.93807110640E+03  0.22838286878E+04  0.24694591146E+04  0.10100000352E+00 0.  1.
</event>
<event>
 5   0  0.6661000E-08  0.3797691E+04  0.7818609E-02  0.8046651E-01
        1   -1    0    0  501    0  0.00000000000E+00  0.00000000000E+00  0.17285732241E+04  0.17285732241E+04  0.50400001928E-02 0. -1.
       -1   -1    0    0    0  501  0.00000000000E+00  0.00000000000E+00 -0.20858906546E+04  0.20858906547E+04  0.50400001928E-02 0.  1.
    10030    2    1    2    0    0  0.00000000000E+00  0.00000000000E+00 -0.35731743054E+03  0.38144638788E+04  0.37976912639E+04 0.  0.
        4    1    3    3  502    0 -0.17640986582E+03  0.10620629957E+04  0.13923832333E+04  0.17600656035E+04  0.12699999809E+01 0. -1.
       -4    1    3    3    0  502  0.17640986582E+03 -0.10620629957E+04 -0.17497006638E+04  0.20543982752E+04  0.12699999809E+01 0.  1.
</event>
<event>
 5   0  0.2135314E-07  0.3806518E+04  0.7818609E-02  0.8044758E-01
        2   -1    0    0  501    0  0.00000000000E+00  0.00000000000E+00  0.15613278308E+04  0.15613278308E+04  0.25500000920E-02 0.  1.
       -2   -1    0    0    0  501  0.00000000000E+00  0.00000000000E+00 -0.23200729908E+04  0.23200729908E+04  0.25500000920E-02 0. -1.
    10030    2    1    2    0    0  0.00000000000E+00  0.00000000000E+00 -0.75874516004E+03  0.38814008216E+04  0.38065178471E+04 0.  0.
        4    1    3    3  502    0  0.12065246840E+04  0.17947852960E+03 -0.18690990059E+04  0.22319155590E+04  0.12699999809E+01 0. -1.
       -4    1    3    3    0  502 -0.12065246840E+04 -0.17947852960E+03  0.11103538459E+04  0.16494852626E+04  0.12699999809E+01 0.  1.
</event>
<event>
 5   0  0.2135314E-07  0.3822621E+04  0.7818609E-02  0.8041318E-01
        2   -1    0    0  501    0  0.00000000000E+00  0.00000000000E+00  0.13913388370E+04  0.13913388370E+04  0.25500000920E-02 0. -1.
       -2   -1    0    0    0  501  0.00000000000E+00  0.00000000000E+00 -0.26256064012E+04  0.26256064012E+04  0.25500000920E-02 0.  1.
    10030    2    1    2    0    0  0.00000000000E+00  0.00000000000E+00 -0.12342675643E+04  0.40169452382E+04  0.38226211723E+04 0.  0.
        4    1    3    3  502    0  0.18326247162E+04  0.47950892043E+03 -0.34991484180E+03  0.19263655325E+04  0.12699999809E+01 0. -1.
       -4    1    3    3    0  502 -0.18326247162E+04 -0.47950892043E+03 -0.88435272247E+03  0.20905797057E+04  0.12699999809E+01 0.  1.
</event>
<event>
 5   0  0.6725199E-08  0.3811553E+04  0.7818609E-02  0.8043680E-01
       -1   -1    0    0    0  501  0.00000000000E+00  0.00000000000E+00  0.25286112524E+04  0.25286112524E+04  0.50400001928E-02 0. -1.
        1   -1    0    0  501    0  0.00000000000E+00  0.00000000000E+00 -0.14363554677E+04  0.14363554677E+04  0.50400001928E-02 0.  1.
    10030    2    1    2    0    0  0.00000000000E+00  0.00000000000E+00  0.10922557847E+04  0.39649667201E+04  0.38115532781E+04 0.  0.
        5    1    3    3  502    0 -0.50516048416E+03 -0.50423752833E+01  0.24576837975E+04  0.25090723941E+04  0.46999998093E+01 0. -1.
       -5    1    3    3    0  502  0.50516048416E+03  0.50423752833E+01 -0.13654280128E+04  0.14558943260E+04  0.46999998093E+01 0.  1.
</event>
<event>
 5   0  0.2205204E-07  0.3808703E+04  0.7818609E-02  0.8044290E-01
        2   -1    0    0  501    0  0.00000000000E+00  0.00000000000E+00  0.22955025679E+04  0.22955025679E+04  0.25500000920E-02 0. -1.
       -2   -1    0    0    0  501  0.00000000000E+00  0.00000000000E+00 -0.15798520276E+04  0.15798520276E+04  0.25500000920E-02 0.  1.
    10030    2    1    2    0    0  0.00000000000E+00  0.00000000000E+00  0.71565054022E+03  0.38753545955E+04  0.38087028691E+04 0.  0.
        2    1    3    3  502    0  0.17823746896E+04  0.66485696555E+03  0.44687869960E+03  0.19541225374E+04  0.25500000920E-02 0.  1.
       -2    1    3    3    0  502 -0.17823746896E+04 -0.66485696555E+03  0.26877184062E+03  0.19212320581E+04  0.25500000920E-02 0. -1.
</event>
<event>
 5   0  0.6661000E-08  0.3806810E+04  0.7818609E-02  0.8044695E-01
        1   -1    0    0  501    0  0.00000000000E+00  0.00000000000E+00  0.25386988992E+04  0.25386988992E+04  0.50400001928E-02 0. -1.
       -1   -1    0    0    0  501  0.00000000000E+00  0.00000000000E+00 -0.14270893703E+04  0.14270893703E+04  0.50400001928E-02 0.  1.
    10030    2    1    2    0    0  0.00000000000E+00  0.00000000000E+00  0.11116095289E+04  0.39657882695E+04  0.38068098000E+04 0.  0.
        2    1    3    3  502    0 -0.18829382555E+04 -0.49538602250E+02  0.84117836327E+03  0.20628842881E+04  0.25500000920E-02 0.  1.
       -2    1    3    3    0  502  0.18829382555E+04  0.49538602250E+02  0.27043116561E+03  0.19029039814E+04  0.25500000920E-02 0. -1.
</event>
<event>
 5   0  0.6661000E-08  0.3844265E+04  0.7818609E-02  0.8036722E-01
       -1   -1    0    0    0  501  0.00000000000E+00  0.00000000000E+00  0.27129319656E+04  0.27129319656E+04  0.50400001928E-02 0. -1.
        1   -1    0    0  501    0  0.00000000000E+00  0.00000000000E+00 -0.13618451692E+04  0.13618451692E+04  0.50400001928E-02 0.  1.
    10030    2    1    2    0    0  0.00000000000E+00  0.00000000000E+00  0.13510867965E+04  0.40747771348E+04  0.38442649709E+04 0.  0.
        3    1    3    3  502    0 -0.13228353517E+04 -0.23326795336E+03 -0.78177451173E+03  0.15541810394E+04  0.10100000352E+00 0.  1.
       -3    1    3    3    0  502  0.13228353517E+04  0.23326795336E+03  0.21328613082E+04  0.25205960954E+04  0.10100000352E+00 0. -1.
</event>
<event>
 5   0  0.1370688E-07  0.3804610E+04  0.7818609E-02  0.8045166E-01
       -2   -1    0    0    0  501  0.00000000000E+00  0.00000000000E+00  0.19439489361E+04  0.19439489361E+04  0.25500000920E-02 0.  1.
        2   -1    0    0  501    0  0.00000000000E+00  0.00000000000E+00 -0.18615531146E+04  0.18615531146E+04  0.25500000920E-02 0. -1.
    10030    2    1    2    0    0  0.00000000000E+00  0.00000000000E+00  0.82395821455E+02  0.38055020507E+04  0.38046099388E+04 0.  0.
        5    1    3    3  502    0 -0.24800816176E+03 -0.56374281130E+03  0.18414610729E+04  0.19417298933E+04  0.46999998093E+01 0.  1.
       -5    1    3    3    0  502  0.24800816176E+03  0.56374281130E+03 -0.17590652515E+04  0.18637721573E+04  0.46999998093E+01 0. -1.
</event>
<event>
 5   0  0.2081337E-07  0.3760157E+04  0.7818609E-02  0.8054760E-01
        2   -1    0    0  501    0  0.00000000000E+00  0.00000000000E+00  0.24259300194E+04  0.24259300194E+04  0.25500000920E-02 0.  1.
       -2   -1    0    0    0  501  0.00000000000E+00  0.00000000000E+00 -0.14570472666E+04  0.14570472666E+04  0.25500000920E-02 0. -1.
    10030    2    1    2    0    0  0.00000000000E+00  0.00000000000E+00  0.96888275280E+03  0.38829772859E+04  0.37601567540E+04 0.  0.
        1    1    3    3  502    0  0.23790637928E+03 -0.15345419124E+04  0.15789072205E+04  0.22145803975E+04  0.50400001928E-02 0.  1.
       -1    1    3    3    0  502 -0.23790637928E+03  0.15345419124E+04 -0.61002446767E+03  0.16683968884E+04  0.50400001928E-02 0. -1.
</event>
<event>
 5   0  0.6661000E-08  0.3763113E+04  0.7818609E-02  0.8054117E-01
       -1   -1    0    0    0  501  0.00000000000E+00  0.00000000000E+00  0.18042699410E+04  0.18042699410E+04  0.50400001928E-02 0. -1.
        1   -1    0    0  501    0  0.00000000000E+00  0.00000000000E+00 -0.19621536498E+04  0.19621536498E+04  0.50400001928E-02 0.  1.
    10030    2    1    2    0    0  0.00000000000E+00  0.00000000000E+00 -0.15788370883E+03  0.37664235908E+04  0.37631129932E+04 0.  0.
        4    1    3    3  502    0  0.13914470755E+04  0.36335191294E+03 -0.12933120473E+04  0.19341166566E+04  0.12699999809E+01 0.  1.
       -4    1    3    3    0  502 -0.13914470755E+04 -0.36335191294E+03  0.11354283385E+04  0.18323069342E+04  0.12699999809E+01 0. -1.
</event>
<event>
 5   0  0.6661000E-08  0.3849890E+04  0.7818609E-02  0.8035533E-01
        1   -1    0    0  501    0  0.00000000000E+00  0.00000000000E+00  0.19609209570E+04  0.19609209570E+04  0.50400001928E-02 0.  1.
       -1   -1    0    0    0  501  0.00000000000E+00  0.00000000000E+00 -0.18896292570E+04  0.18896292570E+04  0.50400001928E-02 0. -1.
    10030    2    1    2    0    0  0.00000000000E+00  0.00000000000E+00  0.71291699998E+02  0.38505502141E+04  0.38498901860E+04 0.  0.
        2    1    3    3  502    0 -0.41556971919E+03 -0.42112040753E+03 -0.17964359211E+04  0.18913547017E+04  0.25500000920E-02 0. -1.
       -2    1    3    3    0  502  0.41556971919E+03  0.42112040753E+03  0.18677276211E+04  0.19591955124E+04  0.25500000920E-02 0.  1.
</event>
<event>
 5   0  0.6661000E-08  0.3799313E+04  0.7818609E-02  0.8046302E-01
        1   -1    0    0  501    0  0.00000000000E+00  0.00000000000E+00  0.25789481072E+04  0.25789481073E+04  0.50400001928E-02 0.  1.
       -1   -1    0    0    0  501  0.00000000000E+00  0.00000000000E+00 -0.13992897274E+04  0.13992897274E+04  0.50400001928E-02 0. -1.
    10030    2    1    2    0    0  0.00000000000E+00  0.00000000000E+00  0.11796583798E+04  0.39782378347E+04  0.37993134085E+04 0.  0.
        3    1    3    3  502    0  0.21720376427E+02 -0.16169726895E+03 -0.13919402647E+04  0.14014690479E+04  0.10100000352E+00 0. -1.
       -3    1    3    3    0  502 -0.21720376427E+02  0.16169726895E+03  0.25715986445E+04  0.25767687868E+04  0.10100000352E+00 0.  1.
</event>
<event>
 5   0  0.2135314E-07  0.3757937E+04  0.7818609E-02  0.8055242E-01
        2   -1    0    0  501    0  0.00000000000E+00  0.00000000000E+00  0.19040452056E+04  0.19040452056E+04  0.25500000920E-02 0. -1.
       -2   -1    0    0    0  501  0.00000000000E+00  0.00000000000E+00 -0.18542224907E+04  0.18542224907E+04  0.25500000920E-02 0.  1.
    10030    2    1    2    0    0  0.00000000000E+00  0.00000000000E+00  0.49822714910E+02  0.37582676963E+04  0.37579374362E+04 0.  0.
        4    1    3    3  502    0  0.99871562077E+03  0.15009762727E+04  0.55425851497E+03  0.18861513133E+04  0.12699999809E+01 0.  1.
       -4    1    3    3    0  502 -0.99871562077E+03 -0.15009762727E+04 -0.50443580006E+03  0.18721163830E+04  0.12699999809E+01 0. -1.
</event>
<event>
 5   0  0.6725199E-08  0.3785710E+04  0.7818609E-02  0.8049229E-01
        1   -1    0    0  501    0  0.00000000000E+00  0.00000000000E+00  0.23710396739E+04  0.23710396739E+04  0.50400001928E-02 0. -1.
       -1   -1    0    0    0  501  0.00000000000E+00  0.00000000000E+00 -0.15111090489E+04  0.15111090489E+04  0.50400001928E-02 0.  1.
    10030    2    1    2    0    0  0.00000000000E+00  0.00000000000E+00  0.85993062498E+03  0.38821487228E+04  0.37857097124E+04 0.  0.
        5    1    3    3  502    0 -0.13905527118E+04 -0.11981645072E+04  0.90395464689E+03  0.20460672336E+04  0.46999998093E+01 0. -1.
       -5    1    3    3    0  502  0.13905527118E+04  0.11981645072E+04 -0.44024021904E+02  0.18360814893E+04  0.46999998093E+01 0.  1.
</event>
<event>
 5   0  0.2203998E-07  0.3812262E+04  0.7818609E-02  0.8043529E-01
       -2   -1    0    0    0  501  0.00000000000E+00  0.00000000000E+00  0.16053766232E+04  0.16053766232E+04  0.25500000920E-02 0.  1.
        2   -1    0    0  501    0  0.00000000000E+00  0.00000000000E+00 -0.22632287880E+04  0.22632287880E+04  0.25500000920E-02 0. -1.
    10030    2    1    2    0    0  0.00000000000E+00  0.00000000000E+00 -0.65785216483E+03  0.38686054111E+04  0.38122615803E+04 0.  0.
        3    1    3    3  502    0 -0.16939033305E+04  0.47214900556E+03  0.41754170705E+03  0.18073666655E+04  0.10100000352E+00 0.  1.
       -3    1    3    3    0  502  0.16939033305E+04 -0.47214900556E+03 -0.10753938719E+04  0.20612387456E+04  0.10100000352E+00 0. -1.
</event>
<event>
 5   0  0.2203998E-07  0.3805776E+04  0.7818609E-02  0.8044917E-01
        2   -1    0    0  501    0  0.00000000000E+00  0.00000000000E+00  0.19590903235E+04  0.19590903235E+04  0.25500000920E-02 0. -1.
       -2   -1    0    0    0  501  0.00000000000E+00  0.00000000000E+00 -0.18482977201E+04  0.18482977201E+04  0.25500000920E-02 0.  1.
    10030    2    1    2    0    0  0.00000000000E+00  0.00000000000E+00  0.11079260340E+03  0.38073880437E+04  0.38057757047E+04 0.  0.
        3    1    3    3  502    0  0.62456062623E+03  0.15712851398E+04 -0.81788198390E+03  0.18782821716E+04  0.10100000352E+00 0.  1.
       -3    1    3    3    0  502 -0.62456062623E+03 -0.15712851398E+04  0.92867458730E+03  0.19291058721E+04  0.10100000352E+00 0. -1.
</event>
<event>
 5   0  0.6725199E-08  0.3781639E+04  0.7818609E-02  0.8050107E-01
       -1   -1    0    0    0  501  0.00000000000E+00  0.00000000000E+00  0.17125642979E+04  0.17125642979E+04  0.50400001928E-02 0. -1.
        1   -1    0    0  501    0  0.00000000000E+00  0.00000000000E+00 -0.20876281700E+04  0.20876281700E+04  0.50400001928E-02 0.  1.
    10030    2    1    2    0    0  0.00000000000E+00  0.00000000000E+00 -0.37506387209E+03  0.38001924679E+04  0.37816385185E+04 0.  0.
        5    1    3    3  502    0  0.25684079703E+03  0.33614315597E+03  0.16643923606E+04  0.17173186764E+04  0.46999998093E+01 0. -1.
       -5    1    3    3    0  502 -0.25684079703E+03 -0.33614315597E+03 -0.20394562327E+04  0.20828737915E+04  0.46999998093E+01 0.  1.
</event>
<event>
 5   0  0.6725199E-08  0.3785661E+04  0.7818609E-02  0.8049239E-01
        1   -1    0    0  501    0  0.00000000000E+00  0.00000000000E+00  0.21570401339E+04  0.21570401339E+04  0.50400001928E-02 0.  1.
       -1   -1    0    0    0  501  0.00000000000E+00  0.00000000000E+00 -0.16609830123E+04  0.16609830123E+04  0.50400001928E-02 0. -1.
    10030    2    1    2    0    0  0.00000000000E+00  0.00000000000E+00  0.49605712160E+03  0.38180231461E+04  0.37856608507E+04 0.  0.
        5    1    3    3  502    0 -0.13599662762E+02  0.72933320025E+03  0.20095773920E+04  0.21378810192E+04  0.46999998093E+01 0.  1.
       -5    1    3    3    0  502  0.13599662762E+02 -0.72933320025E+03 -0.15135202704E+04  0.16801421269E+04  0.46999998093E+01 0. -1.
</event>
<event>
 5   0  0.2203998E-07  0.3805931E+04  0.7818609E-02  0.8044883E-01
       -2   -1    0    0    0  501  0.00000000000E+00  0.00000000000E+00  0.16676560937E+04  0.16676560937E+04  0.25500000920E-02 0. -1.
        2   -1    0    0  501    0  0.00000000000E+00  0.00000000000E+00 -0.21714778596E+04  0.21714778596E+04  0.25500000920E-02 0.  1.
    10030    2    1    2    0    0  0.00000000000E+00  0.00000000000E+00 -0.50382176591E+03  0.38391339534E+04  0.38059313105E+04 0.  0.
        3    1    3    3  502    0 -0.10750771538E+04  0.11132332138E+04 -0.13689100105E+04  0.20661543268E+04  0.10100000352E+00 0.  1.
       -3    1    3    3    0  502  0.10750771538E+04 -0.11132332138E+04  0.86508824462E+03  0.17729796266E+04  0.10100000352E+00 0. -1.
</event>
<event>
 5   0  0.6725199E-08  0.3824483E+04  0.7818609E-02  0.8040921E-01
       -1   -1    0    0    0  501  0.00000000000E+00  0.00000000000E+00  0.15159420328E+04  0.15159420328E+04  0.50400001928E-02 0. -1.
        1   -1    0    0  501    0  0.00000000000E+00  0.00000000000E+00 -0.24121418283E+04  0.24121418283E+04  0.50400001928E-02 0.  1.
    10030    2    1    2    0    0  0.00000000000E+00  0.00000000000E+00 -0.89619979544E+03  0.39280838611E+04  0.38244828077E+04 0.  0.
        5    1    3    3  502    0  0.52407004047E+03  0.16564917816E+04  0.37230607739E+03  0.17768647487E+04  0.46999998093E+01 0. -1.
       -5    1    3    3    0  502 -0.52407004047E+03 -0.16564917816E+04 -0.12685058728E+04  0.21512191124E+04  0.46999998093E+01 0.  1.
</event>
<event>
 5   0  0.2205204E-07  0.3780421E+04  0.7818609E-02  0.8050370E-01
        2   -1    0    0  501    0  0.00000000000E+00  0.00000000000E+00  0.17868407662E+04  0.17868407662E+04  0.25500000920E-02 0. -1.
       -2   -1    0    0    0  501  0.00000000000E+00  0.00000000000E+00 -0.19995604354E+04  0.19995604354E+04  0.25500000920E-02 0.  1.
    10030    2    1    2    0    0  0.00000000000E+00  0.00000000000E+00 -0.21271966921E+03  0.37864012016E+04  0.37804211937E+04 0.  0.
        2    1    3    3  502    0  0.48651632966E+03  0.18087527603E+04 -0.36094967049E+03  0.19075034342E+04  0.25500000920E-02 0.  1.
       -2    1    3    3    0  502 -0.48651632966E+03 -0.18087527603E+04  0.14823000128E+03  0.18788977674E+04  0.25500000920E-02 0. -1.
</event>
<event>
 5   0  0.2081337E-07  0.3758564E+04  0.7818609E-02  0.8055106E-01
        2   -1    0    0  501    0  0.00000000000E+00  0.00000000000E+00  0.22261952747E+04  0.22261952747E+04  0.25500000920E-02 0.  1.
       -2   -1    0    0    0  501  0.00000000000E+00  0.00000000000E+00 -0.15864286593E+04  0.15864286593E+04  0.25500000920E-02 0. -1.
    10030    2    1    2    0    0  0.00000000000E+00  0.00000000000E+00  0.63976661542E+03  0.38126239340E+04  0.37585635474E+04 0.  0.
        1    1    3    3  502    0 -0.11081057444E+04 -0.59165186398E+03 -0.10979870932E+04  0.16683902199E+04  0.50400001928E-02 0. -1.
       -1    1    3    3    0  502  0.11081057444E+04  0.59165186398E+03  0.17377537086E+04  0.21442337141E+04  0.50400001928E-02 0.  1.
</event>
<event>
 5   0  0.6661000E-08  0.3808361E+04  0.7818609E-02  0.8044363E-01
        1   -1    0    0  501    0  0.00000000000E+00  0.00000000000E+00  0.23010261363E+04  0.23010261363E+04  0.50400001928E-02 0. -1.
       -1   -1    0    0    0  501  0.00000000000E+00  0.00000000000E+00 -0.15757770015E+04  0.15757770015E+04  0.50400001928E-02 0.  1.
    10030    2    1    2    0    0  0.00000000000E+00  0.00000000000E+00  0.72524913480E+03  0.38768031378E+04  0.38083613618E+04 0.  0.
        1    1    3    3  502    0  0.12757190658E+04  0.37775032732E+03  0.17493653511E+04  0.21978247374E+04  0.50400001928E-02 0. -1.
       -1    1    3    3    0  502 -0.12757190658E+04 -0.37775032732E+03 -0.10241162163E+04  0.16789784004E+04  0.50400001928E-02 0.  1.
</event>
<event>
 5   0  0.2135314E-07  0.3816723E+04  0.7818609E-02  0.8042576E-01
       -2   -1    0    0    0  501  0.00000000000E+00  0.00000000000E+00  0.14103422828E+04  0.14103422828E+04  0.25500000920E-02 0.  1.
        2   -1    0    0  501    0  0.00000000000E+00  0.00000000000E+00 -0.25822404422E+04  0.25822404422E+04  0.25500000920E-02 0. -1.
    10030    2    1    2    0    0  0.00000000000E+00  0.00000000000E+00 -0.11718981594E+04  0.39925827249E+04  0.38167226150E+04 0.  0.
        4    1    3    3  502    0  0.13752423735E+04  0.11194426002E+04 -0.13237094432E+04  0.22128379118E+04  0.12699999809E+01 0. -1.
       -4    1    3    3    0  502 -0.13752423735E+04 -0.11194426002E+04  0.15181128384E+03  0.17797448131E+04  0.12699999809E+01 0.  1.
</event>
<event>
 5   0  0.2135314E-07  0.3790664E+04  0.7818609E-02  0.8048161E-01
       -2   -1    0    0    0  501  0.00000000000E+00  0.00000000000E+00  0.11729220263E+04  0.11729220263E+04  0.25500000920E-02 0. -1.
        2   -1    0    0  501    0  0.00000000000E+00  0.00000000000E+00 -0.30626782405E+04  0.30626782405E+04  0.25500000920E-02 0.  1.
    10030    2    1    2    0    0  0.00000000000E+00  0.00000000000E+00 -0.18897562142E+04  0.42356002668E+04  0.37906636716E+04 0.  0.
        4    1    3    3  502    0 -0.11634361501E+04 -0.13822539490E+04 -0.15848839900E+04  0.24033452789E+04  0.12699999809E+01 0.  1.
       -4    1    3    3    0  502  0.11634361501E+04  0.13822539490E+04 -0.30487222420E+03  0.18322549880E+04  0.12699999809E+01 0. -1.
</event>
<event>
 5   0  0.1370688E-07  0.3796689E+04  0.7818609E-02  0.8046866E-01
        2   -1    0    0  501    0  0.00000000000E+00  0.00000000000E+00  0.27578245850E+04  0.27578245850E+04  0.25500000920E-02 0.  1.
       -2   -1    0    0    0  501  0.00000000000E+00  0.00000000000E+00 -0.13067224468E+04  0.13067224468E+04  0.25500000920E-02 0. -1.
    10030    2    1    2    0    0  0.00000000000E+00  0.00000000000E+00  0.14511021382E+04  0.40645470318E+04  0.37966887097E+04 0.  0.
        5    1    3    3  502    0 -0.86007908945E+03 -0.75336092570E+03 -0.89674821464E+03  0.14530891834E+04  0.46999998093E+01 0. -1.
       -5    1    3    3    0  502  0.86007908945E+03  0.75336092570E+03  0.23478503529E+04  0.26114578484E+04  0.46999998093E+01 0.  1.
</event>
<event>
 5   0  0.6661000E-08  0.3835522E+04  0.7818609E-02  0.8038575E-01
        1   -1    0    0  501    0  0.00000000000E+00  0.00000000000E+00  0.23045650698E+04  0.23045650698E+04  0.50400001928E-02 0. -1.
       -1   -1    0    0    0  501  0.00000000000E+00  0.00000000000E+00 -0.15958787263E+04  0.15958787263E+04  0.50400001928E-02 0.  1.
    10030    2    1    2    0    0  0.00000000000E+00  0.00000000000E+00  0.70868634349E+03  0.39004437961E+04  0.38355215386E+04 0.  0.
        4    1    3    3  502    0  0.11064119299E+04  0.94680483695E+03 -0.91466466939E+03  0.17196510775E+04  0.12699999809E+01 0.  1.
       -4    1    3    3    0  502 -0.11064119299E+04 -0.94680483695E+03  0.16233510129E+04  0.21807927187E+04  0.12699999809E+01 0. -1.
</event>
<event>
 5   0  0.1370688E-07  0.3809163E+04  0.7818609E-02  0.8044191E-01
        2   -1    0    0  501    0  0.00000000000E+00  0.00000000000E+00  0.22903318974E+04  0.22903318974E+04  0.25500000920E-02 0.  1.
       -2   -1    0    0    0  501  0.00000000000E+00  0.00000000000E+00 -0.15838016534E+04  0.15838016534E+04  0.25500000920E-02 0. -1.
    10030    2    1    2    0    0  0.00000000000E+00  0.00000000000E+00  0.70653024402E+03  0.38741335508E+04  0.38091633969E+04 0.  0.
        5    1    3    3  502    0  0.29754418247E+03  0.18775691891E+04  0.23461010585E+03  0.19154275220E+04  0.46999998093E+01 0. -1.
       -5    1    3    3    0  502 -0.29754418247E+03 -0.18775691891E+04  0.47192013817E+03  0.19587060288E+04  0.46999998093E+01 0.  1.
</event>
<event>
 5   0  0.2203998E-07  0.3800007E+04  0.7818609E-02  0.8046153E-01
        2   -1    0    0  501    0  0.00000000000E+00  0.00000000000E+00  0.22232935905E+04  0.22232935905E+04  0.25500000920E-02 0. -1.
       -2   -1    0    0    0  501  0.00000000000E+00  0.00000000000E+00 -0.16237231576E+04  0.16237231576E+04  0.25500000920E-02 0.  1.
    10030    2    1    2    0    0  0.00000000000E+00  0.00000000000E+00  0.59957043291E+03  0.38470167482E+04  0.38000069943E+04 0.  0.
        3    1    3    3  502    0  0.18597113615E+04 -0.37605518339E+03  0.40137314967E+03  0.19393411934E+04  0.10100000352E+00 0. -1.
       -3    1    3    3    0  502 -0.18597113615E+04  0.37605518339E+03  0.19819728324E+03  0.19076755548E+04  0.10100000352E+00 0.  1.
</event>
<event>
 5   0  0.2081337E-07  0.3802149E+04  0.7818609E-02  0.8045694E-01
        2   -1    0    0  501    0  0.00000000000E+00  0.00000000000E+00  0.22276439393E+04  0.22276439393E+04  0.25500000920E-02 0.  1.
       -2   -1    0    0    0  501  0.00000000000E+00  0.00000000000E+00 -0.16223792553E+04  0.16223792553E+04  0.25500000920E-02 0. -1.
    10030    2    1    2    0    0  0.00000000000E+00  0.00000000000E+00  0.60526468397E+03  0.38500231946E+04  0.38021485060E+04 0.  0.
        1    1    3    3  502    0 -0.31968875074E+03 -0.12199194546E+04 -0.11378405060E+04  0.16985539115E+04  0.50400001928E-02 0. -1.
       -1    1    3    3    0  502  0.31968875074E+03  0.12199194546E+04  0.17431051900E+04  0.21514692832E+04  0.50400001928E-02 0.  1.
</event>
<event>
 5   0  0.2135314E-07  0.3560353E+04  0.7818609E-02  0.8099634E-01
       -2   -1    0    0    0  501  0.00000000000E+00  0.00000000000E+00  0.17010840822E+04  0.17010840822E+04  0.25500000920E-02 0.  1.
        2   -1    0    0  501    0  0.00000000000E+00  0.00000000000E+00 -0.18629458884E+04  0.18629458884E+04  0.25500000920E-02 0. -1.
    10030    2    1    2    0    0  0.00000000000E+00  0.00000000000E+00 -0.16186180626E+03  0.35640299706E+04  0.35603525650E+04 0.  0.
        4    1    3    3  502    0  0.14181342402E+03  0.15829722631E+03 -0.18502000676E+04  0.18623670320E+04  0.12699999809E+01 0. -1.
       -4    1    3    3    0  502 -0.14181342402E+03 -0.15829722631E+03  0.16883382613E+04  0.17016629386E+04  0.12699999809E+01 0.  1.
</event>
<event>
 5   0  0.6661000E-08  0.3804774E+04  0.7818609E-02  0.8045131E-01
       -1   -1    0    0    0  501  0.00000000000E+00  0.00000000000E+00  0.28399696332E+04  0.28399696332E+04  0.50400001928E-02 0.  1.
        1   -1    0    0  501    0  0.00000000000E+00  0.00000000000E+00 -0.12743365266E+04  0.12743365266E+04  0.50400001928E-02 0. -1.
    10030    2    1    2    0    0  0.00000000000E+00  0.00000000000E+00  0.15656331066E+04  0.41143061598E+04  0.38047743891E+04 0.  0.
        3    1    3    3  502    0 -0.30346267738E+03 -0.56487310245E+03  0.27195885643E+04  0.27941605515E+04  0.10100000352E+00 0.  1.
       -3    1    3    3    0  502  0.30346267738E+03  0.56487310245E+03 -0.11539554577E+04  0.13201456083E+04  0.10100000352E+00 0. -1.
</event>
<event>
 5   0  0.6661000E-08  0.3797620E+04  0.7818609E-02  0.8046666E-01
        1   -1    0    0  501    0  0.00000000000E+00  0.00000000000E+00  0.19621405417E+04  0.19621405417E+04  0.50400001928E-02 0.  1.
       -1   -1    0    0    0  501  0.00000000000E+00  0.00000000000E+00 -0.18375236944E+04  0.18375236944E+04  0.50400001928E-02 0. -1.
    10030    2    1    2    0    0  0.00000000000E+00  0.00000000000E+00  0.12461684729E+03  0.37996642361E+04  0.37976201690E+04 0.  0.
        1    1    3    3  502    0 -0.75369356300E+03 -0.17398976284E+04 -0.38651749469E+02  0.18965209469E+04  0.50400001928E-02 0.  1.
       -1    1    3    3    0  502  0.75369356300E+03  0.17398976284E+04  0.16326859676E+03  0.19031432891E+04  0.50400001928E-02 0. -1.
</event>
<event>
 5   0  0.6661000E-08  0.3794385E+04  0.7818609E-02  0.8047361E-01
        1   -1    0    0  501    0  0.00000000000E+00  0.00000000000E+00  0.11379883812E+04  0.11379883812E+04  0.50400001928E-02 0. -1.
       -1   -1    0    0    0  501  0.00000000000E+00  0.00000000000E+00 -0.31628967837E+04  0.31628967837E+04  0.50400001928E-02 0.  1.
    10030    2    1    2    0    0  0.00000000000E+00  0.00000000000E+00 -0.20249084025E+04  0.43008851649E+04  0.37943852154E+04 0.  0.
        2    1    3    3  502    0  0.20679815173E+03  0.96516464476E+01  0.11251469944E+04  0.11440342604E+04  0.25500000920E-02 0. -1.
       -2    1    3    3    0  502 -0.20679815173E+03 -0.96516464476E+01 -0.31500553969E+04  0.31568509046E+04  0.25500000920E-02 0.  1.
</event>
<event>
 5   0  0.2081337E-07  0.3831898E+04  0.7818609E-02  0.8039344E-01
        2   -1    0    0  501    0  0.00000000000E+00  0.00000000000E+00  0.18362822983E+04  0.18362822983E+04  0.25500000920E-02 0.  1.
       -2   -1    0    0    0  501  0.00000000000E+00  0.00000000000E+00 -0.19990722123E+04  0.19990722123E+04  0.25500000920E-02 0. -1.
    10030    2    1    2    0    0  0.00000000000E+00  0.00000000000E+00 -0.16278991399E+03  0.38353545106E+04  0.38318981805E+04 0.  0.
        1    1    3    3  502    0  0.30166323582E+03 -0.12369254689E+04 -0.15144250304E+04  0.19785015785E+04  0.50400001928E-02 0. -1.
       -1    1    3    3    0  502 -0.30166323582E+03  0.12369254689E+04  0.13516351164E+04  0.18568529321E+04  0.50400001928E-02 0.  1.
</event>
<event>
 5   0  0.2135314E-07  0.3800109E+04  0.7818609E-02  0.8046132E-01
        2   -1    0    0  501    0  0.00000000000E+00  0.00000000000E+00  0.23012455878E+04  0.23012455878E+04  0.25500000920E-02 0.  1.
       -2   -1    0    0    0  501  0.00000000000E+00  0.00000000000E+00 -0.15688054793E+04  0.15688054793E+04  0.25500000920E-02 0. -1.
    10030    2    1    2    0    0  0.00000000000E+00  0.00000000000E+00  0.73244010849E+03  0.38700510672E+04  0.38001087813E+04 0.  0.
        4    1    3    3  502    0 -0.92960979151E+03  0.83295704647E+03  0.18251415142E+04  0.22111388390E+04  0.12699999809E+01 0.  1.
       -4    1    3    3    0  502  0.92960979151E+03 -0.83295704647E+03 -0.10927014057E+04  0.16589122281E+04  0.12699999809E+01 0. -1.
</event>
<event>
 5   0  0.6725199E-08  0.3800448E+04  0.7818609E-02  0.8046059E-01
        1   -1    0    0  501    0  0.00000000000E+00  0.00000000000E+00  0.22783113435E+04  0.22783113435E+04  0.50400001928E-02 0.  1.
       -1   -1    0    0    0  501  0.00000000000E+00  0.00000000000E+00 -0.15848802710E+04  0.15848802710E+04  0.50400001928E-02 0. -1.
    10030    2    1    2    0    0  0.00000000000E+00  0.00000000000E+00  0.69343107250E+03  0.38631916145E+04  0.38004477102E+04 0.  0.
        5    1    3    3  502    0  0.14425606143E+04 -0.49454442311E+03 -0.80570033434E+03  0.17247406852E+04  0.46999998093E+01 0. -1.
       -5    1    3    3    0  502 -0.14425606143E+04  0.49454442311E+03  0.14991314068E+04  0.21384509294E+04  0.46999998093E+01 0.  1.
</event>
<event>
 5   0  0.2081337E-07  0.3766217E+04  0.7818609E-02  0.8053444E-01
        2   -1    0    0  501    0  0.00000000000E+00  0.00000000000E+00  0.18925288192E+04  0.18925288192E+04  0.25500000920E-02 0.  1.
       -2   -1    0    0    0  501  0.00000000000E+00  0.00000000000E+00 -0.18737355487E+04  0.18737355487E+04  0.25500000920E-02 0. -1.
    10030    2    1    2    0    0  0.00000000000E+00  0.00000000000E+00  0.18793270542E+02  0.37662643679E+04  0.37662174793E+04 0.  0.
        1    1    3    3  502    0 -0.14508169453E+04  0.11870922340E+04 -0.16960487968E+03  0.18822389849E+04  0.50400001928E-02 0. -1.
       -1    1    3    3    0  502  0.14508169453E+04 -0.11870922340E+04  0.18839815023E+03  0.18840253830E+04  0.50400001928E-02 0.  1.
</event>
<event>
 5   0  0.6661000E-08  0.3812140E+04  0.7818609E-02  0.8043555E-01
        1   -1    0    0  501    0  0.00000000000E+00  0.00000000000E+00  0.19586556211E+04  0.19586556211E+04  0.50400001928E-02 0.  1.
       -1   -1    0    0    0  501  0.00000000000E+00  0.00000000000E+00 -0.18548964707E+04  0.18548964707E+04  0.50400001928E-02 0. -1.
    10030    2    1    2    0    0  0.00000000000E+00  0.00000000000E+00  0.10375915036E+03  0.38135520918E+04  0.38121402907E+04 0.  0.
        1    1    3    3  502    0  0.14891588144E+04  0.11797710406E+03  0.12362060333E+04  0.19389992080E+04  0.50400001928E-02 0.  1.
       -1    1    3    3    0  502 -0.14891588144E+04 -0.11797710406E+03 -0.11324468829E+04  0.18745528839E+04  0.50400001928E-02 0. -1.
</event>
<event>
 5   0  0.6725199E-08  0.3835507E+04  0.7818609E-02  0.8038578E-01
       -1   -1    0    0    0  501  0.00000000000E+00  0.00000000000E+00  0.27461528432E+04  0.27461528432E+04  0.50400001928E-02 0.  1.
        1   -1    0    0  501    0  0.00000000000E+00  0.00000000000E+00 -0.13392476782E+04  0.13392476782E+04  0.50400001928E-02 0. -1.
    10030    2    1    2    0    0  0.00000000000E+00  0.00000000000E+00  0.14069051650E+04  0.40854005214E+04  0.38355071733E+04 0.  0.
        5    1    3    3  502    0  0.17192869472E+04 -0.77864904559E+03  0.34143419456E+03  0.19180305895E+04  0.46999998093E+01 0. -1.
       -5    1    3    3    0  502 -0.17192869472E+04  0.77864904559E+03  0.10654709705E+04  0.21673699319E+04  0.46999998093E+01 0.  1.
</event>
<event>
 5   0  0.6725199E-08  0.3805974E+04  0.7818609E-02  0.8044874E-01
        1   -1    0    0  501    0  0.00000000000E+00  0.00000000000E+00  0.24571045323E+04  0.24571045324E+04  0.50400001928E-02 0. -1.
       -1   -1    0    0    0  501  0.00000000000E+00  0.00000000000E+00 -0.14738322466E+04  0.14738322466E+04  0.50400001928E-02 0.  1.
    10030    2    1    2    0    0  0.00000000000E+00  0.00000000000E+00  0.98327228576E+03  0.39309367790E+04  0.38059741949E+04 0.  0.
        5    1    3    3  502    0  0.17601064655E+04 -0.49211984108E+03 -0.56039313664E+02  0.18284745561E+04  0.46999998093E+01 0.  1.
       -5    1    3    3    0  502 -0.17601064655E+04  0.49211984108E+03  0.10393115994E+04  0.21024622228E+04  0.46999998093E+01 0. -1.
</event>
<event>
 5   0  0.1370688E-07  0.3761583E+04  0.7818609E-02  0.8054450E-01
        2   -1    0    0  501    0  0.00000000000E+00  0.00000000000E+00  0.11346985841E+04  0.11346985841E+04  0.25500000920E-02 0.  1.
       -2   -1    0    0    0  501  0.00000000000E+00  0.00000000000E+00 -0.31174586102E+04  0.31174586102E+04  0.25500000920E-02 0. -1.
    10030    2    1    2    0    0  0.00000000000E+00  0.00000000000E+00 -0.19827600261E+04  0.42521571944E+04  0.37615825771E+04 0.  0.
        5    1    3    3  502    0  0.43251716705E+03  0.32378293341E+03  0.10450804892E+04  0.11764870619E+04  0.46999998093E+01 0.  1.
       -5    1    3    3    0  502 -0.43251716705E+03 -0.32378293341E+03 -0.30278405153E+04  0.30756701325E+04  0.46999998093E+01 0. -1.
</event>
<event>
 5   0  0.1370688E-07  0.3684830E+04  0.7818609E-02  0.8071332E-01
        2   -1    0    0  501    0  0.00000000000E+00  0.00000000000E+00  0.20684030512E+04  0.20684030512E+04  0.25500000920E-02 0.  1.
       -2   -1    0    0    0  501  0.00000000000E+00  0.00000000000E+00 -0.16411176432E+04  0.16411176432E+04  0.25500000920E-02 0. -1.
    10030    2    1    2    0    0  0.00000000000E+00  0.00000000000E+00  0.42728540795E+03  0.37095206944E+04  0.36848298417E+04 0.  0.
        5    1    3    3  502    0 -0.16175412699E+04 -0.49762783098E+03  0.94680659448E+03  0.19392106732E+04  0.46999998093E+01 0.  1.
       -5    1    3    3    0  502  0.16175412699E+04  0.49762783098E+03 -0.51952118653E+03  0.17703100212E+04  0.46999998093E+01 0. -1.
</event>
<event>
 5   0  0.2135314E-07  0.3806788E+04  0.7818609E-02  0.8044700E-01
        2   -1    0    0  501    0  0.00000000000E+00  0.00000000000E+00  0.27356103515E+04  0.27356103515E+04  0.25500000920E-02 0.  1.
       -2   -1    0    0    0  501  0.00000000000E+00  0.00000000000E+00 -0.13243513896E+04  0.13243513896E+04  0.25500000920E-02 0. -1.
    10030    2    1    2    0    0  0.00000000000E+00  0.00000000000E+00  0.14112589619E+04  0.40599617411E+04  0.38067883421E+04 0.  0.
        4    1    3    3  502    0  0.18651831652E+04 -0.34559347700E+03  0.87278420104E+03  0.20880845207E+04  0.12699999809E+01 0. -1.
       -4    1    3    3    0  502 -0.18651831652E+04  0.34559347700E+03  0.53847476089E+03  0.19718772204E+04  0.12699999809E+01 0.  1.
</event>
<event>
 5   0  0.6661000E-08  0.3781597E+04  0.7818609E-02  0.8050116E-01
        1   -1    0    0  501    0  0.00000000000E+00  0.00000000000E+00  0.13485003135E+04  0.13485003135E+04  0.50400001928E-02 0. -1.
       -1   -1    0    0    0  501  0.00000000000E+00  0.00000000000E+00 -0.26511809760E+04  0.26511809761E+04  0.50400001928E-02 0.  1.
    10030    2    1    2    0    0  0.00000000000E+00  0.00000000000E+00 -0.13026806625E+04  0.39996812896E+04  0.37815966879E+04 0.  0.
        1    1    3    3  502    0 -0.13894184824E+04 -0.31203325294E+03  0.66428799948E+03  0.15713456070E+04  0.50400001928E-02 0. -1.
       -1    1    3    3    0  502  0.13894184824E+04  0.31203325294E+03 -0.19669686620E+04  0.24283356826E+04  0.50400001928E-02 0.  1.
</event>
<event>
 5   0  0.1370688E-07  0.3810131E+04  0.7818609E-02  0.8043984E-01
        2   -1    0    0  501    0  0.00000000000E+00  0.00000000000E+00  0.17943519966E+04  0.17943519966E+04  0.25500000920E-02 0. -1.
       -2   -1    0    0    0  501  0.00000000000E+00  0.00000000000E+00 -0.20226105346E+04  0.20226105346E+04  0.25500000920E-02 0.  1.
    10030    2    1    2    0    0  0.00000000000E+00  0.00000000000E+00 -0.22825853794E+03  0.38169625312E+04  0.38101313632E+04 0.  0.
        5    1    3    3  502    0  0.41536740844E+03  0.15666520355E+04  0.88882727311E+03  0.18485033664E+04  0.46999998093E+01 0. -1.
       -5    1    3    3    0  502 -0.41536740844E+03 -0.15666520355E+04 -0.11170858111E+04  0.19684591648E+04  0.46999998093E+01 0.  1.
</event>
<event>
 5   0  0.6661000E-08  0.3832651E+04  0.7818609E-02  0.8039184E-01
       -1   -1    0    0    0  501  0.00000000000E+00  0.00000000000E+00  0.16715145893E+04  0.16715145893E+04  0.50400001928E-02 0. -1.
        1   -1    0    0  501    0  0.00000000000E+00  0.00000000000E+00 -0.21969911658E+04  0.21969911659E+04  0.50400001928E-02 0.  1.
    10030    2    1    2    0    0  0.00000000000E+00  0.00000000000E+00 -0.52547657657E+03  0.38685057551E+04  0.38326506683E+04 0.  0.
        3    1    3    3  502    0 -0.41711135010E+03 -0.98096825993E+01 -0.21505899194E+04  0.21906882754E+04  0.10100000352E+00 0.  1.
       -3    1    3    3    0  502  0.41711135010E+03  0.98096825993E+01  0.16251133428E+04  0.16778174798E+04  0.10100000352E+00 0. -1.
</event>
<event>
 5   0  0.2203998E-07  0.3801130E+04  0.7818609E-02  0.8045912E-01
       -2   -1    0    0    0  501  0.00000000000E+00  0.00000000000E+00  0.20131648748E+04  0.20131648748E+04  0.25500000920E-02 0. -1.
        2   -1    0    0  501    0  0.00000000000E+00  0.00000000000E+00 -0.17942629965E+04  0.17942629965E+04  0.25500000920E-02 0.  1.
    10030    2    1    2    0    0  0.00000000000E+00  0.00000000000E+00  0.21890187831E+03  0.38074278713E+04  0.38011299587E+04 0.  0.
        3    1    3    3  502    0 -0.32177382656E+03  0.11613859981E+04  0.15815087642E+04  0.19883475082E+04  0.10100000352E+00 0. -1.
       -3    1    3    3    0  502  0.32177382656E+03 -0.11613859981E+04 -0.13626068858E+04  0.18190803631E+04  0.10100000352E+00 0.  1.
</event>
<event>
 5   0  0.1370688E-07  0.3786682E+04  0.7818609E-02  0.8049019E-01
        2   -1    0    0  501    0  0.00000000000E+00  0.00000000000E+00  0.32923121271E+04  0.32923121271E+04  0.25500000920E-02 0. -1.
       -2   -1    0    0    0  501  0.00000000000E+00  0.00000000000E+00 -0.10888212955E+04  0.10888212955E+04  0.25500000920E-02 0.  1.
    10030    2    1    2    0    0  0.00000000000E+00  0.00000000000E+00  0.22034908316E+04  0.43811334226E+04  0.37866816901E+04 0.  0.
        5    1    3    3  502    0  0.96570552830E+03  0.91769138237E+03 -0.45480684590E+03  0.14076988306E+04  0.46999998093E+01 0.  1.
       -5    1    3    3    0  502 -0.96570552830E+03 -0.91769138237E+03  0.26582976775E+04  0.29734345920E+04  0.46999998093E+01 0. -1.
</event>
<event>
 5   0  0.6661000E-08  0.3806359E+04  0.7818609E-02  0.8044792E-01
        1   -1    0    0  501    0  0.00000000000E+00  0.00000000000E+00  0.22186962330E+04  0.22186962331E+04  0.50400001928E-02 0. -1.
       -1   -1    0    0    0  501  0.00000000000E+00  0.00000000000E+00 -0.16325322321E+04  0.16325322321E+04  0.50400001928E-02 0.  1.
    10030    2    1    2    0    0  0.00000000000E+00  0.00000000000E+00  0.58616400094E+03  0.38512284652E+04  0.38063594753E+04 0.  0.
        4    1    3    3  502    0 -0.52321366645E+03  0.64244077124E+03 -0.14404767860E+04  0.16617634215E+04  0.12699999809E+01 0.  1.
       -4    1    3    3    0  502  0.52321366645E+03 -0.64244077124E+03  0.20266407869E+04  0.21894650436E+04  0.12699999809E+01 0. -1.
</event>
<event>
 5   0  0.2203998E-07  0.3799364E+04  0.7818609E-02  0.8046291E-01
       -2   -1    0    0    0  501  0.00000000000E+00  0.00000000000E+00  0.24126405276E+04  0.24126405276E+04  0.25500000920E-02 0.  1.
        2   -1    0    0  501    0  0.00000000000E+00  0.00000000000E+00 -0.14957853764E+04  0.14957853764E+04  0.25500000920E-02 0. -1.
    10030    2    1    2    0    0  0.00000000000E+00  0.00000000000E+00  0.91685515116E+03  0.39084259040E+04  0.37993643783E+04 0.  0.
        3    1    3    3  502    0  0.17671153944E+03  0.18877343375E+04  0.33660302472E+03  0.19256348314E+04  0.10100000352E+00 0.  1.
       -3    1    3    3    0  502 -0.17671153944E+03 -0.18877343375E+04  0.58025212644E+03  0.19827910726E+04  0.10100000352E+00 0. -1.
</event>
<event>
 5   0  0.2205204E-07  0.3792945E+04  0.7818609E-02  0.8047671E-01
        2   -1    0    0  501    0  0.00000000000E+00  0.00000000000E+00  0.17510794233E+04  0.17510794233E+04  0.25500000920E-02 0.  1.
       -2   -1    0    0    0  501  0.00000000000E+00  0.00000000000E+00 -0.20539376010E+04  0.20539376010E+04  0.25500000920E-02 0. -1.
    10030    2    1    2    0    0  0.00000000000E+00  0.00000000000E+00 -0.30285817769E+03  0.38050170244E+04  0.37929449614E+04 0.  0.
        2    1    3    3  502    0  0.96674830940E+03 -0.48558289760E+03 -0.17140178256E+04  0.20268818788E+04  0.25500000920E-02 0. -1.
       -2    1    3    3    0  502 -0.96674830940E+03  0.48558289760E+03  0.14111596479E+04  0.17781351456E+04  0.25500000920E-02 0.  1.
</event>
<event>
 5   0  0.2135314E-07  0.3801292E+04  0.7818609E-02  0.8045878E-01
        2   -1    0    0  501    0  0.00000000000E+00  0.00000000000E+00  0.30395979274E+04  0.30395979274E+04  0.25500000920E-02 0. -1.
       -2   -1    0    0    0  501  0.00000000000E+00  0.00000000000E+00 -0.11884646708E+04  0.11884646708E+04  0.25500000920E-02 0.  1.
    10030    2    1    2    0    0  0.00000000000E+00  0.00000000000E+00  0.18511332566E+04  0.42280625982E+04  0.38012917542E+04 0.  0.
        4    1    3    3  502    0 -0.15909884076E+04  0.45652991466E+03  0.19646848290E+04  0.25689787400E+04  0.12699999809E+01 0. -1.
       -4    1    3    3    0  502  0.15909884076E+04 -0.45652991466E+03 -0.11355157237E+03  0.16590838582E+04  0.12699999809E+01 0.  1.
</event>
<event>
 5   0  0.1370688E-07  0.3829221E+04  0.7818609E-02  0.8039913E-01
        2   -1    0    0  501    0  0.00000000000E+00  0.00000000000E+00  0.21491271344E+04  0.21491271344E+04  0.25500000920E-02 0. -1.
       -2   -1    0    0    0  501  0.00000000000E+00  0.00000000000E+00 -0.17056848702E+04  0.17056848702E+04  0.25500000920E-02 0.  1.
    10030    2    1    2    0    0  0.00000000000E+00  0.00000000000E+00  0.44344226428E+03  0.38548120046E+04  0.38292211413E+04 0.  0.
        5    1    3    3  502    0  0.54823567952E+03  0.57829934430E+03 -0.15308094068E+04  0.17258018490E+04  0.46999998093E+01 0.  1.
       -5    1    3    3    0  502 -0.54823567952E+03 -0.57829934430E+03  0.19742516711E+04  0.21290101556E+04  0.46999998093E+01 0. -1.
</event>
<event>
 5   0  0.2081337E-07  0.3794362E+04  0.7818609E-02  0.8047366E-01
        2   -1    0    0  501    0  0.00000000000E+00  0.00000000000E+00  0.23555195092E+04  0.23555195092E+04  0.25500000920E-02 0. -1.
       -2   -1    0    0    0  501  0.00000000000E+00  0.00000000000E+00 -0.15280263859E+04  0.15280263859E+04  0.25500000920E-02 0.  1.
    10030    2    1    2    0    0  0.00000000000E+00  0.00000000000E+00  0.82749312335E+03  0.38835458951E+04  0.37943621137E+04 0.  0.
        1    1    3    3  502    0  0.17735052628E+04 -0.46421655917E+03 -0.86073697883E+02  0.18352728986E+04  0.50400001928E-02 0.  1.
       -1    1    3    3    0  502 -0.17735052628E+04  0.46421655917E+03  0.91356682123E+03  0.20482729964E+04  0.50400001928E-02 0. -1.
</event>
<event>
 5   0  0.2081337E-07  0.3787455E+04  0.7818609E-02  0.8048852E-01
       -2   -1    0    0    0  501  0.00000000000E+00  0.00000000000E+00  0.23592688910E+04  0.23592688910E+04  0.25500000920E-02 0.  1.
        2   -1    0    0  501    0  0.00000000000E+00  0.00000000000E+00 -0.15200485784E+04  0.15200485784E+04  0.25500000920E-02 0. -1.
    10030    2    1    2    0    0  0.00000000000E+00  0.00000000000E+00  0.83922031261E+03  0.38793174694E+04  0.37874547252E+04 0.  0.
        1    1    3    3  502    0  0.70628573038E+03  0.79311118350E+03 -0.11863275986E+04  0.15922430887E+04  0.50400001928E-02 0. -1.
       -1    1    3    3    0  502 -0.70628573038E+03 -0.79311118350E+03  0.20255479112E+04  0.22870743807E+04  0.50400001928E-02 0.  1.
</event>
<event>
 5   0  0.6661000E-08  0.3884044E+04  0.7818609E-02  0.8028356E-01
        1   -1    0    0  501    0  0.00000000000E+00  0.00000000000E+00  0.16955561446E+04  0.16955561447E+04  0.50400001928E-02 0.  1.
       -1   -1    0    0    0  501  0.00000000000E+00  0.00000000000E+00 -0.22243139172E+04  0.22243139172E+04  0.50400001928E-02 0. -1.
    10030    2    1    2    0    0  0.00000000000E+00  0.00000000000E+00 -0.52875777255E+03  0.39198700619E+04  0.38840438360E+04 0.  0.
        1    1    3    3  502    0  0.55686995462E+03 -0.12268339906E+04 -0.16759305125E+04  0.21503415704E+04  0.50400001928E-02 0. -1.
       -1    1    3    3    0  502 -0.55686995462E+03  0.12268339906E+04  0.11471727399E+04  0.17695284914E+04  0.50400001928E-02 0.  1.
</event>
<event>
 5   0  0.1370688E-07  0.3779194E+04  0.7818609E-02  0.8050635E-01
        2   -1    0    0  501    0  0.00000000000E+00  0.00000000000E+00  0.26076190954E+04  0.26076190954E+04  0.25500000920E-02 0. -1.
       -2   -1    0    0    0  501  0.00000000000E+00  0.00000000000E+00 -0.13692863731E+04  0.13692863731E+04  0.25500000920E-02 0.  1.
    10030    2    1    2    0    0  0.00000000000E+00  0.00000000000E+00  0.12383327223E+04  0.39769054685E+04  0.37791942493E+04 0.  0.
        5    1    3    3  502    0 -0.14523147445E+04 -0.12006322974E+04  0.76731198125E+03  0.20345824626E+04  0.46999998093E+01 0.  1.
       -5    1    3    3    0  502  0.14523147445E+04  0.12006322974E+04  0.47102074103E+03  0.19423230059E+04  0.46999998093E+01 0. -1.
</event>
<event>
 5   0  0.2081337E-07  0.3823284E+04  0.7818609E-02  0.8041177E-01
        2   -1    0    0  501    0  0.00000000000E+00  0.00000000000E+00  0.28834056281E+04  0.28834056281E+04  0.25500000920E-02 0.  1.
       -2   -1    0    0    0  501  0.00000000000E+00  0.00000000000E+00 -0.12673812337E+04  0.12673812337E+04  0.25500000920E-02 0. -1.
    10030    2    1    2    0    0  0.00000000000E+00  0.00000000000E+00  0.16160243944E+04  0.41507868618E+04  0.38232835009E+04 0.  0.
        1    1    3    3  502    0  0.16885967328E+04  0.80574130879E+03  0.38225035876E+03  0.19096317235E+04  0.50400001928E-02 0.  1.
       -1    1    3    3    0  502 -0.16885967328E+04 -0.80574130879E+03  0.12337740357E+04  0.22411551383E+04  0.50400001928E-02 0. -1.
</event>
<event>
 5   0  0.6661000E-08  0.3804369E+04  0.7818609E-02  0.8045218E-01
       -1   -1    0    0    0  501  0.00000000000E+00  0.00000000000E+00  0.19852198765E+04  0.19852198765E+04  0.50400001928E-02 0. -1.
        1   -1    0    0  501    0  0.00000000000E+00  0.00000000000E+00 -0.18226221883E+04  0.18226221884E+04  0.50400001928E-02 0.  1.
    10030    2    1    2    0    0  0.00000000000E+00  0.00000000000E+00  0.16259768815E+03  0.38078420649E+04  0.38043689599E+04 0.  0.
        3    1    3    3  502    0 -0.15571963257E+04  0.34436343877E+03  0.11189994941E+04  0.19482316219E+04  0.10100000352E+00 0.  1.
       -3    1    3    3    0  502  0.15571963257E+04 -0.34436343877E+03 -0.95640180593E+03  0.18596104429E+04  0.10100000352E+00 0. -1.
</event>
<event>
 5   0  0.1370688E-07  0.3789248E+04  0.7818609E-02  0.8048466E-01
        2   -1    0    0  501    0  0.00000000000E+00  0.00000000000E+00  0.18874978864E+04  0.18874978864E+04  0.25500000920E-02 0. -1.
       -2   -1    0    0    0  501  0.00000000000E+00  0.00000000000E+00 -0.19017771979E+04  0.19017771979E+04  0.25500000920E-02 0.  1.
    10030    2    1    2    0    0  0.00000000000E+00  0.00000000000E+00 -0.14279311472E+02  0.37892750843E+04  0.37892481795E+04 0.  0.
        5    1    3    3  502    0  0.68631379875E+02 -0.15308027657E+04  0.11070993706E+04  0.18904387005E+04  0.46999998093E+01 0. -1.
       -5    1    3    3    0  502 -0.68631379875E+02  0.15308027657E+04 -0.11213786821E+04  0.18988363838E+04  0.46999998093E+01 0.  1.
</event>
<event>
 5   0  0.6661000E-08  0.3738707E+04  0.7818609E-02  0.8059438E-01
        1   -1    0    0  501    0  0.00000000000E+00  0.00000000000E+00  0.11627004246E+04  0.11627004246E+04  0.50400001928E-02 0. -1.
       -1   -1    0    0    0  501  0.00000000000E+00  0.00000000000E+00 -0.30054876955E+04  0.30054876955E+04  0.50400001928E-02 0.  1.
    10030    2    1    2    0    0  0.00000000000E+00  0.00000000000E+00 -0.18427872709E+04  0.41681881201E+04  0.37387066318E+04 0.  0.
        3    1    3    3  502    0  0.55229875080E+03  0.98915339517E+03 -0.25791572316E+04  0.28170037957E+04  0.10100000352E+00 0.  1.
       -3    1    3    3    0  502 -0.55229875080E+03 -0.98915339517E+03  0.73636996071E+03  0.13511843244E+04  0.10100000352E+00 0. -1.
</event>
<event>
 5   0  0.2205204E-07  0.3813050E+04  0.7818609E-02  0.8043360E-01
        2   -1    0    0  501    0  0.00000000000E+00  0.00000000000E+00  0.19532934345E+04  0.19532934345E+04  0.25500000920E-02 0.  1.
       -2   -1    0    0    0  501  0.00000000000E+00  0.00000000000E+00 -0.18608759388E+04  0.18608759388E+04  0.25500000920E-02 0. -1.
    10030    2    1    2    0    0  0.00000000000E+00  0.00000000000E+00  0.92417495638E+02  0.38141693733E+04  0.38130495689E+04 0.  0.
        2    1    3    3  502    0  0.18300856229E+04 -0.50099842956E+02 -0.48603150272E+03  0.18941884814E+04  0.25500000920E-02 0. -1.
       -2    1    3    3    0  502 -0.18300856229E+04  0.50099842956E+02  0.57844899836E+03  0.19199808919E+04  0.25500000920E-02 0.  1.
</event>
<event>
 5   0  0.6661000E-08  0.3581554E+04  0.7818609E-02  0.8094730E-01
       -1   -1    0    0    0  501  0.00000000000E+00  0.00000000000E+00  0.22217165118E+04  0.22217165118E+04  0.50400001928E-02 0. -1.
        1   -1    0    0  501    0  0.00000000000E+00  0.00000000000E+00 -0.14434254960E+04  0.14434254960E+04  0.50400001928E-02 0.  1.
    10030    2    1    2    0    0  0.00000000000E+00  0.00000000000E+00  0.77829101573E+03  0.36651420078E+04  0.35815539968E+04 0.  0.
        2    1    3    3  502    0 -0.93896407547E+02 -0.13399591834E+04  0.16010889887E+04  0.20899265772E+04  0.25500000920E-02 0. -1.
       -2    1    3    3    0  502  0.93896407547E+02  0.13399591834E+04 -0.82279797292E+03  0.15752154306E+04  0.25500000920E-02 0.  1.
</event>
<event>
 5   0  0.6725199E-08  0.3809165E+04  0.7818609E-02  0.8044191E-01
        1   -1    0    0  501    0  0.00000000000E+00  0.00000000000E+00  0.28810723338E+04  0.28810723338E+04  0.50400001928E-02 0.  1.
       -1   -1    0    0    0  501  0.00000000000E+00  0.00000000000E+00 -0.12590570481E+04  0.12590570481E+04  0.50400001928E-02 0. -1.
    10030    2    1    2    0    0  0.00000000000E+00  0.00000000000E+00  0.16220152857E+04  0.41401293819E+04  0.38091649625E+04 0.  0.
        5    1    3    3  502    0  0.27160126533E+03 -0.65231968847E+03  0.27333295732E+04  0.28231898393E+04  0.46999998093E+01 0.  1.
       -5    1    3    3    0  502 -0.27160126533E+03  0.65231968847E+03 -0.11113142875E+04  0.13169395426E+04  0.46999998093E+01 0. -1.
</event>
<event>
 5   0  0.6661000E-08  0.3793173E+04  0.7818609E-02  0.8047622E-01
       -1   -1    0    0    0  501  0.00000000000E+00  0.00000000000E+00  0.16427810664E+04  0.16427810664E+04  0.50400001928E-02 0.  1.
        1   -1    0    0  501    0  0.00000000000E+00  0.00000000000E+00 -0.21896042342E+04  0.21896042342E+04  0.50400001928E-02 0. -1.
    10030    2    1    2    0    0  0.00000000000E+00  0.00000000000E+00 -0.54682316784E+03  0.38323853006E+04  0.37931730142E+04 0.  0.
        1    1    3    3  502    0  0.15497820788E+04  0.10928043245E+04 -0.30527480868E+03  0.19207390485E+04  0.50400001928E-02 0. -1.
       -1    1    3    3    0  502 -0.15497820788E+04 -0.10928043245E+04 -0.24154835916E+03  0.19116462521E+04  0.50400001928E-02 0.  1.
</event>
<event>
 5   0  0.6661000E-08  0.3812279E+04  0.7818609E-02  0.8043525E-01
       -1   -1    0    0    0  501  0.00000000000E+00  0.00000000000E+00  0.15642278935E+04  0.15642278935E+04  0.50400001928E-02 0. -1.
        1   -1    0    0  501    0  0.00000000000E+00  0.00000000000E+00 -0.23227869638E+04  0.23227869638E+04  0.50400001928E-02 0.  1.
    10030    2    1    2    0    0  0.00000000000E+00  0.00000000000E+00 -0.75855907026E+03  0.38870148574E+04  0.38122791921E+04 0.  0.
        2    1    3    3  502    0 -0.29978066605E+03 -0.87755286709E+02 -0.22965141844E+04  0.23176597760E+04  0.25500000920E-02 0.  1.
       -2    1    3    3    0  502  0.29978066605E+03  0.87755286709E+02  0.15379551142E+04  0.15693550813E+04  0.25500000920E-02 0. -1.
</event>
<event>
 5   0  0.2203998E-07  0.3851533E+04  0.7818609E-02  0.8035186E-01
       -2   -1    0    0    0  501  0.00000000000E+00  0.00000000000E+00  0.12181824471E+04  0.12181824471E+04  0.25500000920E-02 0.  1.
        2   -1    0    0  501    0  0.00000000000E+00  0.00000000000E+00 -0.30443515824E+04  0.30443515824E+04  0.25500000920E-02 0. -1.
    10030    2    1    2    0    0  0.00000000000E+00  0.00000000000E+00 -0.18261691354E+04  0.42625340295E+04  0.38515325056E+04 0.  0.
        3    1    3    3  502    0  0.87211303322E+03 -0.42827333921E+03  0.92704580651E+03  0.13429121838E+04  0.10100000352E+00 0.  1.
       -3    1    3    3    0  502 -0.87211303322E+03  0.42827333921E+03 -0.27532149419E+04  0.29196218457E+04  0.10100000352E+00 0. -1.
</event>
<event>
 5   0  0.2081337E-07  0.3830245E+04  0.7818609E-02  0.8039695E-01
        2   -1    0    0  501    0  0.00000000000E+00  0.00000000000E+00  0.21402567257E+04  0.21402567257E+04  0.25500000920E-02 0.  1.
       -2   -1    0    0    0  501  0.00000000000E+00  0.00000000000E+00 -0.17136697766E+04  0.17136697766E+04  0.25500000920E-02 0. -1.
    10030    2    1    2    0    0  0.00000000000E+00  0.00000000000E+00  0.42658694910E+03  0.38539265024E+04  0.38302445171E+04 0.  0.
        1    1    3    3  502    0 -0.12427882939E+04 -0.13873247770E+03  0.16727525917E+04  0.20885091997E+04  0.50400001928E-02 0.  1.
       -1    1    3    3    0  502  0.12427882939E+04  0.13873247770E+03 -0.12461656426E+04  0.17654173027E+04  0.50400001928E-02 0. -1.
</event>
<event>
 5   0  0.1370688E-07  0.3796497E+04  0.7818609E-02  0.8046907E-01
        2   -1    0    0  501    0  0.00000000000E+00  0.00000000000E+00  0.23011991886E+04  0.23011991886E+04  0.25500000920E-02 0.  1.
       -2   -1    0    0    0  501  0.00000000000E+00  0.00000000000E+00 -0.15658567101E+04  0.15658567101E+04  0.25500000920E-02 0. -1.
    10030    2    1    2    0    0  0.00000000000E+00  0.00000000000E+00  0.73534247849E+03  0.38670558986E+04  0.37964974335E+04 0.  0.
        5    1    3    3  502    0  0.60802704631E+03  0.74674580763E+03 -0.12985796206E+04  0.16166809553E+04  0.46999998093E+01 0. -1.
       -5    1    3    3    0  502 -0.60802704631E+03 -0.74674580763E+03  0.20339220991E+04  0.22503749433E+04  0.46999998093E+01 0.  1.
</event>
<event>
 5   0  0.6661000E-08  0.3744307E+04  0.7818609E-02  0.8058213E-01
       -1   -1    0    0    0  501  0.00000000000E+00  0.00000000000E+00  0.12603091576E+04  0.12603091576E+04  0.50400001928E-02 0.  1.
        1   -1    0    0  501    0  0.00000000000E+00  0.00000000000E+00 -0.27810311924E+04  0.27810311924E+04  0.50400001928E-02 0. -1.
    10030    2    1    2    0    0  0.00000000000E+00  0.00000000000E+00 -0.15207220348E+04  0.40413403499E+04  0.37443071878E+04 0.  0.
        2    1    3    3  502    0 -0.15725508542E+03 -0.17658417133E+04 -0.11093749998E+03  0.17762976235E+04  0.25500000920E-02 0.  1.
       -2    1    3    3    0  502  0.15725508542E+03  0.17658417133E+04 -0.14097845348E+04  0.22650427265E+04  0.25500000920E-02 0. -1.
</event>
<event>
 5   0  0.6661000E-08  0.3803488E+04  0.7818609E-02  0.8045407E-01
        1   -1    0    0  501    0  0.00000000000E+00  0.00000000000E+00  0.17977493803E+04  0.17977493803E+04  0.50400001928E-02 0. -1.
       -1   -1    0    0    0  501  0.00000000000E+00  0.00000000000E+00 -0.20117548669E+04  0.20117548669E+04  0.50400001928E-02 0.  1.
    10030    2    1    2    0    0  0.00000000000E+00  0.00000000000E+00 -0.21400548655E+03  0.38095042472E+04  0.38034884331E+04 0.  0.
        3    1    3    3  502    0 -0.96209825513E+03  0.14400436877E+04  0.67990662255E+03  0.18605461296E+04  0.10100000352E+00 0. -1.
       -3    1    3    3    0  502  0.96209825513E+03 -0.14400436877E+04 -0.89391210910E+03  0.19489581175E+04  0.10100000352E+00 0.  1.
</event>
<event>
 5   0  0.6661000E-08  0.3809192E+04  0.7818609E-02  0.8044185E-01
        1   -1    0    0  501    0  0.00000000000E+00  0.00000000000E+00  0.27747852161E+04  0.27747852161E+04  0.50400001928E-02 0.  1.
       -1   -1    0    0    0  501  0.00000000000E+00  0.00000000000E+00 -0.13073029940E+04  0.13073029940E+04  0.50400001928E-02 0. -1.
    10030    2    1    2    0    0  0.00000000000E+00  0.00000000000E+00  0.14674822221E+04  0.40820882102E+04  0.38091915262E+04 0.  0.
        4    1    3    3  502    0 -0.11521897450E+04  0.44211569678E+03  0.22883514620E+04  0.25999156764E+04  0.12699999809E+01 0.  1.
       -4    1    3    3    0  502  0.11521897450E+04 -0.44211569678E+03 -0.82086923994E+03  0.14821725338E+04  0.12699999809E+01 0. -1.
</event>
<event>
 5   0  0.2205204E-07  0.3852804E+04  0.7818609E-02  0.8034917E-01
        2   -1    0    0  501    0  0.00000000000E+00  0.00000000000E+00  0.17415700684E+04  0.17415700684E+04  0.25500000920E-02 0. -1.
       -2   -1    0    0    0  501  0.00000000000E+00  0.00000000000E+00 -0.21308499324E+04  0.21308499324E+04  0.25500000920E-02 0.  1.
    10030    2    1    2    0    0  0.00000000000E+00  0.00000000000E+00 -0.38927986397E+03  0.38724200009E+04  0.38528038946E+04 0.  0.
        2    1    3    3  502    0  0.18036846934E+04 -0.65591782518E+03 -0.36136940369E+03  0.19529706891E+04  0.25500000920E-02 0. -1.
       -2    1    3    3    0  502 -0.18036846934E+04  0.65591782518E+03 -0.27910460282E+02  0.19194493118E+04  0.25500000920E-02 0.  1.
</event>
<event>
 5   0  0.2081337E-07  0.3793695E+04  0.7818609E-02  0.8047509E-01
       -2   -1    0    0    0  501  0.00000000000E+00  0.00000000000E+00  0.14313689992E+04  0.14313689992E+04  0.25500000920E-02 0. -1.
        2   -1    0    0  501    0  0.00000000000E+00  0.00000000000E+00 -0.25136983535E+04  0.25136983535E+04  0.25500000920E-02 0.  1.
    10030    2    1    2    0    0  0.00000000000E+00  0.00000000000E+00 -0.10823293542E+04  0.39450673527E+04  0.37936947144E+04 0.  0.
        1    1    3    3  502    0  0.21620871617E+03  0.11073709967E+04 -0.21268052530E+04  0.24075542190E+04  0.50400001928E-02 0.  1.
       -1    1    3    3    0  502 -0.21620871617E+03 -0.11073709967E+04  0.10444758987E+04  0.15375131337E+04  0.50400001928E-02 0. -1.
</event>
<event>
 5   0  0.6661000E-08  0.3801398E+04  0.7818609E-02  0.8045855E-01
        3   -1    0    0  501    0  0.00000000000E+00  0.00000000000E+00  0.92541440461E+03  0.92541441012E+03  0.10100000352E+00 0.  1.
       -3   -1    0    0    0  501  0.00000000000E+00  0.00000000000E+00 -0.39038254267E+04  0.39038254280E+04  0.10100000352E+00 0. -1.
    10030    2    1    2    0    0  0.00000000000E+00  0.00000000000E+00 -0.29784110221E+04  0.48292398381E+04  0.38013977952E+04 0.  0.
        3    1    3    3  502    0  0.25153429384E+03  0.18361607598E+04 -0.95337926542E+03  0.20841515950E+04  0.10100000352E+00 0. -1.
       -3    1    3    3    0  502 -0.25153429384E+03 -0.18361607598E+04 -0.20250317566E+04  0.27450882431E+04  0.10100000352E+00 0.  1.
</event>
<event>
 5   0  0.6661000E-08  0.3817313E+04  0.7818609E-02  0.8042450E-01
        1   -1    0    0  501    0  0.00000000000E+00  0.00000000000E+00  0.21787890281E+04  0.21787890281E+04  0.50400001928E-02 0.  1.
       -1   -1    0    0    0  501  0.00000000000E+00  0.00000000000E+00 -0.16720155871E+04  0.16720155871E+04  0.50400001928E-02 0. -1.
    10030    2    1    2    0    0  0.00000000000E+00  0.00000000000E+00  0.50677344099E+03  0.38508046151E+04  0.38173127804E+04 0.  0.
        1    1    3    3  502    0 -0.79858049447E+02 -0.17887963563E+04  0.92009339851E+03  0.20131422142E+04  0.50400001928E-02 0.  1.
       -1    1    3    3    0  502  0.79858049447E+02  0.17887963563E+04 -0.41331995752E+03  0.18376624009E+04  0.50400001928E-02 0. -1.
</event>
<event>
 5   0  0.2205204E-07  0.3794032E+04  0.7818609E-02  0.8047437E-01
        2   -1    0    0  501    0  0.00000000000E+00  0.00000000000E+00  0.22440185485E+04  0.22440185485E+04  0.25500000920E-02 0. -1.
       -2   -1    0    0    0  501  0.00000000000E+00  0.00000000000E+00 -0.16036715900E+04  0.16036715900E+04  0.25500000920E-02 0.  1.
    10030    2    1    2    0    0  0.00000000000E+00  0.00000000000E+00  0.64034695847E+03  0.38476901385E+04  0.37940315200E+04 0.  0.
        2    1    3    3  502    0 -0.62805417408E+03  0.12388182571E+03 -0.14908228327E+04  0.16224523015E+04  0.25500000920E-02 0.  1.
       -2    1    3    3    0  502  0.62805417408E+03 -0.12388182571E+03  0.21311697912E+04  0.22252378370E+04  0.25500000920E-02 0. -1.
</event>
<event>
 5   0  0.6661000E-08  0.3786165E+04  0.7818609E-02  0.8049130E-01
       -1   -1    0    0    0  501  0.00000000000E+00  0.00000000000E+00  0.21082955069E+04  0.21082955069E+04  0.50400001928E-02 0. -1.
        1   -1    0    0  501    0  0.00000000000E+00  0.00000000000E+00 -0.16998379302E+04  0.16998379302E+04  0.50400001928E-02 0.  1.
    10030    2    1    2    0    0  0.00000000000E+00  0.00000000000E+00  0.40845757668E+03  0.38081334370E+04  0.37861646402E+04 0.  0.
        1    1    3    3  502    0 -0.18098902700E+04  0.40885000895E+03 -0.17331512016E+03  0.18635716381E+04  0.50400001928E-02 0. -1.
       -1    1    3    3    0  502  0.18098902700E+04 -0.40885000895E+03  0.58177269684E+03  0.19445617990E+04  0.50400001928E-02 0.  1.
</event>
<event>
 5   0  0.2081337E-07  0.3801671E+04  0.7818609E-02  0.8045796E-01
        2   -1    0    0  501    0  0.00000000000E+00  0.00000000000E+00  0.24405858190E+04  0.24405858190E+04  0.25500000920E-02 0.  1.
       -2   -1    0    0    0  501  0.00000000000E+00  0.00000000000E+00 -0.14804541900E+04  0.14804541900E+04  0.25500000920E-02 0. -1.
    10030    2    1    2    0    0  0.00000000000E+00  0.00000000000E+00  0.96013162898E+03  0.39210400091E+04  0.38016709494E+04 0.  0.
        1    1    3    3  502    0 -0.13206832002E+04  0.13579176532E+04  0.64324551883E+03  0.20004772595E+04  0.50400001928E-02 0.  1.
       -1    1    3    3    0  502  0.13206832002E+04 -0.13579176532E+04  0.31688611015E+03  0.19205627496E+04  0.50400001928E-02 0. -1.
</event>
<event>
 5   0  0.6661000E-08  0.3808293E+04  0.7818609E-02  0.8044377E-01
        1   -1    0    0  501    0  0.00000000000E+00  0.00000000000E+00  0.19023586399E+04  0.19023586399E+04  0.50400001928E-02 0. -1.
       -1   -1    0    0    0  501  0.00000000000E+00  0.00000000000E+00 -0.19059364424E+04  0.19059364424E+04  0.50400001928E-02 0.  1.
    10030    2    1    2    0    0  0.00000000000E+00  0.00000000000E+00 -0.35778025788E+01  0.38082950823E+04  0.38082934017E+04 0.  0.
        3    1    3    3  502    0  0.12037772082E+04 -0.35045402793E+03 -0.14349249270E+04  0.19054939383E+04  0.10100000352E+00 0.  1.
       -3    1    3    3    0  502 -0.12037772082E+04  0.35045402793E+03  0.14313471244E+04  0.19028011440E+04  0.10100000352E+00 0. -1.
</event>
<event>
 5   0  0.1370688E-07  0.3802383E+04  0.7818609E-02  0.8045644E-01
       -2   -1    0    0    0  501  0.00000000000E+00  0.00000000000E+00  0.19857870348E+04  0.19857870348E+04  0.25500000920E-02 0.  1.
        2   -1    0    0  501    0  0.00000000000E+00  0.00000000000E+00 -0.18201995887E+04  0.18201995887E+04  0.25500000920E-02 0. -1.
    10030    2    1    2    0    0  0.00000000000E+00  0.00000000000E+00  0.16558744615E+03  0.38059866235E+04  0.38023828023E+04 0.  0.
        5    1    3    3  502    0 -0.24489964757E+03 -0.96103938087E+03 -0.15407590417E+04  0.18323572369E+04  0.46999998093E+01 0. -1.
       -5    1    3    3    0  502  0.24489964757E+03  0.96103938087E+03  0.17063464879E+04  0.19736293866E+04  0.46999998093E+01 0.  1.
</event>
<event>
 5   0  0.2081337E-07  0.3805942E+04  0.7818609E-02  0.8044881E-01
       -2   -1    0    0    0  501  0.00000000000E+00  0.00000000000E+00  0.11811608848E+04  0.11811608848E+04  0.25500000920E-02 0. -1.
        2   -1    0    0  501    0  0.00000000000E+00  0.00000000000E+00 -0.30658802563E+04  0.30658802563E+04  0.25500000920E-02 0.  1.
    10030    2    1    2    0    0  0.00000000000E+00  0.00000000000E+00 -0.18847193715E+04  0.42470411411E+04  0.38059415846E+04 0.  0.
        1    1    3    3  502    0 -0.14695293222E+04 -0.98637969401E+03 -0.16215929087E+03  0.17772892182E+04  0.50400001928E-02 0. -1.
       -1    1    3    3    0  502  0.14695293222E+04  0.98637969401E+03 -0.17225600806E+04  0.24697519229E+04  0.50400001928E-02 0.  1.
</event>
<event>
 5   0  0.6661000E-08  0.3419006E+04  0.7818609E-02  0.8133257E-01
        1   -1    0    0  501    0  0.00000000000E+00  0.00000000000E+00  0.16779690218E+04  0.16779690218E+04  0.50400001928E-02 0.  1.
       -1   -1    0    0    0  501  0.00000000000E+00  0.00000000000E+00 -0.17416295557E+04  0.17416295558E+04  0.50400001928E-02 0. -1.
    10030    2    1    2    0    0  0.00000000000E+00  0.00000000000E+00 -0.63660533954E+02  0.34195985776E+04  0.34190059620E+04 0.  0.
        2    1    3    3  502    0 -0.10147113822E+04  0.11860247726E+04 -0.72916449083E+03  0.17227811251E+04  0.25500000920E-02 0. -1.
       -2    1    3    3    0  502  0.10147113822E+04 -0.11860247726E+04  0.66550395688E+03  0.16968174525E+04  0.25500000920E-02 0.  1.
</event>
<event>
 5   0  0.2205204E-07  0.3816735E+04  0.7818609E-02  0.8042573E-01
       -2   -1    0    0    0  501  0.00000000000E+00  0.00000000000E+00  0.18413497195E+04  0.18413497195E+04  0.25500000920E-02 0. -1.
        2   -1    0    0  501    0  0.00000000000E+00  0.00000000000E+00 -0.19778249549E+04  0.19778249549E+04  0.25500000920E-02 0.  1.
    10030    2    1    2    0    0  0.00000000000E+00  0.00000000000E+00 -0.13647523540E+03  0.38191746745E+04  0.38167354774E+04 0.  0.
        2    1    3    3  502    0 -0.10590449730E+04  0.27879954681E+03 -0.16321062067E+04  0.19654709645E+04  0.25500000920E-02 0.  1.
       -2    1    3    3    0  502  0.10590449730E+04 -0.27879954681E+03  0.14956309713E+04  0.18537037100E+04  0.25500000920E-02 0. -1.
</event>
<event>
 5   0  0.2081337E-07  0.3736042E+04  0.7818609E-02  0.8060021E-01
       -2   -1    0    0    0  501  0.00000000000E+00  0.00000000000E+00  0.10544840959E+04  0.10544840959E+04  0.25500000920E-02 0.  1.
        2   -1    0    0  501    0  0.00000000000E+00  0.00000000000E+00 -0.33092043319E+04  0.33092043319E+04  0.25500000920E-02 0. -1.
    10030    2    1    2    0    0  0.00000000000E+00  0.00000000000E+00 -0.22547202361E+04  0.43636884278E+04  0.37360424719E+04 0.  0.
        1    1    3    3  502    0 -0.11475098320E+03  0.12898221210E+04 -0.26999092792E+04  0.29943812395E+04  0.50400001928E-02 0. -1.
       -1    1    3    3    0  502  0.11475098320E+03 -0.12898221210E+04  0.44518904308E+03  0.13693071883E+04  0.50400001928E-02 0.  1.
</event>
<event>
 5   0  0.6661000E-08  0.3795849E+04  0.7818609E-02  0.8047046E-01
       -1   -1    0    0    0  501  0.00000000000E+00  0.00000000000E+00  0.25612584375E+04  0.25612584375E+04  0.50400001928E-02 0. -1.
        1   -1    0    0  501    0  0.00000000000E+00  0.00000000000E+00 -0.14063854317E+04  0.14063854317E+04  0.50400001928E-02 0.  1.
    10030    2    1    2    0    0  0.00000000000E+00  0.00000000000E+00  0.11548730057E+04  0.39676438692E+04  0.37958485498E+04 0.  0.
        2    1    3    3  502    0 -0.18328613040E+04  0.14319207325E+03  0.84685941336E+02  0.18403956744E+04  0.25500000920E-02 0.  1.
       -2    1    3    3    0  502  0.18328613040E+04 -0.14319207325E+03  0.10701870644E+04  0.21272481948E+04  0.25500000920E-02 0. -1.
</event>
<event>
 5   0  0.6661000E-08  0.3781377E+04  0.7818609E-02  0.8050163E-01
        1   -1    0    0  501    0  0.00000000000E+00  0.00000000000E+00  0.14545391538E+04  0.14545391538E+04  0.50400001928E-02 0.  1.
       -1   -1    0    0    0  501  0.00000000000E+00  0.00000000000E+00 -0.24576186187E+04  0.24576186187E+04  0.50400001928E-02 0. -1.
    10030    2    1    2    0    0  0.00000000000E+00  0.00000000000E+00 -0.10030794649E+04  0.39121577725E+04  0.37813767366E+04 0.  0.
        4    1    3    3  502    0 -0.73139115405E+02 -0.18388736357E+04 -0.95000043059E+03  0.20710644628E+04  0.12699999809E+01 0.  1.
       -4    1    3    3    0  502  0.73139115405E+02  0.18388736357E+04 -0.53079034266E+02  0.18410933097E+04  0.12699999809E+01 0. -1.
</event>
<event>
 5   0  0.1370688E-07  0.3809454E+04  0.7818609E-02  0.8044129E-01
       -2   -1    0    0    0  501  0.00000000000E+00  0.00000000000E+00  0.18469990779E+04  0.18469990779E+04  0.25500000920E-02 0.  1.
        2   -1    0    0  501    0  0.00000000000E+00  0.00000000000E+00 -0.19642589463E+04  0.19642589464E+04  0.25500000920E-02 0. -1.
    10030    2    1    2    0    0  0.00000000000E+00  0.00000000000E+00 -0.11725986849E+03  0.38112580242E+04  0.38094537470E+04 0.  0.
        5    1    3    3  502    0 -0.66888012606E+03  0.16491970292E+04 -0.73770829951E+03  0.19265220189E+04  0.46999998093E+01 0. -1.
       -5    1    3    3    0  502  0.66888012606E+03 -0.16491970292E+04  0.62044843102E+03  0.18847360053E+04  0.46999998093E+01 0.  1.
</event>
<event>
 5   0  0.6661000E-08  0.3802942E+04  0.7818609E-02  0.8045524E-01
        1   -1    0    0  501    0  0.00000000000E+00  0.00000000000E+00  0.16174474951E+04  0.16174474951E+04  0.50400001928E-02 0. -1.
       -1   -1    0    0    0  501  0.00000000000E+00  0.00000000000E+00 -0.22353684753E+04  0.22353684753E+04  0.50400001928E-02 0.  1.
    10030    2    1    2    0    0  0.00000000000E+00  0.00000000000E+00 -0.61792098024E+03  0.38528159704E+04  0.38029415672E+04 0.  0.
        3    1    3    3  502    0 -0.13348025947E+04 -0.10321963234E+04  0.57915685539E+03  0.17839702604E+04  0.10100000352E+00 0.  1.
       -3    1    3    3    0  502  0.13348025947E+04  0.10321963234E+04 -0.11970778356E+04  0.20688457099E+04  0.10100000352E+00 0. -1.
</event>
<event>
 5   0  0.6661000E-08  0.3772071E+04  0.7818609E-02  0.8052175E-01
       -1   -1    0    0    0  501  0.00000000000E+00  0.00000000000E+00  0.20894199010E+04  0.20894199010E+04  0.50400001928E-02 0.  1.
        1   -1    0    0  501    0  0.00000000000E+00  0.00000000000E+00 -0.17024484517E+04  0.17024484517E+04  0.50400001928E-02 0. -1.
    10030    2    1    2    0    0  0.00000000000E+00  0.00000000000E+00  0.38697144930E+03  0.37918683527E+04  0.37720708771E+04 0.  0.
        1    1    3    3  502    0  0.15616714393E+04 -0.75516751113E+03 -0.55069285694E+03  0.18199885376E+04  0.50400001928E-02 0. -1.
       -1    1    3    3    0  502 -0.15616714393E+04  0.75516751113E+03  0.93766430623E+03  0.19718798151E+04  0.50400001928E-02 0.  1.
</event>
<event>
 5   0  0.2203998E-07  0.3815189E+04  0.7818609E-02  0.8042903E-01
       -2   -1    0    0    0  501  0.00000000000E+00  0.00000000000E+00  0.21594290198E+04  0.21594290198E+04  0.25500000920E-02 0.  1.
        2   -1    0    0  501    0  0.00000000000E+00  0.00000000000E+00 -0.16851289452E+04  0.16851289452E+04  0.25500000920E-02 0. -1.
    10030    2    1    2    0    0  0.00000000000E+00  0.00000000000E+00  0.47430007466E+03  0.38445579650E+04  0.38151887745E+04 0.  0.
        3    1    3    3  502    0  0.10349229265E+04  0.94751971353E+03  0.15394051259E+04  0.20829371625E+04  0.10100000352E+00 0.  1.
       -3    1    3    3    0  502 -0.10349229265E+04 -0.94751971353E+03 -0.10651050512E+04  0.17616208025E+04  0.10100000352E+00 0. -1.
</event>
<event>
 5   0  0.1370688E-07  0.3780554E+04  0.7818609E-02  0.8050341E-01
       -2   -1    0    0    0  501  0.00000000000E+00  0.00000000000E+00  0.24975671014E+04  0.24975671014E+04  0.25500000920E-02 0.  1.
        2   -1    0    0  501    0  0.00000000000E+00  0.00000000000E+00 -0.14306513892E+04  0.14306513892E+04  0.25500000920E-02 0. -1.
    10030    2    1    2    0    0  0.00000000000E+00  0.00000000000E+00  0.10669157121E+04  0.39282184906E+04  0.37805543738E+04 0.  0.
        5    1    3    3  502    0  0.93815731994E+02  0.16184550546E+04  0.15434998104E+04  0.22384396151E+04  0.46999998093E+01 0.  1.
       -5    1    3    3    0  502 -0.93815731994E+02 -0.16184550546E+04 -0.47658409827E+03  0.16897788755E+04  0.46999998093E+01 0. -1.
</event>
<event>
 5   0  0.6725199E-08  0.3797044E+04  0.7818609E-02  0.8046790E-01
       -1   -1    0    0    0  501  0.00000000000E+00  0.00000000000E+00  0.18261010390E+04  0.18261010390E+04  0.50400001928E-02 0.  1.
        1   -1    0    0  501    0  0.00000000000E+00  0.00000000000E+00 -0.19738146937E+04  0.19738146937E+04  0.50400001928E-02 0. -1.
    10030    2    1    2    0    0  0.00000000000E+00  0.00000000000E+00 -0.14771365462E+03  0.37999157327E+04  0.37970436200E+04 0.  0.
        5    1    3    3  502    0  0.15574199540E+04  0.10284762835E+04 -0.42203175236E+03  0.19134924272E+04  0.46999998093E+01 0. -1.
       -5    1    3    3    0  502 -0.15574199540E+04 -0.10284762835E+04  0.27431809774E+03  0.18864233055E+04  0.46999998093E+01 0.  1.
</event>
<event>
 5   0  0.6661000E-08  0.3792214E+04  0.7818609E-02  0.8047828E-01
       -1   -1    0    0    0  501  0.00000000000E+00  0.00000000000E+00  0.12318500168E+04  0.12318500168E+04  0.50400001928E-02 0.  1.
        1   -1    0    0  501    0  0.00000000000E+00  0.00000000000E+00 -0.29185546132E+04  0.29185546132E+04  0.50400001928E-02 0. -1.
    10030    2    1    2    0    0  0.00000000000E+00  0.00000000000E+00 -0.16867045965E+04  0.41504046300E+04  0.37922138913E+04 0.  0.
        2    1    3    3  502    0  0.12515965947E+04  0.45246790202E+02  0.71472941662E+03  0.14420053560E+04  0.25500000920E-02 0.  1.
       -2    1    3    3    0  502 -0.12515965947E+04 -0.45246790202E+02 -0.24014340131E+04  0.27083992740E+04  0.25500000920E-02 0. -1.
</event>
<event>
 5   0  0.2135314E-07  0.3805651E+04  0.7818609E-02  0.8044943E-01
       -2   -1    0    0    0  501  0.00000000000E+00  0.00000000000E+00  0.17086846645E+04  0.17086846645E+04  0.25500000920E-02 0.  1.
        2   -1    0    0  501    0  0.00000000000E+00  0.00000000000E+00 -0.21190241842E+04  0.21190241842E+04  0.25500000920E-02 0. -1.
    10030    2    1    2    0    0  0.00000000000E+00  0.00000000000E+00 -0.41033951978E+03  0.38277088487E+04  0.38056506026E+04 0.  0.
        4    1    3    3  502    0  0.63844171698E+03  0.68667094743E+03 -0.18705500885E+04  0.20923871684E+04  0.12699999809E+01 0. -1.
       -4    1    3    3    0  502 -0.63844171698E+03 -0.68667094743E+03  0.14602105687E+04  0.17353216803E+04  0.12699999809E+01 0.  1.
</event>
<event>
 5   0  0.1370688E-07  0.3783049E+04  0.7818609E-02  0.8049802E-01
       -2   -1    0    0    0  501  0.00000000000E+00  0.00000000000E+00  0.15535407121E+04  0.15535407121E+04  0.25500000920E-02 0. -1.
        2   -1    0    0  501    0  0.00000000000E+00  0.00000000000E+00 -0.23030392076E+04  0.23030392076E+04  0.25500000920E-02 0.  1.
    10030    2    1    2    0    0  0.00000000000E+00  0.00000000000E+00 -0.74949849545E+03  0.38565799197E+04  0.37830491250E+04 0.  0.
        5    1    3    3  502    0  0.17439149361E+04  0.34290286980E+03  0.28515124938E+03  0.18000430571E+04  0.46999998093E+01 0. -1.
       -5    1    3    3    0  502 -0.17439149361E+04 -0.34290286980E+03 -0.10346497448E+04  0.20565368625E+04  0.46999998093E+01 0.  1.
</event>
<event>
 5   0  0.6661000E-08  0.3931204E+04  0.7818609E-02  0.8018570E-01
       -1   -1    0    0    0  501  0.00000000000E+00  0.00000000000E+00  0.15436639005E+04  0.15436639005E+04  0.50400001928E-02 0.  1.
        1   -1    0    0  501    0  0.00000000000E+00  0.00000000000E+00 -0.25028713226E+04  0.25028713226E+04  0.50400001928E-02 0. -1.
    10030    2    1    2    0    0  0.00000000000E+00  0.00000000000E+00 -0.95920742210E+03  0.40465352232E+04  0.39312044508E+04 0.  0.
        4    1    3    3  502    0 -0.90754265445E+03 -0.31453444812E+02 -0.22740097514E+04  0.24486210306E+04  0.12699999809E+01 0. -1.
       -4    1    3    3    0  502  0.90754265445E+03  0.31453444812E+02  0.13148023293E+04  0.15979141926E+04  0.12699999809E+01 0.  1.
</event>
<event>
 5   0  0.2205204E-07  0.3796553E+04  0.7818609E-02  0.8046895E-01
       -2   -1    0    0    0  501  0.00000000000E+00  0.00000000000E+00  0.17547173980E+04  0.17547173980E+04  0.25500000920E-02 0.  1.
        2   -1    0    0  501    0  0.00000000000E+00  0.00000000000E+00 -0.20535805568E+04  0.20535805568E+04  0.25500000920E-02 0. -1.
    10030    2    1    2    0    0  0.00000000000E+00  0.00000000000E+00 -0.29886315882E+03  0.38082979549E+04  0.37965529267E+04 0.  0.
        2    1    3    3  502    0  0.11353126482E+04  0.21677911646E+03 -0.16599205354E+04  0.20226873655E+04  0.25500000920E-02 0. -1.
       -2    1    3    3    0  502 -0.11353126482E+04 -0.21677911646E+03  0.13610573766E+04  0.17856105894E+04  0.25500000920E-02 0.  1.
</event>
<event>
 5   0  0.6661000E-08  0.3815472E+04  0.7818609E-02  0.8042843E-01
        1   -1    0    0  501    0  0.00000000000E+00  0.00000000000E+00  0.21609360796E+04  0.21609360796E+04  0.50400001928E-02 0.  1.
       -1   -1    0    0    0  501  0.00000000000E+00  0.00000000000E+00 -0.16842041635E+04  0.16842041635E+04  0.50400001928E-02 0. -1.
    10030    2    1    2    0    0  0.00000000000E+00  0.00000000000E+00  0.47673191610E+03  0.38451402432E+04  0.38154724701E+04 0.  0.
        2    1    3    3  502    0 -0.12926910443E+04 -0.14014724204E+04  0.30431531806E+03  0.19307467193E+04  0.25500000920E-02 0.  1.
       -2    1    3    3    0  502  0.12926910443E+04  0.14014724204E+04  0.17241659804E+03  0.19143935239E+04  0.25500000920E-02 0. -1.
</event>
<event>
 5   0  0.2081337E-07  0.3812560E+04  0.7818609E-02  0.8043465E-01
        2   -1    0    0  501    0  0.00000000000E+00  0.00000000000E+00  0.26069670697E+04  0.26069670697E+04  0.25500000920E-02 0.  1.
       -2   -1    0    0    0  501  0.00000000000E+00  0.00000000000E+00 -0.13939201507E+04  0.13939201507E+04  0.25500000920E-02 0. -1.
    10030    2    1    2    0    0  0.00000000000E+00  0.00000000000E+00  0.12130469190E+04  0.40008872204E+04  0.38125602582E+04 0.  0.
        1    1    3    3  502    0  0.11963358017E+04  0.14808385652E+04  0.50262937285E+03  0.19689434967E+04  0.50400001928E-02 0. -1.
       -1    1    3    3    0  502 -0.11963358017E+04 -0.14808385652E+04  0.71041754614E+03  0.20319437237E+04  0.50400001928E-02 0.  1.
</event>
<event>
 5   0  0.6661000E-08  0.3796807E+04  0.7818609E-02  0.8046840E-01
       -1   -1    0    0    0  501  0.00000000000E+00  0.00000000000E+00  0.15642843051E+04  0.15642843051E+04  0.50400001928E-02 0.  1.
        1   -1    0    0  501    0  0.00000000000E+00  0.00000000000E+00 -0.23038876429E+04  0.23038876429E+04  0.50400001928E-02 0. -1.
    10030    2    1    2    0    0  0.00000000000E+00  0.00000000000E+00 -0.73960333785E+03  0.38681719480E+04  0.37968067007E+04 0.  0.
        1    1    3    3  502    0 -0.12377974585E+04 -0.55356220428E+03 -0.17234446130E+04  0.21929056059E+04  0.50400001928E-02 0. -1.
       -1    1    3    3    0  502  0.12377974585E+04  0.55356220428E+03  0.98384127516E+03  0.16752663421E+04  0.50400001928E-02 0.  1.
</event>
<event>
 5   0  0.6661000E-08  0.3828298E+04  0.7818609E-02  0.8040109E-01
       -1   -1    0    0    0  501  0.00000000000E+00  0.00000000000E+00  0.22734482610E+04  0.22734482610E+04  0.50400001928E-02 0. -1.
        1   -1    0    0  501    0  0.00000000000E+00  0.00000000000E+00 -0.16116341867E+04  0.16116341867E+04  0.50400001928E-02 0.  1.
    10030    2    1    2    0    0  0.00000000000E+00  0.00000000000E+00  0.66181407431E+03  0.38850824477E+04  0.38282982847E+04 0.  0.
        3    1    3    3  502    0  0.40788012390E+03  0.14784261585E+04  0.14932591003E+04  0.21405449895E+04  0.10100000352E+00 0. -1.
       -3    1    3    3    0  502 -0.40788012390E+03 -0.14784261585E+04 -0.83144502595E+03  0.17445374582E+04  0.10100000352E+00 0.  1.
</event>
<event>
 5   0  0.2135314E-07  0.3789740E+04  0.7818609E-02  0.8048360E-01
       -2   -1    0    0    0  501  0.00000000000E+00  0.00000000000E+00  0.18957021701E+04  0.18957021701E+04  0.25500000920E-02 0. -1.
        2   -1    0    0  501    0  0.00000000000E+00  0.00000000000E+00 -0.18940386730E+04  0.18940386730E+04  0.25500000920E-02 0.  1.
    10030    2    1    2    0    0  0.00000000000E+00  0.00000000000E+00  0.16634970932E+01  0.37897408431E+04  0.37897404780E+04 0.  0.
        4    1    3    3  502    0  0.14304164123E+04 -0.12211925572E+03 -0.12359090001E+04  0.18943275574E+04  0.12699999809E+01 0. -1.
       -4    1    3    3    0  502 -0.14304164123E+04  0.12211925572E+03  0.12375724972E+04  0.18954132858E+04  0.12699999809E+01 0.  1.
</event>
<event>
 5   0  0.2081337E-07  0.3797990E+04  0.7818609E-02  0.8046586E-01
       -2   -1    0    0    0  501  0.00000000000E+00  0.00000000000E+00  0.18449815938E+04  0.18449815938E+04  0.25500000920E-02 0.  1.
        2   -1    0    0  501    0  0.00000000000E+00  0.00000000000E+00 -0.19545898563E+04  0.19545898563E+04  0.25500000920E-02 0. -1.
    10030    2    1    2    0    0  0.00000000000E+00  0.00000000000E+00 -0.10960826252E+03  0.37995714501E+04  0.37979901571E+04 0.  0.
        1    1    3    3  502    0  0.40462359125E+03 -0.10932942094E+04 -0.15544845762E+04  0.19430478061E+04  0.50400001928E-02 0. -1.
       -1    1    3    3    0  502 -0.40462359125E+03  0.10932942094E+04  0.14448763137E+04  0.18565236440E+04  0.50400001928E-02 0.  1.
</event>
<event>
 5   0  0.1370688E-07  0.3776375E+04  0.7818609E-02  0.8051244E-01
        2   -1    0    0  501    0  0.00000000000E+00  0.00000000000E+00  0.21022082032E+04  0.21022082032E+04  0.25500000920E-02 0. -1.
       -2   -1    0    0    0  501  0.00000000000E+00  0.00000000000E+00 -0.16959560042E+04  0.16959560042E+04  0.25500000920E-02 0.  1.
    10030    2    1    2    0    0  0.00000000000E+00  0.00000000000E+00  0.40625219900E+03  0.37981642073E+04  0.37763753119E+04 0.  0.
        5    1    3    3  502    0 -0.29801354779E+03  0.86923631395E+03 -0.14558900850E+04  0.17216334900E+04  0.46999998093E+01 0.  1.
       -5    1    3    3    0  502  0.29801354779E+03 -0.86923631395E+03  0.18621422840E+04  0.20765307173E+04  0.46999998093E+01 0. -1.
</event>
<event>
 5   0  0.6661000E-08  0.3831858E+04  0.7818609E-02  0.8039353E-01
        1   -1    0    0  501    0  0.00000000000E+00  0.00000000000E+00  0.20098020404E+04  0.20098020404E+04  0.50400001928E-02 0.  1.
       -1   -1    0    0    0  501  0.00000000000E+00  0.00000000000E+00 -0.18264409390E+04  0.18264409390E+04  0.50400001928E-02 0. -1.
    10030    2    1    2    0    0  0.00000000000E+00  0.00000000000E+00  0.18336110133E+03  0.38362429794E+04  0.38318584138E+04 0.  0.
        4    1    3    3  502    0  0.14841915785E+04  0.10553898285E+03 -0.11166885177E+04  0.18603650117E+04  0.12699999809E+01 0. -1.
       -4    1    3    3    0  502 -0.14841915785E+04 -0.10553898285E+03  0.13000496190E+04  0.19758779677E+04  0.12699999809E+01 0.  1.
</event>
<event>
 5   0  0.6725199E-08  0.3814191E+04  0.7818609E-02  0.8043116E-01
        1   -1    0    0  501    0  0.00000000000E+00  0.00000000000E+00  0.20562488828E+04  0.20562488828E+04  0.50400001928E-02 0.  1.
       -1   -1    0    0    0  501  0.00000000000E+00  0.00000000000E+00 -0.17687608757E+04  0.17687608757E+04  0.50400001928E-02 0. -1.
    10030    2    1    2    0    0  0.00000000000E+00  0.00000000000E+00  0.28748800716E+03  0.38250097585E+04  0.38141906479E+04 0.  0.
        5    1    3    3  502    0 -0.61301658426E+03  0.51713344128E+03 -0.15914165578E+04  0.17820900873E+04  0.46999998093E+01 0. -1.
       -5    1    3    3    0  502  0.61301658426E+03 -0.51713344128E+03  0.18789045650E+04  0.20429196712E+04  0.46999998093E+01 0.  1.
</event>
<event>
 5   0  0.2205204E-07  0.3783179E+04  0.7818609E-02  0.8049774E-01
       -2   -1    0    0    0  501  0.00000000000E+00  0.00000000000E+00  0.18103541489E+04  0.18103541489E+04  0.25500000920E-02 0.  1.
        2   -1    0    0  501    0  0.00000000000E+00  0.00000000000E+00 -0.19764704135E+04  0.19764704135E+04  0.25500000920E-02 0. -1.
    10030    2    1    2    0    0  0.00000000000E+00  0.00000000000E+00 -0.16611626463E+03  0.37868245625E+04  0.37831793050E+04 0.  0.
        2    1    3    3  502    0  0.13506365549E+04  0.89896254412E+03 -0.10564964156E+04  0.19361140037E+04  0.25500000920E-02 0. -1.
       -2    1    3    3    0  502 -0.13506365549E+04 -0.89896254412E+03  0.89038015095E+03  0.18507105588E+04  0.25500000920E-02 0.  1.
</event>
<event>
 5   0  0.6661000E-08  0.3773553E+04  0.7818609E-02  0.8051854E-01
       -1   -1    0    0    0  501  0.00000000000E+00  0.00000000000E+00  0.15917958617E+04  0.15917958617E+04  0.50400001928E-02 0. -1.
        1   -1    0    0  501    0  0.00000000000E+00  0.00000000000E+00 -0.22364204737E+04  0.22364204737E+04  0.50400001928E-02 0.  1.
    10030    2    1    2    0    0  0.00000000000E+00  0.00000000000E+00 -0.64462461200E+03  0.38282163354E+04  0.37735526258E+04 0.  0.
        4    1    3    3  502    0  0.40927332568E+03 -0.17096353267E+04 -0.10174874168E+04  0.20311671181E+04  0.12699999809E+01 0.  1.
       -4    1    3    3    0  502 -0.40927332568E+03  0.17096353267E+04  0.37286280480E+03  0.17970492173E+04  0.12699999809E+01 0. -1.
</event>
<event>
 5   0  0.1370688E-07  0.3338980E+04  0.7818609E-02  0.8153047E-01
       -2   -1    0    0    0  501  0.00000000000E+00  0.00000000000E+00  0.12586256911E+04  0.12586256911E+04  0.25500000920E-02 0.  1.
        2   -1    0    0  501    0  0.00000000000E+00  0.00000000000E+00 -0.22144763160E+04  0.22144763160E+04  0.25500000920E-02 0. -1.
    10030    2    1    2    0    0  0.00000000000E+00  0.00000000000E+00 -0.95585062489E+03  0.34731020071E+04  0.33389799542E+04 0.  0.
        5    1    3    3  502    0 -0.14866384469E+04  0.43710421820E+03  0.16833730902E+03  0.15586896769E+04  0.46999998093E+01 0. -1.
       -5    1    3    3    0  502  0.14866384469E+04 -0.43710421820E+03 -0.11241879339E+04  0.19144123302E+04  0.46999998093E+01 0.  1.
</event>
<event>
 5   0  0.6725199E-08  0.3734781E+04  0.7818609E-02  0.8060297E-01
        1   -1    0    0  501    0  0.00000000000E+00  0.00000000000E+00  0.14051442360E+04  0.14051442360E+04  0.50400001928E-02 0. -1.
       -1   -1    0    0    0  501  0.00000000000E+00  0.00000000000E+00 -0.24817000420E+04  0.24817000420E+04  0.50400001928E-02 0.  1.
    10030    2    1    2    0    0  0.00000000000E+00  0.00000000000E+00 -0.10765558060E+04  0.38868442780E+04  0.37347805877E+04 0.  0.
        5    1    3    3  502    0 -0.14022307654E+04  0.18936322477E+03  0.72995042532E+03  0.15921555401E+04  0.46999998093E+01 0. -1.
       -5    1    3    3    0  502  0.14022307654E+04 -0.18936322477E+03 -0.18065062313E+04  0.22946887380E+04  0.46999998093E+01 0.  1.
</event>
<event>
 5   0  0.6661000E-08  0.3792747E+04  0.7818609E-02  0.8047713E-01
       -1   -1    0    0    0  501  0.00000000000E+00  0.00000000000E+00  0.19474600606E+04  0.19474600606E+04  0.50400001928E-02 0. -1.
        1   -1    0    0  501    0  0.00000000000E+00  0.00000000000E+00 -0.18466269482E+04  0.18466269482E+04  0.50400001928E-02 0.  1.
    10030    2    1    2    0    0  0.00000000000E+00  0.00000000000E+00  0.10083311240E+03  0.37940870088E+04  0.37927468824E+04 0.  0.
        4    1    3    3  502    0  0.71525837831E+03  0.10851314039E+04  0.14318918065E+04  0.19337581208E+04  0.12699999809E+01 0. -1.
       -4    1    3    3    0  502 -0.71525837831E+03 -0.10851314039E+04 -0.13310586941E+04  0.18603288880E+04  0.12699999809E+01 0.  1.
</event>
<event>
 5   0  0.2205204E-07  0.3809953E+04  0.7818609E-02  0.8044022E-01
       -2   -1    0    0    0  501  0.00000000000E+00  0.00000000000E+00  0.31353074986E+04  0.31353074986E+04  0.25500000920E-02 0. -1.
        2   -1    0    0  501    0  0.00000000000E+00  0.00000000000E+00 -0.11574418534E+04  0.11574418534E+04  0.25500000920E-02 0.  1.
    10030    2    1    2    0    0  0.00000000000E+00  0.00000000000E+00  0.19778656452E+04  0.42927493521E+04  0.38099533447E+04 0.  0.
        2    1    3    3  502    0  0.11116225781E+04  0.43859899174E+03 -0.68258999139E+03  0.13762277893E+04  0.25500000920E-02 0.  1.
       -2    1    3    3    0  502 -0.11116225781E+04 -0.43859899174E+03  0.26604556366E+04  0.29165215628E+04  0.25500000920E-02 0. -1.
</event>
<event>
 5   0  0.6725199E-08  0.3799580E+04  0.7818609E-02  0.8046245E-01
       -1   -1    0    0    0  501  0.00000000000E+00  0.00000000000E+00  0.16267843498E+04  0.16267843498E+04  0.50400001928E-02 0. -1.
        1   -1    0    0  501    0  0.00000000000E+00  0.00000000000E+00 -0.22186113001E+04  0.22186113001E+04  0.50400001928E-02 0.  1.
    10030    2    1    2    0    0  0.00000000000E+00  0.00000000000E+00 -0.59182695034E+03  0.38453956499E+04  0.37995800511E+04 0.  0.
        5    1    3    3  502    0 -0.17642895509E+04  0.45331939678E+03 -0.84182847643E+03  0.20067170624E+04  0.46999998093E+01 0.  1.
       -5    1    3    3    0  502  0.17642895509E+04 -0.45331939678E+03  0.25000152609E+03  0.18386785874E+04  0.46999998093E+01 0. -1.
</event>
<event>
 5   0  0.2081337E-07  0.3795568E+04  0.7818609E-02  0.8047107E-01
       -2   -1    0    0    0  501  0.00000000000E+00  0.00000000000E+00  0.12961654504E+04  0.12961654504E+04  0.25500000920E-02 0. -1.
        2   -1    0    0  501    0  0.00000000000E+00  0.00000000000E+00 -0.27786449969E+04  0.27786449969E+04  0.25500000920E-02 0.  1.
    10030    2    1    2    0    0  0.00000000000E+00  0.00000000000E+00 -0.14824795465E+04  0.40748104473E+04  0.37955677540E+04 0.  0.
        1    1    3    3  502    0 -0.11281203873E+04  0.40773613527E+03 -0.23200383357E+04  0.26117967462E+04  0.50400001928E-02 0.  1.
       -1    1    3    3    0  502  0.11281203873E+04 -0.40773613527E+03  0.83755878922E+03  0.14630137011E+04  0.50400001928E-02 0. -1.
</event>
<event>
 5   0  0.6661000E-08  0.3760188E+04  0.7818609E-02  0.8054753E-01
       -1   -1    0    0    0  501  0.00000000000E+00  0.00000000000E+00  0.16018501617E+04  0.16018501617E+04  0.50400001928E-02 0.  1.
        1   -1    0    0  501    0  0.00000000000E+00  0.00000000000E+00 -0.22066695148E+04  0.22066695149E+04  0.50400001928E-02 0. -1.
    10030    2    1    2    0    0  0.00000000000E+00  0.00000000000E+00 -0.60481935319E+03  0.38085196765E+04  0.37601882501E+04 0.  0.
        4    1    3    3  502    0  0.78341908505E+03 -0.78249514950E+03 -0.18413831599E+04  0.21486595068E+04  0.12699999809E+01 0. -1.
       -4    1    3    3    0  502 -0.78341908505E+03  0.78249514950E+03  0.12365638067E+04  0.16598601697E+04  0.12699999809E+01 0.  1.
</event>
<event>
 5   0  0.6661000E-08  0.3736867E+04  0.7818609E-02  0.8059841E-01
       -1   -1    0    0    0  501  0.00000000000E+00  0.00000000000E+00  0.26405270877E+04  0.26405270878E+04  0.50400001928E-02 0. -1.
        1   -1    0    0  501    0  0.00000000000E+00  0.00000000000E+00 -0.13221007421E+04  0.13221007421E+04  0.50400001928E-02 0.  1.
    10030    2    1    2    0    0  0.00000000000E+00  0.00000000000E+00  0.13184263457E+04  0.39626278299E+04  0.37368665067E+04 0.  0.
        2    1    3    3  502    0 -0.11921114743E+03 -0.18143134640E+04  0.20299059464E+03  0.18295217476E+04  0.25500000920E-02 0.  1.
       -2    1    3    3    0  502  0.11921114743E+03  0.18143134640E+04  0.11154357510E+04  0.21331060822E+04  0.25500000920E-02 0. -1.
</event>
<event>
 5   0  0.2135314E-07  0.3854624E+04  0.7818609E-02  0.8034533E-01
        2   -1    0    0  501    0  0.00000000000E+00  0.00000000000E+00  0.23594890859E+04  0.23594890859E+04  0.25500000920E-02 0. -1.
       -2   -1    0    0    0  501  0.00000000000E+00  0.00000000000E+00 -0.15742950872E+04  0.15742950872E+04  0.25500000920E-02 0.  1.
    10030    2    1    2    0    0  0.00000000000E+00  0.00000000000E+00  0.78519399870E+03  0.39337841731E+04  0.38546242755E+04 0.  0.
        4    1    3    3  502    0 -0.13384705257E+04  0.17034502339E+03  0.17970899851E+04  0.22472326988E+04  0.12699999809E+01 0. -1.
       -4    1    3    3    0  502  0.13384705257E+04 -0.17034502339E+03 -0.10118959864E+04  0.16865514743E+04  0.12699999809E+01 0.  1.
</event>
<event>
 5   0  0.2205204E-07  0.3780567E+04  0.7818609E-02  0.8050338E-01
        2   -1    0    0  501    0  0.00000000000E+00  0.00000000000E+00  0.25537422513E+04  0.25537422513E+04  0.25500000920E-02 0.  1.
       -2   -1    0    0    0  501  0.00000000000E+00  0.00000000000E+00 -0.13991903274E+04  0.13991903274E+04  0.25500000920E-02 0. -1.
    10030    2    1    2    0    0  0.00000000000E+00  0.00000000000E+00  0.11545519239E+04  0.39529325787E+04  0.37805668658E+04 0.  0.
        2    1    3    3  502    0  0.13439968867E+04  0.42632491334E+02 -0.81183863000E+03  0.15707409468E+04  0.25500000920E-02 0. -1.
       -2    1    3    3    0  502 -0.13439968867E+04 -0.42632491334E+02  0.19663905539E+04  0.23821916319E+04  0.25500000920E-02 0.  1.
</event>
<event>
 5   0  0.2135314E-07  0.3799189E+04  0.7818609E-02  0.8046329E-01
        2   -1    0    0  501    0  0.00000000000E+00  0.00000000000E+00  0.21553935748E+04  0.21553935748E+04  0.25500000920E-02 0.  1.
       -2   -1    0    0    0  501  0.00000000000E+00  0.00000000000E+00 -0.16741534935E+04  0.16741534935E+04  0.25500000920E-02 0. -1.
    10030    2    1    2    0    0  0.00000000000E+00  0.00000000000E+00  0.48124008130E+03  0.38295470683E+04  0.37991892204E+04 0.  0.
        4    1    3    3  502    0 -0.16157910035E+04 -0.99117775252E+03  0.11616619365E+03  0.18991340399E+04  0.12699999809E+01 0.  1.
       -4    1    3    3    0  502  0.16157910035E+04  0.99117775252E+03  0.36507388765E+03  0.19304130284E+04  0.12699999809E+01 0. -1.
</event>
<event>
 5   0  0.1370688E-07  0.3775009E+04  0.7818609E-02  0.8051539E-01
       -2   -1    0    0    0  501  0.00000000000E+00  0.00000000000E+00  0.17471851047E+04  0.17471851047E+04  0.25500000920E-02 0.  1.
        2   -1    0    0  501    0  0.00000000000E+00  0.00000000000E+00 -0.20390935954E+04  0.20390935954E+04  0.25500000920E-02 0. -1.
    10030    2    1    2    0    0  0.00000000000E+00  0.00000000000E+00 -0.29190849065E+03  0.37862787001E+04  0.37750093812E+04 0.  0.
        5    1    3    3  502    0 -0.16314961319E+04  0.56942887841E+03  0.61566957823E+03  0.18344208884E+04  0.46999998093E+01 0.  1.
       -5    1    3    3    0  502  0.16314961319E+04 -0.56942887841E+03 -0.90757806888E+03  0.19518578117E+04  0.46999998093E+01 0. -1.
</event>
<event>
 5   0  0.2081337E-07  0.3833601E+04  0.7818609E-02  0.8038982E-01
        2   -1    0    0  501    0  0.00000000000E+00  0.00000000000E+00  0.14650861103E+04  0.14650861103E+04  0.25500000920E-02 0. -1.
       -2   -1    0    0    0  501  0.00000000000E+00  0.00000000000E+00 -0.25077867116E+04  0.25077867116E+04  0.25500000920E-02 0.  1.
    10030    2    1    2    0    0  0.00000000000E+00  0.00000000000E+00 -0.10427006012E+04  0.39728728219E+04  0.38336006463E+04 0.  0.
        1    1    3    3  502    0 -0.44359887354E+03  0.35209885659E+03  0.13763976232E+04  0.14883628531E+04  0.50400001928E-02 0. -1.
       -1    1    3    3    0  502  0.44359887354E+03 -0.35209885659E+03 -0.24190982245E+04  0.24845099688E+04  0.50400001928E-02 0.  1.
</event>
<event>
 5   0  0.6661000E-08  0.3737775E+04  0.7818609E-02  0.8059642E-01
       -1   -1    0    0    0  501  0.00000000000E+00  0.00000000000E+00  0.20827384112E+04  0.20827384112E+04  0.50400001928E-02 0.  1.
        1   -1    0    0  501    0  0.00000000000E+00  0.00000000000E+00 -0.16769940172E+04  0.16769940172E+04  0.50400001928E-02 0. -1.
    10030    2    1    2    0    0  0.00000000000E+00  0.00000000000E+00  0.40574439405E+03  0.37597324284E+04  0.37377746614E+04 0.  0.
        4    1    3    3  502    0 -0.77629587886E+03 -0.14136156733E+03 -0.15012229491E+04  0.16959629536E+04  0.12699999809E+01 0. -1.
       -4    1    3    3    0  502  0.77629587886E+03  0.14136156733E+03  0.19069673431E+04  0.20637694748E+04  0.12699999809E+01 0.  1.
</event>
<event>
 5   0  0.6661000E-08  0.3774602E+04  0.7818609E-02  0.8051627E-01
        1   -1    0    0  501    0  0.00000000000E+00  0.00000000000E+00  0.10276469799E+04  0.10276469799E+04  0.50400001928E-02 0. -1.
       -1   -1    0    0    0  501  0.00000000000E+00  0.00000000000E+00 -0.34660787185E+04  0.34660787185E+04  0.50400001928E-02 0.  1.
    10030    2    1    2    0    0  0.00000000000E+00  0.00000000000E+00 -0.24384317386E+04  0.44937256984E+04  0.37746021391E+04 0.  0.
        2    1    3    3  502    0 -0.93705310058E+03  0.10584936921E+04  0.26937142849E+03  0.14391102724E+04  0.25500000920E-02 0. -1.
       -2    1    3    3    0  502  0.93705310058E+03 -0.10584936921E+04 -0.27078031671E+04  0.30546154261E+04  0.25500000920E-02 0.  1.
</event>
<event>
 5   0  0.6661000E-08  0.3807894E+04  0.7818609E-02  0.8044463E-01
        1   -1    0    0  501    0  0.00000000000E+00  0.00000000000E+00  0.21500862654E+04  0.21500862654E+04  0.50400001928E-02 0.  1.
       -1   -1    0    0    0  501  0.00000000000E+00  0.00000000000E+00 -0.16859853261E+04  0.16859853261E+04  0.50400001928E-02 0. -1.
    10030    2    1    2    0    0  0.00000000000E+00  0.00000000000E+00  0.46410093929E+03  0.38360715914E+04  0.38078938500E+04 0.  0.
        4    1    3    3  502    0  0.59652578499E+03 -0.13099548619E+04 -0.10234411483E+04  0.17661421657E+04  0.12699999809E+01 0. -1.
       -4    1    3    3    0  502 -0.59652578499E+03  0.13099548619E+04  0.14875420876E+04  0.20699294258E+04  0.12699999809E+01 0.  1.
</event>
<event>
 5   0  0.2081337E-07  0.3940135E+04  0.7818609E-02  0.8016733E-01
       -2   -1    0    0    0  501  0.00000000000E+00  0.00000000000E+00  0.20115367416E+04  0.20115367416E+04  0.25500000920E-02 0.  1.
        2   -1    0    0  501    0  0.00000000000E+00  0.00000000000E+00 -0.19294534908E+04  0.19294534908E+04  0.25500000920E-02 0. -1.
    10030    2    1    2    0    0  0.00000000000E+00  0.00000000000E+00  0.82083250758E+02  0.39409902324E+04  0.39401353215E+04 0.  0.
        1    1    3    3  502    0 -0.92926059467E+03 -0.92846458422E+03 -0.14274713548E+04  0.19399088137E+04  0.50400001928E-02 0. -1.
       -1    1    3    3    0  502  0.92926059467E+03  0.92846458422E+03  0.15095546055E+04  0.20010814186E+04  0.50400001928E-02 0.  1.
</event>
<event>
 5   0  0.6661000E-08  0.3803432E+04  0.7818609E-02  0.8045419E-01
       -1   -1    0    0    0  501  0.00000000000E+00  0.00000000000E+00  0.23041232987E+04  0.23041232987E+04  0.50400001928E-02 0. -1.
        1   -1    0    0  501    0  0.00000000000E+00  0.00000000000E+00 -0.15695877083E+04  0.15695877083E+04  0.50400001928E-02 0.  1.
    10030    2    1    2    0    0  0.00000000000E+00  0.00000000000E+00  0.73453559045E+03  0.38737110070E+04  0.38034319282E+04 0.  0.
        1    1    3    3  502    0 -0.45999499268E+03 -0.13671791688E+04  0.16294200217E+04  0.21761856263E+04  0.50400001928E-02 0. -1.
       -1    1    3    3    0  502  0.45999499268E+03  0.13671791688E+04 -0.89488443123E+03  0.16975253807E+04  0.50400001928E-02 0.  1.
</event>
<event>
 5   0  0.6725199E-08  0.3808677E+04  0.7818609E-02  0.8044295E-01
        1   -1    0    0  501    0  0.00000000000E+00  0.00000000000E+00  0.18796764191E+04  0.18796764192E+04  0.50400001928E-02 0.  1.
       -1   -1    0    0    0  501  0.00000000000E+00  0.00000000000E+00 -0.19293244282E+04  0.19293244282E+04  0.50400001928E-02 0. -1.
    10030    2    1    2    0    0  0.00000000000E+00  0.00000000000E+00 -0.49648009029E+02  0.38090008473E+04  0.38086772678E+04 0.  0.
        5    1    3    3  502    0 -0.11028534903E+04 -0.15306289604E+04  0.23476057760E+03  0.19011168965E+04  0.46999998093E+01 0. -1.
       -5    1    3    3    0  502  0.11028534903E+04  0.15306289604E+04 -0.28440858663E+03  0.19078839508E+04  0.46999998093E+01 0.  1.
</event>
<event>
 5   0  0.6661000E-08  0.3833236E+04  0.7818609E-02  0.8039060E-01
       -1   -1    0    0    0  501  0.00000000000E+00  0.00000000000E+00  0.14513091141E+04  0.14513091141E+04  0.50400001928E-02 0.  1.
        1   -1    0    0  501    0  0.00000000000E+00  0.00000000000E+00 -0.25311109440E+04  0.25311109440E+04  0.50400001928E-02 0. -1.
    10030    2    1    2    0    0  0.00000000000E+00  0.00000000000E+00 -0.10798018299E+04  0.39824200581E+04  0.38332359081E+04 0.  0.
        3    1    3    3  502    0 -0.13482484591E+04 -0.37703941686E+03  0.82004778677E+03  0.16224706506E+04  0.10100000352E+00 0.  1.
       -3    1    3    3    0  502  0.13482484591E+04  0.37703941686E+03 -0.18998496167E+04  0.23599494074E+04  0.10100000352E+00 0. -1.
</event>
<event>
 5   0  0.2205204E-07  0.3788801E+04  0.7818609E-02  0.8048562E-01
       -2   -1    0    0    0  501  0.00000000000E+00  0.00000000000E+00  0.16610179844E+04  0.16610179844E+04  0.25500000920E-02 0. -1.
        2   -1    0    0  501    0  0.00000000000E+00  0.00000000000E+00 -0.21605744688E+04  0.21605744688E+04  0.25500000920E-02 0.  1.
    10030    2    1    2    0    0  0.00000000000E+00  0.00000000000E+00 -0.49955648440E+03  0.38215924533E+04  0.37888008918E+04 0.  0.
        2    1    3    3  502    0  0.23571513286E+03  0.79043368864E+03 -0.19699432323E+04  0.21356552574E+04  0.25500000920E-02 0.  1.
       -2    1    3    3    0  502 -0.23571513286E+03 -0.79043368864E+03  0.14703867479E+04  0.16859371959E+04  0.25500000920E-02 0. -1.
</event>
<event>
 5   0  0.2135314E-07  0.3927155E+04  0.7818609E-02  0.8019405E-01
        2   -1    0    0  501    0  0.00000000000E+00  0.00000000000E+00  0.19817185854E+04  0.19817185854E+04  0.25500000920E-02 0.  1.
       -2   -1    0    0    0  501  0.00000000000E+00  0.00000000000E+00 -0.19456023459E+04  0.19456023459E+04  0.25500000920E-02 0. -1.
    10030    2    1    2    0    0  0.00000000000E+00  0.00000000000E+00  0.36116239492E+02  0.39273209314E+04  0.39271548627E+04 0.  0.
        4    1    3    3  502    0 -0.95214009314E+03  0.17082266906E+04 -0.15808998974E+03  0.19620405809E+04  0.12699999809E+01 0.  1.
       -4    1    3    3    0  502  0.95214009314E+03 -0.17082266906E+04  0.19420622924E+03  0.19652803505E+04  0.12699999809E+01 0. -1.
</event>
<event>
 5   0  0.2135314E-07  0.3803837E+04  0.7818609E-02  0.8045332E-01
       -2   -1    0    0    0  501  0.00000000000E+00  0.00000000000E+00  0.26956182002E+04  0.26956182002E+04  0.25500000920E-02 0.  1.
        2   -1    0    0  501    0  0.00000000000E+00  0.00000000000E+00 -0.13419164146E+04  0.13419164146E+04  0.25500000920E-02 0. -1.
    10030    2    1    2    0    0  0.00000000000E+00  0.00000000000E+00  0.13537017856E+04  0.40375346147E+04  0.38038371733E+04 0.  0.
        4    1    3    3  502    0  0.47085369486E+03  0.17766716806E+04  0.11957919520E+04  0.21927575033E+04  0.12699999809E+01 0.  1.
       -4    1    3    3    0  502 -0.47085369486E+03 -0.17766716806E+04  0.15790983355E+03  0.18447771115E+04  0.12699999809E+01 0. -1.
</event>
<event>
 5   0  0.6725199E-08  0.3767815E+04  0.7818609E-02  0.8053097E-01
        1   -1    0    0  501    0  0.00000000000E+00  0.00000000000E+00  0.25308888150E+04  0.25308888150E+04  0.50400001928E-02 0.  1.
       -1   -1    0    0    0  501  0.00000000000E+00  0.00000000000E+00 -0.14023163644E+04  0.14023163644E+04  0.50400001928E-02 0. -1.
    10030    2    1    2    0    0  0.00000000000E+00  0.00000000000E+00  0.11285724506E+04  0.39332051794E+04  0.37678146461E+04 0.  0.
        5    1    3    3  502    0  0.46744454359E+03 -0.19101423489E+03  0.24589190535E+04  0.25102382040E+04  0.46999998093E+01 0.  1.
       -5    1    3    3    0  502 -0.46744454359E+03  0.19101423489E+03 -0.13303466029E+04  0.14229669754E+04  0.46999998093E+01 0. -1.
</event>
<event>
 5   0  0.6661000E-08  0.3778389E+04  0.7818609E-02  0.8050809E-01
        1   -1    0    0  501    0  0.00000000000E+00  0.00000000000E+00  0.17714906729E+04  0.17714906729E+04  0.50400001928E-02 0. -1.
       -1   -1    0    0    0  501  0.00000000000E+00  0.00000000000E+00 -0.20147187733E+04  0.20147187733E+04  0.50400001928E-02 0.  1.
    10030    2    1    2    0    0  0.00000000000E+00  0.00000000000E+00 -0.24322810044E+03  0.37862094462E+04  0.37783888182E+04 0.  0.
        1    1    3    3  502    0  0.16930768221E+04  0.72338946568E+03 -0.54587445386E+03  0.19203594361E+04  0.50400001928E-02 0. -1.
       -1    1    3    3    0  502 -0.16930768221E+04 -0.72338946568E+03  0.30264635342E+03  0.18658500100E+04  0.50400001928E-02 0.  1.
</event>
<event>
 5   0  0.6661000E-08  0.3784032E+04  0.7818609E-02  0.8049590E-01
       -1   -1    0    0    0  501  0.00000000000E+00  0.00000000000E+00  0.17138439832E+04  0.17138439832E+04  0.50400001928E-02 0. -1.
        1   -1    0    0  501    0  0.00000000000E+00  0.00000000000E+00 -0.20887108895E+04  0.20887108895E+04  0.50400001928E-02 0.  1.
    10030    2    1    2    0    0  0.00000000000E+00  0.00000000000E+00 -0.37486690629E+03  0.38025548727E+04  0.37840320245E+04 0.  0.
        2    1    3    3  502    0 -0.65433253095E+03  0.88950195824E+03 -0.17313001213E+04  0.20534762976E+04  0.25500000920E-02 0.  1.
       -2    1    3    3    0  502  0.65433253095E+03 -0.88950195824E+03  0.13564332150E+04  0.17490785750E+04  0.25500000920E-02 0. -1.
</event>
<event>
 5   0  0.1370688E-07  0.3813721E+04  0.7818609E-02  0.8043217E-01
       -2   -1    0    0    0  501  0.00000000000E+00  0.00000000000E+00  0.19687102954E+04  0.19687102954E+04  0.25500000920E-02 0.  1.
        2   -1    0    0  501    0  0.00000000000E+00  0.00000000000E+00 -0.18469536650E+04  0.18469536650E+04  0.25500000920E-02 0. -1.
    10030    2    1    2    0    0  0.00000000000E+00  0.00000000000E+00  0.12175663043E+03  0.38156639605E+04  0.38137208579E+04 0.  0.
        5    1    3    3  502    0 -0.11675761795E+04  0.11290304102E+04 -0.93870569048E+03  0.18759355707E+04  0.46999998093E+01 0. -1.
       -5    1    3    3    0  502  0.11675761795E+04 -0.11290304102E+04  0.10604623209E+04  0.19397283898E+04  0.46999998093E+01 0.  1.
</event>
<event>
 5   0  0.6661000E-08  0.3801454E+04  0.7818609E-02  0.8045843E-01
        1   -1    0    0  501    0  0.00000000000E+00  0.00000000000E+00  0.22600798385E+04  0.22600798385E+04  0.50400001928E-02 0. -1.
       -1   -1    0    0    0  501  0.00000000000E+00  0.00000000000E+00 -0.15985114587E+04  0.15985114587E+04  0.50400001928E-02 0.  1.
    10030    2    1    2    0    0  0.00000000000E+00  0.00000000000E+00  0.66156837982E+03  0.38585912972E+04  0.38014542056E+04 0.  0.
        3    1    3    3  502    0 -0.14665240703E+04 -0.10793048825E+04 -0.22254386605E+03  0.18344257032E+04  0.10100000352E+00 0.  1.
       -3    1    3    3    0  502  0.14665240703E+04  0.10793048825E+04  0.88411224588E+03  0.20241655939E+04  0.10100000352E+00 0. -1.
</event>
<event>
 5   0  0.6661000E-08  0.3762597E+04  0.7818609E-02  0.8054229E-01
        1   -1    0    0  501    0  0.00000000000E+00  0.00000000000E+00  0.17035200241E+04  0.17035200242E+04  0.50400001928E-02 0. -1.
       -1   -1    0    0    0  501  0.00000000000E+00  0.00000000000E+00 -0.20776296218E+04  0.20776296218E+04  0.50400001928E-02 0.  1.
    10030    2    1    2    0    0  0.00000000000E+00  0.00000000000E+00 -0.37410959766E+03  0.37811496460E+04  0.37625967966E+04 0.  0.
        2    1    3    3  502    0  0.11742283091E+04  0.70503481561E+03  0.11090323368E+04  0.17623390528E+04  0.25500000920E-02 0. -1.
       -2    1    3    3    0  502 -0.11742283091E+04 -0.70503481561E+03 -0.14831419345E+04  0.20188105931E+04  0.25500000920E-02 0.  1.
</event>
<event>
 5   0  0.1370688E-07  0.3795402E+04  0.7818609E-02  0.8047142E-01
       -2   -1    0    0    0  501  0.00000000000E+00  0.00000000000E+00  0.19414967653E+04  0.19414967653E+04  0.25500000920E-02 0. -1.
        2   -1    0    0  501    0  0.00000000000E+00  0.00000000000E+00 -0.18548933212E+04  0.18548933212E+04  0.25500000920E-02 0.  1.
    10030    2    1    2    0    0  0.00000000000E+00  0.00000000000E+00  0.86603444156E+02  0.37963900865E+04  0.37954021569E+04 0.  0.
        5    1    3    3  502    0  0.70553797217E+03  0.53680916733E+03 -0.16350204151E+04  0.18599090731E+04  0.46999998093E+01 0.  1.
       -5    1    3    3    0  502 -0.70553797217E+03 -0.53680916733E+03  0.17216238593E+04  0.19364810134E+04  0.46999998093E+01 0. -1.
</event>
<event>
 5   0  0.6661000E-08  0.3684967E+04  0.7818609E-02  0.8071301E-01
        1   -1    0    0  501    0  0.00000000000E+00  0.00000000000E+00  0.18369277535E+04  0.18369277536E+04  0.50400001928E-02 0. -1.
       -1   -1    0    0    0  501  0.00000000000E+00  0.00000000000E+00 -0.18480563196E+04  0.18480563197E+04  0.50400001928E-02 0.  1.
    10030    2    1    2    0    0  0.00000000000E+00  0.00000000000E+00 -0.11128566102E+02  0.36849840732E+04  0.36849672692E+04 0.  0.
        3    1    3    3  502    0  0.60525327618E+03 -0.11013791086E+04  0.13418016736E+04  0.18384230228E+04  0.10100000352E+00 0.  1.
       -3    1    3    3    0  502 -0.60525327618E+03  0.11013791086E+04 -0.13529302397E+04  0.18465610504E+04  0.10100000352E+00 0. -1.
</event>
<event>
 5   0  0.6661000E-08  0.3817053E+04  0.7818609E-02  0.8042505E-01
        1   -1    0    0  501    0  0.00000000000E+00  0.00000000000E+00  0.13437857406E+04  0.13437857407E+04  0.50400001928E-02 0. -1.
       -1   -1    0    0    0  501  0.00000000000E+00  0.00000000000E+00 -0.27106054519E+04  0.27106054519E+04  0.50400001928E-02 0.  1.
    10030    2    1    2    0    0  0.00000000000E+00  0.00000000000E+00 -0.13668197113E+04  0.40543911926E+04  0.38170527661E+04 0.  0.
        3    1    3    3  502    0 -0.12368485694E+04 -0.20819669106E+03  0.84455247082E+03  0.15120876734E+04  0.10100000352E+00 0. -1.
       -3    1    3    3    0  502  0.12368485694E+04  0.20819669106E+03 -0.22113721821E+04  0.25423035192E+04  0.10100000352E+00 0.  1.
</event>
<event>
 5   0  0.6661000E-08  0.3802435E+04  0.7818609E-02  0.8045633E-01
       -1   -1    0    0    0  501  0.00000000000E+00  0.00000000000E+00  0.14633506079E+04  0.14633506079E+04  0.50400001928E-02 0.  1.
        1   -1    0    0  501    0  0.00000000000E+00  0.00000000000E+00 -0.24701035207E+04  0.24701035207E+04  0.50400001928E-02 0. -1.
    10030    2    1    2    0    0  0.00000000000E+00  0.00000000000E+00 -0.10067529127E+04  0.39334541286E+04  0.38024347403E+04 0.  0.
        1    1    3    3  502    0 -0.36660907059E+03  0.82008395442E+02  0.14245744293E+04  0.14732752262E+04  0.50400001928E-02 0.  1.
       -1    1    3    3    0  502  0.36660907059E+03 -0.82008395442E+02 -0.24313273420E+04  0.24601789024E+04  0.50400001928E-02 0. -1.
</event>
<event>
 5   0  0.1370688E-07  0.3698668E+04  0.7818609E-02  0.8068257E-01
       -2   -1    0    0    0  501  0.00000000000E+00  0.00000000000E+00  0.17213088788E+04  0.17213088788E+04  0.25500000920E-02 0.  1.
        2   -1    0    0  501    0  0.00000000000E+00  0.00000000000E+00 -0.19868812926E+04  0.19868812926E+04  0.25500000920E-02 0. -1.
    10030    2    1    2    0    0  0.00000000000E+00  0.00000000000E+00 -0.26557241385E+03  0.37081901714E+04  0.36986680901E+04 0.  0.
        5    1    3    3  502    0 -0.49263188101E+03 -0.99050781153E+03 -0.16185672019E+04  0.19605034486E+04  0.46999998093E+01 0. -1.
       -5    1    3    3    0  502  0.49263188101E+03  0.99050781153E+03  0.13529947880E+04  0.17476867229E+04  0.46999998093E+01 0.  1.
</event>
<event>
 5   0  0.6661000E-08  0.3790536E+04  0.7818609E-02  0.8048189E-01
        1   -1    0    0  501    0  0.00000000000E+00  0.00000000000E+00  0.15120035214E+04  0.15120035215E+04  0.50400001928E-02 0.  1.
       -1   -1    0    0    0  501  0.00000000000E+00  0.00000000000E+00 -0.23756834388E+04  0.23756834388E+04  0.50400001928E-02 0. -1.
    10030    2    1    2    0    0  0.00000000000E+00  0.00000000000E+00 -0.86367991735E+03  0.38876869603E+04  0.37905364925E+04 0.  0.
        2    1    3    3  502    0  0.92039957542E+03  0.13819131835E+04  0.50548816220E+03  0.17356087425E+04  0.25500000920E-02 0.  1.
       -2    1    3    3    0  502 -0.92039957542E+03 -0.13819131835E+04 -0.13691680796E+04  0.21520782177E+04  0.25500000920E-02 0. -1.
</event>
<event>
 5   0  0.6661000E-08  0.3732894E+04  0.7818609E-02  0.8060711E-01
        1   -1    0    0  501    0  0.00000000000E+00  0.00000000000E+00  0.18731020959E+04  0.18731020959E+04  0.50400001928E-02 0.  1.
       -1   -1    0    0    0  501  0.00000000000E+00  0.00000000000E+00 -0.18598157313E+04  0.18598157313E+04  0.50400001928E-02 0. -1.
    10030    2    1    2    0    0  0.00000000000E+00  0.00000000000E+00  0.13286364682E+02  0.37329178272E+04  0.37328941824E+04 0.  0.
        2    1    3    3  502    0 -0.49400671822E+02 -0.10966557733E+04 -0.15028465652E+04  0.18610862716E+04  0.25500000920E-02 0. -1.
       -2    1    3    3    0  502  0.49400671822E+02  0.10966557733E+04  0.15161329299E+04  0.18718315557E+04  0.25500000920E-02 0.  1.
</event>
<event>
 5   0  0.2203998E-07  0.3780237E+04  0.7818609E-02  0.8050409E-01
       -2   -1    0    0    0  501  0.00000000000E+00  0.00000000000E+00  0.26460556408E+04  0.26460556408E+04  0.25500000920E-02 0. -1.
        2   -1    0    0  501    0  0.00000000000E+00  0.00000000000E+00 -0.13501407741E+04  0.13501407741E+04  0.25500000920E-02 0.  1.
    10030    2    1    2    0    0  0.00000000000E+00  0.00000000000E+00  0.12959148668E+04  0.39961964149E+04  0.37802368239E+04 0.  0.
        3    1    3    3  502    0 -0.12485559484E+04  0.67967528883E+03  0.19647922429E+04  0.24251307228E+04  0.10100000352E+00 0. -1.
       -3    1    3    3    0  502  0.12485559484E+04 -0.67967528883E+03 -0.66887737614E+03  0.15710656921E+04  0.10100000352E+00 0.  1.
</event>
<event>
 5   0  0.2135314E-07  0.3816398E+04  0.7818609E-02  0.8042645E-01
        2   -1    0    0  501    0  0.00000000000E+00  0.00000000000E+00  0.17204373270E+04  0.17204373270E+04  0.25500000920E-02 0. -1.
       -2   -1    0    0    0  501  0.00000000000E+00  0.00000000000E+00 -0.21164522375E+04  0.21164522376E+04  0.25500000920E-02 0.  1.
    10030    2    1    2    0    0  0.00000000000E+00  0.00000000000E+00 -0.39601491050E+03  0.38368895646E+04  0.38163980036E+04 0.  0.
        4    1    3    3  502    0  0.17842495683E+03  0.81038754830E+03 -0.19255638760E+04  0.20967501752E+04  0.12699999809E+01 0.  1.
       -4    1    3    3    0  502 -0.17842495683E+03 -0.81038754830E+03  0.15295489655E+04  0.17401393894E+04  0.12699999809E+01 0. -1.
</event>
<event>
 5   0  0.2135314E-07  0.3794852E+04  0.7818609E-02  0.8047261E-01
        2   -1    0    0  501    0  0.00000000000E+00  0.00000000000E+00  0.22626412489E+04  0.22626412489E+04  0.25500000920E-02 0. -1.
       -2   -1    0    0    0  501  0.00000000000E+00  0.00000000000E+00 -0.15911604956E+04  0.15911604956E+04  0.25500000920E-02 0.  1.
    10030    2    1    2    0    0  0.00000000000E+00  0.00000000000E+00  0.67148075330E+03  0.38538017444E+04  0.37948519712E+04 0.  0.
        4    1    3    3  502    0  0.91057039070E+03 -0.15168663507E+04 -0.36062420000E+03  0.18055673316E+04  0.12699999809E+01 0.  1.
       -4    1    3    3    0  502 -0.91057039070E+03  0.15168663507E+04  0.10321049533E+04  0.20482344128E+04  0.12699999809E+01 0. -1.
</event>
<event>
 5   0  0.6725199E-08  0.3762186E+04  0.7818609E-02  0.8054319E-01
        1   -1    0    0  501    0  0.00000000000E+00  0.00000000000E+00  0.11220756209E+04  0.11220756209E+04  0.50400001928E-02 0.  1.
       -1   -1    0    0    0  501  0.00000000000E+00  0.00000000000E+00 -0.31535396590E+04  0.31535396590E+04  0.50400001928E-02 0. -1.
    10030    2    1    2    0    0  0.00000000000E+00  0.00000000000E+00 -0.20314640382E+04  0.42756152799E+04  0.37621855196E+04 0.  0.
        5    1    3    3  502    0 -0.87768968254E+03  0.81622030621E+03 -0.26633930073E+04  0.29206573178E+04  0.46999998093E+01 0. -1.
       -5    1    3    3    0  502  0.87768968254E+03 -0.81622030621E+03  0.63192896910E+03  0.13549579621E+04  0.46999998093E+01 0.  1.
</event>
<event>
 5   0  0.6661000E-08  0.3800052E+04  0.7818609E-02  0.8046144E-01
       -1   -1    0    0    0  501  0.00000000000E+00  0.00000000000E+00  0.21336729303E+04  0.21336729303E+04  0.50400001928E-02 0.  1.
        1   -1    0    0  501    0  0.00000000000E+00  0.00000000000E+00 -0.16919648501E+04  0.16919648501E+04  0.50400001928E-02 0. -1.
    10030    2    1    2    0    0  0.00000000000E+00  0.00000000000E+00  0.44170808024E+03  0.38256377804E+04  0.38000524205E+04 0.  0.
        3    1    3    3  502    0  0.26187011099E+03  0.84779025851E+02 -0.16717867099E+04  0.16942946178E+04  0.10100000352E+00 0. -1.
       -3    1    3    3    0  502 -0.26187011099E+03 -0.84779025851E+02  0.21134947902E+04  0.21313431625E+04  0.10100000352E+00 0.  1.
</event>
<event>
 5   0  0.2135314E-07  0.3824356E+04  0.7818609E-02  0.8040948E-01
        2   -1    0    0  501    0  0.00000000000E+00  0.00000000000E+00  0.21259084544E+04  0.21259084544E+04  0.25500000920E-02 0. -1.
       -2   -1    0    0    0  501  0.00000000000E+00  0.00000000000E+00 -0.17199349727E+04  0.17199349727E+04  0.25500000920E-02 0.  1.
    10030    2    1    2    0    0  0.00000000000E+00  0.00000000000E+00  0.40597348165E+03  0.38458434271E+04  0.38243557886E+04 0.  0.
        4    1    3    3  502    0 -0.25322458105E+03  0.17100565698E+04 -0.61892212079E+03  0.18361596785E+04  0.12699999809E+01 0.  1.
       -4    1    3    3    0  502  0.25322458105E+03 -0.17100565698E+04  0.10248956024E+04  0.20096837486E+04  0.12699999809E+01 0. -1.
</event>
<event>
 5   0  0.1370688E-07  0.3836286E+04  0.7818609E-02  0.8038413E-01
        2   -1    0    0  501    0  0.00000000000E+00  0.00000000000E+00  0.12890072163E+04  0.12890072163E+04  0.25500000920E-02 0. -1.
       -2   -1    0    0    0  501  0.00000000000E+00  0.00000000000E+00 -0.28543455031E+04  0.28543455031E+04  0.25500000920E-02 0.  1.
    10030    2    1    2    0    0  0.00000000000E+00  0.00000000000E+00 -0.15653382868E+04  0.41433527194E+04  0.38362856783E+04 0.  0.
        5    1    3    3  502    0 -0.17561615314E+04 -0.28410519462E+03 -0.80210856304E+01  0.17790181320E+04  0.46999998093E+01 0. -1.
       -5    1    3    3    0  502  0.17561615314E+04  0.28410519462E+03 -0.15573172011E+04  0.23643345874E+04  0.46999998093E+01 0.  1.
</event>
<event>
 5   0  0.6725199E-08  0.3778274E+04  0.7818609E-02  0.8050833E-01
       -1   -1    0    0    0  501  0.00000000000E+00  0.00000000000E+00  0.20606849892E+04  0.20606849892E+04  0.50400001928E-02 0.  1.
        1   -1    0    0  501    0  0.00000000000E+00  0.00000000000E+00 -0.17318702262E+04  0.17318702262E+04  0.50400001928E-02 0. -1.
    10030    2    1    2    0    0  0.00000000000E+00  0.00000000000E+00  0.32881476299E+03  0.37925552155E+04  0.37782741978E+04 0.  0.
        5    1    3    3  502    0  0.12993961361E+04 -0.11260124803E+04  0.94997806808E+03  0.19643866330E+04  0.46999998093E+01 0. -1.
       -5    1    3    3    0  502 -0.12993961361E+04  0.11260124803E+04 -0.62116330509E+03  0.18281685824E+04  0.46999998093E+01 0.  1.
</event>
<event>
 5   0  0.6661000E-08  0.3855279E+04  0.7818609E-02  0.8034395E-01
        1   -1    0    0  501    0  0.00000000000E+00  0.00000000000E+00  0.29236105134E+04  0.29236105134E+04  0.50400001928E-02 0. -1.
       -1   -1    0    0    0  501  0.00000000000E+00  0.00000000000E+00 -0.12709607787E+04  0.12709607787E+04  0.50400001928E-02 0.  1.
    10030    2    1    2    0    0  0.00000000000E+00  0.00000000000E+00  0.16526497347E+04  0.41945712921E+04  0.38552791311E+04 0.  0.
        1    1    3    3  502    0 -0.11779646874E+04  0.10623875296E+04  0.20179416927E+04  0.25667794496E+04  0.50400001928E-02 0. -1.
       -1    1    3    3    0  502  0.11779646874E+04 -0.10623875296E+04 -0.36529195799E+03  0.16277918425E+04  0.50400001928E-02 0.  1.
</event>
<event>
 5   0  0.2205204E-07  0.3798986E+04  0.7818609E-02  0.8046373E-01
       -2   -1    0    0    0  501  0.00000000000E+00  0.00000000000E+00  0.23291384081E+04  0.23291384081E+04  0.25500000920E-02 0. -1.
        2   -1    0    0  501    0  0.00000000000E+00  0.00000000000E+00 -0.15491022728E+04  0.15491022728E+04  0.25500000920E-02 0.  1.
    10030    2    1    2    0    0  0.00000000000E+00  0.00000000000E+00  0.78003613536E+03  0.38782406809E+04  0.37989859708E+04 0.  0.
        2    1    3    3  502    0  0.75490506257E+03 -0.42484303571E+03  0.21157582497E+04  0.22862209495E+04  0.25500000920E-02 0. -1.
       -2    1    3    3    0  502 -0.75490506257E+03  0.42484303571E+03 -0.13357221144E+04  0.15920197314E+04  0.25500000920E-02 0.  1.
</event>
<event>
 5   0  0.1370688E-07  0.3805583E+04  0.7818609E-02  0.8044958E-01
       -2   -1    0    0    0  501  0.00000000000E+00  0.00000000000E+00  0.14655676694E+04  0.14655676694E+04  0.25500000920E-02 0. -1.
        2   -1    0    0  501    0  0.00000000000E+00  0.00000000000E+00 -0.24704528276E+04  0.24704528276E+04  0.25500000920E-02 0.  1.
    10030    2    1    2    0    0  0.00000000000E+00  0.00000000000E+00 -0.10048851582E+04  0.39360204971E+04  0.38055831580E+04 0.  0.
        5    1    3    3  502    0 -0.13634523255E+04 -0.68282653223E+03  0.67469688659E+03  0.16674808232E+04  0.46999998093E+01 0. -1.
       -5    1    3    3    0  502  0.13634523255E+04  0.68282653223E+03 -0.16795820448E+04  0.22685396739E+04  0.46999998093E+01 0.  1.
</event>
<event>
 5   0  0.2081337E-07  0.3805042E+04  0.7818609E-02  0.8045074E-01
        2   -1    0    0  501    0  0.00000000000E+00  0.00000000000E+00  0.13207680337E+04  0.13207680337E+04  0.25500000920E-02 0.  1.
       -2   -1    0    0    0  501  0.00000000000E+00  0.00000000000E+00 -0.27405167517E+04  0.27405167517E+04  0.25500000920E-02 0. -1.
    10030    2    1    2    0    0  0.00000000000E+00  0.00000000000E+00 -0.14197487180E+04  0.40612847853E+04  0.38050424026E+04 0.  0.
        1    1    3    3  502    0 -0.71517155986E+03  0.14203284152E+04 -0.18246135601E+04  0.24203342354E+04  0.50400001928E-02 0. -1.
       -1    1    3    3    0  502  0.71517155986E+03 -0.14203284152E+04  0.40486484209E+03  0.16409505500E+04  0.50400001928E-02 0.  1.
</event>
<event>
 5   0  0.2135314E-07  0.3830069E+04  0.7818609E-02  0.8039733E-01
       -2   -1    0    0    0  501  0.00000000000E+00  0.00000000000E+00  0.22969637510E+04  0.22969637510E+04  0.25500000920E-02 0.  1.
        2   -1    0    0  501    0  0.00000000000E+00  0.00000000000E+00 -0.15966103962E+04  0.15966103962E+04  0.25500000920E-02 0. -1.
    10030    2    1    2    0    0  0.00000000000E+00  0.00000000000E+00  0.70035335471E+03  0.38935741472E+04  0.38300685135E+04 0.  0.
        4    1    3    3  502    0 -0.18066566324E+03  0.13998912390E+04 -0.96550788628E+03  0.17101294261E+04  0.12699999809E+01 0. -1.
       -4    1    3    3    0  502  0.18066566324E+03 -0.13998912390E+04  0.16658612410E+04  0.21834447211E+04  0.12699999809E+01 0.  1.
</event>
<event>
 5   0  0.1370688E-07  0.3778580E+04  0.7818609E-02  0.8050767E-01
       -2   -1    0    0    0  501  0.00000000000E+00  0.00000000000E+00  0.17818572349E+04  0.17818572349E+04  0.25500000920E-02 0.  1.
        2   -1    0    0  501    0  0.00000000000E+00  0.00000000000E+00 -0.20032004850E+04  0.20032004850E+04  0.25500000920E-02 0. -1.
    10030    2    1    2    0    0  0.00000000000E+00  0.00000000000E+00 -0.22134325017E+03  0.37850577199E+04  0.37785803033E+04 0.  0.
        5    1    3    3  502    0  0.23601303146E+03  0.16361389189E+04  0.80563274475E+03  0.18389450569E+04  0.46999998093E+01 0.  1.
       -5    1    3    3    0  502 -0.23601303146E+03 -0.16361389189E+04 -0.10269759949E+04  0.19461126630E+04  0.46999998093E+01 0. -1.
</event>
<event>
 5   0  0.2203998E-07  0.3799006E+04  0.7818609E-02  0.8046368E-01
       -2   -1    0    0    0  501  0.00000000000E+00  0.00000000000E+00  0.15452555367E+04  0.15452555367E+04  0.25500000920E-02 0. -1.
        2   -1    0    0  501    0  0.00000000000E+00  0.00000000000E+00 -0.23349611343E+04  0.23349611343E+04  0.25500000920E-02 0.  1.
    10030    2    1    2    0    0  0.00000000000E+00  0.00000000000E+00 -0.78970559763E+03  0.38802166710E+04  0.37990059861E+04 0.  0.
        3    1    3    3  502    0 -0.16253517974E+04 -0.13190908918E+03  0.60010828422E+03  0.17376128556E+04  0.10100000352E+00 0. -1.
       -3    1    3    3    0  502  0.16253517974E+04  0.13190908918E+03 -0.13898138819E+04  0.21426038153E+04  0.10100000352E+00 0.  1.
</event>
<event>
 5   0  0.6661000E-08  0.3777802E+04  0.7818609E-02  0.8050935E-01
       -1   -1    0    0    0  501  0.00000000000E+00  0.00000000000E+00  0.15921351512E+04  0.15921351512E+04  0.50400001928E-02 0. -1.
        1   -1    0    0  501    0  0.00000000000E+00  0.00000000000E+00 -0.22409825086E+04  0.22409825086E+04  0.50400001928E-02 0.  1.
    10030    2    1    2    0    0  0.00000000000E+00  0.00000000000E+00 -0.64884735738E+03  0.38331176598E+04  0.37778020198E+04 0.  0.
        2    1    3    3  502    0  0.79935659321E+03 -0.16539875280E+04  0.12167441231E+03  0.18410459985E+04  0.25500000920E-02 0. -1.
       -2    1    3    3    0  502 -0.79935659321E+03  0.16539875280E+04 -0.77052176969E+03  0.19920716613E+04  0.25500000920E-02 0.  1.
</event>
<event>
 5   0  0.1370688E-07  0.3815617E+04  0.7818609E-02  0.8042812E-01
       -2   -1    0    0    0  501  0.00000000000E+00  0.00000000000E+00  0.17994188524E+04  0.17994188524E+04  0.25500000920E-02 0.  1.
        2   -1    0    0  501    0  0.00000000000E+00  0.00000000000E+00 -0.20227267386E+04  0.20227267386E+04  0.25500000920E-02 0. -1.
    10030    2    1    2    0    0  0.00000000000E+00  0.00000000000E+00 -0.22330788619E+03  0.38221455910E+04  0.38156166614E+04 0.  0.
        5    1    3    3  502    0 -0.43514813024E+03 -0.12664345904E+04  0.12495310537E+04  0.18315459075E+04  0.46999998093E+01 0.  1.
       -5    1    3    3    0  502  0.43514813024E+03  0.12664345904E+04 -0.14728389399E+04  0.19905996835E+04  0.46999998093E+01 0. -1.
</event>
<event>
 5   0  0.6725199E-08  0.3788635E+04  0.7818609E-02  0.8048598E-01
        1   -1    0    0  501    0  0.00000000000E+00  0.00000000000E+00  0.18532448838E+04  0.18532448838E+04  0.50400001928E-02 0. -1.
       -1   -1    0    0    0  501  0.00000000000E+00  0.00000000000E+00 -0.19363005015E+04  0.19363005015E+04  0.50400001928E-02 0.  1.
    10030    2    1    2    0    0  0.00000000000E+00  0.00000000000E+00 -0.83055617740E+02  0.37895453853E+04  0.37886351093E+04 0.  0.
        5    1    3    3  502    0 -0.11982255664E+04 -0.59896126565E+03  0.12981661624E+04  0.18654105663E+04  0.46999998093E+01 0. -1.
       -5    1    3    3    0  502  0.11982255664E+04  0.59896126565E+03 -0.13812217802E+04  0.19241348190E+04  0.46999998093E+01 0.  1.
</event>
<event>
 5   0  0.6661000E-08  0.3502127E+04  0.7818609E-02  0.8113286E-01
        1   -1    0    0  501    0  0.00000000000E+00  0.00000000000E+00  0.17710043141E+04  0.17710043141E+04  0.50400001928E-02 0. -1.
       -1   -1    0    0    0  501  0.00000000000E+00  0.00000000000E+00 -0.17313468500E+04  0.17313468501E+04  0.50400001928E-02 0.  1.
    10030    2    1    2    0    0  0.00000000000E+00  0.00000000000E+00  0.39657464009E+02  0.35023511641E+04  0.35021266343E+04 0.  0.
        3    1    3    3  502    0 -0.78764290156E+03 -0.48554867897E+03 -0.14669016629E+04  0.17343411887E+04  0.10100000352E+00 0.  1.
       -3    1    3    3    0  502  0.78764290156E+03  0.48554867897E+03  0.15065591269E+04  0.17680099754E+04  0.10100000352E+00 0. -1.
</event>
<event>
 5   0  0.6725199E-08  0.3794145E+04  0.7818609E-02  0.8047413E-01
       -1   -1    0    0    0  501  0.00000000000E+00  0.00000000000E+00  0.24063622400E+04  0.24063622400E+04  0.50400001928E-02 0.  1.
        1   -1    0    0  501    0  0.00000000000E+00  0.00000000000E+00 -0.14955701875E+04  0.14955701875E+04  0.50400001928E-02 0. -1.
    10030    2    1    2    0    0  0.00000000000E+00  0.00000000000E+00  0.91079205251E+03  0.39019324275E+04  0.37941447661E+04 0.  0.
        5    1    3    3  502    0  0.12061972115E+04  0.13343282348E+04  0.10754490049E+04  0.20956994544E+04  0.46999998093E+01 0.  1.
       -5    1    3    3    0  502 -0.12061972115E+04 -0.13343282348E+04 -0.16465695238E+03  0.18062329731E+04  0.46999998093E+01 0. -1.
</event>
<event>
 5   0  0.6661000E-08  0.3802369E+04  0.7818609E-02  0.8045647E-01
        1   -1    0    0  501    0  0.00000000000E+00  0.00000000000E+00  0.23029983396E+04  0.23029983396E+04  0.50400001928E-02 0.  1.
       -1   -1    0    0    0  501  0.00000000000E+00  0.00000000000E+00 -0.15694769170E+04  0.15694769170E+04  0.50400001928E-02 0. -1.
    10030    2    1    2    0    0  0.00000000000E+00  0.00000000000E+00  0.73352142256E+03  0.38724752566E+04  0.38023691215E+04 0.  0.
        4    1    3    3  502    0  0.13561678528E+04 -0.11009704367E+04  0.11310462904E+04  0.20810080421E+04  0.12699999809E+01 0.  1.
       -4    1    3    3    0  502 -0.13561678528E+04  0.11009704367E+04 -0.39752486784E+03  0.17914672145E+04  0.12699999809E+01 0. -1.
</event>
<event>
 5   0  0.2203998E-07  0.3898735E+04  0.7818609E-02  0.8025292E-01
       -2   -1    0    0    0  501  0.00000000000E+00  0.00000000000E+00  0.16531390294E+04  0.16531390294E+04  0.25500000920E-02 0.  1.
        2   -1    0    0  501    0  0.00000000000E+00  0.00000000000E+00 -0.22986780190E+04  0.22986780190E+04  0.25500000920E-02 0. -1.
    10030    2    1    2    0    0  0.00000000000E+00  0.00000000000E+00 -0.64553898958E+03  0.39518170483E+04  0.38987353586E+04 0.  0.
        3    1    3    3  502    0  0.57432798656E+03 -0.91232073114E+03 -0.19690291480E+04  0.22448290688E+04  0.10100000352E+00 0. -1.
       -3    1    3    3    0  502 -0.57432798656E+03  0.91232073114E+03  0.13234901584E+04  0.17069879795E+04  0.10100000352E+00 0.  1.
</event>
<event>
 5   0  0.1370688E-07  0.3797348E+04  0.7818609E-02  0.8046724E-01
       -2   -1    0    0    0  501  0.00000000000E+00  0.00000000000E+00  0.15322272717E+04  0.15322272717E+04  0.25500000920E-02 0.  1.
        2   -1    0    0  501    0  0.00000000000E+00  0.00000000000E+00 -0.23527600912E+04  0.23527600912E+04  0.25500000920E-02 0. -1.
    10030    2    1    2    0    0  0.00000000000E+00  0.00000000000E+00 -0.82053281948E+03  0.38849873629E+04  0.37973481144E+04 0.  0.
        5    1    3    3  502    0  0.14208442850E+04  0.11619082532E+04  0.86861399051E+02  0.18374972826E+04  0.46999998093E+01 0.  1.
       -5    1    3    3    0  502 -0.14208442850E+04 -0.11619082532E+04 -0.90739421853E+03  0.20474900803E+04  0.46999998093E+01 0. -1.
</event>
<event>
 5   0  0.6661000E-08  0.3789077E+04  0.7818609E-02  0.8048503E-01
        1   -1    0    0  501    0  0.00000000000E+00  0.00000000000E+00  0.20645557308E+04  0.20645557308E+04  0.50400001928E-02 0. -1.
       -1   -1    0    0    0  501  0.00000000000E+00  0.00000000000E+00 -0.17385222202E+04  0.17385222202E+04  0.50400001928E-02 0.  1.
    10030    2    1    2    0    0  0.00000000000E+00  0.00000000000E+00  0.32603351066E+03  0.38030779510E+04  0.37890769392E+04 0.  0.
        4    1    3    3  502    0 -0.96129588145E+03  0.33612090808E+03 -0.14404493419E+04  0.17640756662E+04  0.12699999809E+01 0.  1.
       -4    1    3    3    0  502  0.96129588145E+03 -0.33612090808E+03  0.17664828525E+04  0.20390022849E+04  0.12699999809E+01 0. -1.
</event>
<event>
 5   0  0.2135314E-07  0.3806454E+04  0.7818609E-02  0.8044771E-01
        2   -1    0    0  501    0  0.00000000000E+00  0.00000000000E+00  0.24407410589E+04  0.24407410589E+04  0.25500000920E-02 0. -1.
       -2   -1    0    0    0  501  0.00000000000E+00  0.00000000000E+00 -0.14840875803E+04  0.14840875803E+04  0.25500000920E-02 0.  1.
    10030    2    1    2    0    0  0.00000000000E+00  0.00000000000E+00  0.95665347855E+03  0.39248286392E+04  0.38064542516E+04 0.  0.
        4    1    3    3  502    0 -0.16739428990E+04  0.89005206864E+03  0.30580834815E+03  0.19203639948E+04  0.12699999809E+01 0. -1.
       -4    1    3    3    0  502  0.16739428990E+04 -0.89005206864E+03  0.65084513040E+03  0.20044646444E+04  0.12699999809E+01 0.  1.
</event>
<event>
 5   0  0.2205204E-07  0.3812307E+04  0.7818609E-02  0.8043519E-01
       -2   -1    0    0    0  501  0.00000000000E+00  0.00000000000E+00  0.14895876936E+04  0.14895876936E+04  0.25500000920E-02 0. -1.
        2   -1    0    0  501    0  0.00000000000E+00  0.00000000000E+00 -0.24392120964E+04  0.24392120964E+04  0.25500000920E-02 0.  1.
    10030    2    1    2    0    0  0.00000000000E+00  0.00000000000E+00 -0.94962440281E+03  0.39287997900E+04  0.38123065569E+04 0.  0.
        2    1    3    3  502    0  0.41986332657E+03  0.18934240019E+03 -0.23810043693E+04  0.24251427925E+04  0.25500000920E-02 0.  1.
       -2    1    3    3    0  502 -0.41986332657E+03 -0.18934240019E+03  0.14313799665E+04  0.15036569975E+04  0.25500000920E-02 0. -1.
</event>
<event>
 5   0  0.6661000E-08  0.3771556E+04  0.7818609E-02  0.8052287E-01
        1   -1    0    0  501    0  0.00000000000E+00  0.00000000000E+00  0.15724682926E+04  0.15724682926E+04  0.50400001928E-02 0. -1.
       -1   -1    0    0    0  501  0.00000000000E+00  0.00000000000E+00 -0.22615133888E+04  0.22615133888E+04  0.50400001928E-02 0.  1.
    10030    2    1    2    0    0  0.00000000000E+00  0.00000000000E+00 -0.68904509627E+03  0.38339816814E+04  0.37715556987E+04 0.  0.
        4    1    3    3  502    0  0.72612785568E+03  0.10629082188E+04 -0.17454183018E+04  0.21687605229E+04  0.12699999809E+01 0.  1.
       -4    1    3    3    0  502 -0.72612785568E+03 -0.10629082188E+04  0.10563732055E+04  0.16652211585E+04  0.12699999809E+01 0. -1.
</event>
<event>
 5   0  0.1370688E-07  0.3788562E+04  0.7818609E-02  0.8048614E-01
        2   -1    0    0  501    0  0.00000000000E+00  0.00000000000E+00  0.21484932124E+04  0.21484932124E+04  0.25500000920E-02 0. -1.
       -2   -1    0    0    0  501  0.00000000000E+00  0.00000000000E+00 -0.16701470877E+04  0.16701470877E+04  0.25500000920E-02 0.  1.
    10030    2    1    2    0    0  0.00000000000E+00  0.00000000000E+00  0.47834612471E+03  0.38186403001E+04  0.37885615643E+04 0.  0.
        5    1    3    3  502    0  0.36383793844E+03 -0.18283136042E+04  0.57824978039E+03  0.19517949634E+04  0.46999998093E+01 0. -1.
       -5    1    3    3    0  502 -0.36383793844E+03  0.18283136042E+04 -0.99903655683E+02  0.18668453367E+04  0.46999998093E+01 0.  1.
</event>
<event>
 5   0  0.6661000E-08  0.3792123E+04  0.7818609E-02  0.8047847E-01
       -1   -1    0    0    0  501  0.00000000000E+00  0.00000000000E+00  0.25993722005E+04  0.25993722005E+04  0.50400001928E-02 0.  1.
        1   -1    0    0  501    0  0.00000000000E+00  0.00000000000E+00 -0.13830454403E+04  0.13830454403E+04  0.50400001928E-02 0. -1.
    10030    2    1    2    0    0  0.00000000000E+00  0.00000000000E+00  0.12163267602E+04  0.39824176408E+04  0.37921233469E+04 0.  0.
        3    1    3    3  502    0  0.23503140941E+02 -0.13528978620E+04 -0.78670724520E+03  0.15651815622E+04  0.10100000352E+00 0. -1.
       -3    1    3    3    0  502 -0.23503140941E+02  0.13528978620E+04  0.20030340054E+04  0.24172360786E+04  0.10100000352E+00 0.  1.
</event>
<event>
 5   0  0.2135314E-07  0.3810010E+04  0.7818609E-02  0.8044010E-01
        2   -1    0    0  501    0  0.00000000000E+00  0.00000000000E+00  0.21935260853E+04  0.21935260853E+04  0.25500000920E-02 0. -1.
       -2   -1    0    0    0  501  0.00000000000E+00  0.00000000000E+00 -0.16544342580E+04  0.16544342580E+04  0.25500000920E-02 0.  1.
    10030    2    1    2    0    0  0.00000000000E+00  0.00000000000E+00  0.53909182729E+03  0.38479603433E+04  0.38100103419E+04 0.  0.
        4    1    3    3  502    0  0.41537162658E+03 -0.14085314750E+04 -0.95602726877E+03  0.17522797310E+04  0.12699999809E+01 0.  1.
       -4    1    3    3    0  502 -0.41537162658E+03  0.14085314750E+04  0.14951190961E+04  0.20956806122E+04  0.12699999809E+01 0. -1.
</event>
<event>
 5   0  0.6661000E-08  0.3819327E+04  0.7818609E-02  0.8042020E-01
        3   -1    0    0  501    0  0.00000000000E+00  0.00000000000E+00  0.24140668835E+04  0.24140668856E+04  0.10100000352E+00 0.  1.
       -3   -1    0    0    0  501  0.00000000000E+00  0.00000000000E+00 -0.15106519231E+04  0.15106519265E+04  0.10100000352E+00 0. -1.
    10030    2    1    2    0    0  0.00000000000E+00  0.00000000000E+00  0.90341496034E+03  0.39247188121E+04  0.38193270564E+04 0.  0.
        2    1    3    3  502    0 -0.18659401346E+04  0.68782526262E+01  0.34252556390E+02  0.18662671657E+04  0.25500000920E-02 0. -1.
       -2    1    3    3    0  502  0.18659401346E+04 -0.68782526262E+01  0.86916240395E+03  0.20584516464E+04  0.25500000920E-02 0.  1.
</event>
<event>
 5   0  0.1370688E-07  0.3801091E+04  0.7818609E-02  0.8045921E-01
        2   -1    0    0  501    0  0.00000000000E+00  0.00000000000E+00  0.16031981039E+04  0.16031981039E+04  0.25500000920E-02 0. -1.
       -2   -1    0    0    0  501  0.00000000000E+00  0.00000000000E+00 -0.22530423916E+04  0.22530423916E+04  0.25500000920E-02 0.  1.
    10030    2    1    2    0    0  0.00000000000E+00  0.00000000000E+00 -0.64984428770E+03  0.38562404955E+04  0.38010910488E+04 0.  0.
        5    1    3    3  502    0  0.18347493899E+04  0.28783369091E+03 -0.73438379976E+03  0.19971217321E+04  0.46999998093E+01 0.  1.
       -5    1    3    3    0  502 -0.18347493899E+04 -0.28783369091E+03  0.84539512061E+02  0.18591187634E+04  0.46999998093E+01 0. -1.
</event>
<event>
 5   0  0.6661000E-08  0.3799206E+04  0.7818609E-02  0.8046325E-01
       -1   -1    0    0    0  501  0.00000000000E+00  0.00000000000E+00  0.15974828856E+04  0.15974828856E+04  0.50400001928E-02 0.  1.
        1   -1    0    0  501    0  0.00000000000E+00  0.00000000000E+00 -0.22588611815E+04  0.22588611815E+04  0.50400001928E-02 0. -1.
    10030    2    1    2    0    0  0.00000000000E+00  0.00000000000E+00 -0.66137829594E+03  0.38563440671E+04  0.37992062741E+04 0.  0.
        1    1    3    3  502    0  0.57755043582E+03  0.12173501154E+04 -0.16898516467E+04  0.21612737905E+04  0.50400001928E-02 0.  1.
       -1    1    3    3    0  502 -0.57755043582E+03 -0.12173501154E+04  0.10284733508E+04  0.16950702766E+04  0.50400001928E-02 0. -1.
</event>
<event>
 5   0  0.6661000E-08  0.3848177E+04  0.7818609E-02  0.8035895E-01
        1   -1    0    0  501    0  0.00000000000E+00  0.00000000000E+00  0.18262751598E+04  0.18262751598E+04  0.50400001928E-02 0.  1.
       -1   -1    0    0    0  501  0.00000000000E+00  0.00000000000E+00 -0.20271407825E+04  0.20271407825E+04  0.50400001928E-02 0. -1.
    10030    2    1    2    0    0  0.00000000000E+00  0.00000000000E+00 -0.20086562265E+03  0.38534159423E+04  0.38481771563E+04 0.  0.
        1    1    3    3  502    0 -0.50963092920E+03 -0.96442956799E+03  0.14867387870E+04  0.18439740498E+04  0.50400001928E-02 0.  1.
       -1    1    3    3    0  502  0.50963092920E+03  0.96442956799E+03 -0.16876044097E+04  0.20094418925E+04  0.50400001928E-02 0. -1.
</event>
<event>
 5   0  0.6661000E-08  0.3768545E+04  0.7818609E-02  0.8052939E-01
       -1   -1    0    0    0  501  0.00000000000E+00  0.00000000000E+00  0.11802994564E+04  0.11802994564E+04  0.50400001928E-02 0.  1.
        1   -1    0    0  501    0  0.00000000000E+00  0.00000000000E+00 -0.30081196790E+04  0.30081196790E+04  0.50400001928E-02 0. -1.
    10030    2    1    2    0    0  0.00000000000E+00  0.00000000000E+00 -0.18278202226E+04  0.41884191354E+04  0.37685445583E+04 0.  0.
        3    1    3    3  502    0 -0.15204284217E+03 -0.88519098850E+03 -0.27549061612E+04  0.28976176558E+04  0.10100000352E+00 0. -1.
       -3    1    3    3    0  502  0.15204284217E+03  0.88519098850E+03  0.92708593859E+03  0.12908014796E+04  0.10100000352E+00 0.  1.
</event>
<event>
 5   0  0.2135314E-07  0.3785278E+04  0.7818609E-02  0.8049322E-01
       -2   -1    0    0    0  501  0.00000000000E+00  0.00000000000E+00  0.15886273604E+04  0.15886273604E+04  0.25500000920E-02 0.  1.
        2   -1    0    0  501    0  0.00000000000E+00  0.00000000000E+00 -0.22548287105E+04  0.22548287105E+04  0.25500000920E-02 0. -1.
    10030    2    1    2    0    0  0.00000000000E+00  0.00000000000E+00 -0.66620135016E+03  0.38434560709E+04  0.37852781047E+04 0.  0.
        4    1    3    3  502    0 -0.29605066715E+03 -0.68864685185E+03  0.14314820185E+04  0.16158659803E+04  0.12699999809E+01 0.  1.
       -4    1    3    3    0  502  0.29605066715E+03  0.68864685185E+03 -0.20976833686E+04  0.22275900907E+04  0.12699999809E+01 0. -1.
</event>
<event>
 5   0  0.2081337E-07  0.3795238E+04  0.7818609E-02  0.8047178E-01
       -2   -1    0    0    0  501  0.00000000000E+00  0.00000000000E+00  0.16808866248E+04  0.16808866248E+04  0.25500000920E-02 0.  1.
        2   -1    0    0  501    0  0.00000000000E+00  0.00000000000E+00 -0.21422969165E+04  0.21422969165E+04  0.25500000920E-02 0. -1.
    10030    2    1    2    0    0  0.00000000000E+00  0.00000000000E+00 -0.46141029171E+03  0.38231835414E+04  0.37952381919E+04 0.  0.
        1    1    3    3  502    0  0.15083621065E+03  0.11817174174E+04 -0.17186562631E+04  0.20911688042E+04  0.50400001928E-02 0. -1.
       -1    1    3    3    0  502 -0.15083621065E+03 -0.11817174174E+04  0.12572459714E+04  0.17320147371E+04  0.50400001928E-02 0.  1.
</event>
<event>
 5   0  0.1370688E-07  0.3818809E+04  0.7818609E-02  0.8042131E-01
       -2   -1    0    0    0  501  0.00000000000E+00  0.00000000000E+00  0.12816372942E+04  0.12816372942E+04  0.25500000920E-02 0. -1.
        2   -1    0    0  501    0  0.00000000000E+00  0.00000000000E+00 -0.28446619815E+04  0.28446619815E+04  0.25500000920E-02 0.  1.
    10030    2    1    2    0    0  0.00000000000E+00  0.00000000000E+00 -0.15630246873E+04  0.41262992757E+04  0.38188086545E+04 0.  0.
        5    1    3    3  502    0 -0.73466098208E+03  0.13695103444E+04 -0.19801190807E+04  0.25171767928E+04  0.46999998093E+01 0.  1.
       -5    1    3    3    0  502  0.73466098208E+03 -0.13695103444E+04  0.41709439343E+03  0.16091224830E+04  0.46999998093E+01 0. -1.
</event>
<event>
 5   0  0.1370688E-07  0.3800670E+04  0.7818609E-02  0.8046011E-01
        2   -1    0    0  501    0  0.00000000000E+00  0.00000000000E+00  0.27714580413E+04  0.27714580413E+04  0.25500000920E-02 0.  1.
       -2   -1    0    0    0  501  0.00000000000E+00  0.00000000000E+00 -0.13030231133E+04  0.13030231133E+04  0.25500000920E-02 0. -1.
    10030    2    1    2    0    0  0.00000000000E+00  0.00000000000E+00  0.14684349280E+04  0.40744811546E+04  0.38006704068E+04 0.  0.
        5    1    3    3  502    0 -0.53307912926E+03 -0.51733177395E+02  0.26888669026E+04  0.27416923587E+04  0.46999998093E+01 0.  1.
       -5    1    3    3    0  502  0.53307912926E+03  0.51733177395E+02 -0.12204319746E+04  0.13327887959E+04  0.46999998093E+01 0. -1.
</event>
<event>
 5   0  0.6725199E-08  0.3775969E+04  0.7818609E-02  0.8051332E-01
       -1   -1    0    0    0  501  0.00000000000E+00  0.00000000000E+00  0.24418718766E+04  0.24418718766E+04  0.50400001928E-02 0. -1.
        1   -1    0    0  501    0  0.00000000000E+00  0.00000000000E+00 -0.14597351849E+04  0.14597351849E+04  0.50400001928E-02 0.  1.
    10030    2    1    2    0    0  0.00000000000E+00  0.00000000000E+00  0.98213669163E+03  0.39016070615E+04  0.37759694360E+04 0.  0.
        5    1    3    3  502    0 -0.12398992429E+04 -0.14237606897E+04  0.49563947816E+03  0.19519542045E+04  0.46999998093E+01 0. -1.
       -5    1    3    3    0  502  0.12398992429E+04  0.14237606897E+04  0.48649721347E+03  0.19496528570E+04  0.46999998093E+01 0.  1.
</event>
<event>
 5   0  0.2135314E-07  0.3360739E+04  0.7818609E-02  0.8147610E-01
        2   -1    0    0  501    0  0.00000000000E+00  0.00000000000E+00  0.16906203407E+04  0.16906203407E+04  0.25500000920E-02 0.  1.
       -2   -1    0    0    0  501  0.00000000000E+00  0.00000000000E+00 -0.16701811014E+04  0.16701811014E+04  0.25500000920E-02 0. -1.
    10030    2    1    2    0    0  0.00000000000E+00  0.00000000000E+00  0.20439239349E+02  0.33608014421E+04  0.33607392893E+04 0.  0.
        4    1    3    3  502    0 -0.10103037862E+04  0.26080571736E+03 -0.13069634875E+04  0.16723900661E+04  0.12699999809E+01 0. -1.
       -4    1    3    3    0  502  0.10103037862E+04 -0.26080571736E+03  0.13274027268E+04  0.16884113760E+04  0.12699999809E+01 0.  1.
</event>
<event>
 5   0  0.6661000E-08  0.3812834E+04  0.7818609E-02  0.8043406E-01
       -1   -1    0    0    0  501  0.00000000000E+00  0.00000000000E+00  0.21706256642E+04  0.21706256642E+04  0.50400001928E-02 0.  1.
        1   -1    0    0  501    0  0.00000000000E+00  0.00000000000E+00 -0.16743676464E+04  0.16743676464E+04  0.50400001928E-02 0. -1.
    10030    2    1    2    0    0  0.00000000000E+00  0.00000000000E+00  0.49625801782E+03  0.38449933106E+04  0.38128337937E+04 0.  0.
        3    1    3    3  502    0  0.32804073059E+03  0.12945173273E+04  0.16201335934E+04  0.20995758387E+04  0.10100000352E+00 0.  1.
       -3    1    3    3    0  502 -0.32804073059E+03 -0.12945173273E+04 -0.11238755756E+04  0.17454174719E+04  0.10100000352E+00 0. -1.
</event>
<event>
 5   0  0.2135314E-07  0.3803070E+04  0.7818609E-02  0.8045496E-01
       -2   -1    0    0    0  501  0.00000000000E+00  0.00000000000E+00  0.18361611922E+04  0.18361611922E+04  0.25500000920E-02 0. -1.
        2   -1    0    0  501    0  0.00000000000E+00  0.00000000000E+00 -0.19692360238E+04  0.19692360238E+04  0.25500000920E-02 0.  1.
    10030    2    1    2    0    0  0.00000000000E+00  0.00000000000E+00 -0.13307483158E+03  0.38053972161E+04  0.38030696893E+04 0.  0.
        4    1    3    3  502    0 -0.13962120277E+04  0.95570854862E+03  0.80177607952E+03  0.18723336644E+04  0.12699999809E+01 0. -1.
       -4    1    3    3    0  502  0.13962120277E+04 -0.95570854862E+03 -0.93485091110E+03  0.19330635517E+04  0.12699999809E+01 0.  1.
</event>
<event>
 5   0  0.6661000E-08  0.3669105E+04  0.7818609E-02  0.8074843E-01
       -1   -1    0    0    0  501  0.00000000000E+00  0.00000000000E+00  0.19231912161E+04  0.19231912162E+04  0.50400001928E-02 0.  1.
        1   -1    0    0  501    0  0.00000000000E+00  0.00000000000E+00 -0.17499993269E+04  0.17499993269E+04  0.50400001928E-02 0. -1.
    10030    2    1    2    0    0  0.00000000000E+00  0.00000000000E+00  0.17319188927E+03  0.36731905430E+04  0.36691052499E+04 0.  0.
        1    1    3    3  502    0 -0.85642605662E+03 -0.15628267540E+04 -0.34942346915E+03  0.18160368428E+04  0.50400001928E-02 0. -1.
       -1    1    3    3    0  502  0.85642605662E+03  0.15628267540E+04  0.52261535843E+03  0.18571537003E+04  0.50400001928E-02 0.  1.
</event>
<event>
 5   0  0.6661000E-08  0.3798449E+04  0.7818609E-02  0.8046488E-01
        1   -1    0    0  501    0  0.00000000000E+00  0.00000000000E+00  0.23145062296E+04  0.23145062296E+04  0.50400001928E-02 0.  1.
       -1   -1    0    0    0  501  0.00000000000E+00  0.00000000000E+00 -0.15584545739E+04  0.15584545739E+04  0.50400001928E-02 0. -1.
    10030    2    1    2    0    0  0.00000000000E+00  0.00000000000E+00  0.75605165565E+03  0.38729608035E+04  0.37984485359E+04 0.  0.
        1    1    3    3  502    0  0.14597675317E+04 -0.59490359167E+03 -0.70210436700E+03  0.17256251250E+04  0.50400001928E-02 0. -1.
       -1    1    3    3    0  502 -0.14597675317E+04  0.59490359167E+03  0.14581560227E+04  0.21473356785E+04  0.50400001928E-02 0.  1.
</event>
<event>
 5   0  0.2081337E-07  0.3800462E+04  0.7818609E-02  0.8046056E-01
       -2   -1    0    0    0  501  0.00000000000E+00  0.00000000000E+00  0.16468849931E+04  0.16468849931E+04  0.25500000920E-02 0.  1.
        2   -1    0    0  501    0  0.00000000000E+00  0.00000000000E+00 -0.21925499700E+04  0.21925499700E+04  0.25500000920E-02 0. -1.
    10030    2    1    2    0    0  0.00000000000E+00  0.00000000000E+00 -0.54566497695E+03  0.38394349631E+04  0.38004618889E+04 0.  0.
        1    1    3    3  502    0  0.13935624864E+04  0.45447052095E+03 -0.14944965960E+04  0.20933418100E+04  0.50400001928E-02 0. -1.
       -1    1    3    3    0  502 -0.13935624864E+04 -0.45447052095E+03  0.94883161906E+03  0.17460931531E+04  0.50400001928E-02 0.  1.
</event>
<event>
 5   0  0.2081337E-07  0.3769436E+04  0.7818609E-02  0.8052746E-01
       -2   -1    0    0    0  501  0.00000000000E+00  0.00000000000E+00  0.19636838318E+04  0.19636838318E+04  0.25500000920E-02 0. -1.
        2   -1    0    0  501    0  0.00000000000E+00  0.00000000000E+00 -0.18089278242E+04  0.18089278242E+04  0.25500000920E-02 0.  1.
    10030    2    1    2    0    0  0.00000000000E+00  0.00000000000E+00  0.15475600758E+03  0.37726116560E+04  0.37694362026E+04 0.  0.
        1    1    3    3  502    0 -0.11696893196E+04 -0.35927035565E+02  0.15560184325E+04  0.19469610214E+04  0.50400001928E-02 0. -1.
       -1    1    3    3    0  502  0.11696893196E+04  0.35927035565E+02 -0.14012624249E+04  0.18256506347E+04  0.50400001928E-02 0.  1.
</event>
<event>
 5   0  0.2135314E-07  0.3806539E+04  0.7818609E-02  0.8044753E-01
       -2   -1    0    0    0  501  0.00000000000E+00  0.00000000000E+00  0.20881877321E+04  0.20881877321E+04  0.25500000920E-02 0. -1.
        2   -1    0    0  501    0  0.00000000000E+00  0.00000000000E+00 -0.17347266245E+04  0.17347266245E+04  0.25500000920E-02 0.  1.
    10030    2    1    2    0    0  0.00000000000E+00  0.00000000000E+00  0.35346110761E+03  0.38229143566E+04  0.38065390348E+04 0.  0.
        4    1    3    3  502    0 -0.86238937844E+03  0.11002039783E+04 -0.11204407188E+04  0.17915226069E+04  0.12699999809E+01 0.  1.
       -4    1    3    3    0  502  0.86238937844E+03 -0.11002039783E+04  0.14739018264E+04  0.20313917497E+04  0.12699999809E+01 0. -1.
</event>
<event>
 5   0  0.2135314E-07  0.3782998E+04  0.7818609E-02  0.8049813E-01
       -2   -1    0    0    0  501  0.00000000000E+00  0.00000000000E+00  0.25221020775E+04  0.25221020775E+04  0.25500000920E-02 0.  1.
        2   -1    0    0  501    0  0.00000000000E+00  0.00000000000E+00 -0.14185663733E+04  0.14185663733E+04  0.25500000920E-02 0. -1.
    10030    2    1    2    0    0  0.00000000000E+00  0.00000000000E+00  0.11035357042E+04  0.39406684507E+04  0.37829983859E+04 0.  0.
        4    1    3    3  502    0 -0.25209171416E+03 -0.11501586361E+04 -0.99025162437E+03  0.15385106477E+04  0.12699999809E+01 0. -1.
       -4    1    3    3    0  502  0.25209171416E+03  0.11501586361E+04  0.20937873286E+04  0.24021578030E+04  0.12699999809E+01 0.  1.
</event>
<event>
 5   0  0.6661000E-08  0.3760581E+04  0.7818609E-02  0.8054667E-01
        1   -1    0    0  501    0  0.00000000000E+00  0.00000000000E+00  0.25370792420E+04  0.25370792420E+04  0.50400001928E-02 0.  1.
       -1   -1    0    0    0  501  0.00000000000E+00  0.00000000000E+00 -0.13935285601E+04  0.13935285601E+04  0.50400001928E-02 0. -1.
    10030    2    1    2    0    0  0.00000000000E+00  0.00000000000E+00  0.11435506819E+04  0.39306078021E+04  0.37605810099E+04 0.  0.
        1    1    3    3  502    0 -0.35731019503E+01  0.14484959535E+04 -0.68132076804E+03  0.16007346074E+04  0.50400001928E-02 0. -1.
       -1    1    3    3    0  502  0.35731019503E+01 -0.14484959535E+04  0.18248714500E+04  0.23298731947E+04  0.50400001928E-02 0.  1.
</event>
<event>
 5   0  0.6661000E-08  0.3802079E+04  0.7818609E-02  0.8045709E-01
        1   -1    0    0  501    0  0.00000000000E+00  0.00000000000E+00  0.22902225939E+04  0.22902225939E+04  0.50400001928E-02 0. -1.
       -1   -1    0    0    0  501  0.00000000000E+00  0.00000000000E+00 -0.15779914692E+04  0.15779914692E+04  0.50400001928E-02 0.  1.
    10030    2    1    2    0    0  0.00000000000E+00  0.00000000000E+00  0.71223112465E+03  0.38682140631E+04  0.38020792815E+04 0.  0.
        3    1    3    3  502    0 -0.10880005694E+04  0.18786625807E+03 -0.12183536679E+04  0.16442094271E+04  0.10100000352E+00 0.  1.
       -3    1    3    3    0  502  0.10880005694E+04 -0.18786625807E+03  0.19305847925E+04  0.22240046360E+04  0.10100000352E+00 0. -1.
</event>
<event>
 5   0  0.2205204E-07  0.3648852E+04  0.7818609E-02  0.8079392E-01
       -2   -1    0    0    0  501  0.00000000000E+00  0.00000000000E+00  0.28127232281E+04  0.28127232281E+04  0.25500000920E-02 0. -1.
        2   -1    0    0  501    0  0.00000000000E+00  0.00000000000E+00 -0.11833831760E+04  0.11833831760E+04  0.25500000920E-02 0.  1.
    10030    2    1    2    0    0  0.00000000000E+00  0.00000000000E+00  0.16293400521E+04  0.39961064041E+04  0.36488515162E+04 0.  0.
        2    1    3    3  502    0 -0.13574246024E+04  0.72255245056E+03  0.18898585532E+04  0.24364418618E+04  0.25500000920E-02 0. -1.
       -2    1    3    3    0  502  0.13574246024E+04 -0.72255245056E+03 -0.26051850110E+03  0.15596645423E+04  0.25500000920E-02 0.  1.
</event>
<event>
 5   0  0.6661000E-08  0.3712287E+04  0.7818609E-02  0.8065244E-01
        1   -1    0    0  501    0  0.00000000000E+00  0.00000000000E+00  0.19013126155E+04  0.19013126155E+04  0.50400001928E-02 0. -1.
       -1   -1    0    0    0  501  0.00000000000E+00  0.00000000000E+00 -0.18120475302E+04  0.18120475302E+04  0.50400001928E-02 0.  1.
    10030    2    1    2    0    0  0.00000000000E+00  0.00000000000E+00  0.89265085333E+02  0.37133601457E+04  0.37122870735E+04 0.  0.
        2    1    3    3  502    0  0.13382829854E+04 -0.89730466571E+03 -0.87710645279E+03  0.18345224833E+04  0.25500000920E-02 0.  1.
       -2    1    3    3    0  502 -0.13382829854E+04  0.89730466571E+03  0.96637153813E+03  0.18788376624E+04  0.25500000920E-02 0. -1.
</event>
<event>
 5   0  0.6661000E-08  0.3792131E+04  0.7818609E-02  0.8047846E-01
       -1   -1    0    0    0  501  0.00000000000E+00  0.00000000000E+00  0.12810260697E+04  0.12810260697E+04  0.50400001928E-02 0. -1.
        1   -1    0    0  501    0  0.00000000000E+00  0.00000000000E+00 -0.28063944066E+04  0.28063944066E+04  0.50400001928E-02 0.  1.
    10030    2    1    2    0    0  0.00000000000E+00  0.00000000000E+00 -0.15253683369E+04  0.40874204763E+04  0.37921310087E+04 0.  0.
        2    1    3    3  502    0 -0.12903465638E+04 -0.49923709491E+03 -0.21601081675E+04  0.25652093924E+04  0.25500000920E-02 0.  1.
       -2    1    3    3    0  502  0.12903465638E+04  0.49923709491E+03  0.63473983053E+03  0.15222110840E+04  0.25500000920E-02 0. -1.
</event>
<event>
 5   0  0.6661000E-08  0.3342980E+04  0.7818609E-02  0.8152045E-01
        1   -1    0    0  501    0  0.00000000000E+00  0.00000000000E+00  0.15293694954E+04  0.15293694954E+04  0.50400001928E-02 0. -1.
       -1   -1    0    0    0  501  0.00000000000E+00  0.00000000000E+00 -0.18268169877E+04  0.18268169877E+04  0.50400001928E-02 0.  1.
    10030    2    1    2    0    0  0.00000000000E+00  0.00000000000E+00 -0.29744749231E+03  0.33561864831E+04  0.33429796139E+04 0.  0.
        4    1    3    3  502    0  0.11470561471E+04  0.12014602462E+04  0.38108293362E+02  0.16615349478E+04  0.12699999809E+01 0.  1.
       -4    1    3    3    0  502 -0.11470561471E+04 -0.12014602462E+04 -0.33555578567E+03  0.16946515353E+04  0.12699999809E+01 0. -1.
</event>
<event>
 5   0  0.2205204E-07  0.3843312E+04  0.7818609E-02  0.8036924E-01
        2   -1    0    0  501    0  0.00000000000E+00  0.00000000000E+00  0.26145175631E+04  0.26145175631E+04  0.25500000920E-02 0. -1.
       -2   -1    0    0    0  501  0.00000000000E+00  0.00000000000E+00 -0.14124064421E+04  0.14124064421E+04  0.25500000920E-02 0.  1.
    10030    2    1    2    0    0  0.00000000000E+00  0.00000000000E+00  0.12021111210E+04  0.40269240052E+04  0.38433118265E+04 0.  0.
        2    1    3    3  502    0  0.91973809109E+03 -0.16445411517E+04  0.99634254673E+03  0.21314624619E+04  0.25500000920E-02 0.  1.
       -2    1    3    3    0  502 -0.91973809109E+03  0.16445411517E+04  0.20576857430E+03  0.18954615433E+04  0.25500000920E-02 0. -1.
</event>
<event>
 5   0  0.6661000E-08  0.3787836E+04  0.7818609E-02  0.8048770E-01
       -1   -1    0    0    0  501  0.00000000000E+00  0.00000000000E+00  0.23502469402E+04  0.23502469402E+04  0.50400001928E-02 0. -1.
        1   -1    0    0  501    0  0.00000000000E+00  0.00000000000E+00 -0.15261908583E+04  0.15261908583E+04  0.50400001928E-02 0.  1.
    10030    2    1    2    0    0  0.00000000000E+00  0.00000000000E+00  0.82405608191E+03  0.38764377984E+04  0.37878360021E+04 0.  0.
        1    1    3    3  502    0 -0.75225281711E+03 -0.15122420319E+04  0.12889047383E+04  0.21246260114E+04  0.50400001928E-02 0. -1.
       -1    1    3    3    0  502  0.75225281711E+03  0.15122420319E+04 -0.46484865640E+03  0.17518117870E+04  0.50400001928E-02 0.  1.
</event>
<event>
 5   0  0.2205204E-07  0.3830664E+04  0.7818609E-02  0.8039606E-01
        2   -1    0    0  501    0  0.00000000000E+00  0.00000000000E+00  0.15785316610E+04  0.15785316610E+04  0.25500000920E-02 0. -1.
       -2   -1    0    0    0  501  0.00000000000E+00  0.00000000000E+00 -0.23239927943E+04  0.23239927943E+04  0.25500000920E-02 0.  1.
    10030    2    1    2    0    0  0.00000000000E+00  0.00000000000E+00 -0.74546113332E+03  0.39025244554E+04  0.38306637576E+04 0.  0.
        2    1    3    3  502    0 -0.16730060581E+04  0.11357651970E+03 -0.13156457480E+04  0.21313781059E+04  0.25500000920E-02 0.  1.
       -2    1    3    3    0  502  0.16730060581E+04 -0.11357651970E+03  0.57018461470E+03  0.17711463494E+04  0.25500000920E-02 0. -1.
</event>
<event>
 5   0  0.2205204E-07  0.3778169E+04  0.7818609E-02  0.8050856E-01
       -2   -1    0    0    0  501  0.00000000000E+00  0.00000000000E+00  0.13707617457E+04  0.13707617457E+04  0.25500000920E-02 0. -1.
        2   -1    0    0  501    0  0.00000000000E+00  0.00000000000E+00 -0.26033992028E+04  0.26033992028E+04  0.25500000920E-02 0.  1.
    10030    2    1    2    0    0  0.00000000000E+00  0.00000000000E+00 -0.12326374571E+04  0.39741609485E+04  0.37781688877E+04 0.  0.
        2    1    3    3  502    0  0.10170105149E+04  0.13583309277E+04  0.25696977960E+03  0.17162187402E+04  0.25500000920E-02 0. -1.
       -2    1    3    3    0  502 -0.10170105149E+04 -0.13583309277E+04 -0.14896072367E+04  0.22579422083E+04  0.25500000920E-02 0.  1.
</event>
<event>
 5   0  0.2205204E-07  0.3812037E+04  0.7818609E-02  0.8043577E-01
       -2   -1    0    0    0  501  0.00000000000E+00  0.00000000000E+00  0.21198329984E+04  0.21198329984E+04  0.25500000920E-02 0.  1.
        2   -1    0    0  501    0  0.00000000000E+00  0.00000000000E+00 -0.17137705016E+04  0.17137705016E+04  0.25500000920E-02 0. -1.
    10030    2    1    2    0    0  0.00000000000E+00  0.00000000000E+00  0.40606249687E+03  0.38336035000E+04  0.38120373875E+04 0.  0.
        2    1    3    3  502    0 -0.77171323468E+03  0.15912019579E+04  0.91799796110E+03  0.19925323696E+04  0.25500000920E-02 0.  1.
       -2    1    3    3    0  502  0.77171323468E+03 -0.15912019579E+04 -0.51193546423E+03  0.18410711303E+04  0.25500000920E-02 0. -1.
</event>
<event>
 5   0  0.2081337E-07  0.3782921E+04  0.7818609E-02  0.8049830E-01
        2   -1    0    0  501    0  0.00000000000E+00  0.00000000000E+00  0.17517235758E+04  0.17517235758E+04  0.25500000920E-02 0.  1.
       -2   -1    0    0    0  501  0.00000000000E+00  0.00000000000E+00 -0.20423447761E+04  0.20423447761E+04  0.25500000920E-02 0. -1.
    10030    2    1    2    0    0  0.00000000000E+00  0.00000000000E+00 -0.29062120034E+03  0.37940683519E+04  0.37829213548E+04 0.  0.
        1    1    3    3  502    0 -0.11568188957E+04 -0.14001471842E+04 -0.67505388743E+03  0.19376118924E+04  0.50400001928E-02 0. -1.
       -1    1    3    3    0  502  0.11568188957E+04  0.14001471842E+04  0.38443268709E+03  0.18564564594E+04  0.50400001928E-02 0.  1.
</event>
<event>
 5   0  0.6661000E-08  0.3822856E+04  0.7818609E-02  0.8041268E-01
       -1   -1    0    0    0  501  0.00000000000E+00  0.00000000000E+00  0.18731072753E+04  0.18731072753E+04  0.50400001928E-02 0.  1.
        1   -1    0    0  501    0  0.00000000000E+00  0.00000000000E+00 -0.19505329794E+04  0.19505329794E+04  0.50400001928E-02 0. -1.
    10030    2    1    2    0    0  0.00000000000E+00  0.00000000000E+00 -0.77425704073E+02  0.38236402548E+04  0.38228562696E+04 0.  0.
        2    1    3    3  502    0  0.16144363833E+04 -0.57633149700E+03  0.80703413982E+03  0.18946944168E+04  0.25500000920E-02 0.  1.
       -2    1    3    3    0  502 -0.16144363833E+04  0.57633149700E+03 -0.88445984389E+03  0.19289458379E+04  0.25500000920E-02 0. -1.
</event>
<event>
 5   0  0.2135314E-07  0.3814508E+04  0.7818609E-02  0.8043049E-01
        2   -1    0    0  501    0  0.00000000000E+00  0.00000000000E+00  0.21552066722E+04  0.21552066722E+04  0.25500000920E-02 0. -1.
       -2   -1    0    0    0  501  0.00000000000E+00  0.00000000000E+00 -0.16878280876E+04  0.16878280876E+04  0.25500000920E-02 0.  1.
    10030    2    1    2    0    0  0.00000000000E+00  0.00000000000E+00  0.46737858467E+03  0.38430347598E+04  0.38145082807E+04 0.  0.
        4    1    3    3  502    0  0.50274060546E+03  0.10430187771E+03 -0.16168897083E+04  0.16964554046E+04  0.12699999809E+01 0.  1.
       -4    1    3    3    0  502 -0.50274060546E+03 -0.10430187771E+03  0.20842682930E+04  0.21465793552E+04  0.12699999809E+01 0. -1.
</event>
<event>
 5   0  0.1370688E-07  0.3778196E+04  0.7818609E-02  0.8050850E-01
       -2   -1    0    0    0  501  0.00000000000E+00  0.00000000000E+00  0.22515913289E+04  0.22515913289E+04  0.25500000920E-02 0.  1.
        2   -1    0    0  501    0  0.00000000000E+00  0.00000000000E+00 -0.15849636190E+04  0.15849636190E+04  0.25500000920E-02 0. -1.
    10030    2    1    2    0    0  0.00000000000E+00  0.00000000000E+00  0.66662770994E+03  0.38365549479E+04  0.37781955170E+04 0.  0.
        5    1    3    3  502    0 -0.42633352498E+03 -0.18139055959E+04  0.17618671077E+02  0.18634232726E+04  0.46999998093E+01 0. -1.
       -5    1    3    3    0  502  0.42633352498E+03  0.18139055959E+04  0.64900903886E+03  0.19731316753E+04  0.46999998093E+01 0.  1.
</event>
<event>
 5   0  0.6661000E-08  0.3716745E+04  0.7818609E-02  0.8064261E-01
        1   -1    0    0  501    0  0.00000000000E+00  0.00000000000E+00  0.29785737021E+04  0.29785737021E+04  0.50400001928E-02 0.  1.
       -1   -1    0    0    0  501  0.00000000000E+00  0.00000000000E+00 -0.11594635067E+04  0.11594635067E+04  0.50400001928E-02 0. -1.
    10030    2    1    2    0    0  0.00000000000E+00  0.00000000000E+00  0.18191101954E+04  0.41380372088E+04  0.37167445484E+04 0.  0.
        3    1    3    3  502    0 -0.87740301004E+03  0.14866248433E+04  0.14331631141E+03  0.17321746569E+04  0.10100000352E+00 0.  1.
       -3    1    3    3    0  502  0.87740301004E+03 -0.14866248433E+04  0.16757938840E+04  0.24058625519E+04  0.10100000352E+00 0. -1.
</event>
<event>
 5   0  0.1370688E-07  0.3805742E+04  0.7818609E-02  0.8044924E-01
       -2   -1    0    0    0  501  0.00000000000E+00  0.00000000000E+00  0.24370737338E+04  0.24370737338E+04  0.25500000920E-02 0. -1.
        2   -1    0    0  501    0  0.00000000000E+00  0.00000000000E+00 -0.14857644047E+04  0.14857644047E+04  0.25500000920E-02 0.  1.
    10030    2    1    2    0    0  0.00000000000E+00  0.00000000000E+00  0.95130932911E+03  0.39228381386E+04  0.38057416651E+04 0.  0.
        5    1    3    3  502    0  0.63016885135E+03 -0.68090038644E+03  0.21881444610E+04  0.23767070475E+04  0.46999998093E+01 0. -1.
       -5    1    3    3    0  502 -0.63016885135E+03  0.68090038644E+03 -0.12368351318E+04  0.15461310911E+04  0.46999998093E+01 0.  1.
</event>
<event>
 5   0  0.6661000E-08  0.3805049E+04  0.7818609E-02  0.8045072E-01
        1   -1    0    0  501    0  0.00000000000E+00  0.00000000000E+00  0.18316176667E+04  0.18316176667E+04  0.50400001928E-02 0. -1.
       -1   -1    0    0    0  501  0.00000000000E+00  0.00000000000E+00 -0.19761763529E+04  0.19761763529E+04  0.50400001928E-02 0.  1.
    10030    2    1    2    0    0  0.00000000000E+00  0.00000000000E+00 -0.14455868623E+03  0.38077940197E+04  0.38050490250E+04 0.  0.
        3    1    3    3  502    0  0.16146573893E+04  0.92726391610E+03  0.31872321355E+03  0.18890530305E+04  0.10100000352E+00 0. -1.
       -3    1    3    3    0  502 -0.16146573893E+04 -0.92726391610E+03 -0.46328189978E+03  0.19187409892E+04  0.10100000352E+00 0.  1.
</event>
<event>
 5   0  0.1370688E-07  0.3791800E+04  0.7818609E-02  0.8047917E-01
        2   -1    0    0  501    0  0.00000000000E+00  0.00000000000E+00  0.15715194526E+04  0.15715194526E+04  0.25500000920E-02 0. -1.
       -2   -1    0    0    0  501  0.00000000000E+00  0.00000000000E+00 -0.22872361638E+04  0.22872361638E+04  0.25500000920E-02 0.  1.
    10030    2    1    2    0    0  0.00000000000E+00  0.00000000000E+00 -0.71571671127E+03  0.38587556164E+04  0.37917996382E+04 0.  0.
        5    1    3    3  502    0  0.46133998102E+03  0.12894726590E+04 -0.16920542014E+04  0.21768426279E+04  0.46999998093E+01 0.  1.
       -5    1    3    3    0  502 -0.46133998102E+03 -0.12894726590E+04  0.97633749009E+03  0.16819129885E+04  0.46999998093E+01 0. -1.
</event>
<event>
 5   0  0.2205204E-07  0.3685122E+04  0.7818609E-02  0.8071267E-01
        2   -1    0    0  501    0  0.00000000000E+00  0.00000000000E+00  0.12157363256E+04  0.12157363256E+04  0.25500000920E-02 0. -1.
       -2   -1    0    0    0  501  0.00000000000E+00  0.00000000000E+00 -0.27925711289E+04  0.27925711289E+04  0.25500000920E-02 0.  1.
    10030    2    1    2    0    0  0.00000000000E+00  0.00000000000E+00 -0.15768348033E+04  0.40083074545E+04  0.36851215249E+04 0.  0.
        2    1    3    3  502    0  0.47102332260E+03  0.52333663006E+02 -0.27251434141E+04  0.27660456269E+04  0.25500000920E-02 0.  1.
       -2    1    3    3    0  502 -0.47102332260E+03 -0.52333663006E+02  0.11483086108E+04  0.12422618276E+04  0.25500000920E-02 0. -1.
</event>
<event>
 5   0  0.6661000E-08  0.3829376E+04  0.7818609E-02  0.8039880E-01
        1   -1    0    0  501    0  0.00000000000E+00  0.00000000000E+00  0.10356123216E+04  0.10356123216E+04  0.50400001928E-02 0. -1.
       -1   -1    0    0    0  501  0.00000000000E+00  0.00000000000E+00 -0.35399629946E+04  0.35399629946E+04  0.50400001928E-02 0.  1.
    10030    2    1    2    0    0  0.00000000000E+00  0.00000000000E+00 -0.25043506729E+04  0.45755753162E+04  0.38293755602E+04 0.  0.
        4    1    3    3  502    0  0.93636468772E+03 -0.16335667072E+04 -0.16673080654E+04  0.25150023485E+04  0.12699999809E+01 0. -1.
       -4    1    3    3    0  502 -0.93636468772E+03  0.16335667072E+04 -0.83704260754E+03  0.20605729677E+04  0.12699999809E+01 0.  1.
</event>
<event>
 5   0  0.6661000E-08  0.3782980E+04  0.7818609E-02  0.8049817E-01
        1   -1    0    0  501    0  0.00000000000E+00  0.00000000000E+00  0.24429796435E+04  0.24429796435E+04  0.50400001928E-02 0.  1.
       -1   -1    0    0    0  501  0.00000000000E+00  0.00000000000E+00 -0.14644965558E+04  0.14644965558E+04  0.50400001928E-02 0. -1.
    10030    2    1    2    0    0  0.00000000000E+00  0.00000000000E+00  0.97848308767E+03  0.39074761992E+04  0.37829804513E+04 0.  0.
        1    1    3    3  502    0 -0.10773453039E+04 -0.15411747429E+04  0.27795466973E+03  0.19008291061E+04  0.50400001928E-02 0. -1.
       -1    1    3    3    0  502  0.10773453039E+04  0.15411747429E+04  0.70052841794E+03  0.20066470932E+04  0.50400001928E-02 0.  1.
</event>
<event>
 5   0  0.2135314E-07  0.3743172E+04  0.7818609E-02  0.8058461E-01
        2   -1    0    0  501    0  0.00000000000E+00  0.00000000000E+00  0.23550256919E+04  0.23550256919E+04  0.25500000920E-02 0.  1.
       -2   -1    0    0    0  501  0.00000000000E+00  0.00000000000E+00 -0.14873868683E+04  0.14873868683E+04  0.25500000920E-02 0. -1.
    10030    2    1    2    0    0  0.00000000000E+00  0.00000000000E+00  0.86763882353E+03  0.38424125602E+04  0.37431720712E+04 0.  0.
        4    1    3    3  502    0 -0.27872232641E+03 -0.15841086945E+04  0.14161366387E+04  0.21430191515E+04  0.12699999809E+01 0.  1.
       -4    1    3    3    0  502  0.27872232641E+03  0.15841086945E+04 -0.54849781518E+03  0.16993934087E+04  0.12699999809E+01 0. -1.
</event>
<event>
 5   0  0.2135314E-07  0.3778153E+04  0.7818609E-02  0.8050859E-01
        2   -1    0    0  501    0  0.00000000000E+00  0.00000000000E+00  0.27008165002E+04  0.27008165002E+04  0.25500000920E-02 0.  1.
       -2   -1    0    0    0  501  0.00000000000E+00  0.00000000000E+00 -0.13213078898E+04  0.13213078898E+04  0.25500000920E-02 0. -1.
    10030    2    1    2    0    0  0.00000000000E+00  0.00000000000E+00  0.13795086105E+04  0.40221243900E+04  0.37781530676E+04 0.  0.
        4    1    3    3  502    0 -0.18500107407E+04 -0.31944367576E+03  0.46638507973E+03  0.19344509965E+04  0.12699999809E+01 0. -1.
       -4    1    3    3    0  502  0.18500107407E+04  0.31944367576E+03  0.91312353073E+03  0.20876733935E+04  0.12699999809E+01 0.  1.
</event>
<event>
 5   0  0.2081337E-07  0.3794066E+04  0.7818609E-02  0.8047429E-01
        2   -1    0    0  501    0  0.00000000000E+00  0.00000000000E+00  0.24848997702E+04  0.24848997702E+04  0.25500000920E-02 0. -1.
       -2   -1    0    0    0  501  0.00000000000E+00  0.00000000000E+00 -0.14482413155E+04  0.14482413155E+04  0.25500000920E-02 0.  1.
    10030    2    1    2    0    0  0.00000000000E+00  0.00000000000E+00  0.10366584547E+04  0.39331410857E+04  0.37940661629E+04 0.  0.
        1    1    3    3  502    0 -0.67367400296E+03 -0.17668683528E+04  0.67579884187E+03  0.20080748275E+04  0.50400001928E-02 0. -1.
       -1    1    3    3    0  502  0.67367400296E+03  0.17668683528E+04  0.36085961286E+03  0.19250662582E+04  0.50400001928E-02 0.  1.
</event>
<event>
 5   0  0.1370688E-07  0.3865848E+04  0.7818609E-02  0.8032170E-01
        2   -1    0    0  501    0  0.00000000000E+00  0.00000000000E+00  0.22043363660E+04  0.22043363660E+04  0.25500000920E-02 0.  1.
       -2   -1    0    0    0  501  0.00000000000E+00  0.00000000000E+00 -0.16949296322E+04  0.16949296322E+04  0.25500000920E-02 0. -1.
    10030    2    1    2    0    0  0.00000000000E+00  0.00000000000E+00  0.50940673385E+03  0.38992659982E+04  0.38658479153E+04 0.  0.
        5    1    3    3  502    0 -0.75724890864E+03  0.15890279019E+04  0.10601912758E+04  0.20548633078E+04  0.46999998093E+01 0.  1.
       -5    1    3    3    0  502  0.75724890864E+03 -0.15890279019E+04 -0.55078454194E+03  0.18444026904E+04  0.46999998093E+01 0. -1.
</event>
<event>
 5   0  0.6661000E-08  0.3779900E+04  0.7818609E-02  0.8050482E-01
        1   -1    0    0  501    0  0.00000000000E+00  0.00000000000E+00  0.15397889081E+04  0.15397889081E+04  0.50400001928E-02 0.  1.
       -1   -1    0    0    0  501  0.00000000000E+00  0.00000000000E+00 -0.23197404244E+04  0.23197404244E+04  0.50400001928E-02 0. -1.
    10030    2    1    2    0    0  0.00000000000E+00  0.00000000000E+00 -0.77995151629E+03  0.38595293325E+04  0.37798997739E+04 0.  0.
        3    1    3    3  502    0 -0.96390946967E+03  0.81845098509E+03  0.10442237820E+04  0.16399349980E+04  0.10100000352E+00 0.  1.
       -3    1    3    3    0  502  0.96390946967E+03 -0.81845098509E+03 -0.18241752983E+04  0.22195943345E+04  0.10100000352E+00 0. -1.
</event>
<event>
 5   0  0.6661000E-08  0.3898933E+04  0.7818609E-02  0.8025251E-01
        1   -1    0    0  501    0  0.00000000000E+00  0.00000000000E+00  0.23949944174E+04  0.23949944174E+04  0.50400001928E-02 0. -1.
       -1   -1    0    0    0  501  0.00000000000E+00  0.00000000000E+00 -0.15868180037E+04  0.15868180037E+04  0.50400001928E-02 0.  1.
    10030    2    1    2    0    0  0.00000000000E+00  0.00000000000E+00  0.80817641369E+03  0.39818124210E+04  0.38989333209E+04 0.  0.
        1    1    3    3  502    0  0.12934159085E+04 -0.84518374007E+03 -0.80994525178E+03  0.17444975144E+04  0.50400001928E-02 0.  1.
       -1    1    3    3    0  502 -0.12934159085E+04  0.84518374007E+03  0.16181216655E+04  0.22373149066E+04  0.50400001928E-02 0. -1.
</event>
<event>
 5   0  0.2205204E-07  0.3806631E+04  0.7818609E-02  0.8044733E-01
        2   -1    0    0  501    0  0.00000000000E+00  0.00000000000E+00  0.11658078270E+04  0.11658078270E+04  0.25500000920E-02 0.  1.
       -2   -1    0    0    0  501  0.00000000000E+00  0.00000000000E+00 -0.31073812359E+04  0.31073812359E+04  0.25500000920E-02 0. -1.
    10030    2    1    2    0    0  0.00000000000E+00  0.00000000000E+00 -0.19415734089E+04  0.42731890630E+04  0.38066307236E+04 0.  0.
        2    1    3    3  502    0 -0.16788397704E+04  0.77981759987E+03 -0.47381768496E+03  0.19107908474E+04  0.25500000920E-02 0. -1.
       -2    1    3    3    0  502  0.16788397704E+04 -0.77981759987E+03 -0.14677557239E+04  0.23623982156E+04  0.25500000920E-02 0.  1.
</event>
<event>
 5   0  0.6725199E-08  0.3797134E+04  0.7818609E-02  0.8046770E-01
       -1   -1    0    0    0  501  0.00000000000E+00  0.00000000000E+00  0.13352990730E+04  0.13352990730E+04  0.50400001928E-02 0. -1.
        1   -1    0    0  501    0  0.00000000000E+00  0.00000000000E+00 -0.26994378548E+04  0.26994378548E+04  0.50400001928E-02 0.  1.
    10030    2    1    2    0    0  0.00000000000E+00  0.00000000000E+00 -0.13641387818E+04  0.40347369277E+04  0.37971341114E+04 0.  0.
        5    1    3    3  502    0 -0.26620247061E+02  0.14425743949E+04  0.62916843776E+03  0.15740408303E+04  0.46999998093E+01 0. -1.
       -5    1    3    3    0  502  0.26620247061E+02 -0.14425743949E+04 -0.19933072196E+04  0.24606960974E+04  0.46999998093E+01 0.  1.
</event>
<event>
 5   0  0.6661000E-08  0.3545893E+04  0.7818609E-02  0.8102999E-01
       -1   -1    0    0    0  501  0.00000000000E+00  0.00000000000E+00  0.15109611394E+04  0.15109611394E+04  0.50400001928E-02 0.  1.
        1   -1    0    0  501    0  0.00000000000E+00  0.00000000000E+00 -0.20803570237E+04  0.20803570237E+04  0.50400001928E-02 0. -1.
    10030    2    1    2    0    0  0.00000000000E+00  0.00000000000E+00 -0.56939588429E+03  0.35913181630E+04  0.35458926203E+04 0.  0.
        1    1    3    3  502    0 -0.76484123142E+03  0.15697787493E+04 -0.59546945643E+03  0.18449312465E+04  0.50400001928E-02 0. -1.
       -1    1    3    3    0  502  0.76484123142E+03 -0.15697787493E+04  0.26073572142E+02  0.17463869165E+04  0.50400001928E-02 0.  1.
</event>
<event>
 5   0  0.6661000E-08  0.3786983E+04  0.7818609E-02  0.8048954E-01
       -1   -1    0    0    0  501  0.00000000000E+00  0.00000000000E+00  0.12331628240E+04  0.12331628240E+04  0.50400001928E-02 0. -1.
        1   -1    0    0  501    0  0.00000000000E+00  0.00000000000E+00 -0.29074102615E+04  0.29074102615E+04  0.50400001928E-02 0.  1.
    10030    2    1    2    0    0  0.00000000000E+00  0.00000000000E+00 -0.16742474376E+04  0.41405730855E+04  0.37869830993E+04 0.  0.
        2    1    3    3  502    0  0.78015418175E+03 -0.50070636202E+03  0.96808346672E+03  0.13403480917E+04  0.25500000920E-02 0. -1.
       -2    1    3    3    0  502 -0.78015418175E+03  0.50070636202E+03 -0.26423309043E+04  0.28002249938E+04  0.25500000920E-02 0.  1.
</event>
<event>
 5   0  0.2205204E-07  0.3829975E+04  0.7818609E-02  0.8039753E-01
       -2   -1    0    0    0  501  0.00000000000E+00  0.00000000000E+00  0.14700239711E+04  0.14700239711E+04  0.25500000920E-02 0.  1.
        2   -1    0    0  501    0  0.00000000000E+00  0.00000000000E+00 -0.24946372489E+04  0.24946372489E+04  0.25500000920E-02 0. -1.
    10030    2    1    2    0    0  0.00000000000E+00  0.00000000000E+00 -0.10246132779E+04  0.39646612200E+04  0.38299747023E+04 0.  0.
        2    1    3    3  502    0  0.15500589559E+04  0.14761810708E+03 -0.16662747174E+04  0.22805581129E+04  0.25500000920E-02 0. -1.
       -2    1    3    3    0  502 -0.15500589559E+04 -0.14761810708E+03  0.64166143957E+03  0.16841031071E+04  0.25500000920E-02 0.  1.
</event>
<event>
 5   0  0.2203998E-07  0.3776287E+04  0.7818609E-02  0.8051263E-01
        2   -1    0    0  501    0  0.00000000000E+00  0.00000000000E+00  0.16475951138E+04  0.16475951138E+04  0.25500000920E-02 0. -1.
       -2   -1    0    0    0  501  0.00000000000E+00  0.00000000000E+00 -0.21638123816E+04  0.21638123816E+04  0.25500000920E-02 0.  1.
    10030    2    1    2    0    0  0.00000000000E+00  0.00000000000E+00 -0.51621726776E+03  0.38114074955E+04  0.37762874399E+04 0.  0.
        3    1    3    3  502    0  0.94779534524E+03  0.16301676975E+04 -0.35556730949E+03  0.19189035568E+04  0.10100000352E+00 0. -1.
       -3    1    3    3    0  502 -0.94779534524E+03 -0.16301676975E+04 -0.16064995827E+03  0.18925039387E+04  0.10100000352E+00 0.  1.
</event>
<event>
 5   0  0.6725199E-08  0.3672623E+04  0.7818609E-02  0.8074056E-01
        1   -1    0    0  501    0  0.00000000000E+00  0.00000000000E+00  0.11114885684E+04  0.11114885684E+04  0.50400001928E-02 0. -1.
       -1   -1    0    0    0  501  0.00000000000E+00  0.00000000000E+00 -0.30338052216E+04  0.30338052216E+04  0.50400001928E-02 0.  1.
    10030    2    1    2    0    0  0.00000000000E+00  0.00000000000E+00 -0.19223166532E+04  0.41452937900E+04  0.36726229442E+04 0.  0.
        5    1    3    3  502    0 -0.14230145394E+04 -0.20238999242E+03  0.32876768568E+03  0.14744634175E+04  0.46999998093E+01 0. -1.
       -5    1    3    3    0  502  0.14230145394E+04  0.20238999242E+03 -0.22510843389E+04  0.26708303725E+04  0.46999998093E+01 0.  1.
</event>
<event>
 5   0  0.6661000E-08  0.3812773E+04  0.7818609E-02  0.8043419E-01
       -1   -1    0    0    0  501  0.00000000000E+00  0.00000000000E+00  0.21419886910E+04  0.21419886910E+04  0.50400001928E-02 0.  1.
        1   -1    0    0  501    0  0.00000000000E+00  0.00000000000E+00 -0.16966983888E+04  0.16966983888E+04  0.50400001928E-02 0. -1.
    10030    2    1    2    0    0  0.00000000000E+00  0.00000000000E+00  0.44529030217E+03  0.38386870798E+04  0.38127726189E+04 0.  0.
        1    1    3    3  502    0  0.49098700531E+03  0.17679133305E+04 -0.29829115696E+03  0.18589145752E+04  0.50400001928E-02 0. -1.
       -1    1    3    3    0  502 -0.49098700531E+03 -0.17679133305E+04  0.74358145913E+03  0.19797725046E+04  0.50400001928E-02 0.  1.
</event>
<event>
 5   0  0.6661000E-08  0.3835798E+04  0.7818609E-02  0.8038516E-01
       -1   -1    0    0    0  501  0.00000000000E+00  0.00000000000E+00  0.22588851447E+04  0.22588851447E+04  0.50400001928E-02 0. -1.
        1   -1    0    0  501    0  0.00000000000E+00  0.00000000000E+00 -0.16283855523E+04  0.16283855523E+04  0.50400001928E-02 0.  1.
    10030    2    1    2    0    0  0.00000000000E+00  0.00000000000E+00  0.63049959238E+03  0.38872706970E+04  0.38357976662E+04 0.  0.
        3    1    3    3  502    0  0.61672918011E+03 -0.86962601180E+03 -0.13004249683E+04  0.16815794332E+04  0.10100000352E+00 0.  1.
       -3    1    3    3    0  502 -0.61672918011E+03  0.86962601180E+03  0.19309245606E+04  0.22056912638E+04  0.10100000352E+00 0. -1.
</event>
<event>
 5   0  0.1370688E-07  0.3789528E+04  0.7818609E-02  0.8048406E-01
       -2   -1    0    0    0  501  0.00000000000E+00  0.00000000000E+00  0.12336229940E+04  0.12336229940E+04  0.25500000920E-02 0. -1.
        2   -1    0    0  501    0  0.00000000000E+00  0.00000000000E+00 -0.29102326892E+04  0.29102326892E+04  0.25500000920E-02 0.  1.
    10030    2    1    2    0    0  0.00000000000E+00  0.00000000000E+00 -0.16766096951E+04  0.41438556832E+04  0.37895276557E+04 0.  0.
        5    1    3    3  502    0  0.72370699203E+03  0.10245202908E+04 -0.23911985302E+04  0.27002307563E+04  0.46999998093E+01 0.  1.
       -5    1    3    3    0  502 -0.72370699203E+03 -0.10245202908E+04  0.71458883506E+03  0.14436249269E+04  0.46999998093E+01 0. -1.
</event>
<event>
 5   0  0.6725199E-08  0.3826918E+04  0.7818609E-02  0.8040403E-01
       -1   -1    0    0    0  501  0.00000000000E+00  0.00000000000E+00  0.24842142824E+04  0.24842142824E+04  0.50400001928E-02 0. -1.
        1   -1    0    0  501    0  0.00000000000E+00  0.00000000000E+00 -0.14738366484E+04  0.14738366484E+04  0.50400001928E-02 0.  1.
    10030    2    1    2    0    0  0.00000000000E+00  0.00000000000E+00  0.10103776340E+04  0.39580509308E+04  0.38269183696E+04 0.  0.
        5    1    3    3  502    0  0.38543949304E+03 -0.62543982109E+03 -0.13221471317E+04  0.15125586602E+04  0.46999998093E+01 0.  1.
       -5    1    3    3    0  502 -0.38543949304E+03  0.62543982109E+03  0.23325247657E+04  0.24454922706E+04  0.46999998093E+01 0. -1.
</event>
<event>
 5   0  0.2205204E-07  0.3805491E+04  0.7818609E-02  0.8044978E-01
        2   -1    0    0  501    0  0.00000000000E+00  0.00000000000E+00  0.12457572468E+04  0.12457572468E+04  0.25500000920E-02 0.  1.
       -2   -1    0    0    0  501  0.00000000000E+00  0.00000000000E+00 -0.29062165925E+04  0.29062165925E+04  0.25500000920E-02 0. -1.
    10030    2    1    2    0    0  0.00000000000E+00  0.00000000000E+00 -0.16604593457E+04  0.41519738393E+04  0.38054909701E+04 0.  0.
        2    1    3    3  502    0  0.59755532904E+03  0.17460330679E+04 -0.13358178198E+04  0.22781819710E+04  0.25500000920E-02 0. -1.
       -2    1    3    3    0  502 -0.59755532904E+03 -0.17460330679E+04 -0.32464152587E+03  0.18737918683E+04  0.25500000920E-02 0.  1.
</event>
<event>
 5   0  0.2205204E-07  0.3793514E+04  0.7818609E-02  0.8047548E-01
        2   -1    0    0  501    0  0.00000000000E+00  0.00000000000E+00  0.15493999930E+04  0.15493999930E+04  0.25500000920E-02 0. -1.
       -2   -1    0    0    0  501  0.00000000000E+00  0.00000000000E+00 -0.23219868135E+04  0.23219868135E+04  0.25500000920E-02 0.  1.
    10030    2    1    2    0    0  0.00000000000E+00  0.00000000000E+00 -0.77258682046E+03  0.38713868065E+04  0.37935135969E+04 0.  0.
        2    1    3    3  502    0  0.10499972339E+04 -0.40848449524E+01 -0.19983321235E+04  0.22573972076E+04  0.25500000920E-02 0.  1.
       -2    1    3    3    0  502 -0.10499972339E+04  0.40848449524E+01  0.12257453031E+04  0.16139895988E+04  0.25500000920E-02 0. -1.
</event>
<event>
 5   0  0.1370688E-07  0.3788817E+04  0.7818609E-02  0.8048559E-01
       -2   -1    0    0    0  501  0.00000000000E+00  0.00000000000E+00  0.27333900331E+04  0.27333900331E+04  0.25500000920E-02 0.  1.
        2   -1    0    0  501    0  0.00000000000E+00  0.00000000000E+00 -0.13129422183E+04  0.13129422183E+04  0.25500000920E-02 0. -1.
    10030    2    1    2    0    0  0.00000000000E+00  0.00000000000E+00  0.14204478148E+04  0.40463322515E+04  0.37888167935E+04 0.  0.
        5    1    3    3  502    0  0.16914496558E+03 -0.59009740166E+03  0.26242214887E+04  0.26950668775E+04  0.46999998093E+01 0.  1.
       -5    1    3    3    0  502 -0.16914496558E+03  0.59009740166E+03 -0.12037736739E+04  0.13512653739E+04  0.46999998093E+01 0. -1.
</event>
<event>
 5   0  0.2081337E-07  0.3815224E+04  0.7818609E-02  0.8042896E-01
       -2   -1    0    0    0  501  0.00000000000E+00  0.00000000000E+00  0.18860553257E+04  0.18860553257E+04  0.25500000920E-02 0. -1.
        2   -1    0    0  501    0  0.00000000000E+00  0.00000000000E+00 -0.19294155537E+04  0.19294155537E+04  0.25500000920E-02 0.  1.
    10030    2    1    2    0    0  0.00000000000E+00  0.00000000000E+00 -0.43360228011E+02  0.38154708794E+04  0.38152244917E+04 0.  0.
        1    1    3    3  502    0 -0.13643995426E+04 -0.11840793103E+04  0.59102131270E+03  0.19007725053E+04  0.50400001928E-02 0. -1.
       -1    1    3    3    0  502  0.13643995426E+04  0.11840793103E+04 -0.63438154071E+03  0.19146983741E+04  0.50400001928E-02 0.  1.
</event>
<event>
 5   0  0.2205204E-07  0.3699483E+04  0.7818609E-02  0.8068076E-01
        2   -1    0    0  501    0  0.00000000000E+00  0.00000000000E+00  0.23049642301E+04  0.23049642301E+04  0.25500000920E-02 0.  1.
       -2   -1    0    0    0  501  0.00000000000E+00  0.00000000000E+00 -0.14844235929E+04  0.14844235929E+04  0.25500000920E-02 0. -1.
    10030    2    1    2    0    0  0.00000000000E+00  0.00000000000E+00  0.82054063719E+03  0.37893878231E+04  0.36994828201E+04 0.  0.
        2    1    3    3  502    0 -0.78590929335E+03  0.24941933323E+03 -0.12857709345E+04  0.15274391370E+04  0.25500000920E-02 0. -1.
       -2    1    3    3    0  502  0.78590929335E+03 -0.24941933323E+03  0.21063115717E+04  0.22619486860E+04  0.25500000920E-02 0.  1.
</event>
<event>
 5   0  0.2081337E-07  0.3698774E+04  0.7818609E-02  0.8068233E-01
        2   -1    0    0  501    0  0.00000000000E+00  0.00000000000E+00  0.23273088016E+04  0.23273088016E+04  0.25500000920E-02 0. -1.
       -2   -1    0    0    0  501  0.00000000000E+00  0.00000000000E+00 -0.14696086288E+04  0.14696086288E+04  0.25500000920E-02 0.  1.
    10030    2    1    2    0    0  0.00000000000E+00  0.00000000000E+00  0.85770017281E+03  0.37969174304E+04  0.36987744439E+04 0.  0.
        1    1    3    3  502    0  0.50677513843E+03 -0.88700020064E+02 -0.13946695722E+04  0.14865368984E+04  0.50400001928E-02 0.  1.
       -1    1    3    3    0  502 -0.50677513843E+03  0.88700020064E+02  0.22523697450E+04  0.23103805320E+04  0.50400001928E-02 0. -1.
</event>
<event>
 5   0  0.6661000E-08  0.3915443E+04  0.7818609E-02  0.8021825E-01
       -1   -1    0    0    0  501  0.00000000000E+00  0.00000000000E+00  0.25256173540E+04  0.25256173540E+04  0.50400001928E-02 0.  1.
        1   -1    0    0  501    0  0.00000000000E+00  0.00000000000E+00 -0.15175196671E+04  0.15175196671E+04  0.50400001928E-02 0. -1.
    10030    2    1    2    0    0  0.00000000000E+00  0.00000000000E+00  0.10080976869E+04  0.40431370211E+04  0.39154432731E+04 0.  0.
        2    1    3    3  502    0  0.11474748347E+04  0.87357885966E+03  0.18711734555E+04  0.23624412418E+04  0.25500000920E-02 0.  1.
       -2    1    3    3    0  502 -0.11474748347E+04 -0.87357885966E+03 -0.86307576854E+03  0.16806957793E+04  0.25500000920E-02 0. -1.
</event>
<event>
 5   0  0.6661000E-08  0.3802736E+04  0.7818609E-02  0.8045568E-01
       -1   -1    0    0    0  501  0.00000000000E+00  0.00000000000E+00  0.19692094609E+04  0.19692094610E+04  0.50400001928E-02 0.  1.
        1   -1    0    0  501    0  0.00000000000E+00  0.00000000000E+00 -0.18358636958E+04  0.18358636958E+04  0.50400001928E-02 0. -1.
    10030    2    1    2    0    0  0.00000000000E+00  0.00000000000E+00  0.13334576516E+03  0.38050731567E+04  0.38027359408E+04 0.  0.
        4    1    3    3  502    0  0.71903584944E+03 -0.10306871097E+04 -0.13610432635E+04  0.18525034005E+04  0.12699999809E+01 0. -1.
       -4    1    3    3    0  502 -0.71903584944E+03  0.10306871097E+04  0.14943890287E+04  0.19525697562E+04  0.12699999809E+01 0.  1.
</event>
<event>
 5   0  0.6661000E-08  0.3781384E+04  0.7818609E-02  0.8050162E-01
       -1   -1    0    0    0  501  0.00000000000E+00  0.00000000000E+00  0.22810978999E+04  0.22810979000E+04  0.50400001928E-02 0. -1.
        1   -1    0    0  501    0  0.00000000000E+00  0.00000000000E+00 -0.15671033422E+04  0.15671033423E+04  0.50400001928E-02 0.  1.
    10030    2    1    2    0    0  0.00000000000E+00  0.00000000000E+00  0.71399455771E+03  0.38482012422E+04  0.37813839493E+04 0.  0.
        4    1    3    3  502    0  0.44454181021E+03 -0.93806003478E+03 -0.12511598729E+04  0.16257234360E+04  0.12699999809E+01 0.  1.
       -4    1    3    3    0  502 -0.44454181021E+03  0.93806003478E+03  0.19651544306E+04  0.22224778062E+04  0.12699999809E+01 0. -1.
</event>
<event>
 5   0  0.2135314E-07  0.3799911E+04  0.7818609E-02  0.8046174E-01
        2   -1    0    0  501    0  0.00000000000E+00  0.00000000000E+00  0.31942176583E+04  0.31942176583E+04  0.25500000920E-02 0.  1.
       -2   -1    0    0    0  501  0.00000000000E+00  0.00000000000E+00 -0.11301145300E+04  0.11301145300E+04  0.25500000920E-02 0. -1.
    10030    2    1    2    0    0  0.00000000000E+00  0.00000000000E+00  0.20641031283E+04  0.43243321883E+04  0.37999114661E+04 0.  0.
        4    1    3    3  502    0  0.50869955133E+03  0.73084294960E+03  0.29420503824E+04  0.30738524226E+04  0.12699999809E+01 0.  1.
       -4    1    3    3    0  502 -0.50869955133E+03 -0.73084294960E+03 -0.87794725410E+03  0.12504797657E+04  0.12699999809E+01 0. -1.
</event>
<event>
 5   0  0.6725199E-08  0.3767711E+04  0.7818609E-02  0.8053120E-01
       -1   -1    0    0    0  501  0.00000000000E+00  0.00000000000E+00  0.12966535845E+04  0.12966535845E+04  0.50400001928E-02 0.  1.
        1   -1    0    0  501    0  0.00000000000E+00  0.00000000000E+00 -0.27369776258E+04  0.27369776258E+04  0.50400001928E-02 0. -1.
    10030    2    1    2    0    0  0.00000000000E+00  0.00000000000E+00 -0.14403240414E+04  0.40336312103E+04  0.37677111615E+04 0.  0.
        5    1    3    3  502    0 -0.11070739445E+04 -0.13852335827E+04 -0.14009734293E+04  0.22599189005E+04  0.46999998093E+01 0. -1.
       -5    1    3    3    0  502  0.11070739445E+04  0.13852335827E+04 -0.39350612014E+02  0.17737123098E+04  0.46999998093E+01 0.  1.
</event>
<event>
 5   0  0.1370688E-07  0.3802877E+04  0.7818609E-02  0.8045538E-01
       -2   -1    0    0    0  501  0.00000000000E+00  0.00000000000E+00  0.13611426279E+04  0.13611426279E+04  0.25500000920E-02 0.  1.
        2   -1    0    0  501    0  0.00000000000E+00  0.00000000000E+00 -0.26562009238E+04  0.26562009238E+04  0.25500000920E-02 0. -1.
    10030    2    1    2    0    0  0.00000000000E+00  0.00000000000E+00 -0.12950582959E+04  0.40173435518E+04  0.38028769666E+04 0.  0.
        5    1    3    3  502    0  0.98372693477E+03  0.25298090787E+02  0.10712134856E+04  0.14546061657E+04  0.46999998093E+01 0.  1.
       -5    1    3    3    0  502 -0.98372693477E+03 -0.25298090787E+02 -0.23662717815E+04  0.25627373860E+04  0.46999998093E+01 0. -1.
</event>
<event>
 5   0  0.6661000E-08  0.3792267E+04  0.7818609E-02  0.8047816E-01
        1   -1    0    0  501    0  0.00000000000E+00  0.00000000000E+00  0.18272383722E+04  0.18272383722E+04  0.50400001928E-02 0. -1.
       -1   -1    0    0    0  501  0.00000000000E+00  0.00000000000E+00 -0.19676260605E+04  0.19676260605E+04  0.50400001928E-02 0.  1.
    10030    2    1    2    0    0  0.00000000000E+00  0.00000000000E+00 -0.14038768829E+03  0.37948644328E+04  0.37922667839E+04 0.  0.
        4    1    3    3  502    0  0.12589020936E+04  0.29432302698E+02 -0.14887753716E+04  0.19499113984E+04  0.12699999809E+01 0.  1.
       -4    1    3    3    0  502 -0.12589020936E+04 -0.29432302698E+02  0.13483876833E+04  0.18449530344E+04  0.12699999809E+01 0. -1.
</event>
<event>
 5   0  0.6661000E-08  0.3778380E+04  0.7818609E-02  0.8050810E-01
        1   -1    0    0  501    0  0.00000000000E+00  0.00000000000E+00  0.17877496473E+04  0.17877496473E+04  0.50400001928E-02 0. -1.
       -1   -1    0    0    0  501  0.00000000000E+00  0.00000000000E+00 -0.19963863041E+04  0.19963863041E+04  0.50400001928E-02 0.  1.
    10030    2    1    2    0    0  0.00000000000E+00  0.00000000000E+00 -0.20863665686E+03  0.37841359514E+04  0.37783800291E+04 0.  0.
        4    1    3    3  502    0  0.85242801545E+03  0.83578531522E+03 -0.15707437516E+04  0.19729186908E+04  0.12699999809E+01 0.  1.
       -4    1    3    3    0  502 -0.85242801545E+03 -0.83578531522E+03  0.13621070947E+04  0.18112172606E+04  0.12699999809E+01 0. -1.
</event>
<event>
 5   0  0.2203998E-07  0.3851421E+04  0.7818609E-02  0.8035209E-01
       -2   -1    0    0    0  501  0.00000000000E+00  0.00000000000E+00  0.20072112352E+04  0.20072112352E+04  0.25500000920E-02 0. -1.
        2   -1    0    0  501    0  0.00000000000E+00  0.00000000000E+00 -0.18475186511E+04  0.18475186511E+04  0.25500000920E-02 0.  1.
    10030    2    1    2    0    0  0.00000000000E+00  0.00000000000E+00  0.15969258415E+03  0.38547298863E+04  0.38514206178E+04 0.  0.
        3    1    3    3  502    0 -0.90033567847E+03 -0.13227024634E+04  0.11523145004E+04  0.19717948318E+04  0.10100000352E+00 0. -1.
       -3    1    3    3    0  502  0.90033567847E+03  0.13227024634E+04 -0.99262191625E+03  0.18829350545E+04  0.10100000352E+00 0.  1.
</event>
<event>
 5   0  0.6661000E-08  0.3774372E+04  0.7818609E-02  0.8051677E-01
       -1   -1    0    0    0  501  0.00000000000E+00  0.00000000000E+00  0.18634511443E+04  0.18634511443E+04  0.50400001928E-02 0.  1.
        1   -1    0    0  501    0  0.00000000000E+00  0.00000000000E+00 -0.19112236437E+04  0.19112236437E+04  0.50400001928E-02 0. -1.
    10030    2    1    2    0    0  0.00000000000E+00  0.00000000000E+00 -0.47772499381E+02  0.37746747880E+04  0.37743724701E+04 0.  0.
        2    1    3    3  502    0  0.16719164119E+04 -0.25867841775E+03  0.81239414287E+03  0.18767533817E+04  0.25500000920E-02 0. -1.
       -2    1    3    3    0  502 -0.16719164119E+04  0.25867841775E+03 -0.86016664225E+03  0.18979214063E+04  0.25500000920E-02 0.  1.
</event>
<event>
 5   0  0.2203998E-07  0.3781213E+04  0.7818609E-02  0.8050199E-01
       -2   -1    0    0    0  501  0.00000000000E+00  0.00000000000E+00  0.27293261511E+04  0.27293261511E+04  0.25500000920E-02 0. -1.
        2   -1    0    0  501    0  0.00000000000E+00  0.00000000000E+00 -0.13096246839E+04  0.13096246839E+04  0.25500000920E-02 0.  1.
    10030    2    1    2    0    0  0.00000000000E+00  0.00000000000E+00  0.14197014672E+04  0.40389508349E+04  0.37812129788E+04 0.  0.
        3    1    3    3  502    0 -0.31497150165E+03 -0.18641039437E+04  0.72842348988E+03  0.20260037884E+04  0.10100000352E+00 0. -1.
       -3    1    3    3    0  502  0.31497150165E+03  0.18641039437E+04  0.69127797734E+03  0.20129470465E+04  0.10100000352E+00 0.  1.
</event>
<event>
 5   0  0.6725199E-08  0.3816637E+04  0.7818609E-02  0.8042594E-01
       -1   -1    0    0    0  501  0.00000000000E+00  0.00000000000E+00  0.28877483118E+04  0.28877483118E+04  0.50400001928E-02 0.  1.
        1   -1    0    0  501    0  0.00000000000E+00  0.00000000000E+00 -0.12610794880E+04  0.12610794880E+04  0.50400001928E-02 0. -1.
    10030    2    1    2    0    0  0.00000000000E+00  0.00000000000E+00  0.16266688238E+04  0.41488277998E+04  0.38166373485E+04 0.  0.
        5    1    3    3  502    0 -0.15501074540E+04  0.52397504789E+03  0.18807781415E+04  0.24929363163E+04  0.46999998093E+01 0.  1.
       -5    1    3    3    0  502  0.15501074540E+04 -0.52397504789E+03 -0.25410931768E+03  0.16558914835E+04  0.46999998093E+01 0. -1.
</event>
<event>
 5   0  0.2203998E-07  0.3706624E+04  0.7818609E-02  0.8066496E-01
       -2   -1    0    0    0  501  0.00000000000E+00  0.00000000000E+00  0.13761981951E+04  0.13761981951E+04  0.25500000920E-02 0. -1.
        2   -1    0    0  501    0  0.00000000000E+00  0.00000000000E+00 -0.24958358210E+04  0.24958358210E+04  0.25500000920E-02 0.  1.
    10030    2    1    2    0    0  0.00000000000E+00  0.00000000000E+00 -0.11196376259E+04  0.38720340161E+04  0.37066236670E+04 0.  0.
        3    1    3    3  502    0  0.68190996589E+03  0.19740054423E+03  0.12285352534E+04  0.14188964217E+04  0.10100000352E+00 0. -1.
       -3    1    3    3    0  502 -0.68190996589E+03 -0.19740054423E+03 -0.23481728792E+04  0.24531375945E+04  0.10100000352E+00 0.  1.
</event>
<event>
 5   0  0.6661000E-08  0.3810020E+04  0.7818609E-02  0.8044008E-01
       -1   -1    0    0    0  501  0.00000000000E+00  0.00000000000E+00  0.23453440904E+04  0.23453440904E+04  0.50400001928E-02 0.  1.
        1   -1    0    0  501    0  0.00000000000E+00  0.00000000000E+00 -0.15473479479E+04  0.15473479479E+04  0.50400001928E-02 0. -1.
    10030    2    1    2    0    0  0.00000000000E+00  0.00000000000E+00  0.79799614246E+03  0.38926920383E+04  0.38100201393E+04 0.  0.
        1    1    3    3  502    0  0.13141544570E+04 -0.39945480455E+03 -0.94968166058E+03  0.16698686578E+04  0.50400001928E-02 0. -1.
       -1    1    3    3    0  502 -0.13141544570E+04  0.39945480455E+03  0.17476778030E+04  0.22228233805E+04  0.50400001928E-02 0.  1.
</event>
<event>
 5   0  0.6725199E-08  0.3806114E+04  0.7818609E-02  0.8044844E-01
       -1   -1    0    0    0  501  0.00000000000E+00  0.00000000000E+00  0.28283490716E+04  0.28283490716E+04  0.50400001928E-02 0.  1.
        1   -1    0    0  501    0  0.00000000000E+00  0.00000000000E+00 -0.12804737073E+04  0.12804737073E+04  0.50400001928E-02 0. -1.
    10030    2    1    2    0    0  0.00000000000E+00  0.00000000000E+00  0.15478753643E+04  0.41088227788E+04  0.38061143551E+04 0.  0.
        5    1    3    3  502    0 -0.15533804541E+04  0.41691142142E+03  0.18720922833E+04  0.24681080964E+04  0.46999998093E+01 0.  1.
       -5    1    3    3    0  502  0.15533804541E+04 -0.41691142142E+03 -0.32421691896E+03  0.16407146824E+04  0.46999998093E+01 0. -1.
</event>
<event>
 5   0  0.1370688E-07  0.3791649E+04  0.7818609E-02  0.8047949E-01
        2   -1    0    0  501    0  0.00000000000E+00  0.00000000000E+00  0.21230705503E+04  0.21230705503E+04  0.25500000920E-02 0. -1.
       -2   -1    0    0    0  501  0.00000000000E+00  0.00000000000E+00 -0.16929019669E+04  0.16929019669E+04  0.25500000920E-02 0.  1.
    10030    2    1    2    0    0  0.00000000000E+00  0.00000000000E+00  0.43016858337E+03  0.38159725171E+04  0.37916488816E+04 0.  0.
        5    1    3    3  502    0  0.16977402438E+04  0.15207459536E+03  0.10502751552E+04  0.20021360117E+04  0.46999998093E+01 0. -1.
       -5    1    3    3    0  502 -0.16977402438E+04 -0.15207459536E+03 -0.62010657182E+03  0.18138365054E+04  0.46999998093E+01 0.  1.
</event>
<event>
 5   0  0.6661000E-08  0.3945906E+04  0.7818609E-02  0.8015549E-01
       -1   -1    0    0    0  501  0.00000000000E+00  0.00000000000E+00  0.26776230079E+04  0.26776230079E+04  0.50400001928E-02 0.  1.
        1   -1    0    0  501    0  0.00000000000E+00  0.00000000000E+00 -0.14537307518E+04  0.14537307518E+04  0.50400001928E-02 0. -1.
    10030    2    1    2    0    0  0.00000000000E+00  0.00000000000E+00  0.12238922561E+04  0.41313537596E+04  0.39459056797E+04 0.  0.
        1    1    3    3  502    0 -0.12099244543E+04  0.21719872881E+03  0.22276674564E+04  0.25443259951E+04  0.50400001928E-02 0.  1.
       -1    1    3    3    0  502  0.12099244543E+04 -0.21719872881E+03 -0.10037752003E+04  0.15870277646E+04  0.50400001928E-02 0. -1.
</event>
<event>
 5   0  0.6661000E-08  0.3676132E+04  0.7818609E-02  0.8073272E-01
       -1   -1    0    0    0  501  0.00000000000E+00  0.00000000000E+00  0.11152942081E+04  0.11152942081E+04  0.50400001928E-02 0. -1.
        1   -1    0    0  501    0  0.00000000000E+00  0.00000000000E+00 -0.30292331756E+04  0.30292331756E+04  0.50400001928E-02 0.  1.
    10030    2    1    2    0    0  0.00000000000E+00  0.00000000000E+00 -0.19139389674E+04  0.41445273837E+04  0.36761317799E+04 0.  0.
        2    1    3    3  502    0 -0.67668346084E+03  0.16697538541E+04 -0.54657206053E+03  0.18827425360E+04  0.25500000920E-02 0.  1.
       -2    1    3    3    0  502  0.67668346084E+03 -0.16697538541E+04 -0.13673669069E+04  0.22617848477E+04  0.25500000920E-02 0. -1.
</event>
<event>
 5   0  0.2205204E-07  0.3795770E+04  0.7818609E-02  0.8047063E-01
        2   -1    0    0  501    0  0.00000000000E+00  0.00000000000E+00  0.11272792009E+04  0.11272792009E+04  0.25500000920E-02 0. -1.
       -2   -1    0    0    0  501  0.00000000000E+00  0.00000000000E+00 -0.31952759352E+04  0.31952759352E+04  0.25500000920E-02 0.  1.
    10030    2    1    2    0    0  0.00000000000E+00  0.00000000000E+00 -0.20679967343E+04  0.43225551361E+04  0.37957703317E+04 0.  0.
        2    1    3    3  502    0 -0.10799295360E+04  0.52879320196E+03  0.63815022677E+03  0.13612882741E+04  0.25500000920E-02 0. -1.
       -2    1    3    3    0  502  0.10799295360E+04 -0.52879320196E+03 -0.27061469610E+04  0.29612668620E+04  0.25500000920E-02 0.  1.
</event>
<event>
 5   0  0.2205204E-07  0.3775616E+04  0.7818609E-02  0.8051408E-01
        2   -1    0    0  501    0  0.00000000000E+00  0.00000000000E+00  0.11742878836E+04  0.11742878836E+04  0.25500000920E-02 0.  1.
       -2   -1    0    0    0  501  0.00000000000E+00  0.00000000000E+00 -0.30348763856E+04  0.30348763856E+04  0.25500000920E-02 0. -1.
    10030    2    1    2    0    0  0.00000000000E+00  0.00000000000E+00 -0.18605885020E+04  0.42091642692E+04  0.37756157473E+04 0.  0.
        2    1    3    3  502    0  0.17259061824E+04  0.15154817251E+03 -0.94470491505E+02  0.17351206508E+04  0.25500000920E-02 0.  1.
       -2    1    3    3    0  502 -0.17259061824E+04 -0.15154817251E+03 -0.17661180105E+04  0.24740436185E+04  0.25500000920E-02 0. -1.
</event>
<event>
 5   0  0.2135314E-07  0.3789796E+04  0.7818609E-02  0.8048348E-01
        2   -1    0    0  501    0  0.00000000000E+00  0.00000000000E+00  0.28057735337E+04  0.28057735337E+04  0.25500000920E-02 0. -1.
       -2   -1    0    0    0  501  0.00000000000E+00  0.00000000000E+00 -0.12797323665E+04  0.12797323665E+04  0.25500000920E-02 0.  1.
    10030    2    1    2    0    0  0.00000000000E+00  0.00000000000E+00  0.15260411672E+04  0.40855059003E+04  0.37897964084E+04 0.  0.
        4    1    3    3  502    0 -0.14391594038E+04 -0.11461640528E+04  0.27401195445E+03  0.18600956936E+04  0.12699999809E+01 0. -1.
       -4    1    3    3    0  502  0.14391594038E+04  0.11461640528E+04  0.12520292127E+04  0.22254102066E+04  0.12699999809E+01 0.  1.
</event>
<event>
 5   0  0.2081337E-07  0.3740379E+04  0.7818609E-02  0.8059072E-01
       -2   -1    0    0    0  501  0.00000000000E+00  0.00000000000E+00  0.15234213701E+04  0.15234213701E+04  0.25500000920E-02 0. -1.
        2   -1    0    0  501    0  0.00000000000E+00  0.00000000000E+00 -0.22958907897E+04  0.22958907897E+04  0.25500000920E-02 0.  1.
    10030    2    1    2    0    0  0.00000000000E+00  0.00000000000E+00 -0.77246941965E+03  0.38193121598E+04  0.37403791746E+04 0.  0.
        1    1    3    3  502    0  0.14756014829E+04 -0.29142743449E+03  0.74865099586E+03  0.16801214240E+04  0.50400001928E-02 0. -1.
       -1    1    3    3    0  502 -0.14756014829E+04  0.29142743449E+03 -0.15211204155E+04  0.21391907358E+04  0.50400001928E-02 0.  1.
</event>
<event>
 5   0  0.1370688E-07  0.3784993E+04  0.7818609E-02  0.8049383E-01
        2   -1    0    0  501    0  0.00000000000E+00  0.00000000000E+00  0.12450688451E+04  0.12450688451E+04  0.25500000920E-02 0.  1.
       -2   -1    0    0    0  501  0.00000000000E+00  0.00000000000E+00 -0.28765816374E+04  0.28765816374E+04  0.25500000920E-02 0. -1.
    10030    2    1    2    0    0  0.00000000000E+00  0.00000000000E+00 -0.16315127922E+04  0.41216504825E+04  0.37849925639E+04 0.  0.
        5    1    3    3  502    0  0.41861136769E+03 -0.34763049416E+03 -0.27895545793E+04  0.28421328749E+04  0.46999998093E+01 0. -1.
       -5    1    3    3    0  502 -0.41861136769E+03  0.34763049416E+03  0.11580417870E+04  0.12795176076E+04  0.46999998093E+01 0.  1.
</event>
<event>
 5   0  0.2135314E-07  0.3718396E+04  0.7818609E-02  0.8063897E-01
        2   -1    0    0  501    0  0.00000000000E+00  0.00000000000E+00  0.18195038095E+04  0.18195038095E+04  0.25500000920E-02 0. -1.
       -2   -1    0    0    0  501  0.00000000000E+00  0.00000000000E+00 -0.18997583423E+04  0.18997583423E+04  0.25500000920E-02 0.  1.
    10030    2    1    2    0    0  0.00000000000E+00  0.00000000000E+00 -0.80254532862E+02  0.37192621518E+04  0.37183961816E+04 0.  0.
        4    1    3    3  502    0  0.62987787868E+03  0.10223481916E+04  0.13795954028E+04  0.18289961879E+04  0.12699999809E+01 0. -1.
       -4    1    3    3    0  502 -0.62987787868E+03 -0.10223481916E+04 -0.14598499356E+04  0.18902659639E+04  0.12699999809E+01 0.  1.
</event>
<event>
 5   0  0.2203998E-07  0.3792795E+04  0.7818609E-02  0.8047703E-01
        2   -1    0    0  501    0  0.00000000000E+00  0.00000000000E+00  0.18127783958E+04  0.18127783958E+04  0.25500000920E-02 0.  1.
       -2   -1    0    0    0  501  0.00000000000E+00  0.00000000000E+00 -0.19838734002E+04  0.19838734002E+04  0.25500000920E-02 0. -1.
    10030    2    1    2    0    0  0.00000000000E+00  0.00000000000E+00 -0.17109500445E+03  0.37966517960E+04  0.37927946635E+04 0.  0.
        3    1    3    3  502    0 -0.11449014077E+04  0.15117814636E+04 -0.91910279822E+02  0.18986126347E+04  0.10100000352E+00 0. -1.
       -3    1    3    3    0  502  0.11449014077E+04 -0.15117814636E+04 -0.79184724633E+02  0.18980391613E+04  0.10100000352E+00 0.  1.
</event>
<event>
 5   0  0.6725199E-08  0.3788509E+04  0.7818609E-02  0.8048625E-01
        1   -1    0    0  501    0  0.00000000000E+00  0.00000000000E+00  0.17350555290E+04  0.17350555290E+04  0.50400001928E-02 0. -1.
       -1   -1    0    0    0  501  0.00000000000E+00  0.00000000000E+00 -0.20680605512E+04  0.20680605512E+04  0.50400001928E-02 0.  1.
    10030    2    1    2    0    0  0.00000000000E+00  0.00000000000E+00 -0.33300502222E+03  0.38031160801E+04  0.37885088853E+04 0.  0.
        5    1    3    3  502    0  0.11028785430E+04  0.54464884780E+03 -0.16126102821E+04  0.20281808252E+04  0.46999998093E+01 0.  1.
       -5    1    3    3    0  502 -0.11028785430E+04 -0.54464884780E+03  0.12796052599E+04  0.17749352549E+04  0.46999998093E+01 0. -1.
</event>
<event>
 5   0  0.6725199E-08  0.3820510E+04  0.7818609E-02  0.8041768E-01
        1   -1    0    0  501    0  0.00000000000E+00  0.00000000000E+00  0.13651434978E+04  0.13651434978E+04  0.50400001928E-02 0. -1.
       -1   -1    0    0    0  501  0.00000000000E+00  0.00000000000E+00 -0.26730330146E+04  0.26730330146E+04  0.50400001928E-02 0.  1.
    10030    2    1    2    0    0  0.00000000000E+00  0.00000000000E+00 -0.13078895168E+04  0.40381765124E+04  0.38205097248E+04 0.  0.
        5    1    3    3  502    0 -0.38075610707E+03  0.92416624579E+02 -0.26300990403E+04  0.26591275068E+04  0.46999998093E+01 0.  1.
       -5    1    3    3    0  502  0.38075610707E+03 -0.92416624579E+02  0.13222095236E+04  0.13790490056E+04  0.46999998093E+01 0. -1.
</event>
<event>
 5   0  0.6661000E-08  0.3793903E+04  0.7818609E-02  0.8047465E-01
        1   -1    0    0  501    0  0.00000000000E+00  0.00000000000E+00  0.15311808396E+04  0.15311808396E+04  0.50400001928E-02 0.  1.
       -1   -1    0    0    0  501  0.00000000000E+00  0.00000000000E+00 -0.23500976249E+04  0.23500976249E+04  0.50400001928E-02 0. -1.
    10030    2    1    2    0    0  0.00000000000E+00  0.00000000000E+00 -0.81891678533E+03  0.38812784645E+04  0.37939027159E+04 0.  0.
        1    1    3    3  502    0 -0.15930295420E+04  0.50524094387E+03 -0.13275751380E+04  0.21343540663E+04  0.50400001928E-02 0. -1.
       -1    1    3    3    0  502  0.15930295420E+04 -0.50524094387E+03  0.50865835266E+03  0.17469243982E+04  0.50400001928E-02 0.  1.
</event>
<event>
 5   0  0.1370688E-07  0.3783768E+04  0.7818609E-02  0.8049647E-01
        2   -1    0    0  501    0  0.00000000000E+00  0.00000000000E+00  0.24770473847E+04  0.24770473847E+04  0.25500000920E-02 0. -1.
       -2   -1    0    0    0  501  0.00000000000E+00  0.00000000000E+00 -0.14449563197E+04  0.14449563197E+04  0.25500000920E-02 0.  1.
    10030    2    1    2    0    0  0.00000000000E+00  0.00000000000E+00  0.10320910651E+04  0.39220037044E+04  0.37837681074E+04 0.  0.
        5    1    3    3  502    0  0.91581746766E+03 -0.14441909017E+04  0.13548020257E+04  0.21817240003E+04  0.46999998093E+01 0.  1.
       -5    1    3    3    0  502 -0.91581746766E+03  0.14441909017E+04 -0.32271096060E+03  0.17402797041E+04  0.46999998093E+01 0. -1.
</event>
<event>
 5   0  0.6661000E-08  0.3810176E+04  0.7818609E-02  0.8043975E-01
        1   -1    0    0  501    0  0.00000000000E+00  0.00000000000E+00  0.24648891707E+04  0.24648891707E+04  0.50400001928E-02 0.  1.
       -1   -1    0    0    0  501  0.00000000000E+00  0.00000000000E+00 -0.14724234457E+04  0.14724234457E+04  0.50400001928E-02 0. -1.
    10030    2    1    2    0    0  0.00000000000E+00  0.00000000000E+00  0.99246572500E+03  0.39373126164E+04  0.38101761670E+04 0.  0.
        4    1    3    3  502    0  0.15578073666E+04  0.12335075349E+03  0.16222621053E+04  0.22524908770E+04  0.12699999809E+01 0.  1.
       -4    1    3    3    0  502 -0.15578073666E+04 -0.12335075349E+03 -0.62979638034E+03  0.16848217393E+04  0.12699999809E+01 0. -1.
</event>
<event>
 5   0  0.2081337E-07  0.3804456E+04  0.7818609E-02  0.8045199E-01
       -2   -1    0    0    0  501  0.00000000000E+00  0.00000000000E+00  0.31075601325E+04  0.31075601325E+04  0.25500000920E-02 0.  1.
        2   -1    0    0  501    0  0.00000000000E+00  0.00000000000E+00 -0.11644091350E+04  0.11644091350E+04  0.25500000920E-02 0. -1.
    10030    2    1    2    0    0  0.00000000000E+00  0.00000000000E+00  0.19431509975E+04  0.42719692675E+04  0.38044560221E+04 0.  0.
        1    1    3    3  502    0  0.16491136926E+04 -0.94793322958E+03  0.95155072634E+03  0.21268761515E+04  0.50400001928E-02 0.  1.
       -1    1    3    3    0  502 -0.16491136926E+04  0.94793322958E+03  0.99160027114E+03  0.21450931161E+04  0.50400001928E-02 0. -1.
</event>
<event>
 5   0  0.6661000E-08  0.3773817E+04  0.7818609E-02  0.8051797E-01
       -3   -1    0    0    0  501  0.00000000000E+00  0.00000000000E+00  0.17093796730E+04  0.17093796760E+04  0.10100000352E+00 0. -1.
        3   -1    0    0  501    0  0.00000000000E+00  0.00000000000E+00 -0.20828747209E+04  0.20828747234E+04  0.10100000352E+00 0.  1.
    10030    2    1    2    0    0  0.00000000000E+00  0.00000000000E+00 -0.37349504788E+03  0.37922543994E+04  0.37738170171E+04 0.  0.
        1    1    3    3  502    0 -0.29321627459E+03 -0.13593783269E+04  0.10948415585E+04  0.17699048725E+04  0.50400001928E-02 0. -1.
       -1    1    3    3    0  502  0.29321627459E+03  0.13593783269E+04 -0.14683366064E+04  0.20223495269E+04  0.50400001928E-02 0.  1.
</event>
<event>
 5   0  0.2205204E-07  0.3793219E+04  0.7818609E-02  0.8047612E-01
        2   -1    0    0  501    0  0.00000000000E+00  0.00000000000E+00  0.13831718207E+04  0.13831718207E+04  0.25500000920E-02 0. -1.
       -2   -1    0    0    0  501  0.00000000000E+00  0.00000000000E+00 -0.26006364722E+04  0.26006364722E+04  0.25500000920E-02 0.  1.
    10030    2    1    2    0    0  0.00000000000E+00  0.00000000000E+00 -0.12174646515E+04  0.39838082929E+04  0.37932187304E+04 0.  0.
        2    1    3    3  502    0  0.12229069735E+04 -0.13121288680E+04 -0.12560985357E+04  0.21897413462E+04  0.25500000920E-02 0.  1.
       -2    1    3    3    0  502 -0.12229069735E+04  0.13121288680E+04  0.38633884194E+02  0.17940669466E+04  0.25500000920E-02 0. -1.
</event>
<event>
 5   0  0.6725199E-08  0.3823579E+04  0.7818609E-02  0.8041114E-01
        1   -1    0    0  501    0  0.00000000000E+00  0.00000000000E+00  0.21012444696E+04  0.21012444696E+04  0.50400001928E-02 0.  1.
       -1   -1    0    0    0  501  0.00000000000E+00  0.00000000000E+00 -0.17394164633E+04  0.17394164633E+04  0.50400001928E-02 0. -1.
    10030    2    1    2    0    0  0.00000000000E+00  0.00000000000E+00  0.36182800638E+03  0.38406609329E+04  0.38235790688E+04 0.  0.
        5    1    3    3  502    0  0.11696344111E+04  0.14643485607E+04  0.56016636503E+03  0.19560597663E+04  0.46999998093E+01 0. -1.
       -5    1    3    3    0  502 -0.11696344111E+04 -0.14643485607E+04 -0.19833835864E+03  0.18846011666E+04  0.46999998093E+01 0.  1.
</event>
<event>
 5   0  0.2135314E-07  0.3766239E+04  0.7818609E-02  0.8053439E-01
       -2   -1    0    0    0  501  0.00000000000E+00  0.00000000000E+00  0.30787665735E+04  0.30787665735E+04  0.25500000920E-02 0. -1.
        2   -1    0    0  501    0  0.00000000000E+00  0.00000000000E+00 -0.11518053449E+04  0.11518053449E+04  0.25500000920E-02 0.  1.
    10030    2    1    2    0    0  0.00000000000E+00  0.00000000000E+00  0.19269612286E+04  0.42305719184E+04  0.37662393949E+04 0.  0.
        4    1    3    3  502    0  0.88938968563E+03  0.98906757005E+03  0.24608154487E+04  0.27972992254E+04  0.12699999809E+01 0. -1.
       -4    1    3    3    0  502 -0.88938968563E+03 -0.98906757005E+03 -0.53385422013E+03  0.14332726929E+04  0.12699999809E+01 0.  1.
</event>
<event>
 5   0  0.1370688E-07  0.3805219E+04  0.7818609E-02  0.8045036E-01
        2   -1    0    0  501    0  0.00000000000E+00  0.00000000000E+00  0.28113909342E+04  0.28113909342E+04  0.25500000920E-02 0.  1.
       -2   -1    0    0    0  501  0.00000000000E+00  0.00000000000E+00 -0.12875914892E+04  0.12875914893E+04  0.25500000920E-02 0. -1.
    10030    2    1    2    0    0  0.00000000000E+00  0.00000000000E+00  0.15237994449E+04  0.40989824234E+04  0.38052190685E+04 0.  0.
        5    1    3    3  502    0  0.11705927568E+04 -0.24445741763E+03  0.23559572257E+04  0.26420831498E+04  0.46999998093E+01 0.  1.
       -5    1    3    3    0  502 -0.11705927568E+04  0.24445741763E+03 -0.83215778075E+03  0.14568992736E+04  0.46999998093E+01 0. -1.
</event>
<event>
 5   0  0.6661000E-08  0.3881158E+04  0.7818609E-02  0.8028959E-01
        1   -1    0    0  501    0  0.00000000000E+00  0.00000000000E+00  0.26541745915E+04  0.26541745915E+04  0.50400001928E-02 0. -1.
       -1   -1    0    0    0  501  0.00000000000E+00  0.00000000000E+00 -0.14188394092E+04  0.14188394093E+04  0.50400001928E-02 0.  1.
    10030    2    1    2    0    0  0.00000000000E+00  0.00000000000E+00  0.12353351822E+04  0.40730140007E+04  0.38811583371E+04 0.  0.
        4    1    3    3  502    0 -0.36111335382E+03 -0.12750930058E+04  0.21053399232E+04  0.24877143793E+04  0.12699999809E+01 0. -1.
       -4    1    3    3    0  502  0.36111335382E+03  0.12750930058E+04 -0.87000474098E+03  0.15852996215E+04  0.12699999809E+01 0.  1.
</event>
<event>
 5   0  0.2203998E-07  0.3396518E+04  0.7818609E-02  0.8138762E-01
       -2   -1    0    0    0  501  0.00000000000E+00  0.00000000000E+00  0.27433953289E+04  0.27433953289E+04  0.25500000920E-02 0.  1.
        2   -1    0    0  501    0  0.00000000000E+00  0.00000000000E+00 -0.10512823730E+04  0.10512823730E+04  0.25500000920E-02 0. -1.
    10030    2    1    2    0    0  0.00000000000E+00  0.00000000000E+00  0.16921129559E+04  0.37946777019E+04  0.33965177176E+04 0.  0.
        3    1    3    3  502    0 -0.92189762379E+03 -0.73347964271E+03 -0.52052391965E+03  0.12879568223E+04  0.10100000352E+00 0. -1.
       -3    1    3    3    0  502  0.92189762379E+03  0.73347964271E+03  0.22126368755E+04  0.25067208796E+04  0.10100000352E+00 0.  1.
</event>
<event>
 5   0  0.6725199E-08  0.3802822E+04  0.7818609E-02  0.8045550E-01
        1   -1    0    0  501    0  0.00000000000E+00  0.00000000000E+00  0.18849283053E+04  0.18849283053E+04  0.50400001928E-02 0. -1.
       -1   -1    0    0    0  501  0.00000000000E+00  0.00000000000E+00 -0.19180378210E+04  0.19180378210E+04  0.50400001928E-02 0.  1.
    10030    2    1    2    0    0  0.00000000000E+00  0.00000000000E+00 -0.33109515618E+02  0.38029661263E+04  0.38028219940E+04 0.  0.
        5    1    3    3  502    0 -0.17545858942E+03 -0.18816117476E+04 -0.22654653562E+03  0.19033113009E+04  0.46999998093E+01 0.  1.
       -5    1    3    3    0  502  0.17545858942E+03  0.18816117476E+04  0.19343702000E+03  0.18996548255E+04  0.46999998093E+01 0. -1.
</event>
<event>
 5   0  0.6661000E-08  0.3801893E+04  0.7818609E-02  0.8045749E-01
        1   -1    0    0  501    0  0.00000000000E+00  0.00000000000E+00  0.29151963174E+04  0.29151963174E+04  0.50400001928E-02 0. -1.
       -1   -1    0    0    0  501  0.00000000000E+00  0.00000000000E+00 -0.12395726616E+04  0.12395726616E+04  0.50400001928E-02 0.  1.
    10030    2    1    2    0    0  0.00000000000E+00  0.00000000000E+00  0.16756236559E+04  0.41547689790E+04  0.38018930328E+04 0.  0.
        1    1    3    3  502    0  0.38937311519E+02  0.11529527944E+03  0.29109352161E+04  0.29134778098E+04  0.50400001928E-02 0. -1.
       -1    1    3    3    0  502 -0.38937311519E+02 -0.11529527944E+03 -0.12353115603E+04  0.12412911692E+04  0.50400001928E-02 0.  1.
</event>
<event>
 5   0  0.6661000E-08  0.3818458E+04  0.7818609E-02  0.8042205E-01
       -1   -1    0    0    0  501  0.00000000000E+00  0.00000000000E+00  0.19303206468E+04  0.19303206468E+04  0.50400001928E-02 0.  1.
        1   -1    0    0  501    0  0.00000000000E+00  0.00000000000E+00 -0.18883675148E+04  0.18883675148E+04  0.50400001928E-02 0. -1.
    10030    2    1    2    0    0  0.00000000000E+00  0.00000000000E+00  0.41953131959E+02  0.38186881616E+04  0.38184577005E+04 0.  0.
        3    1    3    3  502    0 -0.73309713371E+03  0.28667225935E+03  0.17604901825E+04  0.19284548438E+04  0.10100000352E+00 0.  1.
       -3    1    3    3    0  502  0.73309713371E+03 -0.28667225935E+03 -0.17185370505E+04  0.18902333178E+04  0.10100000352E+00 0. -1.
</event>
<event>
 5   0  0.6661000E-08  0.3808942E+04  0.7818609E-02  0.8044239E-01
       -1   -1    0    0    0  501  0.00000000000E+00  0.00000000000E+00  0.16023784092E+04  0.16023784092E+04  0.50400001928E-02 0. -1.
        1   -1    0    0  501    0  0.00000000000E+00  0.00000000000E+00 -0.22635164586E+04  0.22635164586E+04  0.50400001928E-02 0.  1.
    10030    2    1    2    0    0  0.00000000000E+00  0.00000000000E+00 -0.66113804938E+03  0.38658948678E+04  0.38089420590E+04 0.  0.
        4    1    3    3  502    0 -0.80390217476E+03  0.11006330411E+04 -0.16806298791E+04  0.21638322951E+04  0.12699999809E+01 0.  1.
       -4    1    3    3    0  502  0.80390217476E+03 -0.11006330411E+04  0.10194918297E+04  0.17020625727E+04  0.12699999809E+01 0. -1.
</event>
<event>
 5   0  0.2203998E-07  0.3975375E+04  0.7818609E-02  0.8009533E-01
        2   -1    0    0  501    0  0.00000000000E+00  0.00000000000E+00  0.12523194691E+04  0.12523194691E+04  0.25500000920E-02 0. -1.
       -2   -1    0    0    0  501  0.00000000000E+00  0.00000000000E+00 -0.31548671656E+04  0.31548671656E+04  0.25500000920E-02 0.  1.
    10030    2    1    2    0    0  0.00000000000E+00  0.00000000000E+00 -0.19025476964E+04  0.44071866347E+04  0.39753749881E+04 0.  0.
        3    1    3    3  502    0  0.18992211407E+04 -0.10847057373E+03 -0.31240111784E+03  0.19277970005E+04  0.10100000352E+00 0.  1.
       -3    1    3    3    0  502 -0.18992211407E+04  0.10847057373E+03 -0.15901465786E+04  0.24793896342E+04  0.10100000352E+00 0. -1.
</event>
<event>
 5   0  0.6725199E-08  0.3791250E+04  0.7818609E-02  0.8048035E-01
       -1   -1    0    0    0  501  0.00000000000E+00  0.00000000000E+00  0.17453565386E+04  0.17453565386E+04  0.50400001928E-02 0.  1.
        1   -1    0    0  501    0  0.00000000000E+00  0.00000000000E+00 -0.20588309247E+04  0.20588309247E+04  0.50400001928E-02 0. -1.
    10030    2    1    2    0    0  0.00000000000E+00  0.00000000000E+00 -0.31347438612E+03  0.38041874633E+04  0.37912499344E+04 0.  0.
        5    1    3    3  502    0  0.37168071159E+03 -0.85742513575E+02 -0.20199186875E+04  0.20556244608E+04  0.46999998093E+01 0. -1.
       -5    1    3    3    0  502 -0.37168071159E+03  0.85742513575E+02  0.17064443014E+04  0.17485630025E+04  0.46999998093E+01 0.  1.
</event>
<event>
 5   0  0.2203998E-07  0.3775912E+04  0.7818609E-02  0.8051344E-01
        2   -1    0    0  501    0  0.00000000000E+00  0.00000000000E+00  0.23954087868E+04  0.23954087868E+04  0.25500000920E-02 0.  1.
       -2   -1    0    0    0  501  0.00000000000E+00  0.00000000000E+00 -0.14880043352E+04  0.14880043352E+04  0.25500000920E-02 0. -1.
    10030    2    1    2    0    0  0.00000000000E+00  0.00000000000E+00  0.90740445162E+03  0.38834131220E+04  0.37759124245E+04 0.  0.
        3    1    3    3  502    0  0.86614975591E+03  0.15156437509E+04  0.11931910336E+04  0.21144966853E+04  0.10100000352E+00 0.  1.
       -3    1    3    3    0  502 -0.86614975591E+03 -0.15156437509E+04 -0.28578658198E+03  0.17689164367E+04  0.10100000352E+00 0. -1.
</event>
<event>
 5   0  0.1370688E-07  0.3803786E+04  0.7818609E-02  0.8045343E-01
       -2   -1    0    0    0  501  0.00000000000E+00  0.00000000000E+00  0.19113972959E+04  0.19113972959E+04  0.25500000920E-02 0. -1.
        2   -1    0    0  501    0  0.00000000000E+00  0.00000000000E+00 -0.18924362315E+04  0.18924362315E+04  0.25500000920E-02 0.  1.
    10030    2    1    2    0    0  0.00000000000E+00  0.00000000000E+00  0.18961064391E+02  0.38038335274E+04  0.38037862692E+04 0.  0.
        5    1    3    3  502    0  0.11305452715E+04 -0.11519051792E+04 -0.99659223008E+03  0.18969017675E+04  0.46999998093E+01 0.  1.
       -5    1    3    3    0  502 -0.11305452715E+04  0.11519051792E+04  0.10155532945E+04  0.19069317598E+04  0.46999998093E+01 0. -1.
</event>
<event>
 5   0  0.6661000E-08  0.3814272E+04  0.7818609E-02  0.8043099E-01
        1   -1    0    0  501    0  0.00000000000E+00  0.00000000000E+00  0.29414875992E+04  0.29414875993E+04  0.50400001928E-02 0. -1.
       -1   -1    0    0    0  501  0.00000000000E+00  0.00000000000E+00 -0.12365060355E+04  0.12365060355E+04  0.50400001928E-02 0.  1.
    10030    2    1    2    0    0  0.00000000000E+00  0.00000000000E+00  0.17049815637E+04  0.41779936348E+04  0.38142717103E+04 0.  0.
        2    1    3    3  502    0 -0.15006440996E+04 -0.77456998631E+02  0.21388885009E+04  0.26139579797E+04  0.25500000920E-02 0. -1.
       -2    1    3    3    0  502  0.15006440996E+04  0.77456998631E+02 -0.43390693719E+03  0.15640356551E+04  0.25500000920E-02 0.  1.
</event>
<event>
 5   0  0.6661000E-08  0.3649780E+04  0.7818609E-02  0.8079183E-01
       -1   -1    0    0    0  501  0.00000000000E+00  0.00000000000E+00  0.12590644146E+04  0.12590644147E+04  0.50400001928E-02 0. -1.
        1   -1    0    0  501    0  0.00000000000E+00  0.00000000000E+00 -0.26449982967E+04  0.26449982967E+04  0.50400001928E-02 0.  1.
    10030    2    1    2    0    0  0.00000000000E+00  0.00000000000E+00 -0.13859338820E+04  0.39040627113E+04  0.36497798466E+04 0.  0.
        4    1    3    3  502    0 -0.56933869756E+03 -0.85205185853E+03  0.92222974859E+03  0.13786399981E+04  0.12699999809E+01 0. -1.
       -4    1    3    3    0  502  0.56933869756E+03  0.85205185853E+03 -0.23081636306E+04  0.25254227133E+04  0.12699999809E+01 0.  1.
</event>
<event>
 5   0  0.2205204E-07  0.3813955E+04  0.7818609E-02  0.8043167E-01
        2   -1    0    0  501    0  0.00000000000E+00  0.00000000000E+00  0.18857684371E+04  0.18857684371E+04  0.25500000920E-02 0.  1.
       -2   -1    0    0    0  501  0.00000000000E+00  0.00000000000E+00 -0.19284249995E+04  0.19284249995E+04  0.25500000920E-02 0. -1.
    10030    2    1    2    0    0  0.00000000000E+00  0.00000000000E+00 -0.42656562468E+02  0.38141934366E+04  0.38139549014E+04 0.  0.
        2    1    3    3  502    0  0.67450985562E+03  0.31269540134E+03 -0.17775192707E+04  0.19267373244E+04  0.25500000920E-02 0. -1.
       -2    1    3    3    0  502 -0.67450985562E+03 -0.31269540134E+03  0.17348627082E+04  0.18874561123E+04  0.25500000920E-02 0.  1.
</event>
<event>
 5   0  0.2203998E-07  0.3318700E+04  0.7818609E-02  0.8158153E-01
        2   -1    0    0  501    0  0.00000000000E+00  0.00000000000E+00  0.10689945828E+04  0.10689945828E+04  0.25500000920E-02 0. -1.
       -2   -1    0    0    0  501  0.00000000000E+00  0.00000000000E+00 -0.25757304327E+04  0.25757304327E+04  0.25500000920E-02 0.  1.
    10030    2    1    2    0    0  0.00000000000E+00  0.00000000000E+00 -0.15067358499E+04  0.36447250154E+04  0.33186996726E+04 0.  0.
        3    1    3    3  502    0  0.12747187802E+03 -0.12811955559E+04 -0.19029731719E+04  0.22976113760E+04  0.10100000352E+00 0.  1.
       -3    1    3    3    0  502 -0.12747187802E+03  0.12811955559E+04  0.39623732194E+03  0.13471136394E+04  0.10100000352E+00 0. -1.
</event>
<event>
 5   0  0.6661000E-08  0.3810342E+04  0.7818609E-02  0.8043939E-01
       -1   -1    0    0    0  501  0.00000000000E+00  0.00000000000E+00  0.10829139860E+04  0.10829139861E+04  0.50400001928E-02 0. -1.
        1   -1    0    0  501    0  0.00000000000E+00  0.00000000000E+00 -0.33517673883E+04  0.33517673883E+04  0.50400001928E-02 0.  1.
    10030    2    1    2    0    0  0.00000000000E+00  0.00000000000E+00 -0.22688534023E+04  0.44346813744E+04  0.38103416030E+04 0.  0.
        1    1    3    3  502    0 -0.77117358111E+03 -0.16103212156E+04 -0.36080717375E+03  0.18215446539E+04  0.50400001928E-02 0. -1.
       -1    1    3    3    0  502  0.77117358111E+03  0.16103212156E+04 -0.19080462285E+04  0.26131367205E+04  0.50400001928E-02 0.  1.
</event>
<event>
 5   0  0.1370688E-07  0.3843560E+04  0.7818609E-02  0.8036871E-01
        2   -1    0    0  501    0  0.00000000000E+00  0.00000000000E+00  0.12268321963E+04  0.12268321963E+04  0.25500000920E-02 0.  1.
       -2   -1    0    0    0  501  0.00000000000E+00  0.00000000000E+00 -0.30103860560E+04  0.30103860560E+04  0.25500000920E-02 0. -1.
    10030    2    1    2    0    0  0.00000000000E+00  0.00000000000E+00 -0.17835538596E+04  0.42372182523E+04  0.38435600877E+04 0.  0.
        5    1    3    3  502    0 -0.12920499990E+04 -0.36267802105E+03 -0.24082711717E+04  0.27569404551E+04  0.46999998093E+01 0. -1.
       -5    1    3    3    0  502  0.12920499990E+04  0.36267802105E+03  0.62471731205E+03  0.14802777972E+04  0.46999998093E+01 0.  1.
</event>
<event>
 5   0  0.6661000E-08  0.3409483E+04  0.7818609E-02  0.8135583E-01
       -1   -1    0    0    0  501  0.00000000000E+00  0.00000000000E+00  0.12803779039E+04  0.12803779039E+04  0.50400001928E-02 0. -1.
        1   -1    0    0  501    0  0.00000000000E+00  0.00000000000E+00 -0.22697548404E+04  0.22697548404E+04  0.50400001928E-02 0.  1.
    10030    2    1    2    0    0  0.00000000000E+00  0.00000000000E+00 -0.98937693647E+03  0.35501327443E+04  0.34094832130E+04 0.  0.
        4    1    3    3  502    0 -0.12304501617E+02  0.72349796287E+03 -0.21019120079E+04  0.22229791733E+04  0.12699999809E+01 0.  1.
       -4    1    3    3    0  502  0.12304501617E+02 -0.72349796287E+03  0.11125350714E+04  0.13271535710E+04  0.12699999809E+01 0. -1.
</event>
<event>
 5   0  0.6725199E-08  0.3741047E+04  0.7818609E-02  0.8058926E-01
       -1   -1    0    0    0  501  0.00000000000E+00  0.00000000000E+00  0.18934648753E+04  0.18934648753E+04  0.50400001928E-02 0.  1.
        1   -1    0    0  501    0  0.00000000000E+00  0.00000000000E+00 -0.18478602820E+04  0.18478602820E+04  0.50400001928E-02 0. -1.
    10030    2    1    2    0    0  0.00000000000E+00  0.00000000000E+00  0.45604593269E+02  0.37413251573E+04  0.37410472002E+04 0.  0.
        5    1    3    3  502    0  0.16701991429E+03 -0.17764479651E+04 -0.53864250048E+03  0.18638188908E+04  0.46999998093E+01 0. -1.
       -5    1    3    3    0  502 -0.16701991429E+03  0.17764479651E+04  0.58424709375E+03  0.18775062665E+04  0.46999998093E+01 0.  1.
</event>
<event>
 5   0  0.2205204E-07  0.3783191E+04  0.7818609E-02  0.8049772E-01
       -2   -1    0    0    0  501  0.00000000000E+00  0.00000000000E+00  0.12067561753E+04  0.12067561753E+04  0.25500000920E-02 0. -1.
        2   -1    0    0  501    0  0.00000000000E+00  0.00000000000E+00 -0.29650848473E+04  0.29650848473E+04  0.25500000920E-02 0.  1.
    10030    2    1    2    0    0  0.00000000000E+00  0.00000000000E+00 -0.17583286720E+04  0.41718410225E+04  0.37831914832E+04 0.  0.
        2    1    3    3  502    0 -0.18836502786E+04  0.16054979652E+03 -0.80753062748E+03  0.20557286600E+04  0.25500000920E-02 0. -1.
       -2    1    3    3    0  502  0.18836502786E+04 -0.16054979652E+03 -0.95079804451E+03  0.21161123625E+04  0.25500000920E-02 0.  1.
</event>
<event>
 5   0  0.6661000E-08  0.3794016E+04  0.7818609E-02  0.8047440E-01
        1   -1    0    0  501    0  0.00000000000E+00  0.00000000000E+00  0.16314021418E+04  0.16314021418E+04  0.50400001928E-02 0.  1.
       -1   -1    0    0    0  501  0.00000000000E+00  0.00000000000E+00 -0.22058568032E+04  0.22058568032E+04  0.50400001928E-02 0. -1.
    10030    2    1    2    0    0  0.00000000000E+00  0.00000000000E+00 -0.57445466142E+03  0.38372589450E+04  0.37940160850E+04 0.  0.
        1    1    3    3  502    0  0.40479828363E+03  0.28587123299E+03 -0.21392329941E+04  0.21958829239E+04  0.50400001928E-02 0. -1.
       -1    1    3    3    0  502 -0.40479828363E+03 -0.28587123299E+03  0.15647783327E+04  0.16413760211E+04  0.50400001928E-02 0.  1.
</event>
<event>
 5   0  0.6661000E-08  0.3691236E+04  0.7818609E-02  0.8069907E-01
        1   -1    0    0  501    0  0.00000000000E+00  0.00000000000E+00  0.97628024541E+03  0.97628024543E+03  0.50400001928E-02 0. -1.
       -1   -1    0    0    0  501  0.00000000000E+00  0.00000000000E+00 -0.34890660452E+04  0.34890660453E+04  0.50400001928E-02 0.  1.
    10030    2    1    2    0    0  0.00000000000E+00  0.00000000000E+00 -0.25127857998E+04  0.44653462907E+04  0.36912362455E+04 0.  0.
        2    1    3    3  502    0 -0.13357159051E+04 -0.12493012466E+04 -0.95659892254E+03  0.20639699810E+04  0.25500000920E-02 0.  1.
       -2    1    3    3    0  502  0.13357159051E+04  0.12493012466E+04 -0.15561868773E+04  0.24013763097E+04  0.25500000920E-02 0. -1.
</event>
<event>
 5   0  0.1370688E-07  0.3716717E+04  0.7818609E-02  0.8064267E-01
       -2   -1    0    0    0  501  0.00000000000E+00  0.00000000000E+00  0.13882794637E+04  0.13882794637E+04  0.25500000920E-02 0. -1.
        2   -1    0    0  501    0  0.00000000000E+00  0.00000000000E+00 -0.24876088717E+04  0.24876088717E+04  0.25500000920E-02 0.  1.
    10030    2    1    2    0    0  0.00000000000E+00  0.00000000000E+00 -0.10993294079E+04  0.38758883354E+04  0.37167169978E+04 0.  0.
        5    1    3    3  502    0 -0.71354743755E+03 -0.16900379040E+04 -0.24014361383E+03  0.18501538066E+04  0.46999998093E+01 0. -1.
       -5    1    3    3    0  502  0.71354743755E+03  0.16900379040E+04 -0.85918579409E+03  0.20257345289E+04  0.46999998093E+01 0.  1.
</event>
<event>
 5   0  0.2135314E-07  0.3809606E+04  0.7818609E-02  0.8044097E-01
        2   -1    0    0  501    0  0.00000000000E+00  0.00000000000E+00  0.29840819081E+04  0.29840819081E+04  0.25500000920E-02 0.  1.
       -2   -1    0    0    0  501  0.00000000000E+00  0.00000000000E+00 -0.12158764695E+04  0.12158764695E+04  0.25500000920E-02 0. -1.
    10030    2    1    2    0    0  0.00000000000E+00  0.00000000000E+00  0.17682054386E+04  0.41999583776E+04  0.38096062658E+04 0.  0.
        4    1    3    3  502    0 -0.11794571197E+04  0.13647878187E+04  0.15587794302E+04  0.23840217726E+04  0.12699999809E+01 0. -1.
       -4    1    3    3    0  502  0.11794571197E+04 -0.13647878187E+04  0.20942600841E+03  0.18159366050E+04  0.12699999809E+01 0.  1.
</event>
<event>
 5   0  0.6661000E-08  0.3782560E+04  0.7818609E-02  0.8049908E-01
       -1   -1    0    0    0  501  0.00000000000E+00  0.00000000000E+00  0.15694520482E+04  0.15694520483E+04  0.50400001928E-02 0. -1.
        1   -1    0    0  501    0  0.00000000000E+00  0.00000000000E+00 -0.22791008732E+04  0.22791008732E+04  0.50400001928E-02 0.  1.
    10030    2    1    2    0    0  0.00000000000E+00  0.00000000000E+00 -0.70964882492E+03  0.38485529214E+04  0.37825597331E+04 0.  0.
        2    1    3    3  502    0  0.65507681918E+03  0.13300290488E+04  0.83990092193E+03  0.17039766631E+04  0.25500000920E-02 0. -1.
       -2    1    3    3    0  502 -0.65507681918E+03 -0.13300290488E+04 -0.15495497469E+04  0.21445762583E+04  0.25500000920E-02 0.  1.
</event>
<event>
 5   0  0.6661000E-08  0.3777888E+04  0.7818609E-02  0.8050917E-01
       -1   -1    0    0    0  501  0.00000000000E+00  0.00000000000E+00  0.16301234163E+04  0.16301234163E+04  0.50400001928E-02 0. -1.
        1   -1    0    0  501    0  0.00000000000E+00  0.00000000000E+00 -0.21888585222E+04  0.21888585222E+04  0.50400001928E-02 0.  1.
    10030    2    1    2    0    0  0.00000000000E+00  0.00000000000E+00 -0.55873510589E+03  0.38189819384E+04  0.37778880512E+04 0.  0.
        3    1    3    3  502    0  0.46838419735E+03 -0.53904480591E+03 -0.20471481813E+04  0.21681256296E+04  0.10100000352E+00 0.  1.
       -3    1    3    3    0  502 -0.46838419735E+03  0.53904480591E+03  0.14884130754E+04  0.16508563089E+04  0.10100000352E+00 0. -1.
</event>
<event>
 5   0  0.6661000E-08  0.3761658E+04  0.7818609E-02  0.8054433E-01
        1   -1    0    0  501    0  0.00000000000E+00  0.00000000000E+00  0.23371824919E+04  0.23371824919E+04  0.50400001928E-02 0.  1.
       -1   -1    0    0    0  501  0.00000000000E+00  0.00000000000E+00 -0.15135824374E+04  0.15135824374E+04  0.50400001928E-02 0. -1.
    10030    2    1    2    0    0  0.00000000000E+00  0.00000000000E+00  0.82360005451E+03  0.38507649293E+04  0.37616583432E+04 0.  0.
        2    1    3    3  502    0  0.97451720463E+03 -0.19459089727E+03  0.20464889068E+04  0.22750090648E+04  0.25500000920E-02 0.  1.
       -2    1    3    3    0  502 -0.97451720463E+03  0.19459089727E+03 -0.12228888523E+04  0.15757558645E+04  0.25500000920E-02 0. -1.
</event>
<event>
 5   0  0.2203998E-07  0.3786834E+04  0.7818609E-02  0.8048986E-01
        2   -1    0    0  501    0  0.00000000000E+00  0.00000000000E+00  0.20203349815E+04  0.20203349815E+04  0.25500000920E-02 0.  1.
       -2   -1    0    0    0  501  0.00000000000E+00  0.00000000000E+00 -0.17744718366E+04  0.17744718366E+04  0.25500000920E-02 0. -1.
    10030    2    1    2    0    0  0.00000000000E+00  0.00000000000E+00  0.24586314486E+03  0.37948068181E+04  0.37868337831E+04 0.  0.
        3    1    3    3  502    0 -0.10313762182E+04 -0.70104473477E+03 -0.13047880558E+04  0.18049023531E+04  0.10100000352E+00 0. -1.
       -3    1    3    3    0  502  0.10313762182E+04  0.70104473477E+03  0.15506512007E+04  0.19899044650E+04  0.10100000352E+00 0.  1.
</event>
<event>
 5   0  0.6725199E-08  0.3811997E+04  0.7818609E-02  0.8043585E-01
       -1   -1    0    0    0  501  0.00000000000E+00  0.00000000000E+00  0.12657948084E+04  0.12657948084E+04  0.50400001928E-02 0.  1.
        1   -1    0    0  501    0  0.00000000000E+00  0.00000000000E+00 -0.28699992733E+04  0.28699992733E+04  0.50400001928E-02 0. -1.
    10030    2    1    2    0    0  0.00000000000E+00  0.00000000000E+00 -0.16042044649E+04  0.41357940817E+04  0.38119969466E+04 0.  0.
        5    1    3    3  502    0  0.51730584103E+03  0.13882529820E+04 -0.21031080082E+04  0.25725351425E+04  0.46999998093E+01 0. -1.
       -5    1    3    3    0  502 -0.51730584103E+03 -0.13882529820E+04  0.49890354332E+03  0.15632589391E+04  0.46999998093E+01 0.  1.
</event>
<event>
 5   0  0.6661000E-08  0.3795024E+04  0.7818609E-02  0.8047224E-01
       -1   -1    0    0    0  501  0.00000000000E+00  0.00000000000E+00  0.13807420829E+04  0.13807420829E+04  0.50400001928E-02 0.  1.
        1   -1    0    0  501    0  0.00000000000E+00  0.00000000000E+00 -0.26076933810E+04  0.26076933810E+04  0.50400001928E-02 0. -1.
    10030    2    1    2    0    0  0.00000000000E+00  0.00000000000E+00 -0.12269512980E+04  0.39884354639E+04  0.37950241056E+04 0.  0.
        4    1    3    3  502    0  0.47158322154E+03  0.16417698515E+04 -0.14818746782E+04  0.22613609077E+04  0.12699999809E+01 0. -1.
       -4    1    3    3    0  502 -0.47158322154E+03 -0.16417698515E+04  0.25492338011E+03  0.17270745562E+04  0.12699999809E+01 0.  1.
</event>
<event>
 5   0  0.6661000E-08  0.3800206E+04  0.7818609E-02  0.8046111E-01
       -1   -1    0    0    0  501  0.00000000000E+00  0.00000000000E+00  0.32018485732E+04  0.32018485732E+04  0.50400001928E-02 0. -1.
        1   -1    0    0  501    0  0.00000000000E+00  0.00000000000E+00 -0.11275961308E+04  0.11275961308E+04  0.50400001928E-02 0.  1.
    10030    2    1    2    0    0  0.00000000000E+00  0.00000000000E+00  0.20742524425E+04  0.43294447040E+04  0.38002063431E+04 0.  0.
        1    1    3    3  502    0 -0.73745425390E+03 -0.17511548462E+04  0.10407272085E+04  0.21664475979E+04  0.50400001928E-02 0. -1.
       -1    1    3    3    0  502  0.73745425390E+03  0.17511548462E+04  0.10335252339E+04  0.21629971061E+04  0.50400001928E-02 0.  1.
</event>
<event>
 5   0  0.2081337E-07  0.3879763E+04  0.7818609E-02  0.8029251E-01
        2   -1    0    0  501    0  0.00000000000E+00  0.00000000000E+00  0.29185870838E+04  0.29185870838E+04  0.25500000920E-02 0.  1.
       -2   -1    0    0    0  501  0.00000000000E+00  0.00000000000E+00 -0.12893707032E+04  0.12893707032E+04  0.25500000920E-02 0. -1.
    10030    2    1    2    0    0  0.00000000000E+00  0.00000000000E+00  0.16292163806E+04  0.42079577870E+04  0.38797632302E+04 0.  0.
        1    1    3    3  502    0  0.15490304949E+04  0.82881135220E+03  0.17068235154E+04  0.24494224308E+04  0.50400001928E-02 0.  1.
       -1    1    3    3    0  502 -0.15490304949E+04 -0.82881135220E+03 -0.77607134751E+02  0.17585353562E+04  0.50400001928E-02 0. -1.
</event>
<event>
 5   0  0.6661000E-08  0.3843841E+04  0.7818609E-02  0.8036812E-01
        1   -1    0    0  501    0  0.00000000000E+00  0.00000000000E+00  0.12401189316E+04  0.12401189316E+04  0.50400001928E-02 0. -1.
       -1   -1    0    0    0  501  0.00000000000E+00  0.00000000000E+00 -0.29785680540E+04  0.29785680540E+04  0.50400001928E-02 0.  1.
    10030    2    1    2    0    0  0.00000000000E+00  0.00000000000E+00 -0.17384491223E+04  0.42186869856E+04  0.38438411169E+04 0.  0.
        1    1    3    3  502    0  0.14836362480E+04 -0.81076950045E+03 -0.18722718305E+04  0.25226822048E+04  0.50400001928E-02 0.  1.
       -1    1    3    3    0  502 -0.14836362480E+04  0.81076950045E+03  0.13382270822E+03  0.16960047808E+04  0.50400001928E-02 0. -1.
</event>
<event>
 5   0  0.2203998E-07  0.3846233E+04  0.7818609E-02  0.8036306E-01
        2   -1    0    0  501    0  0.00000000000E+00  0.00000000000E+00  0.19201344489E+04  0.19201344489E+04  0.25500000920E-02 0.  1.
       -2   -1    0    0    0  501  0.00000000000E+00  0.00000000000E+00 -0.19261034445E+04  0.19261034445E+04  0.25500000920E-02 0. -1.
    10030    2    1    2    0    0  0.00000000000E+00  0.00000000000E+00 -0.59689955731E+01  0.38462378934E+04  0.38462332617E+04 0.  0.
        3    1    3    3  502    0 -0.14050095963E+03  0.18353647823E+04 -0.55982730202E+03  0.19239831138E+04  0.10100000352E+00 0. -1.
       -3    1    3    3    0  502  0.14050095963E+03 -0.18353647823E+04  0.55385830645E+03  0.19222547796E+04  0.10100000352E+00 0.  1.
</event>
<event>
 5   0  0.2203998E-07  0.3795147E+04  0.7818609E-02  0.8047197E-01
        2   -1    0    0  501    0  0.00000000000E+00  0.00000000000E+00  0.25423852874E+04  0.25423852874E+04  0.25500000920E-02 0.  1.
       -2   -1    0    0    0  501  0.00000000000E+00  0.00000000000E+00 -0.14163021914E+04  0.14163021914E+04  0.25500000920E-02 0. -1.
    10030    2    1    2    0    0  0.00000000000E+00  0.00000000000E+00  0.11260830960E+04  0.39586874788E+04  0.37951473510E+04 0.  0.
        3    1    3    3  502    0  0.13094329761E+04 -0.13163014129E+04  0.15433887159E+03  0.18630847072E+04  0.10100000352E+00 0.  1.
       -3    1    3    3    0  502 -0.13094329761E+04  0.13163014129E+04  0.97174422438E+03  0.20956027716E+04  0.10100000352E+00 0. -1.
</event>
<event>
 5   0  0.2135314E-07  0.3805366E+04  0.7818609E-02  0.8045004E-01
        2   -1    0    0  501    0  0.00000000000E+00  0.00000000000E+00  0.20875409133E+04  0.20875409133E+04  0.25500000920E-02 0. -1.
       -2   -1    0    0    0  501  0.00000000000E+00  0.00000000000E+00 -0.17341946143E+04  0.17341946143E+04  0.25500000920E-02 0.  1.
    10030    2    1    2    0    0  0.00000000000E+00  0.00000000000E+00  0.35334629901E+03  0.38217355277E+04  0.38053657954E+04 0.  0.
        4    1    3    3  502    0 -0.89243459823E+03 -0.16378737164E+04 -0.20061666423E+03  0.18759846699E+04  0.12699999809E+01 0.  1.
       -4    1    3    3    0  502  0.89243459823E+03  0.16378737164E+04  0.55396296324E+03  0.19457508578E+04  0.12699999809E+01 0. -1.
</event>
<event>
 5   0  0.6661000E-08  0.3798789E+04  0.7818609E-02  0.8046415E-01
       -1   -1    0    0    0  501  0.00000000000E+00  0.00000000000E+00  0.22814417829E+04  0.22814417829E+04  0.50400001928E-02 0.  1.
        1   -1    0    0  501    0  0.00000000000E+00  0.00000000000E+00 -0.15813240062E+04  0.15813240063E+04  0.50400001928E-02 0. -1.
    10030    2    1    2    0    0  0.00000000000E+00  0.00000000000E+00  0.70011777665E+03  0.38627657892E+04  0.37987885754E+04 0.  0.
        3    1    3    3  502    0 -0.14194057385E+04 -0.47663417600E+03 -0.83830032971E+03  0.17159954083E+04  0.10100000352E+00 0. -1.
       -3    1    3    3    0  502  0.14194057385E+04  0.47663417600E+03  0.15384181064E+04  0.21467703809E+04  0.10100000352E+00 0.  1.
</event>
<event>
 5   0  0.2135314E-07  0.3638596E+04  0.7818609E-02  0.8081708E-01
       -2   -1    0    0    0  501  0.00000000000E+00  0.00000000000E+00  0.18035127261E+04  0.18035127261E+04  0.25500000920E-02 0. -1.
        2   -1    0    0  501    0  0.00000000000E+00  0.00000000000E+00 -0.18352214048E+04  0.18352214048E+04  0.25500000920E-02 0.  1.
    10030    2    1    2    0    0  0.00000000000E+00  0.00000000000E+00 -0.31708678719E+02  0.36387341309E+04  0.36385959703E+04 0.  0.
        4    1    3    3  502    0 -0.87376043979E+03 -0.10326577530E+04  0.12007460885E+04  0.18087653587E+04  0.12699999809E+01 0. -1.
       -4    1    3    3    0  502  0.87376043979E+03  0.10326577530E+04 -0.12324547672E+04  0.18299687722E+04  0.12699999809E+01 0.  1.
</event>
<event>
 5   0  0.6725199E-08  0.3415191E+04  0.7818609E-02  0.8134188E-01
        1   -1    0    0  501    0  0.00000000000E+00  0.00000000000E+00  0.25702603163E+04  0.25702603163E+04  0.50400001928E-02 0.  1.
       -1   -1    0    0    0  501  0.00000000000E+00  0.00000000000E+00 -0.11344694232E+04  0.11344694232E+04  0.50400001928E-02 0. -1.
    10030    2    1    2    0    0  0.00000000000E+00  0.00000000000E+00  0.14357908931E+04  0.37047297395E+04  0.34151906176E+04 0.  0.
        5    1    3    3  502    0 -0.39805958112E+03  0.74793527736E+03  0.23261527403E+04  0.24756549175E+04  0.46999998093E+01 0.  1.
       -5    1    3    3    0  502  0.39805958112E+03 -0.74793527736E+03 -0.89036184722E+03  0.12290748221E+04  0.46999998093E+01 0. -1.
</event>
<event>
 5   0  0.2081337E-07  0.3732549E+04  0.7818609E-02  0.8060787E-01
        2   -1    0    0  501    0  0.00000000000E+00  0.00000000000E+00  0.24661224843E+04  0.24661224843E+04  0.25500000920E-02 0.  1.
       -2   -1    0    0    0  501  0.00000000000E+00  0.00000000000E+00 -0.14123304946E+04  0.14123304946E+04  0.25500000920E-02 0. -1.
    10030    2    1    2    0    0  0.00000000000E+00  0.00000000000E+00  0.10537919896E+04  0.38784529789E+04  0.37325487207E+04 0.  0.
        1    1    3    3  502    0  0.13402895223E+03  0.16954753442E+04 -0.27150066457E+03  0.17222987585E+04  0.50400001928E-02 0. -1.
       -1    1    3    3    0  502 -0.13402895223E+03 -0.16954753442E+04  0.13252926542E+04  0.21561542204E+04  0.50400001928E-02 0.  1.
</event>
<event>
 5   0  0.1370688E-07  0.3793805E+04  0.7818609E-02  0.8047486E-01
       -2   -1    0    0    0  501  0.00000000000E+00  0.00000000000E+00  0.22745995128E+04  0.22745995128E+04  0.25500000920E-02 0. -1.
        2   -1    0    0  501    0  0.00000000000E+00  0.00000000000E+00 -0.15819218452E+04  0.15819218452E+04  0.25500000920E-02 0.  1.
    10030    2    1    2    0    0  0.00000000000E+00  0.00000000000E+00  0.69267766765E+03  0.38565213580E+04  0.37938047701E+04 0.  0.
        5    1    3    3  502    0 -0.17417185114E+04  0.30382122868E+03  0.10449598130E+04  0.20537414181E+04  0.46999998093E+01 0. -1.
       -5    1    3    3    0  502  0.17417185114E+04 -0.30382122868E+03 -0.35228214535E+03  0.18027799399E+04  0.46999998093E+01 0.  1.
</event>
<event>
 5   0  0.1370688E-07  0.3812020E+04  0.7818609E-02  0.8043580E-01
       -2   -1    0    0    0  501  0.00000000000E+00  0.00000000000E+00  0.20772942209E+04  0.20772942210E+04  0.25500000920E-02 0. -1.
        2   -1    0    0  501    0  0.00000000000E+00  0.00000000000E+00 -0.17488489223E+04  0.17488489223E+04  0.25500000920E-02 0.  1.
    10030    2    1    2    0    0  0.00000000000E+00  0.00000000000E+00  0.32844529866E+03  0.38261431432E+04  0.38120198109E+04 0.  0.
        5    1    3    3  502    0 -0.78684589662E+03 -0.14694512903E+04 -0.76356026431E+03  0.18334284624E+04  0.46999998093E+01 0.  1.
       -5    1    3    3    0  502  0.78684589662E+03  0.14694512903E+04  0.10920055630E+04  0.19927146808E+04  0.46999998093E+01 0. -1.
</event>
<event>
 5   0  0.6661000E-08  0.3811289E+04  0.7818609E-02  0.8043737E-01
        1   -1    0    0  501    0  0.00000000000E+00  0.00000000000E+00  0.28380539554E+04  0.28380539554E+04  0.50400001928E-02 0.  1.
       -1   -1    0    0    0  501  0.00000000000E+00  0.00000000000E+00 -0.12795672871E+04  0.12795672872E+04  0.50400001928E-02 0. -1.
    10030    2    1    2    0    0  0.00000000000E+00  0.00000000000E+00  0.15584866683E+04  0.41176212426E+04  0.38112890211E+04 0.  0.
        3    1    3    3  502    0 -0.84168238313E+03  0.93359238408E+03 -0.76816781923E+03  0.14731278907E+04  0.10100000352E+00 0. -1.
       -3    1    3    3    0  502  0.84168238313E+03 -0.93359238408E+03  0.23266544875E+04  0.26444933519E+04  0.10100000352E+00 0.  1.
</event>
<event>
 5   0  0.6661000E-08  0.3798560E+04  0.7818609E-02  0.8046464E-01
        1   -1    0    0  501    0  0.00000000000E+00  0.00000000000E+00  0.15151195632E+04  0.15151195632E+04  0.50400001928E-02 0. -1.
       -1   -1    0    0    0  501  0.00000000000E+00  0.00000000000E+00 -0.23808447746E+04  0.23808447747E+04  0.50400001928E-02 0.  1.
    10030    2    1    2    0    0  0.00000000000E+00  0.00000000000E+00 -0.86572521150E+03  0.38959643378E+04  0.37985599876E+04 0.  0.
        1    1    3    3  502    0 -0.17872886521E+03  0.13388725007E+04 -0.18022934312E+04  0.22522844387E+04  0.50400001928E-02 0.  1.
       -1    1    3    3    0  502  0.17872886521E+03 -0.13388725007E+04  0.93656821975E+03  0.16436798991E+04  0.50400001928E-02 0. -1.
</event>
<event>
 5   0  0.6725199E-08  0.3793273E+04  0.7818609E-02  0.8047600E-01
       -1   -1    0    0    0  501  0.00000000000E+00  0.00000000000E+00  0.14984978681E+04  0.14984978681E+04  0.50400001928E-02 0.  1.
        1   -1    0    0  501    0  0.00000000000E+00  0.00000000000E+00 -0.24005569973E+04  0.24005569973E+04  0.50400001928E-02 0. -1.
    10030    2    1    2    0    0  0.00000000000E+00  0.00000000000E+00 -0.90205912926E+03  0.38990548654E+04  0.37932727520E+04 0.  0.
        5    1    3    3  502    0 -0.33008286589E+03  0.12592154601E+04  0.96679452661E+03  0.16215091797E+04  0.46999998093E+01 0.  1.
       -5    1    3    3    0  502  0.33008286589E+03 -0.12592154601E+04 -0.18688536559E+04  0.22775456857E+04  0.46999998093E+01 0. -1.
</event>
<event>
 5   0  0.6661000E-08  0.3811729E+04  0.7818609E-02  0.8043642E-01
        1   -1    0    0  501    0  0.00000000000E+00  0.00000000000E+00  0.17739418864E+04  0.17739418864E+04  0.50400001928E-02 0.  1.
       -1   -1    0    0    0  501  0.00000000000E+00  0.00000000000E+00 -0.20475980492E+04  0.20475980492E+04  0.50400001928E-02 0. -1.
    10030    2    1    2    0    0  0.00000000000E+00  0.00000000000E+00 -0.27365616281E+03  0.38215399355E+04  0.38117292379E+04 0.  0.
        1    1    3    3  502    0  0.15727017664E+03 -0.18485404268E+04  0.30074035181E+03  0.18794361860E+04  0.50400001928E-02 0.  1.
       -1    1    3    3    0  502 -0.15727017664E+03  0.18485404268E+04 -0.57439651462E+03  0.19421037495E+04  0.50400001928E-02 0. -1.
</event>
<event>
 5   0  0.6661000E-08  0.3772570E+04  0.7818609E-02  0.8052067E-01
       -1   -1    0    0    0  501  0.00000000000E+00  0.00000000000E+00  0.29101161505E+04  0.29101161505E+04  0.50400001928E-02 0.  1.
        1   -1    0    0  501    0  0.00000000000E+00  0.00000000000E+00 -0.12226559976E+04  0.12226559976E+04  0.50400001928E-02 0. -1.
    10030    2    1    2    0    0  0.00000000000E+00  0.00000000000E+00  0.16874601529E+04  0.41327721481E+04  0.37725699278E+04 0.  0.
        2    1    3    3  502    0  0.42609624080E+03  0.14124549921E+04 -0.44385836729E+03  0.15406483575E+04  0.25500000920E-02 0. -1.
       -2    1    3    3    0  502 -0.42609624080E+03 -0.14124549921E+04  0.21313185202E+04  0.25921237906E+04  0.25500000920E-02 0.  1.
</event>
<event>
 5   0  0.6661000E-08  0.4005218E+04  0.7818609E-02  0.8003495E-01
        1   -1    0    0  501    0  0.00000000000E+00  0.00000000000E+00  0.26300767276E+04  0.26300767276E+04  0.50400001928E-02 0. -1.
       -1   -1    0    0    0  501  0.00000000000E+00  0.00000000000E+00 -0.15248390585E+04  0.15248390585E+04  0.50400001928E-02 0.  1.
    10030    2    1    2    0    0  0.00000000000E+00  0.00000000000E+00  0.11052376691E+04  0.41549157861E+04  0.40052184565E+04 0.  0.
        3    1    3    3  502    0 -0.46867350426E+03 -0.17490834888E+04 -0.33462284919E+03  0.18414451840E+04  0.10100000352E+00 0.  1.
       -3    1    3    3    0  502  0.46867350426E+03  0.17490834888E+04  0.14398605183E+04  0.23134706021E+04  0.10100000352E+00 0. -1.
</event>
<event>
 5   0  0.1370688E-07  0.3817180E+04  0.7818609E-02  0.8042478E-01
       -2   -1    0    0    0  501  0.00000000000E+00  0.00000000000E+00  0.17452864347E+04  0.17452864347E+04  0.25500000920E-02 0. -1.
        2   -1    0    0  501    0  0.00000000000E+00  0.00000000000E+00 -0.20871737694E+04  0.20871737694E+04  0.25500000920E-02 0.  1.
    10030    2    1    2    0    0  0.00000000000E+00  0.00000000000E+00 -0.34188733462E+03  0.38324602041E+04  0.38171801459E+04 0.  0.
        5    1    3    3  502    0 -0.13610420130E+04  0.95410141407E+03 -0.11127547031E+04  0.20002474819E+04  0.46999998093E+01 0.  1.
       -5    1    3    3    0  502  0.13610420130E+04 -0.95410141407E+03  0.77086736852E+03  0.18322127222E+04  0.46999998093E+01 0. -1.
</event>
<event>
 5   0  0.6725199E-08  0.3784017E+04  0.7818609E-02  0.8049593E-01
        1   -1    0    0  501    0  0.00000000000E+00  0.00000000000E+00  0.25149021201E+04  0.25149021201E+04  0.50400001928E-02 0.  1.
       -1   -1    0    0    0  501  0.00000000000E+00  0.00000000000E+00 -0.14233939708E+04  0.14233939708E+04  0.50400001928E-02 0. -1.
    10030    2    1    2    0    0  0.00000000000E+00  0.00000000000E+00  0.10915081493E+04  0.39382960910E+04  0.37840171855E+04 0.  0.
        5    1    3    3  502    0 -0.70773795558E+03 -0.13652431910E+04 -0.60140641103E+03  0.16512097824E+04  0.46999998093E+01 0. -1.
       -5    1    3    3    0  502  0.70773795558E+03  0.13652431910E+04  0.16929145603E+04  0.22870863086E+04  0.46999998093E+01 0.  1.
</event>
<event>
 5   0  0.2081337E-07  0.3810606E+04  0.7818609E-02  0.8043883E-01
        2   -1    0    0  501    0  0.00000000000E+00  0.00000000000E+00  0.23719663651E+04  0.23719663651E+04  0.25500000920E-02 0. -1.
       -2   -1    0    0    0  501  0.00000000000E+00  0.00000000000E+00 -0.15304519012E+04  0.15304519012E+04  0.25500000920E-02 0.  1.
    10030    2    1    2    0    0  0.00000000000E+00  0.00000000000E+00  0.84151446389E+03  0.39024182664E+04  0.38106064784E+04 0.  0.
        1    1    3    3  502    0  0.13875928900E+04  0.70375740622E+03 -0.70550935413E+03  0.17083418756E+04  0.50400001928E-02 0.  1.
       -1    1    3    3    0  502 -0.13875928900E+04 -0.70375740622E+03  0.15470238180E+04  0.21940763908E+04  0.50400001928E-02 0. -1.
</event>
<event>
 5   0  0.6661000E-08  0.3854824E+04  0.7818609E-02  0.8034491E-01
       -1   -1    0    0    0  501  0.00000000000E+00  0.00000000000E+00  0.14247668990E+04  0.14247668990E+04  0.50400001928E-02 0.  1.
        1   -1    0    0  501    0  0.00000000000E+00  0.00000000000E+00 -0.26073857414E+04  0.26073857414E+04  0.50400001928E-02 0. -1.
    10030    2    1    2    0    0  0.00000000000E+00  0.00000000000E+00 -0.11826188424E+04  0.40321526404E+04  0.38548239375E+04 0.  0.
        1    1    3    3  502    0 -0.76846478347E+03 -0.17671476910E+04 -0.63272649424E+03  0.20282238293E+04  0.50400001928E-02 0.  1.
       -1    1    3    3    0  502  0.76846478347E+03  0.17671476910E+04 -0.54989234817E+03  0.20039288111E+04  0.50400001928E-02 0. -1.
</event>
<event>
 5   0  0.2135314E-07  0.3737440E+04  0.7818609E-02  0.8059715E-01
       -2   -1    0    0    0  501  0.00000000000E+00  0.00000000000E+00  0.14632628508E+04  0.14632628508E+04  0.25500000920E-02 0.  1.
        2   -1    0    0  501    0  0.00000000000E+00  0.00000000000E+00 -0.23865257388E+04  0.23865257388E+04  0.25500000920E-02 0. -1.
    10030    2    1    2    0    0  0.00000000000E+00  0.00000000000E+00 -0.92326288805E+03  0.38497885896E+04  0.37374400095E+04 0.  0.
        4    1    3    3  502    0  0.14318036609E+03  0.16366085603E+04  0.45571498231E+03  0.17048947049E+04  0.12699999809E+01 0.  1.
       -4    1    3    3    0  502 -0.14318036609E+03 -0.16366085603E+04 -0.13789778704E+04  0.21448938847E+04  0.12699999809E+01 0. -1.
</event>
<event>
 5   0  0.2203998E-07  0.3826138E+04  0.7818609E-02  0.8040569E-01
       -2   -1    0    0    0  501  0.00000000000E+00  0.00000000000E+00  0.10975226188E+04  0.10975226188E+04  0.25500000920E-02 0. -1.
        2   -1    0    0  501    0  0.00000000000E+00  0.00000000000E+00 -0.33346307165E+04  0.33346307165E+04  0.25500000920E-02 0.  1.
    10030    2    1    2    0    0  0.00000000000E+00  0.00000000000E+00 -0.22371080977E+04  0.44321533352E+04  0.38261378107E+04 0.  0.
        3    1    3    3  502    0 -0.11333623855E+04 -0.14356957710E+04 -0.17677684197E+04  0.25437645016E+04  0.10100000352E+00 0. -1.
       -3    1    3    3    0  502  0.11333623855E+04  0.14356957710E+04 -0.46933967806E+03  0.18883888337E+04  0.10100000352E+00 0.  1.
</event>
<event>
 5   0  0.6661000E-08  0.3727010E+04  0.7818609E-02  0.8062002E-01
       -1   -1    0    0    0  501  0.00000000000E+00  0.00000000000E+00  0.11373692644E+04  0.11373692644E+04  0.50400001928E-02 0.  1.
        1   -1    0    0  501    0  0.00000000000E+00  0.00000000000E+00 -0.30532315914E+04  0.30532315914E+04  0.50400001928E-02 0. -1.
    10030    2    1    2    0    0  0.00000000000E+00  0.00000000000E+00 -0.19158623270E+04  0.41906008558E+04  0.37270104745E+04 0.  0.
        1    1    3    3  502    0  0.94619248986E+03  0.32563553041E+03  0.80965796584E+03  0.12871925840E+04  0.50400001928E-02 0.  1.
       -1    1    3    3    0  502 -0.94619248986E+03 -0.32563553041E+03 -0.27255202928E+04  0.29034082719E+04  0.50400001928E-02 0. -1.
</event>
<event>
 5   0  0.6725199E-08  0.3808252E+04  0.7818609E-02  0.8044386E-01
       -1   -1    0    0    0  501  0.00000000000E+00  0.00000000000E+00  0.16109368381E+04  0.16109368381E+04  0.50400001928E-02 0.  1.
        1   -1    0    0  501    0  0.00000000000E+00  0.00000000000E+00 -0.22506752552E+04  0.22506752552E+04  0.50400001928E-02 0. -1.
    10030    2    1    2    0    0  0.00000000000E+00  0.00000000000E+00 -0.63973841710E+03  0.38616120933E+04  0.38082519240E+04 0.  0.
        5    1    3    3  502    0 -0.13445647728E+04  0.11497757332E+04 -0.10338911085E+04  0.20490953074E+04  0.46999998093E+01 0. -1.
       -5    1    3    3    0  502  0.13445647728E+04 -0.11497757332E+04  0.39415269138E+03  0.18125167858E+04  0.46999998093E+01 0.  1.
</event>
<event>
 5   0  0.6725199E-08  0.3796050E+04  0.7818609E-02  0.8047003E-01
       -1   -1    0    0    0  501  0.00000000000E+00  0.00000000000E+00  0.13235328686E+04  0.13235328686E+04  0.50400001928E-02 0.  1.
        1   -1    0    0  501    0  0.00000000000E+00  0.00000000000E+00 -0.27218812184E+04  0.27218812184E+04  0.50400001928E-02 0. -1.
    10030    2    1    2    0    0  0.00000000000E+00  0.00000000000E+00 -0.13983483498E+04  0.40454140870E+04  0.37960501877E+04 0.  0.
        5    1    3    3  502    0 -0.17074655319E+04  0.45855843142E+03  0.36663826784E+02  0.17683553669E+04  0.46999998093E+01 0.  1.
       -5    1    3    3    0  502  0.17074655319E+04 -0.45855843142E+03 -0.14350121766E+04  0.22770587200E+04  0.46999998093E+01 0. -1.
</event>
<event>
 5   0  0.6661000E-08  0.3776588E+04  0.7818609E-02  0.8051198E-01
       -1   -1    0    0    0  501  0.00000000000E+00  0.00000000000E+00  0.19731338915E+04  0.19731338915E+04  0.50400001928E-02 0.  1.
        1   -1    0    0  501    0  0.00000000000E+00  0.00000000000E+00 -0.18071015579E+04  0.18071015580E+04  0.50400001928E-02 0. -1.
    10030    2    1    2    0    0  0.00000000000E+00  0.00000000000E+00  0.16603233355E+03  0.37802354495E+04  0.37765875228E+04 0.  0.
        2    1    3    3  502    0  0.31674366413E+03 -0.17236162992E+04  0.78688359099E+03  0.19210323999E+04  0.25500000920E-02 0.  1.
       -2    1    3    3    0  502 -0.31674366413E+03  0.17236162992E+04 -0.62085125744E+03  0.18592030496E+04  0.25500000920E-02 0. -1.
</event>
<event>
 5   0  0.1370688E-07  0.3784317E+04  0.7818609E-02  0.8049529E-01
        2   -1    0    0  501    0  0.00000000000E+00  0.00000000000E+00  0.17084557496E+04  0.17084557496E+04  0.25500000920E-02 0.  1.
       -2   -1    0    0    0  501  0.00000000000E+00  0.00000000000E+00 -0.20956141357E+04  0.20956141357E+04  0.25500000920E-02 0. -1.
    10030    2    1    2    0    0  0.00000000000E+00  0.00000000000E+00 -0.38715838611E+03  0.38040698853E+04  0.37843171215E+04 0.  0.
        5    1    3    3  502    0 -0.14952311091E+04  0.11027610485E+04  0.16668222619E+03  0.18653694150E+04  0.46999998093E+01 0.  1.
       -5    1    3    3    0  502  0.14952311091E+04 -0.11027610485E+04 -0.55384061230E+03  0.19387004703E+04  0.46999998093E+01 0. -1.
</event>
<event>
 5   0  0.2205204E-07  0.3854713E+04  0.7818609E-02  0.8034515E-01
        2   -1    0    0  501    0  0.00000000000E+00  0.00000000000E+00  0.19365223962E+04  0.19365223962E+04  0.25500000920E-02 0. -1.
       -2   -1    0    0    0  501  0.00000000000E+00  0.00000000000E+00 -0.19182336315E+04  0.19182336315E+04  0.25500000920E-02 0.  1.
    10030    2    1    2    0    0  0.00000000000E+00  0.00000000000E+00  0.18288764688E+02  0.38547560278E+04  0.38547126423E+04 0.  0.
        2    1    3    3  502    0  0.38592634211E+03 -0.77348740832E+03  0.17318014218E+04  0.19355511042E+04  0.25500000920E-02 0. -1.
       -2    1    3    3    0  502 -0.38592634211E+03  0.77348740832E+03 -0.17135126572E+04  0.19192049236E+04  0.25500000920E-02 0.  1.
</event>
<event>
 5   0  0.2203998E-07  0.3841942E+04  0.7818609E-02  0.8037214E-01
       -2   -1    0    0    0  501  0.00000000000E+00  0.00000000000E+00  0.14617860519E+04  0.14617860519E+04  0.25500000920E-02 0.  1.
        2   -1    0    0  501    0  0.00000000000E+00  0.00000000000E+00 -0.25243976106E+04  0.25243976106E+04  0.25500000920E-02 0. -1.
    10030    2    1    2    0    0  0.00000000000E+00  0.00000000000E+00 -0.10626115587E+04  0.39861836625E+04  0.38419418094E+04 0.  0.
        3    1    3    3  502    0  0.10802438806E+04  0.15058429518E+04 -0.67153162056E+01  0.18532498328E+04  0.10100000352E+00 0. -1.
       -3    1    3    3    0  502 -0.10802438806E+04 -0.15058429518E+04 -0.10558962425E+04  0.21329338297E+04  0.10100000352E+00 0.  1.
</event>
<event>
 5   0  0.2205204E-07  0.3793761E+04  0.7818609E-02  0.8047495E-01
       -2   -1    0    0    0  501  0.00000000000E+00  0.00000000000E+00  0.16257888935E+04  0.16257888935E+04  0.25500000920E-02 0. -1.
        2   -1    0    0  501    0  0.00000000000E+00  0.00000000000E+00 -0.22131748152E+04  0.22131748152E+04  0.25500000920E-02 0.  1.
    10030    2    1    2    0    0  0.00000000000E+00  0.00000000000E+00 -0.58738592169E+03  0.38389637087E+04  0.37937606851E+04 0.  0.
        2    1    3    3  502    0 -0.70737580185E+03  0.15250113066E+04 -0.11828635238E+04  0.20555306191E+04  0.25500000920E-02 0.  1.
       -2    1    3    3    0  502  0.70737580185E+03 -0.15250113066E+04  0.59547760206E+03  0.17834330896E+04  0.25500000920E-02 0. -1.
</event>
<event>
 5   0  0.2203998E-07  0.3796355E+04  0.7818609E-02  0.8046937E-01
       -2   -1    0    0    0  501  0.00000000000E+00  0.00000000000E+00  0.11683781831E+04  0.11683781831E+04  0.25500000920E-02 0.  1.
        2   -1    0    0  501    0  0.00000000000E+00  0.00000000000E+00 -0.30838289223E+04  0.30838289223E+04  0.25500000920E-02 0. -1.
    10030    2    1    2    0    0  0.00000000000E+00  0.00000000000E+00 -0.19154507392E+04  0.42522071055E+04  0.37963553223E+04 0.  0.
        3    1    3    3  502    0 -0.13143630613E+04 -0.10654396715E+04 -0.19214898736E+04  0.25602412572E+04  0.10100000352E+00 0. -1.
       -3    1    3    3    0  502  0.13143630613E+04  0.10654396715E+04  0.60391343953E+01  0.16919658483E+04  0.10100000352E+00 0.  1.
</event>
<event>
 5   0  0.1370688E-07  0.3828004E+04  0.7818609E-02  0.8040172E-01
       -2   -1    0    0    0  501  0.00000000000E+00  0.00000000000E+00  0.17839132622E+04  0.17839132622E+04  0.25500000920E-02 0.  1.
        2   -1    0    0  501    0  0.00000000000E+00  0.00000000000E+00 -0.20535767977E+04  0.20535767977E+04  0.25500000920E-02 0. -1.
    10030    2    1    2    0    0  0.00000000000E+00  0.00000000000E+00 -0.26966353548E+03  0.38374900599E+04  0.38280035969E+04 0.  0.
        5    1    3    3  502    0 -0.63401038344E+03  0.41894279453E+01  0.16755766716E+04  0.17915261622E+04  0.46999998093E+01 0.  1.
       -5    1    3    3    0  502  0.63401038344E+03 -0.41894279453E+01 -0.19452402070E+04  0.20459638977E+04  0.46999998093E+01 0. -1.
</event>
<event>
 5   0  0.2135314E-07  0.3812052E+04  0.7818609E-02  0.8043574E-01
        2   -1    0    0  501    0  0.00000000000E+00  0.00000000000E+00  0.21167880643E+04  0.21167880643E+04  0.25500000920E-02 0. -1.
       -2   -1    0    0    0  501  0.00000000000E+00  0.00000000000E+00 -0.17162488151E+04  0.17162488151E+04  0.25500000920E-02 0.  1.
    10030    2    1    2    0    0  0.00000000000E+00  0.00000000000E+00  0.40053924916E+03  0.38330368794E+04  0.38120519446E+04 0.  0.
        4    1    3    3  502    0  0.91329618644E+03  0.23970924290E+03  0.18650902868E+04  0.20904865071E+04  0.12699999809E+01 0. -1.
       -4    1    3    3    0  502 -0.91329618644E+03 -0.23970924290E+03 -0.14645510377E+04  0.17425503723E+04  0.12699999809E+01 0.  1.
</event>
<event>
 5   0  0.2135314E-07  0.3815080E+04  0.7818609E-02  0.8042927E-01
        2   -1    0    0  501    0  0.00000000000E+00  0.00000000000E+00  0.17339114103E+04  0.17339114103E+04  0.25500000920E-02 0.  1.
       -2   -1    0    0    0  501  0.00000000000E+00  0.00000000000E+00 -0.20985549693E+04  0.20985549693E+04  0.25500000920E-02 0. -1.
    10030    2    1    2    0    0  0.00000000000E+00  0.00000000000E+00 -0.36464355900E+03  0.38324663797E+04  0.38150797667E+04 0.  0.
        4    1    3    3  502    0  0.86427092898E+03 -0.95255742817E+03 -0.15974207417E+04  0.20508740897E+04  0.12699999809E+01 0. -1.
       -4    1    3    3    0  502 -0.86427092898E+03  0.95255742817E+03  0.12327771827E+04  0.17815922900E+04  0.12699999809E+01 0.  1.
</event>
<event>
 5   0  0.6661000E-08  0.3778130E+04  0.7818609E-02  0.8050865E-01
       -1   -1    0    0    0  501  0.00000000000E+00  0.00000000000E+00  0.11866893584E+04  0.11866893584E+04  0.50400001928E-02 0. -1.
        1   -1    0    0  501    0  0.00000000000E+00  0.00000000000E+00 -0.30071609667E+04  0.30071609667E+04  0.50400001928E-02 0.  1.
    10030    2    1    2    0    0  0.00000000000E+00  0.00000000000E+00 -0.18204716083E+04  0.41938503251E+04  0.37781296527E+04 0.  0.
        1    1    3    3  502    0 -0.15257379518E+04  0.10121097015E+04 -0.14265190038E+04  0.23210339967E+04  0.50400001928E-02 0.  1.
       -1    1    3    3    0  502  0.15257379518E+04 -0.10121097015E+04 -0.39395260448E+03  0.18728163284E+04  0.50400001928E-02 0. -1.
</event>
<event>
 5   0  0.2205204E-07  0.3799398E+04  0.7818609E-02  0.8046284E-01
       -2   -1    0    0    0  501  0.00000000000E+00  0.00000000000E+00  0.18051998964E+04  0.18051998964E+04  0.25500000920E-02 0.  1.
        2   -1    0    0  501    0  0.00000000000E+00  0.00000000000E+00 -0.19991448657E+04  0.19991448657E+04  0.25500000920E-02 0. -1.
    10030    2    1    2    0    0  0.00000000000E+00  0.00000000000E+00 -0.19394496931E+03  0.38043447620E+04  0.37993979019E+04 0.  0.
        2    1    3    3  502    0 -0.83874957505E+03  0.67032787055E+03 -0.16661810387E+04  0.19821704159E+04  0.25500000920E-02 0. -1.
       -2    1    3    3    0  502  0.83874957505E+03 -0.67032787055E+03  0.14722360694E+04  0.18221743462E+04  0.25500000920E-02 0.  1.
</event>
<event>
 5   0  0.6725199E-08  0.3738727E+04  0.7818609E-02  0.8059433E-01
       -1   -1    0    0    0  501  0.00000000000E+00  0.00000000000E+00  0.17091905063E+04  0.17091905063E+04  0.50400001928E-02 0. -1.
        1   -1    0    0  501    0  0.00000000000E+00  0.00000000000E+00 -0.20445462679E+04  0.20445462679E+04  0.50400001928E-02 0.  1.
    10030    2    1    2    0    0  0.00000000000E+00  0.00000000000E+00 -0.33535576154E+03  0.37537367742E+04  0.37387265590E+04 0.  0.
        5    1    3    3  502    0 -0.12418346419E+04  0.13869241246E+04 -0.33802098340E+03  0.18920867000E+04  0.46999998093E+01 0. -1.
       -5    1    3    3    0  502  0.12418346419E+04 -0.13869241246E+04  0.26652218588E+01  0.18616500742E+04  0.46999998093E+01 0.  1.
</event>
<event>
 5   0  0.6661000E-08  0.3799999E+04  0.7818609E-02  0.8046155E-01
       -1   -1    0    0    0  501  0.00000000000E+00  0.00000000000E+00  0.20067013859E+04  0.20067013859E+04  0.50400001928E-02 0.  1.
        1   -1    0    0  501    0  0.00000000000E+00  0.00000000000E+00 -0.17989710198E+04  0.17989710198E+04  0.50400001928E-02 0. -1.
    10030    2    1    2    0    0  0.00000000000E+00  0.00000000000E+00  0.20773036604E+03  0.38056724057E+04  0.37999987572E+04 0.  0.
        4    1    3    3  502    0  0.14124352457E+04 -0.12668428262E+04  0.30572764544E+01  0.18973336632E+04  0.12699999809E+01 0.  1.
       -4    1    3    3    0  502 -0.14124352457E+04  0.12668428262E+04  0.20467308959E+03  0.19083387425E+04  0.12699999809E+01 0. -1.
</event>
<event>
 5   0  0.6725199E-08  0.3785314E+04  0.7818609E-02  0.8049314E-01
        1   -1    0    0  501    0  0.00000000000E+00  0.00000000000E+00  0.13446803439E+04  0.13446803439E+04  0.50400001928E-02 0.  1.
       -1   -1    0    0    0  501  0.00000000000E+00  0.00000000000E+00 -0.26639423613E+04  0.26639423613E+04  0.50400001928E-02 0. -1.
    10030    2    1    2    0    0  0.00000000000E+00  0.00000000000E+00 -0.13192620174E+04  0.40086227052E+04  0.37853142171E+04 0.  0.
        5    1    3    3  502    0  0.27577155727E+03 -0.10025683363E+04  0.10150978425E+04  0.14531479418E+04  0.46999998093E+01 0.  1.
       -5    1    3    3    0  502 -0.27577155727E+03  0.10025683363E+04 -0.23343598599E+04  0.25554747634E+04  0.46999998093E+01 0. -1.
</event>
<event>
 5   0  0.2081337E-07  0.3814356E+04  0.7818609E-02  0.8043081E-01
        2   -1    0    0  501    0  0.00000000000E+00  0.00000000000E+00  0.24959696243E+04  0.24959696243E+04  0.25500000920E-02 0. -1.
       -2   -1    0    0    0  501  0.00000000000E+00  0.00000000000E+00 -0.14572805748E+04  0.14572805748E+04  0.25500000920E-02 0.  1.
    10030    2    1    2    0    0  0.00000000000E+00  0.00000000000E+00  0.10386890495E+04  0.39532501990E+04  0.38143560655E+04 0.  0.
        1    1    3    3  502    0  0.59010438787E+03 -0.10366458790E+03 -0.13572104533E+04  0.14835733046E+04  0.50400001928E-02 0.  1.
       -1    1    3    3    0  502 -0.59010438787E+03  0.10366458790E+03  0.23958995028E+04  0.24696768945E+04  0.50400001928E-02 0. -1.
</event>
<event>
 5   0  0.2203998E-07  0.3745961E+04  0.7818609E-02  0.8057852E-01
        2   -1    0    0  501    0  0.00000000000E+00  0.00000000000E+00  0.21614521643E+04  0.21614521643E+04  0.25500000920E-02 0. -1.
       -2   -1    0    0    0  501  0.00000000000E+00  0.00000000000E+00 -0.16230091318E+04  0.16230091318E+04  0.25500000920E-02 0.  1.
    10030    2    1    2    0    0  0.00000000000E+00  0.00000000000E+00  0.53844303251E+03  0.37844612961E+04  0.37459613455E+04 0.  0.
        3    1    3    3  502    0 -0.72913192181E+03 -0.16290367241E+04  0.84309357401E+03  0.19738796297E+04  0.10100000352E+00 0. -1.
       -3    1    3    3    0  502  0.72913192181E+03  0.16290367241E+04 -0.30465054150E+03  0.18105816663E+04  0.10100000352E+00 0.  1.
</event>
<event>
 5   0  0.1370688E-07  0.3780410E+04  0.7818609E-02  0.8050372E-01
       -2   -1    0    0    0  501  0.00000000000E+00  0.00000000000E+00  0.27999433069E+04  0.27999433069E+04  0.25500000920E-02 0.  1.
        2   -1    0    0  501    0  0.00000000000E+00  0.00000000000E+00 -0.12760527938E+04  0.12760527938E+04  0.25500000920E-02 0. -1.
    10030    2    1    2    0    0  0.00000000000E+00  0.00000000000E+00  0.15238905130E+04  0.40759961007E+04  0.37804102842E+04 0.  0.
        5    1    3    3  502    0  0.24087352749E+03  0.39711067579E+03 -0.12135651430E+04  0.12994150189E+04  0.46999998093E+01 0. -1.
       -5    1    3    3    0  502 -0.24087352749E+03 -0.39711067579E+03  0.27374556560E+04  0.27765810818E+04  0.46999998093E+01 0.  1.
</event>
<event>
 5   0  0.6725199E-08  0.3879344E+04  0.7818609E-02  0.8029339E-01
        1   -1    0    0  501    0  0.00000000000E+00  0.00000000000E+00  0.16016661949E+04  0.16016661949E+04  0.50400001928E-02 0. -1.
       -1   -1    0    0    0  501  0.00000000000E+00  0.00000000000E+00 -0.23490078816E+04  0.23490078816E+04  0.50400001928E-02 0.  1.
    10030    2    1    2    0    0  0.00000000000E+00  0.00000000000E+00 -0.74734168669E+03  0.39506740765E+04  0.38793435092E+04 0.  0.
        5    1    3    3  502    0  0.15979400637E+02 -0.16538112313E+04  0.65835173752E+03  0.17801112410E+04  0.46999998093E+01 0. -1.
       -5    1    3    3    0  502 -0.15979400637E+02  0.16538112313E+04 -0.14056934242E+04  0.21705628355E+04  0.46999998093E+01 0.  1.
</event>
<event>
 5   0  0.2203998E-07  0.3815038E+04  0.7818609E-02  0.8042935E-01
        2   -1    0    0  501    0  0.00000000000E+00  0.00000000000E+00  0.23695634433E+04  0.23695634433E+04  0.25500000920E-02 0.  1.
       -2   -1    0    0    0  501  0.00000000000E+00  0.00000000000E+00 -0.15355695444E+04  0.15355695444E+04  0.25500000920E-02 0. -1.
    10030    2    1    2    0    0  0.00000000000E+00  0.00000000000E+00  0.83399389891E+03  0.39051329877E+04  0.38150383783E+04 0.  0.
        3    1    3    3  502    0  0.22777619349E+03 -0.12077775078E+04  0.19102206208E+04  0.22714645789E+04  0.10100000352E+00 0.  1.
       -3    1    3    3    0  502 -0.22777619349E+03  0.12077775078E+04 -0.10762267219E+04  0.16336684088E+04  0.10100000352E+00 0. -1.
</event>
<event>
 5   0  0.2135314E-07  0.3787961E+04  0.7818609E-02  0.8048743E-01
       -2   -1    0    0    0  501  0.00000000000E+00  0.00000000000E+00  0.15920453615E+04  0.15920453615E+04  0.25500000920E-02 0.  1.
        2   -1    0    0  501    0  0.00000000000E+00  0.00000000000E+00 -0.22531785787E+04  0.22531785787E+04  0.25500000920E-02 0. -1.
    10030    2    1    2    0    0  0.00000000000E+00  0.00000000000E+00 -0.66113321718E+03  0.38452239402E+04  0.37879611956E+04 0.  0.
        4    1    3    3  502    0  0.51963899191E+03 -0.13934561332E+04  0.85994377081E+03  0.17179201317E+04  0.12699999809E+01 0.  1.
       -4    1    3    3    0  502 -0.51963899191E+03  0.13934561332E+04 -0.15210769880E+04  0.21273038085E+04  0.12699999809E+01 0. -1.
</event>
<event>
 5   0  0.1370688E-07  0.3732927E+04  0.7818609E-02  0.8060704E-01
        2   -1    0    0  501    0  0.00000000000E+00  0.00000000000E+00  0.10222120343E+04  0.10222120343E+04  0.25500000920E-02 0.  1.
       -2   -1    0    0    0  501  0.00000000000E+00  0.00000000000E+00 -0.34079882243E+04  0.34079882243E+04  0.25500000920E-02 0. -1.
    10030    2    1    2    0    0  0.00000000000E+00  0.00000000000E+00 -0.23857761900E+04  0.44302002587E+04  0.37329273102E+04 0.  0.
        5    1    3    3  502    0 -0.38164251722E+03 -0.50536629303E+03 -0.32765809717E+04  0.33372220566E+04  0.46999998093E+01 0. -1.
       -5    1    3    3    0  502  0.38164251722E+03  0.50536629303E+03  0.89080478170E+03  0.10929782021E+04  0.46999998093E+01 0.  1.
</event>
<event>
 5   0  0.6725199E-08  0.3752123E+04  0.7818609E-02  0.8056508E-01
       -1   -1    0    0    0  501  0.00000000000E+00  0.00000000000E+00  0.12428047573E+04  0.12428047573E+04  0.50400001928E-02 0.  1.
        1   -1    0    0  501    0  0.00000000000E+00  0.00000000000E+00 -0.28319873239E+04  0.28319873239E+04  0.50400001928E-02 0. -1.
    10030    2    1    2    0    0  0.00000000000E+00  0.00000000000E+00 -0.15891825666E+04  0.40747920812E+04  0.37521233022E+04 0.  0.
        5    1    3    3  502    0  0.39849842545E+03  0.17075378783E+04 -0.70061105002E+02  0.17548268431E+04  0.46999998093E+01 0.  1.
       -5    1    3    3    0  502 -0.39849842545E+03 -0.17075378783E+04 -0.15191214616E+04  0.23199652381E+04  0.46999998093E+01 0. -1.
</event>
<event>
 5   0  0.2203998E-07  0.3788353E+04  0.7818609E-02  0.8048659E-01
       -2   -1    0    0    0  501  0.00000000000E+00  0.00000000000E+00  0.13888546275E+04  0.13888546275E+04  0.25500000920E-02 0. -1.
        2   -1    0    0  501    0  0.00000000000E+00  0.00000000000E+00 -0.25833544087E+04  0.25833544087E+04  0.25500000920E-02 0.  1.
    10030    2    1    2    0    0  0.00000000000E+00  0.00000000000E+00 -0.11944997812E+04  0.39722090362E+04  0.37883525311E+04 0.  0.
        3    1    3    3  502    0  0.18619452342E+03 -0.70951785535E+03 -0.24283782699E+04  0.25367508785E+04  0.10100000352E+00 0.  1.
       -3    1    3    3    0  502 -0.18619452342E+03  0.70951785535E+03  0.12338784887E+04  0.14354581577E+04  0.10100000352E+00 0. -1.
</event>
<event>
 5   0  0.2081337E-07  0.3759869E+04  0.7818609E-02  0.8054822E-01
        2   -1    0    0  501    0  0.00000000000E+00  0.00000000000E+00  0.24687659221E+04  0.24687659221E+04  0.25500000920E-02 0. -1.
       -2   -1    0    0    0  501  0.00000000000E+00  0.00000000000E+00 -0.14315467021E+04  0.14315467021E+04  0.25500000920E-02 0.  1.
    10030    2    1    2    0    0  0.00000000000E+00  0.00000000000E+00  0.10372192201E+04  0.39003126242E+04  0.37598689945E+04 0.  0.
        1    1    3    3  502    0 -0.14023859000E+04  0.38953470743E+03  0.17528988867E+04  0.22783937341E+04  0.50400001928E-02 0. -1.
       -1    1    3    3    0  502  0.14023859000E+04 -0.38953470743E+03 -0.71567966662E+03  0.16219188901E+04  0.50400001928E-02 0.  1.
</event>
<event>
 5   0  0.2135314E-07  0.3797426E+04  0.7818609E-02  0.8046708E-01
       -2   -1    0    0    0  501  0.00000000000E+00  0.00000000000E+00  0.31773872091E+04  0.31773872091E+04  0.25500000920E-02 0.  1.
        2   -1    0    0  501    0  0.00000000000E+00  0.00000000000E+00 -0.11346148575E+04  0.11346148575E+04  0.25500000920E-02 0. -1.
    10030    2    1    2    0    0  0.00000000000E+00  0.00000000000E+00  0.20427723516E+04  0.43120020667E+04  0.37974258311E+04 0.  0.
        4    1    3    3  502    0  0.87624001727E+03 -0.13224903710E+04 -0.16320996727E+03  0.15948092223E+04  0.12699999809E+01 0. -1.
       -4    1    3    3    0  502 -0.87624001727E+03  0.13224903710E+04  0.22059823189E+04  0.27171928444E+04  0.12699999809E+01 0.  1.
</event>
<event>
 5   0  0.2081337E-07  0.3798805E+04  0.7818609E-02  0.8046411E-01
        2   -1    0    0  501    0  0.00000000000E+00  0.00000000000E+00  0.21661621049E+04  0.21661621049E+04  0.25500000920E-02 0.  1.
       -2   -1    0    0    0  501  0.00000000000E+00  0.00000000000E+00 -0.16654939973E+04  0.16654939973E+04  0.25500000920E-02 0. -1.
    10030    2    1    2    0    0  0.00000000000E+00  0.00000000000E+00  0.50066810759E+03  0.38316561022E+04  0.37988050662E+04 0.  0.
        1    1    3    3  502    0 -0.67253387013E+03 -0.10784008665E+04 -0.11734249147E+04  0.17297908156E+04  0.50400001928E-02 0. -1.
       -1    1    3    3    0  502  0.67253387013E+03  0.10784008665E+04  0.16740930223E+04  0.21018652865E+04  0.50400001928E-02 0.  1.
</event>
<event>
 5   0  0.2203998E-07  0.3804425E+04  0.7818609E-02  0.8045206E-01
       -2   -1    0    0    0  501  0.00000000000E+00  0.00000000000E+00  0.17404926432E+04  0.17404926433E+04  0.25500000920E-02 0.  1.
        2   -1    0    0  501    0  0.00000000000E+00  0.00000000000E+00 -0.20789585052E+04  0.20789585052E+04  0.25500000920E-02 0. -1.
    10030    2    1    2    0    0  0.00000000000E+00  0.00000000000E+00 -0.33846586197E+03  0.38194511485E+04  0.38044247838E+04 0.  0.
        3    1    3    3  502    0  0.11372901935E+04 -0.11436209804E+04 -0.11817370128E+04  0.19994500015E+04  0.10100000352E+00 0. -1.
       -3    1    3    3    0  502 -0.11372901935E+04  0.11436209804E+04  0.84327115078E+03  0.18200011470E+04  0.10100000352E+00 0.  1.
</event>
<event>
 5   0  0.2205204E-07  0.3805962E+04  0.7818609E-02  0.8044877E-01
        2   -1    0    0  501    0  0.00000000000E+00  0.00000000000E+00  0.25404604998E+04  0.25404604998E+04  0.25500000920E-02 0. -1.
       -2   -1    0    0    0  501  0.00000000000E+00  0.00000000000E+00 -0.14254647159E+04  0.14254647159E+04  0.25500000920E-02 0.  1.
    10030    2    1    2    0    0  0.00000000000E+00  0.00000000000E+00  0.11149957839E+04  0.39659252157E+04  0.38059620621E+04 0.  0.
        2    1    3    3  502    0 -0.60882148445E+03 -0.18028198595E+04  0.53387898922E+03  0.19763222968E+04  0.25500000920E-02 0. -1.
       -2    1    3    3    0  502  0.60882148445E+03  0.18028198595E+04  0.58111679472E+03  0.19896029189E+04  0.25500000920E-02 0.  1.
</event>
<event>
 5   0  0.2081337E-07  0.3830338E+04  0.7818609E-02  0.8039676E-01
        2   -1    0    0  501    0  0.00000000000E+00  0.00000000000E+00  0.23569824955E+04  0.23569824955E+04  0.25500000920E-02 0.  1.
       -2   -1    0    0    0  501  0.00000000000E+00  0.00000000000E+00 -0.15561732419E+04  0.15561732419E+04  0.25500000920E-02 0. -1.
    10030    2    1    2    0    0  0.00000000000E+00  0.00000000000E+00  0.80080925363E+03  0.39131557374E+04  0.38303384138E+04 0.  0.
        1    1    3    3  502    0  0.12515295191E+04  0.98256260148E+03  0.14893388502E+04  0.21794232296E+04  0.50400001928E-02 0.  1.
       -1    1    3    3    0  502 -0.12515295191E+04 -0.98256260148E+03 -0.68852959660E+03  0.17337325077E+04  0.50400001928E-02 0. -1.
</event>
<event>
 5   0  0.2205204E-07  0.3977523E+04  0.7818609E-02  0.8009096E-01
        2   -1    0    0  501    0  0.00000000000E+00  0.00000000000E+00  0.16190067382E+04  0.16190067382E+04  0.25500000920E-02 0.  1.
       -2   -1    0    0    0  501  0.00000000000E+00  0.00000000000E+00 -0.24429622625E+04  0.24429622625E+04  0.25500000920E-02 0. -1.
    10030    2    1    2    0    0  0.00000000000E+00  0.00000000000E+00 -0.82395552432E+03  0.40619690006E+04  0.39775230302E+04 0.  0.
        2    1    3    3  502    0  0.17870780527E+04  0.14192951513E+03  0.46733718355E+03  0.18526186863E+04  0.25500000920E-02 0.  1.
       -2    1    3    3    0  502 -0.17870780527E+04 -0.14192951513E+03 -0.12912927079E+04  0.22093503143E+04  0.25500000920E-02 0. -1.
</event>
<event>
 5   0  0.6661000E-08  0.3785085E+04  0.7818609E-02  0.8049363E-01
        1   -1    0    0  501    0  0.00000000000E+00  0.00000000000E+00  0.24042625374E+04  0.24042625374E+04  0.50400001928E-02 0.  1.
       -1   -1    0    0    0  501  0.00000000000E+00  0.00000000000E+00 -0.14897362085E+04  0.14897362085E+04  0.50400001928E-02 0. -1.
    10030    2    1    2    0    0  0.00000000000E+00  0.00000000000E+00  0.91452632893E+03  0.38939987460E+04  0.37850849168E+04 0.  0.
        4    1    3    3  502    0 -0.45832497004E+03 -0.33195449869E+01 -0.14317759169E+04  0.15033484915E+04  0.12699999809E+01 0. -1.
       -4    1    3    3    0  502  0.45832497004E+03  0.33195449869E+01  0.23463022459E+04  0.23906502545E+04  0.12699999809E+01 0.  1.
</event>
<event>
 5   0  0.6661000E-08  0.3794906E+04  0.7818609E-02  0.8047249E-01
       -1   -1    0    0    0  501  0.00000000000E+00  0.00000000000E+00  0.27010556568E+04  0.27010556568E+04  0.50400001928E-02 0.  1.
        1   -1    0    0  501    0  0.00000000000E+00  0.00000000000E+00 -0.13329333701E+04  0.13329333701E+04  0.50400001928E-02 0. -1.
    10030    2    1    2    0    0  0.00000000000E+00  0.00000000000E+00  0.13681222867E+04  0.40339890269E+04  0.37949056481E+04 0.  0.
        2    1    3    3  502    0  0.98847868906E+03 -0.14297543353E+04  0.14929481856E+04  0.22913275328E+04  0.25500000920E-02 0.  1.
       -2    1    3    3    0  502 -0.98847868906E+03  0.14297543353E+04 -0.12482589888E+03  0.17426614941E+04  0.25500000920E-02 0. -1.
</event>
<event>
 5   0  0.6661000E-08  0.3793740E+04  0.7818609E-02  0.8047500E-01
        1   -1    0    0  501    0  0.00000000000E+00  0.00000000000E+00  0.17013784433E+04  0.17013784433E+04  0.50400001928E-02 0.  1.
       -1   -1    0    0    0  501  0.00000000000E+00  0.00000000000E+00 -0.21148238801E+04  0.21148238801E+04  0.50400001928E-02 0. -1.
    10030    2    1    2    0    0  0.00000000000E+00  0.00000000000E+00 -0.41344543674E+03  0.38162023234E+04  0.37937399811E+04 0.  0.
        2    1    3    3  502    0  0.20627719747E+03 -0.86395497468E+02  0.16880705592E+04  0.17028202128E+04  0.25500000920E-02 0.  1.
       -2    1    3    3    0  502 -0.20627719747E+03  0.86395497468E+02 -0.21015159960E+04  0.21133821106E+04  0.25500000920E-02 0. -1.
</event>
<event>
 5   0  0.6725199E-08  0.3751084E+04  0.7818609E-02  0.8056734E-01
       -1   -1    0    0    0  501  0.00000000000E+00  0.00000000000E+00  0.17859332830E+04  0.17859332830E+04  0.50400001928E-02 0. -1.
        1   -1    0    0  501    0  0.00000000000E+00  0.00000000000E+00 -0.19696465489E+04  0.19696465489E+04  0.50400001928E-02 0.  1.
    10030    2    1    2    0    0  0.00000000000E+00  0.00000000000E+00 -0.18371326594E+03  0.37555798319E+04  0.37510837514E+04 0.  0.
        5    1    3    3  502    0  0.51088923573E+03  0.13950371497E+04 -0.12379989495E+04  0.19338562380E+04  0.46999998093E+01 0.  1.
       -5    1    3    3    0  502 -0.51088923573E+03 -0.13950371497E+04  0.10542856835E+04  0.18217235939E+04  0.46999998093E+01 0. -1.
</event>
<event>
 5   0  0.2203998E-07  0.3825761E+04  0.7818609E-02  0.8040649E-01
       -2   -1    0    0    0  501  0.00000000000E+00  0.00000000000E+00  0.20166377796E+04  0.20166377796E+04  0.25500000920E-02 0. -1.
        2   -1    0    0  501    0  0.00000000000E+00  0.00000000000E+00 -0.18144619857E+04  0.18144619857E+04  0.25500000920E-02 0.  1.
    10030    2    1    2    0    0  0.00000000000E+00  0.00000000000E+00  0.20217579391E+03  0.38310997652E+04  0.38257614091E+04 0.  0.
        3    1    3    3  502    0 -0.55060284405E+03  0.25736052684E+03  0.19173758137E+04  0.20113995013E+04  0.10100000352E+00 0. -1.
       -3    1    3    3    0  502  0.55060284405E+03 -0.25736052684E+03 -0.17152000198E+04  0.18197002640E+04  0.10100000352E+00 0.  1.
</event>
<event>
 5   0  0.6661000E-08  0.3768520E+04  0.7818609E-02  0.8052944E-01
       -3   -1    0    0    0  501  0.00000000000E+00  0.00000000000E+00  0.12532474148E+04  0.12532474189E+04  0.10100000352E+00 0.  1.
        3   -1    0    0  501    0  0.00000000000E+00  0.00000000000E+00 -0.28329884129E+04  0.28329884147E+04  0.10100000352E+00 0. -1.
    10030    2    1    2    0    0  0.00000000000E+00  0.00000000000E+00 -0.15797409980E+04  0.40862358336E+04  0.37685198244E+04 0.  0.
        2    1    3    3  502    0  0.56624183230E+03  0.65978565962E+03 -0.26024780552E+04  0.27438729849E+04  0.25500000920E-02 0. -1.
       -2    1    3    3    0  502 -0.56624183230E+03 -0.65978565962E+03  0.10227370572E+04  0.13423628487E+04  0.25500000920E-02 0.  1.
</event>
<event>
 5   0  0.2203998E-07  0.3802218E+04  0.7818609E-02  0.8045679E-01
       -2   -1    0    0    0  501  0.00000000000E+00  0.00000000000E+00  0.12037918902E+04  0.12037918902E+04  0.25500000920E-02 0. -1.
        2   -1    0    0  501    0  0.00000000000E+00  0.00000000000E+00 -0.30023584112E+04  0.30023584112E+04  0.25500000920E-02 0.  1.
    10030    2    1    2    0    0  0.00000000000E+00  0.00000000000E+00 -0.17985665210E+04  0.42061503014E+04  0.38022176197E+04 0.  0.
        3    1    3    3  502    0 -0.10011814117E+04  0.15690623985E+04 -0.47099175616E+03  0.19199360078E+04  0.10100000352E+00 0.  1.
       -3    1    3    3    0  502  0.10011814117E+04 -0.15690623985E+04 -0.13275747649E+04  0.22862142936E+04  0.10100000352E+00 0. -1.
</event>
<event>
 5   0  0.6661000E-08  0.3748461E+04  0.7818609E-02  0.8057306E-01
       -1   -1    0    0    0  501  0.00000000000E+00  0.00000000000E+00  0.16399919119E+04  0.16399919119E+04  0.50400001928E-02 0. -1.
        1   -1    0    0  501    0  0.00000000000E+00  0.00000000000E+00 -0.21419249091E+04  0.21419249091E+04  0.50400001928E-02 0.  1.
    10030    2    1    2    0    0  0.00000000000E+00  0.00000000000E+00 -0.50193299721E+03  0.37819168210E+04  0.37484607650E+04 0.  0.
        3    1    3    3  502    0  0.15545687371E+04  0.87418317518E+03  0.33024744182E+03  0.18138201579E+04  0.10100000352E+00 0. -1.
       -3    1    3    3    0  502 -0.15545687371E+04 -0.87418317518E+03 -0.83218043903E+03  0.19680966631E+04  0.10100000352E+00 0.  1.
</event>
<event>
 5   0  0.6661000E-08  0.3831645E+04  0.7818609E-02  0.8039398E-01
        1   -1    0    0  501    0  0.00000000000E+00  0.00000000000E+00  0.13405219777E+04  0.13405219777E+04  0.50400001928E-02 0.  1.
       -1   -1    0    0    0  501  0.00000000000E+00  0.00000000000E+00 -0.27380201655E+04  0.27380201655E+04  0.50400001928E-02 0. -1.
    10030    2    1    2    0    0  0.00000000000E+00  0.00000000000E+00 -0.13974981878E+04  0.40785421432E+04  0.38316451856E+04 0.  0.
        2    1    3    3  502    0 -0.14088655782E+04 -0.55134509145E+03 -0.19498546316E+04  0.24679580044E+04  0.25500000920E-02 0. -1.
       -2    1    3    3    0  502  0.14088655782E+04  0.55134509145E+03  0.55235644372E+03  0.16105841388E+04  0.25500000920E-02 0.  1.
</event>
<event>
 5   0  0.6725199E-08  0.3693094E+04  0.7818609E-02  0.8069494E-01
        1   -1    0    0  501    0  0.00000000000E+00  0.00000000000E+00  0.18473572553E+04  0.18473572554E+04  0.50400001928E-02 0. -1.
       -1   -1    0    0    0  501  0.00000000000E+00  0.00000000000E+00 -0.18457367616E+04  0.18457367616E+04  0.50400001928E-02 0.  1.
    10030    2    1    2    0    0  0.00000000000E+00  0.00000000000E+00  0.16204937160E+01  0.36930940170E+04  0.36930936615E+04 0.  0.
        5    1    3    3  502    0 -0.15705462252E+04  0.11483236980E+03  0.96512936858E+03  0.18469701423E+04  0.46999998093E+01 0. -1.
       -5    1    3    3    0  502  0.15705462252E+04 -0.11483236980E+03 -0.96350887487E+03  0.18461238746E+04  0.46999998093E+01 0.  1.
</event>
<event>
 5   0  0.2135314E-07  0.3788804E+04  0.7818609E-02  0.8048562E-01
       -2   -1    0    0    0  501  0.00000000000E+00  0.00000000000E+00  0.15789239814E+04  0.15789239814E+04  0.25500000920E-02 0.  1.
        2   -1    0    0  501    0  0.00000000000E+00  0.00000000000E+00 -0.22729139762E+04  0.22729139762E+04  0.25500000920E-02 0. -1.
    10030    2    1    2    0    0  0.00000000000E+00  0.00000000000E+00 -0.69398999485E+03  0.38518379576E+04  0.37888037081E+04 0.  0.
        4    1    3    3  502    0 -0.92717170707E+03 -0.11076313805E+04 -0.15930544423E+04  0.21504229162E+04  0.12699999809E+01 0. -1.
       -4    1    3    3    0  502  0.92717170707E+03  0.11076313805E+04  0.89906444740E+03  0.17014150414E+04  0.12699999809E+01 0.  1.
</event>
<event>
 5   0  0.2135314E-07  0.3792376E+04  0.7818609E-02  0.8047793E-01
       -2   -1    0    0    0  501  0.00000000000E+00  0.00000000000E+00  0.10509241047E+04  0.10509241047E+04  0.25500000920E-02 0. -1.
        2   -1    0    0  501    0  0.00000000000E+00  0.00000000000E+00 -0.34213014992E+04  0.34213014992E+04  0.25500000920E-02 0.  1.
    10030    2    1    2    0    0  0.00000000000E+00  0.00000000000E+00 -0.23703773945E+04  0.44722256040E+04  0.37923756222E+04 0.  0.
        4    1    3    3  502    0 -0.17528526176E+04 -0.67139323489E+02 -0.33601236060E+03  0.17860307689E+04  0.12699999809E+01 0. -1.
       -4    1    3    3    0  502  0.17528526176E+04  0.67139323489E+02 -0.20343650339E+04  0.26861948351E+04  0.12699999809E+01 0.  1.
</event>
<event>
 5   0  0.2203998E-07  0.3813608E+04  0.7818609E-02  0.8043241E-01
        2   -1    0    0  501    0  0.00000000000E+00  0.00000000000E+00  0.23773503489E+04  0.23773503489E+04  0.25500000920E-02 0.  1.
       -2   -1    0    0    0  501  0.00000000000E+00  0.00000000000E+00 -0.15293924026E+04  0.15293924026E+04  0.25500000920E-02 0. -1.
    10030    2    1    2    0    0  0.00000000000E+00  0.00000000000E+00  0.84795794632E+03  0.39067427515E+04  0.38136080354E+04 0.  0.
        3    1    3    3  502    0 -0.10622249232E+04  0.13603600860E+04  0.12543295890E+04  0.21335988562E+04  0.10100000352E+00 0.  1.
       -3    1    3    3    0  502  0.10622249232E+04 -0.13603600860E+04 -0.40637164271E+03  0.17731438953E+04  0.10100000352E+00 0. -1.
</event>
<event>
 5   0  0.6661000E-08  0.3716072E+04  0.7818609E-02  0.8064409E-01
        1   -1    0    0  501    0  0.00000000000E+00  0.00000000000E+00  0.18648017994E+04  0.18648017994E+04  0.50400001928E-02 0. -1.
       -1   -1    0    0    0  501  0.00000000000E+00  0.00000000000E+00 -0.18512947938E+04  0.18512947938E+04  0.50400001928E-02 0.  1.
    10030    2    1    2    0    0  0.00000000000E+00  0.00000000000E+00  0.13507005551E+02  0.37160965932E+04  0.37160720460E+04 0.  0.
        4    1    3    3  502    0  0.80651897796E+03 -0.96043196142E+03 -0.13641654098E+04  0.18530653773E+04  0.12699999809E+01 0.  1.
       -4    1    3    3    0  502 -0.80651897796E+03  0.96043196142E+03  0.13776724154E+04  0.18630312159E+04  0.12699999809E+01 0. -1.
</event>
<event>
 5   0  0.2135314E-07  0.3781806E+04  0.7818609E-02  0.8050071E-01
       -2   -1    0    0    0  501  0.00000000000E+00  0.00000000000E+00  0.17362939954E+04  0.17362939954E+04  0.25500000920E-02 0.  1.
        2   -1    0    0  501    0  0.00000000000E+00  0.00000000000E+00 -0.20592791993E+04  0.20592791993E+04  0.25500000920E-02 0. -1.
    10030    2    1    2    0    0  0.00000000000E+00  0.00000000000E+00 -0.32298520384E+03  0.37955731947E+04  0.37818059752E+04 0.  0.
        4    1    3    3  502    0  0.27231802712E+03  0.84469855165E+03 -0.18372534127E+04  0.20403858621E+04  0.12699999809E+01 0. -1.
       -4    1    3    3    0  502 -0.27231802712E+03 -0.84469855165E+03  0.15142682089E+04  0.17551873325E+04  0.12699999809E+01 0.  1.
</event>
<event>
 5   0  0.6661000E-08  0.3810128E+04  0.7818609E-02  0.8043985E-01
       -1   -1    0    0    0  501  0.00000000000E+00  0.00000000000E+00  0.27556470593E+04  0.27556470593E+04  0.50400001928E-02 0.  1.
        1   -1    0    0  501    0  0.00000000000E+00  0.00000000000E+00 -0.13170293008E+04  0.13170293009E+04  0.50400001928E-02 0. -1.
    10030    2    1    2    0    0  0.00000000000E+00  0.00000000000E+00  0.14386177585E+04  0.40726763602E+04  0.38101275149E+04 0.  0.
        2    1    3    3  502    0 -0.13938494781E+04 -0.62489691366E+03 -0.49753655496E+03  0.16065040130E+04  0.25500000920E-02 0. -1.
       -2    1    3    3    0  502  0.13938494781E+04  0.62489691366E+03  0.19361543134E+04  0.24661723471E+04  0.25500000920E-02 0.  1.
</event>
<event>
 5   0  0.2081337E-07  0.3838882E+04  0.7818609E-02  0.8037862E-01
        2   -1    0    0  501    0  0.00000000000E+00  0.00000000000E+00  0.23359806041E+04  0.23359806041E+04  0.25500000920E-02 0. -1.
       -2   -1    0    0    0  501  0.00000000000E+00  0.00000000000E+00 -0.15771766817E+04  0.15771766817E+04  0.25500000920E-02 0.  1.
    10030    2    1    2    0    0  0.00000000000E+00  0.00000000000E+00  0.75880392236E+03  0.39131572858E+04  0.38388822007E+04 0.  0.
        1    1    3    3  502    0  0.13340832229E+03  0.49096982347E+03 -0.15071921813E+04  0.15907474404E+04  0.50400001928E-02 0.  1.
       -1    1    3    3    0  502 -0.13340832229E+03 -0.49096982347E+03  0.22659961036E+04  0.23224098453E+04  0.50400001928E-02 0. -1.
</event>
<event>
 5   0  0.1370688E-07  0.3806674E+04  0.7818609E-02  0.8044724E-01
       -2   -1    0    0    0  501  0.00000000000E+00  0.00000000000E+00  0.31467551787E+04  0.31467551787E+04  0.25500000920E-02 0. -1.
        2   -1    0    0  501    0  0.00000000000E+00  0.00000000000E+00 -0.11512468378E+04  0.11512468378E+04  0.25500000920E-02 0.  1.
    10030    2    1    2    0    0  0.00000000000E+00  0.00000000000E+00  0.19955083409E+04  0.42980020166E+04  0.38066741121E+04 0.  0.
        5    1    3    3  502    0  0.87631511347E+03  0.11722087393E+04  0.23716373715E+04  0.27868777186E+04  0.46999998093E+01 0. -1.
       -5    1    3    3    0  502 -0.87631511347E+03 -0.11722087393E+04 -0.37612903055E+03  0.15111242980E+04  0.46999998093E+01 0.  1.
</event>
<event>
 5   0  0.6661000E-08  0.3793309E+04  0.7818609E-02  0.8047592E-01
       -1   -1    0    0    0  501  0.00000000000E+00  0.00000000000E+00  0.13742432421E+04  0.13742432421E+04  0.50400001928E-02 0.  1.
        1   -1    0    0  501    0  0.00000000000E+00  0.00000000000E+00 -0.26176570297E+04  0.26176570297E+04  0.50400001928E-02 0. -1.
    10030    2    1    2    0    0  0.00000000000E+00  0.00000000000E+00 -0.12434137876E+04  0.39919002719E+04  0.37933085734E+04 0.  0.
        4    1    3    3  502    0 -0.55400034788E+03  0.35032862831E+03  0.12512598219E+04  0.14125506321E+04  0.12699999809E+01 0.  1.
       -4    1    3    3    0  502  0.55400034788E+03 -0.35032862831E+03 -0.24946736096E+04  0.25793496398E+04  0.12699999809E+01 0. -1.
</event>
<event>
 5   0  0.6661000E-08  0.3905276E+04  0.7818609E-02  0.8023933E-01
        1   -1    0    0  501    0  0.00000000000E+00  0.00000000000E+00  0.28813553659E+04  0.28813553659E+04  0.50400001928E-02 0.  1.
       -1   -1    0    0    0  501  0.00000000000E+00  0.00000000000E+00 -0.13232645114E+04  0.13232645114E+04  0.50400001928E-02 0. -1.
    10030    2    1    2    0    0  0.00000000000E+00  0.00000000000E+00  0.15580908545E+04  0.42046198773E+04  0.39052760724E+04 0.  0.
        4    1    3    3  502    0 -0.50245180587E+03 -0.79140265496E+03 -0.10651475501E+04  0.14189139847E+04  0.12699999809E+01 0. -1.
       -4    1    3    3    0  502  0.50245180587E+03  0.79140265496E+03  0.26232384047E+04  0.27857058926E+04  0.12699999809E+01 0.  1.
</event>
<event>
 5   0  0.6661000E-08  0.3798132E+04  0.7818609E-02  0.8046556E-01
       -1   -1    0    0    0  501  0.00000000000E+00  0.00000000000E+00  0.13265487777E+04  0.13265487777E+04  0.50400001928E-02 0.  1.
        1   -1    0    0  501    0  0.00000000000E+00  0.00000000000E+00 -0.27186731794E+04  0.27186731794E+04  0.50400001928E-02 0. -1.
    10030    2    1    2    0    0  0.00000000000E+00  0.00000000000E+00 -0.13921244017E+04  0.40452219571E+04  0.37981324795E+04 0.  0.
        4    1    3    3  502    0  0.18522067212E+03  0.18767866139E+04 -0.45834648867E+03  0.19408033924E+04  0.12699999809E+01 0.  1.
       -4    1    3    3    0  502 -0.18522067212E+03 -0.18767866139E+04 -0.93377791306E+03  0.21044185647E+04  0.12699999809E+01 0. -1.
</event>
<event>
 5   0  0.2135314E-07  0.3798231E+04  0.7818609E-02  0.8046535E-01
       -2   -1    0    0    0  501  0.00000000000E+00  0.00000000000E+00  0.31109619863E+04  0.31109619863E+04  0.25500000920E-02 0. -1.
        2   -1    0    0  501    0  0.00000000000E+00  0.00000000000E+00 -0.11593327396E+04  0.11593327396E+04  0.25500000920E-02 0.  1.
    10030    2    1    2    0    0  0.00000000000E+00  0.00000000000E+00  0.19516292467E+04  0.42702947260E+04  0.37982312107E+04 0.  0.
        4    1    3    3  502    0  0.11139579535E+04  0.73189346010E+03  0.24967476081E+04  0.28302509766E+04  0.12699999809E+01 0. -1.
       -4    1    3    3    0  502 -0.11139579535E+04 -0.73189346010E+03 -0.54511836141E+03  0.14400437493E+04  0.12699999809E+01 0.  1.
</event>
<event>
 5   0  0.6661000E-08  0.3818106E+04  0.7818609E-02  0.8042280E-01
       -1   -1    0    0    0  501  0.00000000000E+00  0.00000000000E+00  0.16067695438E+04  0.16067695438E+04  0.50400001928E-02 0.  1.
        1   -1    0    0  501    0  0.00000000000E+00  0.00000000000E+00 -0.22682055616E+04  0.22682055616E+04  0.50400001928E-02 0. -1.
    10030    2    1    2    0    0  0.00000000000E+00  0.00000000000E+00 -0.66143601774E+03  0.38749751054E+04  0.38181061355E+04 0.  0.
        1    1    3    3  502    0 -0.76943634396E+03 -0.26183705961E+03  0.14224055249E+04  0.16382394241E+04  0.50400001928E-02 0.  1.
       -1    1    3    3    0  502  0.76943634396E+03  0.26183705961E+03 -0.20838415427E+04  0.22367356813E+04  0.50400001928E-02 0. -1.
</event>
<event>
 5   0  0.2081337E-07  0.3783632E+04  0.7818609E-02  0.8049677E-01
        2   -1    0    0  501    0  0.00000000000E+00  0.00000000000E+00  0.14510210763E+04  0.14510210763E+04  0.25500000920E-02 0.  1.
       -2   -1    0    0    0  501  0.00000000000E+00  0.00000000000E+00 -0.24665166240E+04  0.24665166240E+04  0.25500000920E-02 0. -1.
    10030    2    1    2    0    0  0.00000000000E+00  0.00000000000E+00 -0.10154955477E+04  0.39175377003E+04  0.37836319094E+04 0.  0.
        1    1    3    3  502    0  0.13152861408E+04 -0.11464052751E+03  0.89513896234E+03  0.15951156211E+04  0.50400001928E-02 0.  1.
       -1    1    3    3    0  502 -0.13152861408E+04  0.11464052751E+03 -0.19106345100E+04  0.23224220792E+04  0.50400001928E-02 0. -1.
</event>
<event>
 5   0  0.6725199E-08  0.3803639E+04  0.7818609E-02  0.8045374E-01
        1   -1    0    0  501    0  0.00000000000E+00  0.00000000000E+00  0.18411329583E+04  0.18411329583E+04  0.50400001928E-02 0.  1.
       -1   -1    0    0    0  501  0.00000000000E+00  0.00000000000E+00 -0.19645061190E+04  0.19645061190E+04  0.50400001928E-02 0. -1.
    10030    2    1    2    0    0  0.00000000000E+00  0.00000000000E+00 -0.12337316079E+03  0.38056390773E+04  0.38036387644E+04 0.  0.
        5    1    3    3  502    0  0.12774304587E+04 -0.73762401800E+03  0.11393517647E+04  0.18638836612E+04  0.46999998093E+01 0.  1.
       -5    1    3    3    0  502 -0.12774304587E+04  0.73762401800E+03 -0.12627249255E+04  0.19417554161E+04  0.46999998093E+01 0. -1.
</event>
<event>
 5   0  0.6725199E-08  0.3843152E+04  0.7818609E-02  0.8036957E-01
        1   -1    0    0  501    0  0.00000000000E+00  0.00000000000E+00  0.16179753263E+04  0.16179753263E+04  0.50400001928E-02 0. -1.
       -1   -1    0    0    0  501  0.00000000000E+00  0.00000000000E+00 -0.22821455027E+04  0.22821455027E+04  0.50400001928E-02 0.  1.
    10030    2    1    2    0    0  0.00000000000E+00  0.00000000000E+00 -0.66417017641E+03  0.39001208291E+04  0.38431524115E+04 0.  0.
        5    1    3    3  502    0  0.90496687447E+02 -0.97283126186E+02 -0.22774724433E+04  0.22813497052E+04  0.46999998093E+01 0.  1.
       -5    1    3    3    0  502 -0.90496687447E+02  0.97283126186E+02  0.16133022669E+04  0.16187711239E+04  0.46999998093E+01 0. -1.
</event>
<event>
 5   0  0.2203998E-07  0.3598820E+04  0.7818609E-02  0.8090762E-01
       -2   -1    0    0    0  501  0.00000000000E+00  0.00000000000E+00  0.17280615792E+04  0.17280615792E+04  0.25500000920E-02 0. -1.
        2   -1    0    0  501    0  0.00000000000E+00  0.00000000000E+00 -0.18737045460E+04  0.18737045460E+04  0.25500000920E-02 0.  1.
    10030    2    1    2    0    0  0.00000000000E+00  0.00000000000E+00 -0.14564296680E+03  0.36017661252E+04  0.35988202715E+04 0.  0.
        3    1    3    3  502    0 -0.13944782945E+04  0.70295226157E+03  0.82187069659E+03  0.17647048048E+04  0.10100000352E+00 0. -1.
       -3    1    3    3    0  502  0.13944782945E+04 -0.70295226157E+03 -0.96751366339E+03  0.18370613204E+04  0.10100000352E+00 0.  1.
</event>
<event>
 5   0  0.6661000E-08  0.3486474E+04  0.7818609E-02  0.8117003E-01
        1   -1    0    0  501    0  0.00000000000E+00  0.00000000000E+00  0.10833752915E+04  0.10833752916E+04  0.50400001928E-02 0. -1.
       -1   -1    0    0    0  501  0.00000000000E+00  0.00000000000E+00 -0.28050069731E+04  0.28050069731E+04  0.50400001928E-02 0.  1.
    10030    2    1    2    0    0  0.00000000000E+00  0.00000000000E+00 -0.17216316815E+04  0.38883822646E+04  0.34864740052E+04 0.  0.
        1    1    3    3  502    0  0.35965842650E+03  0.23310356884E+03 -0.27453306590E+04  0.27785845110E+04  0.50400001928E-02 0.  1.
       -1    1    3    3    0  502 -0.35965842650E+03 -0.23310356884E+03  0.10236989774E+04  0.11097977537E+04  0.50400001928E-02 0. -1.
</event>
<event>
 5   0  0.6725199E-08  0.3859726E+04  0.7818609E-02  0.8033458E-01
        1   -1    0    0  501    0  0.00000000000E+00  0.00000000000E+00  0.11507136363E+04  0.11507136363E+04  0.50400001928E-02 0.  1.
       -1   -1    0    0    0  501  0.00000000000E+00  0.00000000000E+00 -0.32365748635E+04  0.32365748635E+04  0.50400001928E-02 0. -1.
    10030    2    1    2    0    0  0.00000000000E+00  0.00000000000E+00 -0.20858612272E+04  0.43872884998E+04  0.38597258091E+04 0.  0.
        5    1    3    3  502    0  0.42365758116E+02  0.17573139627E+04 -0.13756947923E+03  0.17632057942E+04  0.46999998093E+01 0.  1.
       -5    1    3    3    0  502 -0.42365758116E+02 -0.17573139627E+04 -0.19482917480E+04  0.26240827057E+04  0.46999998093E+01 0. -1.
</event>
<event>
 5   0  0.6661000E-08  0.3771599E+04  0.7818609E-02  0.8052277E-01
       -3   -1    0    0    0  501  0.00000000000E+00  0.00000000000E+00  0.14467469656E+04  0.14467469691E+04  0.10100000352E+00 0.  1.
        3   -1    0    0  501    0  0.00000000000E+00  0.00000000000E+00 -0.24580937479E+04  0.24580937499E+04  0.10100000352E+00 0. -1.
    10030    2    1    2    0    0  0.00000000000E+00  0.00000000000E+00 -0.10113467823E+04  0.39048407190E+04  0.37715989616E+04 0.  0.
        4    1    3    3  502    0 -0.37521508851E+03  0.84796852853E+03  0.11944093644E+04  0.15121019578E+04  0.12699999809E+01 0.  1.
       -4    1    3    3    0  502  0.37521508851E+03 -0.84796852853E+03 -0.22057561467E+04  0.23927387613E+04  0.12699999809E+01 0. -1.
</event>
<event>
 5   0  0.1370688E-07  0.3780783E+04  0.7818609E-02  0.8050291E-01
        2   -1    0    0  501    0  0.00000000000E+00  0.00000000000E+00  0.16237481842E+04  0.16237481842E+04  0.25500000920E-02 0. -1.
       -2   -1    0    0    0  501  0.00000000000E+00  0.00000000000E+00 -0.22008210988E+04  0.22008210988E+04  0.25500000920E-02 0.  1.
    10030    2    1    2    0    0  0.00000000000E+00  0.00000000000E+00 -0.57707291457E+03  0.38245692829E+04  0.37807825977E+04 0.  0.
        5    1    3    3  502    0 -0.14225367042E+04 -0.10086806406E+04  0.44964758992E+03  0.18009032053E+04  0.46999998093E+01 0. -1.
       -5    1    3    3    0  502  0.14225367042E+04  0.10086806406E+04 -0.10267205045E+04  0.20236660777E+04  0.46999998093E+01 0.  1.
</event>
<event>
 5   0  0.6661000E-08  0.3799324E+04  0.7818609E-02  0.8046300E-01
        1   -1    0    0  501    0  0.00000000000E+00  0.00000000000E+00  0.20224439110E+04  0.20224439110E+04  0.50400001928E-02 0. -1.
       -1   -1    0    0    0  501  0.00000000000E+00  0.00000000000E+00 -0.17843336749E+04  0.17843336749E+04  0.50400001928E-02 0.  1.
    10030    2    1    2    0    0  0.00000000000E+00  0.00000000000E+00  0.23811023616E+03  0.38067775859E+04  0.37993235061E+04 0.  0.
        1    1    3    3  502    0 -0.18346391468E+04  0.17968587583E+03  0.57878749651E+03  0.19321446062E+04  0.50400001928E-02 0. -1.
       -1    1    3    3    0  502  0.18346391468E+04 -0.17968587583E+03 -0.34067726035E+03  0.18746329797E+04  0.50400001928E-02 0.  1.
</event>
<event>
 5   0  0.6725199E-08  0.3634915E+04  0.7818609E-02  0.8082540E-01
       -1   -1    0    0    0  501  0.00000000000E+00  0.00000000000E+00  0.22744067583E+04  0.22744067584E+04  0.50400001928E-02 0. -1.
        1   -1    0    0  501    0  0.00000000000E+00  0.00000000000E+00 -0.14523135366E+04  0.14523135366E+04  0.50400001928E-02 0.  1.
    10030    2    1    2    0    0  0.00000000000E+00  0.00000000000E+00  0.82209322177E+03  0.37267202949E+04  0.36349149772E+04 0.  0.
        5    1    3    3  502    0  0.13857613766E+04  0.13428690197E+03  0.16087823626E+04  0.21275738166E+04  0.46999998093E+01 0. -1.
       -5    1    3    3    0  502 -0.13857613766E+04 -0.13428690197E+03 -0.78668914082E+03  0.15991464783E+04  0.46999998093E+01 0.  1.
</event>
<event>
 5   0  0.6661000E-08  0.3771729E+04  0.7818609E-02  0.8052249E-01
        1   -1    0    0  501    0  0.00000000000E+00  0.00000000000E+00  0.30831605158E+04  0.30831605158E+04  0.50400001928E-02 0. -1.
       -1   -1    0    0    0  501  0.00000000000E+00  0.00000000000E+00 -0.11535192315E+04  0.11535192315E+04  0.50400001928E-02 0.  1.
    10030    2    1    2    0    0  0.00000000000E+00  0.00000000000E+00  0.19296412843E+04  0.42366797473E+04  0.37717290193E+04 0.  0.
        1    1    3    3  502    0  0.16574264527E+04 -0.65788286834E+03  0.16541592395E+04  0.24323065399E+04  0.50400001928E-02 0. -1.
       -1    1    3    3    0  502 -0.16574264527E+04  0.65788286834E+03  0.27548204480E+03  0.18043732074E+04  0.50400001928E-02 0.  1.
</event>
<event>
 5   0  0.2135314E-07  0.3803034E+04  0.7818609E-02  0.8045504E-01
        2   -1    0    0  501    0  0.00000000000E+00  0.00000000000E+00  0.24532134877E+04  0.24532134877E+04  0.25500000920E-02 0.  1.
       -2   -1    0    0    0  501  0.00000000000E+00  0.00000000000E+00 -0.14738899996E+04  0.14738899996E+04  0.25500000920E-02 0. -1.
    10030    2    1    2    0    0  0.00000000000E+00  0.00000000000E+00  0.97932348806E+03  0.39271034873E+04  0.38030339607E+04 0.  0.
        4    1    3    3  502    0 -0.12340414212E+04  0.14103912733E+04  0.82219778728E+03  0.20464780935E+04  0.12699999809E+01 0.  1.
       -4    1    3    3    0  502  0.12340414212E+04 -0.14103912733E+04  0.15712570077E+03  0.18806253938E+04  0.12699999809E+01 0. -1.
</event>
<event>
 5   0  0.1370688E-07  0.3788046E+04  0.7818609E-02  0.8048725E-01
       -2   -1    0    0    0  501  0.00000000000E+00  0.00000000000E+00  0.10864808821E+04  0.10864808821E+04  0.25500000920E-02 0.  1.
        2   -1    0    0  501    0  0.00000000000E+00  0.00000000000E+00 -0.33017821252E+04  0.33017821252E+04  0.25500000920E-02 0. -1.
    10030    2    1    2    0    0  0.00000000000E+00  0.00000000000E+00 -0.22153012431E+04  0.43882630074E+04  0.37880460166E+04 0.  0.
        5    1    3    3  502    0  0.13723706960E+04  0.11928122548E+04 -0.17218463519E+04  0.25041923552E+04  0.46999998093E+01 0.  1.
       -5    1    3    3    0  502 -0.13723706960E+04 -0.11928122548E+04 -0.49345489123E+03  0.18840706521E+04  0.46999998093E+01 0. -1.
</event>
<event>
 5   0  0.6725199E-08  0.3829400E+04  0.7818609E-02  0.8039875E-01
       -1   -1    0    0    0  501  0.00000000000E+00  0.00000000000E+00  0.23803100075E+04  0.23803100075E+04  0.50400001928E-02 0.  1.
        1   -1    0    0  501    0  0.00000000000E+00  0.00000000000E+00 -0.15401677293E+04  0.15401677293E+04  0.50400001928E-02 0. -1.
    10030    2    1    2    0    0  0.00000000000E+00  0.00000000000E+00  0.84014227811E+03  0.39204777368E+04  0.38294002973E+04 0.  0.
        5    1    3    3  502    0 -0.14113202196E+04 -0.12707254047E+04  0.17037124544E+03  0.19067292067E+04  0.46999998093E+01 0.  1.
       -5    1    3    3    0  502  0.14113202196E+04  0.12707254047E+04  0.66977103268E+03  0.20137485301E+04  0.46999998093E+01 0. -1.
</event>
<event>
 5   0  0.2081337E-07  0.3807051E+04  0.7818609E-02  0.8044643E-01
       -2   -1    0    0    0  501  0.00000000000E+00  0.00000000000E+00  0.17942733092E+04  0.17942733092E+04  0.25500000920E-02 0. -1.
        2   -1    0    0  501    0  0.00000000000E+00  0.00000000000E+00 -0.20194301472E+04  0.20194301472E+04  0.25500000920E-02 0.  1.
    10030    2    1    2    0    0  0.00000000000E+00  0.00000000000E+00 -0.22515683800E+03  0.38137034564E+04  0.38070511491E+04 0.  0.
        1    1    3    3  502    0 -0.17473833721E+03  0.14934066688E+04  0.10567713026E+04  0.18378146128E+04  0.50400001928E-02 0. -1.
       -1    1    3    3    0  502  0.17473833721E+03 -0.14934066688E+04 -0.12819281406E+04  0.19758888437E+04  0.50400001928E-02 0.  1.
</event>
<event>
 5   0  0.2081337E-07  0.3852474E+04  0.7818609E-02  0.8034987E-01
       -2   -1    0    0    0  501  0.00000000000E+00  0.00000000000E+00  0.19309507714E+04  0.19309507714E+04  0.25500000920E-02 0.  1.
        2   -1    0    0  501    0  0.00000000000E+00  0.00000000000E+00 -0.19215350105E+04  0.19215350105E+04  0.25500000920E-02 0. -1.
    10030    2    1    2    0    0  0.00000000000E+00  0.00000000000E+00  0.94157608893E+01  0.38524857819E+04  0.38524742755E+04 0.  0.
        1    1    3    3  502    0  0.15104669707E+04 -0.31618031891E+03  0.11574944979E+04  0.19290603869E+04  0.50400001928E-02 0.  1.
       -1    1    3    3    0  502 -0.15104669707E+04  0.31618031891E+03 -0.11480787370E+04  0.19234253950E+04  0.50400001928E-02 0. -1.
</event>
<event>
 5   0  0.2135314E-07  0.3681897E+04  0.7818609E-02  0.8071986E-01
        2   -1    0    0  501    0  0.00000000000E+00  0.00000000000E+00  0.14208216594E+04  0.14208216594E+04  0.25500000920E-02 0.  1.
       -2   -1    0    0    0  501  0.00000000000E+00  0.00000000000E+00 -0.23853039019E+04  0.23853039019E+04  0.25500000920E-02 0. -1.
    10030    2    1    2    0    0  0.00000000000E+00  0.00000000000E+00 -0.96448224246E+03  0.38061255613E+04  0.36818970372E+04 0.  0.
        4    1    3    3  502    0 -0.52111832234E+03  0.17173246165E+04 -0.58128189865E+02  0.17955914467E+04  0.12699999809E+01 0. -1.
       -4    1    3    3    0  502  0.52111832234E+03 -0.17173246165E+04 -0.90635405260E+03  0.20105341146E+04  0.12699999809E+01 0.  1.
</event>
<event>
 5   0  0.2135314E-07  0.3754897E+04  0.7818609E-02  0.8055904E-01
        2   -1    0    0  501    0  0.00000000000E+00  0.00000000000E+00  0.25910123380E+04  0.25910123380E+04  0.25500000920E-02 0. -1.
       -2   -1    0    0    0  501  0.00000000000E+00  0.00000000000E+00 -0.13603996799E+04  0.13603996799E+04  0.25500000920E-02 0.  1.
    10030    2    1    2    0    0  0.00000000000E+00  0.00000000000E+00  0.12306126580E+04  0.39514120179E+04  0.37548967258E+04 0.  0.
        4    1    3    3  502    0 -0.16106473122E+03  0.53729189917E+03 -0.12701628555E+04  0.13885026917E+04  0.12699999809E+01 0.  1.
       -4    1    3    3    0  502  0.16106473122E+03 -0.53729189917E+03  0.25007755135E+04  0.25629093262E+04  0.12699999809E+01 0. -1.
</event>
<event>
 5   0  0.2203998E-07  0.3797047E+04  0.7818609E-02  0.8046789E-01
        2   -1    0    0  501    0  0.00000000000E+00  0.00000000000E+00  0.18098647089E+04  0.18098647089E+04  0.25500000920E-02 0.  1.
       -2   -1    0    0    0  501  0.00000000000E+00  0.00000000000E+00 -0.19915249037E+04  0.19915249037E+04  0.25500000920E-02 0. -1.
    10030    2    1    2    0    0  0.00000000000E+00  0.00000000000E+00 -0.18166019480E+03  0.38013896127E+04  0.37970465576E+04 0.  0.
        3    1    3    3  502    0 -0.64430878320E+03 -0.21551550485E+03 -0.18656550131E+04  0.19855098537E+04  0.10100000352E+00 0. -1.
       -3    1    3    3    0  502  0.64430878320E+03  0.21551550485E+03  0.16839948183E+04  0.18158797590E+04  0.10100000352E+00 0.  1.
</event>
<event>
 5   0  0.6661000E-08  0.3677158E+04  0.7818609E-02  0.8073043E-01
       -1   -1    0    0    0  501  0.00000000000E+00  0.00000000000E+00  0.17236611482E+04  0.17236611482E+04  0.50400001928E-02 0.  1.
        1   -1    0    0  501    0  0.00000000000E+00  0.00000000000E+00 -0.19611583400E+04  0.19611583400E+04  0.50400001928E-02 0. -1.
    10030    2    1    2    0    0  0.00000000000E+00  0.00000000000E+00 -0.23749719182E+03  0.36848194882E+04  0.36771578351E+04 0.  0.
        3    1    3    3  502    0  0.98483104566E+03 -0.32429792383E+03  0.14027400511E+04  0.17443454340E+04  0.10100000352E+00 0.  1.
       -3    1    3    3    0  502 -0.98483104566E+03  0.32429792383E+03 -0.16402372429E+04  0.19404740542E+04  0.10100000352E+00 0. -1.
</event>
<event>
 5   0  0.6661000E-08  0.3791112E+04  0.7818609E-02  0.8048065E-01
       -1   -1    0    0    0  501  0.00000000000E+00  0.00000000000E+00  0.26246550087E+04  0.26246550088E+04  0.50400001928E-02 0.  1.
        1   -1    0    0  501    0  0.00000000000E+00  0.00000000000E+00 -0.13689922489E+04  0.13689922489E+04  0.50400001928E-02 0. -1.
    10030    2    1    2    0    0  0.00000000000E+00  0.00000000000E+00  0.12556627599E+04  0.39936472576E+04  0.37911119018E+04 0.  0.
        4    1    3    3  502    0 -0.10324265978E+04 -0.15891102695E+04  0.67440440548E+03  0.20114668885E+04  0.12699999809E+01 0.  1.
       -4    1    3    3    0  502  0.10324265978E+04  0.15891102695E+04  0.58125835439E+03  0.19821803692E+04  0.12699999809E+01 0. -1.
</event>
<event>
 5   0  0.2203998E-07  0.3794234E+04  0.7818609E-02  0.8047393E-01
       -2   -1    0    0    0  501  0.00000000000E+00  0.00000000000E+00  0.13060859490E+04  0.13060859490E+04  0.25500000920E-02 0.  1.
        2   -1    0    0  501    0  0.00000000000E+00  0.00000000000E+00 -0.27556012225E+04  0.27556012225E+04  0.25500000920E-02 0. -1.
    10030    2    1    2    0    0  0.00000000000E+00  0.00000000000E+00 -0.14495152736E+04  0.40616871715E+04  0.37942335393E+04 0.  0.
        3    1    3    3  502    0  0.99260098605E+03  0.64436994480E+03 -0.23120386239E+04  0.25973047476E+04  0.10100000352E+00 0. -1.
       -3    1    3    3    0  502 -0.99260098605E+03 -0.64436994480E+03  0.86252335036E+03  0.14643824239E+04  0.10100000352E+00 0.  1.
</event>
<event>
 5   0  0.2205204E-07  0.3688920E+04  0.7818609E-02  0.8070422E-01
        2   -1    0    0  501    0  0.00000000000E+00  0.00000000000E+00  0.30085273011E+04  0.30085273011E+04  0.25500000920E-02 0. -1.
       -2   -1    0    0    0  501  0.00000000000E+00  0.00000000000E+00 -0.11307964363E+04  0.11307964363E+04  0.25500000920E-02 0.  1.
    10030    2    1    2    0    0  0.00000000000E+00  0.00000000000E+00  0.18777308648E+04  0.41393237374E+04  0.36889195983E+04 0.  0.
        2    1    3    3  502    0 -0.16914970925E+03  0.94737473369E+02 -0.11193315150E+04  0.11359972947E+04  0.25500000920E-02 0.  1.
       -2    1    3    3    0  502  0.16914970925E+03 -0.94737473369E+02  0.29970623799E+04  0.30033264428E+04  0.25500000920E-02 0. -1.
</event>
<event>
 5   0  0.6661000E-08  0.3794050E+04  0.7818609E-02  0.8047433E-01
        1   -1    0    0  501    0  0.00000000000E+00  0.00000000000E+00  0.17521496723E+04  0.17521496724E+04  0.50400001928E-02 0. -1.
       -1   -1    0    0    0  501  0.00000000000E+00  0.00000000000E+00 -0.20538792482E+04  0.20538792482E+04  0.50400001928E-02 0.  1.
    10030    2    1    2    0    0  0.00000000000E+00  0.00000000000E+00 -0.30172957588E+03  0.38060289206E+04  0.37940500006E+04 0.  0.
        1    1    3    3  502    0 -0.18837267266E+04  0.75222950117E+02 -0.36276375904E+03  0.19198131205E+04  0.50400001928E-02 0. -1.
       -1    1    3    3    0  502  0.18837267266E+04 -0.75222950117E+02  0.61034183160E+02  0.18862158001E+04  0.50400001928E-02 0.  1.
</event>
<event>
 5   0  0.2081337E-07  0.3650999E+04  0.7818609E-02  0.8078909E-01
       -2   -1    0    0    0  501  0.00000000000E+00  0.00000000000E+00  0.14162168285E+04  0.14162168285E+04  0.25500000920E-02 0.  1.
        2   -1    0    0  501    0  0.00000000000E+00  0.00000000000E+00 -0.23530637474E+04  0.23530637474E+04  0.25500000920E-02 0. -1.
    10030    2    1    2    0    0  0.00000000000E+00  0.00000000000E+00 -0.93684691887E+03  0.37692805759E+04  0.36509990291E+04 0.  0.
        1    1    3    3  502    0 -0.16506070128E+04  0.36919312566E+03  0.24058711142E+03  0.17084171718E+04  0.50400001928E-02 0. -1.
       -1    1    3    3    0  502  0.16506070128E+04 -0.36919312566E+03 -0.11774340303E+04  0.20608634041E+04  0.50400001928E-02 0.  1.
</event>
<event>
 5   0  0.6661000E-08  0.3846198E+04  0.7818609E-02  0.8036313E-01
       -1   -1    0    0    0  501  0.00000000000E+00  0.00000000000E+00  0.22073819380E+04  0.22073819380E+04  0.50400001928E-02 0. -1.
        1   -1    0    0  501    0  0.00000000000E+00  0.00000000000E+00 -0.16754282977E+04  0.16754282977E+04  0.50400001928E-02 0.  1.
    10030    2    1    2    0    0  0.00000000000E+00  0.00000000000E+00  0.53195364027E+03  0.38828102357E+04  0.38461982075E+04 0.  0.
        2    1    3    3  502    0 -0.45313948262E+03 -0.18217483727E+04  0.68733177146E+03  0.19991316836E+04  0.25500000920E-02 0.  1.
       -2    1    3    3    0  502  0.45313948262E+03  0.18217483727E+04 -0.15537813119E+03  0.18836785521E+04  0.25500000920E-02 0. -1.
</event>
<event>
 5   0  0.1370688E-07  0.3836422E+04  0.7818609E-02  0.8038384E-01
       -2   -1    0    0    0  501  0.00000000000E+00  0.00000000000E+00  0.22263045837E+04  0.22263045837E+04  0.25500000920E-02 0. -1.
        2   -1    0    0  501    0  0.00000000000E+00  0.00000000000E+00 -0.16527539738E+04  0.16527539738E+04  0.25500000920E-02 0.  1.
    10030    2    1    2    0    0  0.00000000000E+00  0.00000000000E+00  0.57355060988E+03  0.38790585575E+04  0.38364221601E+04 0.  0.
        5    1    3    3  502    0 -0.54937659700E+03  0.57437178344E+03 -0.14784199624E+04  0.16785306867E+04  0.46999998093E+01 0.  1.
       -5    1    3    3    0  502  0.54937659700E+03 -0.57437178344E+03  0.20519705722E+04  0.22005278708E+04  0.46999998093E+01 0. -1.
</event>
<event>
 5   0  0.1370688E-07  0.3800978E+04  0.7818609E-02  0.8045945E-01
       -2   -1    0    0    0  501  0.00000000000E+00  0.00000000000E+00  0.26703799557E+04  0.26703799557E+04  0.25500000920E-02 0. -1.
        2   -1    0    0  501    0  0.00000000000E+00  0.00000000000E+00 -0.13525635409E+04  0.13525635409E+04  0.25500000920E-02 0.  1.
    10030    2    1    2    0    0  0.00000000000E+00  0.00000000000E+00  0.13178164148E+04  0.40229434966E+04  0.38009780680E+04 0.  0.
        5    1    3    3  502    0 -0.13825302919E+04 -0.12619661748E+04  0.10065522779E+04  0.21253513151E+04  0.46999998093E+01 0. -1.
       -5    1    3    3    0  502  0.13825302919E+04  0.12619661748E+04  0.31126413691E+03  0.18975921815E+04  0.46999998093E+01 0.  1.
</event>
<event>
 5   0  0.6661000E-08  0.3839280E+04  0.7818609E-02  0.8037778E-01
       -1   -1    0    0    0  501  0.00000000000E+00  0.00000000000E+00  0.13523170721E+04  0.13523170721E+04  0.50400001928E-02 0.  1.
        1   -1    0    0  501    0  0.00000000000E+00  0.00000000000E+00 -0.27249654041E+04  0.27249654041E+04  0.50400001928E-02 0. -1.
    10030    2    1    2    0    0  0.00000000000E+00  0.00000000000E+00 -0.13726483320E+04  0.40772824762E+04  0.38392797433E+04 0.  0.
        1    1    3    3  502    0 -0.71113147447E+03  0.22968615863E+03 -0.25641442409E+04  0.26708237294E+04  0.50400001928E-02 0. -1.
       -1    1    3    3    0  502  0.71113147447E+03 -0.22968615863E+03  0.11914959089E+04  0.14064587468E+04  0.50400001928E-02 0.  1.
</event>
<event>
 5   0  0.6725199E-08  0.3787995E+04  0.7818609E-02  0.8048736E-01
       -1   -1    0    0    0  501  0.00000000000E+00  0.00000000000E+00  0.15711958897E+04  0.15711958897E+04  0.50400001928E-02 0. -1.
        1   -1    0    0  501    0  0.00000000000E+00  0.00000000000E+00 -0.22831179783E+04  0.22831179783E+04  0.50400001928E-02 0.  1.
    10030    2    1    2    0    0  0.00000000000E+00  0.00000000000E+00 -0.71192208862E+03  0.38543138680E+04  0.37879945001E+04 0.  0.
        5    1    3    3  502    0  0.30438952414E+02 -0.17196881305E+04  0.45098722421E+03  0.17781072415E+04  0.46999998093E+01 0. -1.
       -5    1    3    3    0  502 -0.30438952414E+02  0.17196881305E+04 -0.11629093128E+04  0.20762066265E+04  0.46999998093E+01 0.  1.
</event>
<event>
 5   0  0.2081337E-07  0.3709535E+04  0.7818609E-02  0.8065852E-01
        2   -1    0    0  501    0  0.00000000000E+00  0.00000000000E+00  0.23051191221E+04  0.23051191221E+04  0.25500000920E-02 0. -1.
       -2   -1    0    0    0  501  0.00000000000E+00  0.00000000000E+00 -0.14924009999E+04  0.14924009999E+04  0.25500000920E-02 0.  1.
    10030    2    1    2    0    0  0.00000000000E+00  0.00000000000E+00  0.81271812221E+03  0.37975201221E+04  0.37095347864E+04 0.  0.
        1    1    3    3  502    0  0.99395388992E+03  0.35073555193E+03 -0.11560122034E+04  0.15643925266E+04  0.50400001928E-02 0.  1.
       -1    1    3    3    0  502 -0.99395388992E+03 -0.35073555193E+03  0.19687303256E+04  0.22331275955E+04  0.50400001928E-02 0. -1.
</event>
<event>
 5   0  0.6661000E-08  0.3768408E+04  0.7818609E-02  0.8052969E-01
        1   -1    0    0  501    0  0.00000000000E+00  0.00000000000E+00  0.22020995964E+04  0.22020995964E+04  0.50400001928E-02 0.  1.
       -1   -1    0    0    0  501  0.00000000000E+00  0.00000000000E+00 -0.16121998869E+04  0.16121998869E+04  0.50400001928E-02 0. -1.
    10030    2    1    2    0    0  0.00000000000E+00  0.00000000000E+00  0.58989970954E+03  0.38142994833E+04  0.37684080035E+04 0.  0.
        3    1    3    3  502    0 -0.73295830661E+03 -0.15859824534E+04 -0.41908877333E+03  0.17967202431E+04  0.10100000352E+00 0.  1.
       -3    1    3    3    0  502  0.73295830661E+03  0.15859824534E+04  0.10089884829E+04  0.20175792402E+04  0.10100000352E+00 0. -1.
</event>
<event>
 5   0  0.2205204E-07  0.3805090E+04  0.7818609E-02  0.8045063E-01
       -2   -1    0    0    0  501  0.00000000000E+00  0.00000000000E+00  0.19216765739E+04  0.19216765739E+04  0.25500000920E-02 0.  1.
        2   -1    0    0  501    0  0.00000000000E+00  0.00000000000E+00 -0.18836039978E+04  0.18836039978E+04  0.25500000920E-02 0. -1.
    10030    2    1    2    0    0  0.00000000000E+00  0.00000000000E+00  0.38072576132E+02  0.38052805718E+04  0.38050901052E+04 0.  0.
        2    1    3    3  502    0  0.16099210533E+03 -0.17139248373E+04  0.82915144551E+03  0.19107456464E+04  0.25500000920E-02 0.  1.
       -2    1    3    3    0  502 -0.16099210533E+03  0.17139248373E+04 -0.79107886938E+03  0.18945349253E+04  0.25500000920E-02 0. -1.
</event>
<event>
 5   0  0.6661000E-08  0.3819463E+04  0.7818609E-02  0.8041991E-01
        1   -1    0    0  501    0  0.00000000000E+00  0.00000000000E+00  0.30225929496E+04  0.30225929496E+04  0.50400001928E-02 0.  1.
       -1   -1    0    0    0  501  0.00000000000E+00  0.00000000000E+00 -0.12066043623E+04  0.12066043623E+04  0.50400001928E-02 0. -1.
    10030    2    1    2    0    0  0.00000000000E+00  0.00000000000E+00  0.18159885873E+04  0.42291973119E+04  0.38194627048E+04 0.  0.
        4    1    3    3  502    0  0.16095715986E+04 -0.10243318788E+04  0.10012667019E+04  0.21546491942E+04  0.12699999809E+01 0.  1.
       -4    1    3    3    0  502 -0.16095715986E+04  0.10243318788E+04  0.81472188538E+03  0.20745481176E+04  0.12699999809E+01 0. -1.
</event>
<event>
 5   0  0.6725199E-08  0.3531218E+04  0.7818609E-02  0.8106431E-01
        1   -1    0    0  501    0  0.00000000000E+00  0.00000000000E+00  0.19656188156E+04  0.19656188156E+04  0.50400001928E-02 0.  1.
       -1   -1    0    0    0  501  0.00000000000E+00  0.00000000000E+00 -0.15859512404E+04  0.15859512405E+04  0.50400001928E-02 0. -1.
    10030    2    1    2    0    0  0.00000000000E+00  0.00000000000E+00  0.37966757515E+03  0.35515700561E+04  0.35312182594E+04 0.  0.
        5    1    3    3  502    0 -0.69246257710E+03 -0.11313233457E+04 -0.98219631266E+03  0.16504934474E+04  0.46999998093E+01 0. -1.
       -5    1    3    3    0  502  0.69246257710E+03  0.11313233457E+04  0.13618638878E+04  0.19010766087E+04  0.46999998093E+01 0.  1.
</event>
<event>
 5   0  0.1370688E-07  0.3804863E+04  0.7818609E-02  0.8045112E-01
       -2   -1    0    0    0  501  0.00000000000E+00  0.00000000000E+00  0.16870846234E+04  0.16870846234E+04  0.25500000920E-02 0.  1.
        2   -1    0    0  501    0  0.00000000000E+00  0.00000000000E+00 -0.21452663865E+04  0.21452663865E+04  0.25500000920E-02 0. -1.
    10030    2    1    2    0    0  0.00000000000E+00  0.00000000000E+00 -0.45818176314E+03  0.38323510099E+04  0.38048631691E+04 0.  0.
        5    1    3    3  502    0 -0.55491256082E+03 -0.52608556510E+03  0.15254841510E+04  0.17064049803E+04  0.46999998093E+01 0.  1.
       -5    1    3    3    0  502  0.55491256082E+03  0.52608556510E+03 -0.19836659141E+04  0.21259460296E+04  0.46999998093E+01 0. -1.
</event>
<event>
 5   0  0.6725199E-08  0.3799962E+04  0.7818609E-02  0.8046163E-01
       -1   -1    0    0    0  501  0.00000000000E+00  0.00000000000E+00  0.20514031533E+04  0.20514031533E+04  0.50400001928E-02 0. -1.
        1   -1    0    0  501    0  0.00000000000E+00  0.00000000000E+00 -0.17597361014E+04  0.17597361014E+04  0.50400001928E-02 0.  1.
    10030    2    1    2    0    0  0.00000000000E+00  0.00000000000E+00  0.29166705183E+03  0.38111392547E+04  0.37999622037E+04 0.  0.
        5    1    3    3  502    0  0.18789803835E+04 -0.20145391301E+03 -0.51608763022E+02  0.18904593397E+04  0.46999998093E+01 0. -1.
       -5    1    3    3    0  502 -0.18789803835E+04  0.20145391301E+03  0.34327581485E+03  0.19206799150E+04  0.46999998093E+01 0.  1.
</event>
<event>
 5   0  0.1370688E-07  0.3774393E+04  0.7818609E-02  0.8051673E-01
       -2   -1    0    0    0  501  0.00000000000E+00  0.00000000000E+00  0.16033724854E+04  0.16033724854E+04  0.25500000920E-02 0. -1.
        2   -1    0    0  501    0  0.00000000000E+00  0.00000000000E+00 -0.22212617998E+04  0.22212617998E+04  0.25500000920E-02 0.  1.
    10030    2    1    2    0    0  0.00000000000E+00  0.00000000000E+00 -0.61788931440E+03  0.38246342853E+04  0.37743926944E+04 0.  0.
        5    1    3    3  502    0  0.32525181360E+03  0.14369283869E+04  0.88613377770E+03  0.17192460828E+04  0.46999998093E+01 0. -1.
       -5    1    3    3    0  502 -0.32525181360E+03 -0.14369283869E+04 -0.15040230921E+04  0.21053882024E+04  0.46999998093E+01 0.  1.
</event>
<event>
 5   0  0.2081337E-07  0.3807003E+04  0.7818609E-02  0.8044654E-01
       -2   -1    0    0    0  501  0.00000000000E+00  0.00000000000E+00  0.19087699372E+04  0.19087699372E+04  0.25500000920E-02 0. -1.
        2   -1    0    0  501    0  0.00000000000E+00  0.00000000000E+00 -0.18982473580E+04  0.18982473580E+04  0.25500000920E-02 0.  1.
    10030    2    1    2    0    0  0.00000000000E+00  0.00000000000E+00  0.10522579232E+02  0.38070172952E+04  0.38070027530E+04 0.  0.
        1    1    3    3  502    0  0.81433465910E+03 -0.10844833588E+03 -0.17118403489E+04  0.18987625862E+04  0.50400001928E-02 0.  1.
       -1    1    3    3    0  502 -0.81433465910E+03  0.10844833588E+03  0.17223629281E+04  0.19082547091E+04  0.50400001928E-02 0. -1.
</event>
<event>
 5   0  0.6661000E-08  0.3775318E+04  0.7818609E-02  0.8051472E-01
       -1   -1    0    0    0  501  0.00000000000E+00  0.00000000000E+00  0.11256922594E+04  0.11256922594E+04  0.50400001928E-02 0. -1.
        1   -1    0    0  501    0  0.00000000000E+00  0.00000000000E+00 -0.31653915265E+04  0.31653915265E+04  0.50400001928E-02 0.  1.
    10030    2    1    2    0    0  0.00000000000E+00  0.00000000000E+00 -0.20396992671E+04  0.42910837858E+04  0.37753181266E+04 0.  0.
        4    1    3    3  502    0 -0.93326082495E+03  0.10891387924E+04 -0.24147205163E+04  0.28085718544E+04  0.12699999809E+01 0.  1.
       -4    1    3    3    0  502  0.93326082495E+03 -0.10891387924E+04  0.37502124922E+03  0.14825119314E+04  0.12699999809E+01 0. -1.
</event>
<event>
 5   0  0.2081337E-07  0.3818017E+04  0.7818609E-02  0.8042300E-01
       -2   -1    0    0    0  501  0.00000000000E+00  0.00000000000E+00  0.14612932009E+04  0.14612932009E+04  0.25500000920E-02 0. -1.
        2   -1    0    0  501    0  0.00000000000E+00  0.00000000000E+00 -0.24938958002E+04  0.24938958002E+04  0.25500000920E-02 0.  1.
    10030    2    1    2    0    0  0.00000000000E+00  0.00000000000E+00 -0.10326025992E+04  0.39551890011E+04  0.38180167504E+04 0.  0.
        1    1    3    3  502    0  0.13768613296E+04 -0.97181874122E+03  0.41265155968E+03  0.17350677498E+04  0.50400001928E-02 0. -1.
       -1    1    3    3    0  502 -0.13768613296E+04  0.97181874122E+03 -0.14452541589E+04  0.22201212513E+04  0.50400001928E-02 0.  1.
</event>
<event>
 5   0  0.2081337E-07  0.3655531E+04  0.7818609E-02  0.8077889E-01
        2   -1    0    0  501    0  0.00000000000E+00  0.00000000000E+00  0.23707431984E+04  0.23707431984E+04  0.25500000920E-02 0. -1.
       -2   -1    0    0    0  501  0.00000000000E+00  0.00000000000E+00 -0.14091471290E+04  0.14091471290E+04  0.25500000920E-02 0.  1.
    10030    2    1    2    0    0  0.00000000000E+00  0.00000000000E+00  0.96159606941E+03  0.37798903274E+04  0.36555305889E+04 0.  0.
        1    1    3    3  502    0 -0.11261620059E+04  0.53932354793E+03  0.18609780467E+04  0.22410600267E+04  0.50400001928E-02 0. -1.
       -1    1    3    3    0  502  0.11261620059E+04 -0.53932354793E+03 -0.89938197733E+03  0.15388303006E+04  0.50400001928E-02 0.  1.
</event>
<event>
 5   0  0.6661000E-08  0.3792199E+04  0.7818609E-02  0.8047831E-01
        1   -1    0    0  501    0  0.00000000000E+00  0.00000000000E+00  0.16330059945E+04  0.16330059945E+04  0.50400001928E-02 0. -1.
       -1   -1    0    0    0  501  0.00000000000E+00  0.00000000000E+00 -0.22015799668E+04  0.22015799668E+04  0.50400001928E-02 0.  1.
    10030    2    1    2    0    0  0.00000000000E+00  0.00000000000E+00 -0.56857397237E+03  0.38345859613E+04  0.37921989838E+04 0.  0.
        4    1    3    3  502    0 -0.47071954531E+01 -0.43698459158E+02 -0.22010643825E+04  0.22015035185E+04  0.12699999809E+01 0.  1.
       -4    1    3    3    0  502  0.47071954531E+01  0.43698459158E+02  0.16324904101E+04  0.16330824428E+04  0.12699999809E+01 0. -1.
</event>
<event>
 5   0  0.6661000E-08  0.3901648E+04  0.7818609E-02  0.8024687E-01
        1   -1    0    0  501    0  0.00000000000E+00  0.00000000000E+00  0.21129502001E+04  0.21129502001E+04  0.50400001928E-02 0. -1.
       -1   -1    0    0    0  501  0.00000000000E+00  0.00000000000E+00 -0.18011375944E+04  0.18011375944E+04  0.50400001928E-02 0.  1.
    10030    2    1    2    0    0  0.00000000000E+00  0.00000000000E+00  0.31181260570E+03  0.39140877945E+04  0.39016478777E+04 0.  0.
        3    1    3    3  502    0  0.17560985520E+04 -0.43524502465E+03 -0.57607322429E+03  0.18987313463E+04  0.10100000352E+00 0.  1.
       -3    1    3    3    0  502 -0.17560985520E+04  0.43524502465E+03  0.88788582999E+03  0.20153564481E+04  0.10100000352E+00 0. -1.
</event>
<event>
 5   0  0.2081337E-07  0.3778381E+04  0.7818609E-02  0.8050810E-01
       -2   -1    0    0    0  501  0.00000000000E+00  0.00000000000E+00  0.12842058971E+04  0.12842058971E+04  0.25500000920E-02 0. -1.
        2   -1    0    0  501    0  0.00000000000E+00  0.00000000000E+00 -0.27791808999E+04  0.27791808999E+04  0.25500000920E-02 0.  1.
    10030    2    1    2    0    0  0.00000000000E+00  0.00000000000E+00 -0.14949750028E+04  0.40633867969E+04  0.37783808705E+04 0.  0.
        1    1    3    3  502    0  0.84668328255E+03 -0.16191943762E+04 -0.12636690238E+04  0.22216035674E+04  0.50400001928E-02 0.  1.
       -1    1    3    3    0  502 -0.84668328255E+03  0.16191943762E+04 -0.23130597899E+03  0.18417832296E+04  0.50400001928E-02 0. -1.
</event>
<event>
 5   0  0.6661000E-08  0.3796374E+04  0.7818609E-02  0.8046934E-01
       -1   -1    0    0    0  501  0.00000000000E+00  0.00000000000E+00  0.25032956807E+04  0.25032956807E+04  0.50400001928E-02 0. -1.
        1   -1    0    0  501    0  0.00000000000E+00  0.00000000000E+00 -0.14393478163E+04  0.14393478163E+04  0.50400001928E-02 0.  1.
    10030    2    1    2    0    0  0.00000000000E+00  0.00000000000E+00  0.10639478644E+04  0.39426434970E+04  0.37963736231E+04 0.  0.
        4    1    3    3  502    0 -0.73450686722E+02 -0.13856934541E+04  0.18770873779E+04  0.23343093174E+04  0.12699999809E+01 0. -1.
       -4    1    3    3    0  502  0.73450686722E+02  0.13856934541E+04 -0.81313951347E+03  0.16083341796E+04  0.12699999809E+01 0.  1.
</event>
<event>
 5   0  0.6661000E-08  0.3816327E+04  0.7818609E-02  0.8042660E-01
        1   -1    0    0  501    0  0.00000000000E+00  0.00000000000E+00  0.21036871600E+04  0.21036871601E+04  0.50400001928E-02 0.  1.
       -1   -1    0    0    0  501  0.00000000000E+00  0.00000000000E+00 -0.17308127270E+04  0.17308127271E+04  0.50400001928E-02 0. -1.
    10030    2    1    2    0    0  0.00000000000E+00  0.00000000000E+00  0.37287443300E+03  0.38344998871E+04  0.38163272975E+04 0.  0.
        1    1    3    3  502    0 -0.16281773534E+04 -0.71079002612E+03 -0.51322955260E+03  0.18492129485E+04  0.50400001928E-02 0. -1.
       -1    1    3    3    0  502  0.16281773534E+04  0.71079002612E+03  0.88610398560E+03  0.19852869386E+04  0.50400001928E-02 0.  1.
</event>
<event>
 5   0  0.6725199E-08  0.3802921E+04  0.7818609E-02  0.8045528E-01
       -1   -1    0    0    0  501  0.00000000000E+00  0.00000000000E+00  0.28620196044E+04  0.28620196044E+04  0.50400001928E-02 0. -1.
        1   -1    0    0  501    0  0.00000000000E+00  0.00000000000E+00 -0.12632871004E+04  0.12632871004E+04  0.50400001928E-02 0.  1.
    10030    2    1    2    0    0  0.00000000000E+00  0.00000000000E+00  0.15987325041E+04  0.41253067048E+04  0.38029212179E+04 0.  0.
        5    1    3    3  502    0 -0.15688888121E+04 -0.10723799981E+04  0.72974280984E+03  0.20356712955E+04  0.46999998093E+01 0. -1.
       -5    1    3    3    0  502  0.15688888121E+04  0.10723799981E+04  0.86898969422E+03  0.20896354093E+04  0.46999998093E+01 0.  1.
</event>
<event>
 5   0  0.2135314E-07  0.3879088E+04  0.7818609E-02  0.8029393E-01
        2   -1    0    0  501    0  0.00000000000E+00  0.00000000000E+00  0.14910872756E+04  0.14910872756E+04  0.25500000920E-02 0. -1.
       -2   -1    0    0    0  501  0.00000000000E+00  0.00000000000E+00 -0.25228777005E+04  0.25228777005E+04  0.25500000920E-02 0.  1.
    10030    2    1    2    0    0  0.00000000000E+00  0.00000000000E+00 -0.10317904248E+04  0.40139649761E+04  0.38790879532E+04 0.  0.
        4    1    3    3  502    0 -0.99204085425E+02 -0.55269612712E+02  0.14876437567E+04  0.14919724328E+04  0.12699999809E+01 0. -1.
       -4    1    3    3    0  502  0.99204085425E+02  0.55269612712E+02 -0.25194341815E+04  0.25219925433E+04  0.12699999809E+01 0.  1.
</event>
<event>
 5   0  0.2205204E-07  0.3773685E+04  0.7818609E-02  0.8051826E-01
       -2   -1    0    0    0  501  0.00000000000E+00  0.00000000000E+00  0.21945121450E+04  0.21945121450E+04  0.25500000920E-02 0.  1.
        2   -1    0    0  501    0  0.00000000000E+00  0.00000000000E+00 -0.16223075914E+04  0.16223075914E+04  0.25500000920E-02 0. -1.
    10030    2    1    2    0    0  0.00000000000E+00  0.00000000000E+00  0.57220455358E+03  0.38168197364E+04  0.37736845190E+04 0.  0.
        2    1    3    3  502    0  0.97760572605E+03 -0.10150506369E+04  0.15550880859E+04  0.20986518782E+04  0.25500000920E-02 0.  1.
       -2    1    3    3    0  502 -0.97760572605E+03  0.10150506369E+04 -0.98288353227E+03  0.17181678582E+04  0.25500000920E-02 0. -1.
</event>
<event>
 5   0  0.6725199E-08  0.3765951E+04  0.7818609E-02  0.8053501E-01
        1   -1    0    0  501    0  0.00000000000E+00  0.00000000000E+00  0.19683807597E+04  0.19683807597E+04  0.50400001928E-02 0. -1.
       -1   -1    0    0    0  501  0.00000000000E+00  0.00000000000E+00 -0.18012762031E+04  0.18012762031E+04  0.50400001928E-02 0.  1.
    10030    2    1    2    0    0  0.00000000000E+00  0.00000000000E+00  0.16710455660E+03  0.37696569628E+04  0.37659513651E+04 0.  0.
        5    1    3    3  502    0 -0.11838722880E+03 -0.27151135953E+03 -0.17778046396E+04  0.18023166705E+04  0.46999998093E+01 0.  1.
       -5    1    3    3    0  502  0.11838722880E+03  0.27151135953E+03  0.19449091962E+04  0.19673402923E+04  0.46999998093E+01 0. -1.
</event>
<event>
 5   0  0.6661000E-08  0.3800101E+04  0.7818609E-02  0.8046133E-01
       -1   -1    0    0    0  501  0.00000000000E+00  0.00000000000E+00  0.15177525495E+04  0.15177525495E+04  0.50400001928E-02 0. -1.
        1   -1    0    0  501    0  0.00000000000E+00  0.00000000000E+00 -0.23786432204E+04  0.23786432204E+04  0.50400001928E-02 0.  1.
    10030    2    1    2    0    0  0.00000000000E+00  0.00000000000E+00 -0.86089067087E+03  0.38963957699E+04  0.38001009524E+04 0.  0.
        1    1    3    3  502    0 -0.13340679676E+03 -0.68683227384E+03  0.13808566726E+04  0.15479990620E+04  0.50400001928E-02 0. -1.
       -1    1    3    3    0  502  0.13340679676E+03  0.68683227384E+03 -0.22417473434E+04  0.23483967079E+04  0.50400001928E-02 0.  1.
</event>
<event>
 5   0  0.2203998E-07  0.3825628E+04  0.7818609E-02  0.8040677E-01
        2   -1    0    0  501    0  0.00000000000E+00  0.00000000000E+00  0.28744506154E+04  0.28744506154E+04  0.25500000920E-02 0.  1.
       -2   -1    0    0    0  501  0.00000000000E+00  0.00000000000E+00 -0.12728893374E+04  0.12728893374E+04  0.25500000920E-02 0. -1.
    10030    2    1    2    0    0  0.00000000000E+00  0.00000000000E+00  0.16015612780E+04  0.41473399528E+04  0.38256280735E+04 0.  0.
        3    1    3    3  502    0 -0.32035819259E+03 -0.35056950875E+03 -0.12079634501E+04  0.12979615013E+04  0.10100000352E+00 0. -1.
       -3    1    3    3    0  502  0.32035819259E+03  0.35056950875E+03  0.28095247280E+04  0.28493784515E+04  0.10100000352E+00 0.  1.
</event>
<event>
 5   0  0.2135314E-07  0.3950489E+04  0.7818609E-02  0.8014610E-01
       -2   -1    0    0    0  501  0.00000000000E+00  0.00000000000E+00  0.19881776839E+04  0.19881776839E+04  0.25500000920E-02 0.  1.
        2   -1    0    0  501    0  0.00000000000E+00  0.00000000000E+00 -0.19623955543E+04  0.19623955543E+04  0.25500000920E-02 0. -1.
    10030    2    1    2    0    0  0.00000000000E+00  0.00000000000E+00  0.25782129637E+02  0.39505732382E+04  0.39504891080E+04 0.  0.
        4    1    3    3  502    0 -0.91615612334E+03 -0.74811137120E+03 -0.15690960909E+04  0.19649622951E+04  0.12699999809E+01 0. -1.
       -4    1    3    3    0  502  0.91615612334E+03  0.74811137120E+03  0.15948782205E+04  0.19856109431E+04  0.12699999809E+01 0.  1.
</event>
<event>
 5   0  0.2135314E-07  0.3793601E+04  0.7818609E-02  0.8047530E-01
       -2   -1    0    0    0  501  0.00000000000E+00  0.00000000000E+00  0.20180160875E+04  0.20180160875E+04  0.25500000920E-02 0. -1.
        2   -1    0    0  501    0  0.00000000000E+00  0.00000000000E+00 -0.17828656876E+04  0.17828656877E+04  0.25500000920E-02 0.  1.
    10030    2    1    2    0    0  0.00000000000E+00  0.00000000000E+00  0.23515039990E+03  0.38008817752E+04  0.37936007379E+04 0.  0.
        4    1    3    3  502    0 -0.11223525917E+04  0.15204590779E+04 -0.45152283974E+02  0.18903733730E+04  0.12699999809E+01 0. -1.
       -4    1    3    3    0  502  0.11223525917E+04 -0.15204590779E+04  0.28030268387E+03  0.19105084022E+04  0.12699999809E+01 0.  1.
</event>
<event>
 5   0  0.6661000E-08  0.3827547E+04  0.7818609E-02  0.8040269E-01
        1   -1    0    0  501    0  0.00000000000E+00  0.00000000000E+00  0.22752281199E+04  0.22752281199E+04  0.50400001928E-02 0.  1.
       -1   -1    0    0    0  501  0.00000000000E+00  0.00000000000E+00 -0.16097412898E+04  0.16097412898E+04  0.50400001928E-02 0. -1.
    10030    2    1    2    0    0  0.00000000000E+00  0.00000000000E+00  0.66548683011E+03  0.38849694097E+04  0.38275468113E+04 0.  0.
        3    1    3    3  502    0 -0.24422076679E+03 -0.18721210502E+04  0.65056664662E+03  0.19969271348E+04  0.10100000352E+00 0.  1.
       -3    1    3    3    0  502  0.24422076679E+03  0.18721210502E+04  0.14920183498E+02  0.18880422749E+04  0.10100000352E+00 0. -1.
</event>
<event>
 5   0  0.6661000E-08  0.3730750E+04  0.7818609E-02  0.8061181E-01
       -1   -1    0    0    0  501  0.00000000000E+00  0.00000000000E+00  0.15748755664E+04  0.15748755664E+04  0.50400001928E-02 0.  1.
        1   -1    0    0  501    0  0.00000000000E+00  0.00000000000E+00 -0.22094595931E+04  0.22094595931E+04  0.50400001928E-02 0. -1.
    10030    2    1    2    0    0  0.00000000000E+00  0.00000000000E+00 -0.63458402668E+03  0.37843351596E+04  0.37307500202E+04 0.  0.
        3    1    3    3  502    0 -0.10031051021E+04  0.11628752228E+04 -0.13913321647E+04  0.20722702122E+04  0.10100000352E+00 0. -1.
       -3    1    3    3    0  502  0.10031051021E+04 -0.11628752228E+04  0.75674813798E+03  0.17120649474E+04  0.10100000352E+00 0.  1.
</event>
<event>
 5   0  0.6661000E-08  0.3838310E+04  0.7818609E-02  0.8037983E-01
       -1   -1    0    0    0  501  0.00000000000E+00  0.00000000000E+00  0.19636303239E+04  0.19636303239E+04  0.50400001928E-02 0. -1.
        1   -1    0    0  501    0  0.00000000000E+00  0.00000000000E+00 -0.18756875072E+04  0.18756875072E+04  0.50400001928E-02 0.  1.
    10030    2    1    2    0    0  0.00000000000E+00  0.00000000000E+00  0.87942816692E+02  0.38393178310E+04  0.38383104966E+04 0.  0.
        1    1    3    3  502    0 -0.18190071352E+04 -0.33052498172E+03  0.55900764274E+03  0.19314562553E+04  0.50400001928E-02 0. -1.
       -1    1    3    3    0  502  0.18190071352E+04  0.33052498172E+03 -0.47106482605E+03  0.19078615757E+04  0.50400001928E-02 0.  1.
</event>
<event>
 5   0  0.1370688E-07  0.3674756E+04  0.7818609E-02  0.8073579E-01
       -2   -1    0    0    0  501  0.00000000000E+00  0.00000000000E+00  0.13537221265E+04  0.13537221265E+04  0.25500000920E-02 0. -1.
        2   -1    0    0  501    0  0.00000000000E+00  0.00000000000E+00 -0.24938333526E+04  0.24938333526E+04  0.25500000920E-02 0.  1.
    10030    2    1    2    0    0  0.00000000000E+00  0.00000000000E+00 -0.11401112261E+04  0.38475554791E+04  0.36747557139E+04 0.  0.
        5    1    3    3  502    0 -0.11620671398E+04 -0.20981993962E+03  0.90379899900E+03  0.14870437670E+04  0.46999998093E+01 0. -1.
       -5    1    3    3    0  502  0.11620671398E+04  0.20981993962E+03 -0.20439102251E+04  0.23605117121E+04  0.46999998093E+01 0.  1.
</event>
<event>
 5   0  0.2203998E-07  0.3839322E+04  0.7818609E-02  0.8037769E-01
        2   -1    0    0  501    0  0.00000000000E+00  0.00000000000E+00  0.17164114317E+04  0.17164114317E+04  0.25500000920E-02 0.  1.
       -2   -1    0    0    0  501  0.00000000000E+00  0.00000000000E+00 -0.21469780114E+04  0.21469780114E+04  0.25500000920E-02 0. -1.
    10030    2    1    2    0    0  0.00000000000E+00  0.00000000000E+00 -0.43056657973E+03  0.38633894431E+04  0.38393216080E+04 0.  0.
        3    1    3    3  502    0 -0.41553490030E+03 -0.18096070992E+04 -0.70593656439E+03  0.19863769909E+04  0.10100000352E+00 0. -1.
       -3    1    3    3    0  502  0.41553490030E+03  0.18096070992E+04  0.27536998466E+03  0.18770124522E+04  0.10100000352E+00 0.  1.
</event>
<event>
 5   0  0.2203998E-07  0.3770915E+04  0.7818609E-02  0.8052425E-01
       -2   -1    0    0    0  501  0.00000000000E+00  0.00000000000E+00  0.13304924026E+04  0.13304924026E+04  0.25500000920E-02 0. -1.
        2   -1    0    0  501    0  0.00000000000E+00  0.00000000000E+00 -0.26719053112E+04  0.26719053112E+04  0.25500000920E-02 0.  1.
    10030    2    1    2    0    0  0.00000000000E+00  0.00000000000E+00 -0.13414129087E+04  0.40023977138E+04  0.37709148582E+04 0.  0.
        3    1    3    3  502    0  0.26870687856E+02  0.14825310572E+04  0.56540062257E+03  0.15869146932E+04  0.10100000352E+00 0. -1.
       -3    1    3    3    0  502 -0.26870687856E+02 -0.14825310572E+04 -0.19068135312E+04  0.24154830205E+04  0.10100000352E+00 0.  1.
</event>
<event>
 5   0  0.6661000E-08  0.3824486E+04  0.7818609E-02  0.8040921E-01
       -1   -1    0    0    0  501  0.00000000000E+00  0.00000000000E+00  0.18523275291E+04  0.18523275291E+04  0.50400001928E-02 0.  1.
        1   -1    0    0  501    0  0.00000000000E+00  0.00000000000E+00 -0.19740961704E+04  0.19740961704E+04  0.50400001928E-02 0. -1.
    10030    2    1    2    0    0  0.00000000000E+00  0.00000000000E+00 -0.12176864133E+03  0.38264236995E+04  0.38244856813E+04 0.  0.
        3    1    3    3  502    0 -0.15187213948E+04 -0.68138765947E+03 -0.10025673304E+04  0.19431791168E+04  0.10100000352E+00 0. -1.
       -3    1    3    3    0  502  0.15187213948E+04  0.68138765947E+03  0.88079868910E+03  0.18832445828E+04  0.10100000352E+00 0.  1.
</event>
<event>
 5   0  0.2135314E-07  0.3804600E+04  0.7818609E-02  0.8045169E-01
        2   -1    0    0  501    0  0.00000000000E+00  0.00000000000E+00  0.13365010302E+04  0.13365010303E+04  0.25500000920E-02 0. -1.
       -2   -1    0    0    0  501  0.00000000000E+00  0.00000000000E+00 -0.27076255832E+04  0.27076255832E+04  0.25500000920E-02 0.  1.
    10030    2    1    2    0    0  0.00000000000E+00  0.00000000000E+00 -0.13711245529E+04  0.40441266134E+04  0.38045995224E+04 0.  0.
        4    1    3    3  502    0  0.91828866315E+02  0.17795847535E+04  0.22233432736E+02  0.17820915729E+04  0.12699999809E+01 0. -1.
       -4    1    3    3    0  502 -0.91828866315E+02 -0.17795847535E+04 -0.13933579857E+04  0.22620350406E+04  0.12699999809E+01 0.  1.
</event>
<event>
 5   0  0.2081337E-07  0.3809044E+04  0.7818609E-02  0.8044217E-01
       -2   -1    0    0    0  501  0.00000000000E+00  0.00000000000E+00  0.18451431054E+04  0.18451431054E+04  0.25500000920E-02 0. -1.
        2   -1    0    0  501    0  0.00000000000E+00  0.00000000000E+00 -0.19658117521E+04  0.19658117521E+04  0.25500000920E-02 0.  1.
    10030    2    1    2    0    0  0.00000000000E+00  0.00000000000E+00 -0.12066864663E+03  0.38109548575E+04  0.38090439750E+04 0.  0.
        1    1    3    3  502    0 -0.41168744925E+03 -0.61119115243E+03  0.16967251689E+04  0.18498425554E+04  0.50400001928E-02 0. -1.
       -1    1    3    3    0  502  0.41168744925E+03  0.61119115243E+03 -0.18173938156E+04  0.19611123021E+04  0.50400001928E-02 0.  1.
</event>
<event>
 5   0  0.2135314E-07  0.3805749E+04  0.7818609E-02  0.8044922E-01
        2   -1    0    0  501    0  0.00000000000E+00  0.00000000000E+00  0.29933008867E+04  0.29933008867E+04  0.25500000920E-02 0.  1.
       -2   -1    0    0    0  501  0.00000000000E+00  0.00000000000E+00 -0.12096784257E+04  0.12096784257E+04  0.25500000920E-02 0. -1.
    10030    2    1    2    0    0  0.00000000000E+00  0.00000000000E+00  0.17836224609E+04  0.42029793124E+04  0.38057490744E+04 0.  0.
        4    1    3    3  502    0  0.11227382415E+03  0.12877835764E+04 -0.65034188894E+03  0.14470446215E+04  0.12699999809E+01 0. -1.
       -4    1    3    3    0  502 -0.11227382415E+03 -0.12877835764E+04  0.24339643499E+04  0.27559346909E+04  0.12699999809E+01 0.  1.
</event>
<event>
 5   0  0.6725199E-08  0.3795266E+04  0.7818609E-02  0.8047172E-01
        1   -1    0    0  501    0  0.00000000000E+00  0.00000000000E+00  0.14625952402E+04  0.14625952402E+04  0.50400001928E-02 0.  1.
       -1   -1    0    0    0  501  0.00000000000E+00  0.00000000000E+00 -0.24620693611E+04  0.24620693611E+04  0.50400001928E-02 0. -1.
    10030    2    1    2    0    0  0.00000000000E+00  0.00000000000E+00 -0.99947412092E+03  0.39246646013E+04  0.37952659610E+04 0.  0.
        5    1    3    3  502    0  0.87676770803E+03  0.73181571546E+03  0.10674242290E+04  0.15632314064E+04  0.46999998093E+01 0.  1.
       -5    1    3    3    0  502 -0.87676770803E+03 -0.73181571546E+03 -0.20668983499E+04  0.23614331949E+04  0.46999998093E+01 0. -1.
</event>
<event>
 5   0  0.2081337E-07  0.3786149E+04  0.7818609E-02  0.8049134E-01
       -2   -1    0    0    0  501  0.00000000000E+00  0.00000000000E+00  0.13596151115E+04  0.13596151116E+04  0.25500000920E-02 0. -1.
        2   -1    0    0  501    0  0.00000000000E+00  0.00000000000E+00 -0.26358425738E+04  0.26358425738E+04  0.25500000920E-02 0.  1.
    10030    2    1    2    0    0  0.00000000000E+00  0.00000000000E+00 -0.12762274623E+04  0.39954576854E+04  0.37861491756E+04 0.  0.
        1    1    3    3  502    0 -0.42847139495E+03  0.75771256608E+03  0.11358962975E+04  0.14310752838E+04  0.50400001928E-02 0. -1.
       -1    1    3    3    0  502  0.42847139495E+03 -0.75771256608E+03 -0.24121237598E+04  0.25643824016E+04  0.50400001928E-02 0.  1.
</event>
<event>
 5   0  0.2203998E-07  0.3791439E+04  0.7818609E-02  0.8047994E-01
       -2   -1    0    0    0  501  0.00000000000E+00  0.00000000000E+00  0.10770384740E+04  0.10770384740E+04  0.25500000920E-02 0. -1.
        2   -1    0    0  501    0  0.00000000000E+00  0.00000000000E+00 -0.33366989078E+04  0.33366989078E+04  0.25500000920E-02 0.  1.
    10030    2    1    2    0    0  0.00000000000E+00  0.00000000000E+00 -0.22596604338E+04  0.44137373818E+04  0.37914393573E+04 0.  0.
        3    1    3    3  502    0  0.19578609747E+03  0.74169666788E+03  0.88828888271E+03  0.11736708621E+04  0.10100000352E+00 0. -1.
       -3    1    3    3    0  502 -0.19578609747E+03 -0.74169666788E+03 -0.31479493165E+04  0.32400665198E+04  0.10100000352E+00 0.  1.
</event>
<event>
 5   0  0.6661000E-08  0.3799410E+04  0.7818609E-02  0.8046282E-01
        1   -1    0    0  501    0  0.00000000000E+00  0.00000000000E+00  0.13029864846E+04  0.13029864846E+04  0.50400001928E-02 0.  1.
       -1   -1    0    0    0  501  0.00000000000E+00  0.00000000000E+00 -0.27696974301E+04  0.27696974301E+04  0.50400001928E-02 0. -1.
    10030    2    1    2    0    0  0.00000000000E+00  0.00000000000E+00 -0.14667109456E+04  0.40726839147E+04  0.37994095951E+04 0.  0.
        4    1    3    3  502    0  0.12140697196E+04 -0.25026548612E+03  0.80972530767E+03  0.14806264837E+04  0.12699999809E+01 0.  1.
       -4    1    3    3    0  502 -0.12140697196E+04  0.25026548612E+03 -0.22764362532E+04  0.25920574310E+04  0.12699999809E+01 0. -1.
</event>
<event>
 5   0  0.1370688E-07  0.3765756E+04  0.7818609E-02  0.8053544E-01
        2   -1    0    0  501    0  0.00000000000E+00  0.00000000000E+00  0.20271570841E+04  0.20271570841E+04  0.25500000920E-02 0. -1.
       -2   -1    0    0    0  501  0.00000000000E+00  0.00000000000E+00 -0.17488679638E+04  0.17488679638E+04  0.25500000920E-02 0.  1.
    10030    2    1    2    0    0  0.00000000000E+00  0.00000000000E+00  0.27828912029E+03  0.37760250479E+04  0.37657562757E+04 0.  0.
        5    1    3    3  502    0 -0.11738281641E+04 -0.45910527001E+03  0.15417289379E+04  0.19913815344E+04  0.46999998093E+01 0. -1.
       -5    1    3    3    0  502  0.11738281641E+04  0.45910527001E+03 -0.12634398176E+04  0.17846435135E+04  0.46999998093E+01 0.  1.
</event>
<event>
 5   0  0.2205204E-07  0.3766826E+04  0.7818609E-02  0.8053312E-01
       -2   -1    0    0    0  501  0.00000000000E+00  0.00000000000E+00  0.14608526162E+04  0.14608526162E+04  0.25500000920E-02 0. -1.
        2   -1    0    0  501    0  0.00000000000E+00  0.00000000000E+00 -0.24282013458E+04  0.24282013458E+04  0.25500000920E-02 0.  1.
    10030    2    1    2    0    0  0.00000000000E+00  0.00000000000E+00 -0.96734872960E+03  0.38890539621E+04  0.37668258727E+04 0.  0.
        2    1    3    3  502    0  0.26010314628E+03 -0.10895344528E+03  0.14389322087E+04  0.14663050164E+04  0.25500000920E-02 0. -1.
       -2    1    3    3    0  502 -0.26010314628E+03  0.10895344528E+03 -0.24062809383E+04  0.24227489457E+04  0.25500000920E-02 0.  1.
</event>
<event>
 5   0  0.2205204E-07  0.3796416E+04  0.7818609E-02  0.8046924E-01
       -2   -1    0    0    0  501  0.00000000000E+00  0.00000000000E+00  0.17737199224E+04  0.17737199224E+04  0.25500000920E-02 0. -1.
        2   -1    0    0  501    0  0.00000000000E+00  0.00000000000E+00 -0.20314331436E+04  0.20314331436E+04  0.25500000920E-02 0.  1.
    10030    2    1    2    0    0  0.00000000000E+00  0.00000000000E+00 -0.25771322123E+03  0.38051530660E+04  0.37964159086E+04 0.  0.
        2    1    3    3  502    0  0.87946225889E+03 -0.58826465332E+03  0.14507412622E+04  0.17955944356E+04  0.25500000920E-02 0. -1.
       -2    1    3    3    0  502 -0.87946225889E+03  0.58826465332E+03 -0.17084544835E+04  0.20095586304E+04  0.25500000920E-02 0.  1.
</event>
<event>
 5   0  0.6661000E-08  0.3809273E+04  0.7818609E-02  0.8044168E-01
        1   -1    0    0  501    0  0.00000000000E+00  0.00000000000E+00  0.19998784689E+04  0.19998784689E+04  0.50400001928E-02 0.  1.
       -1   -1    0    0    0  501  0.00000000000E+00  0.00000000000E+00 -0.18139305476E+04  0.18139305476E+04  0.50400001928E-02 0. -1.
    10030    2    1    2    0    0  0.00000000000E+00  0.00000000000E+00  0.18594792128E+03  0.38138090165E+04  0.38092732358E+04 0.  0.
        3    1    3    3  502    0  0.66375680653E+03  0.87598790134E+03 -0.14644208415E+04  0.18309714123E+04  0.10100000352E+00 0. -1.
       -3    1    3    3    0  502 -0.66375680653E+03 -0.87598790134E+03  0.16503687627E+04  0.19828376042E+04  0.10100000352E+00 0.  1.
</event>
<event>
 5   0  0.6661000E-08  0.3786204E+04  0.7818609E-02  0.8049122E-01
        1   -1    0    0  501    0  0.00000000000E+00  0.00000000000E+00  0.29214588194E+04  0.29214588195E+04  0.50400001928E-02 0. -1.
       -1   -1    0    0    0  501  0.00000000000E+00  0.00000000000E+00 -0.12267277369E+04  0.12267277369E+04  0.50400001928E-02 0.  1.
    10030    2    1    2    0    0  0.00000000000E+00  0.00000000000E+00  0.16947310825E+04  0.41481865564E+04  0.37862036745E+04 0.  0.
        2    1    3    3  502    0 -0.14898597253E+04  0.84539414587E+03  0.17303050425E+04  0.24348159690E+04  0.25500000920E-02 0. -1.
       -2    1    3    3    0  502  0.14898597253E+04 -0.84539414587E+03 -0.35573959985E+02  0.17133705874E+04  0.25500000920E-02 0.  1.
</event>
<event>
 5   0  0.2081337E-07  0.3778502E+04  0.7818609E-02  0.8050784E-01
       -2   -1    0    0    0  501  0.00000000000E+00  0.00000000000E+00  0.15490200191E+04  0.15490200191E+04  0.25500000920E-02 0. -1.
        2   -1    0    0  501    0  0.00000000000E+00  0.00000000000E+00 -0.23042117978E+04  0.23042117978E+04  0.25500000920E-02 0.  1.
    10030    2    1    2    0    0  0.00000000000E+00  0.00000000000E+00 -0.75519177871E+03  0.38532318170E+04  0.37785024564E+04 0.  0.
        1    1    3    3  502    0  0.11750816365E+04  0.14152436403E+04 -0.81685703301E+03  0.20127063438E+04  0.50400001928E-02 0.  1.
       -1    1    3    3    0  502 -0.11750816365E+04 -0.14152436403E+04  0.61665254302E+02  0.18405254732E+04  0.50400001928E-02 0. -1.
</event>
<event>
 5   0  0.1370688E-07  0.3829205E+04  0.7818609E-02  0.8039916E-01
       -2   -1    0    0    0  501  0.00000000000E+00  0.00000000000E+00  0.13972891048E+04  0.13972891048E+04  0.25500000920E-02 0. -1.
        2   -1    0    0  501    0  0.00000000000E+00  0.00000000000E+00 -0.26234395540E+04  0.26234395540E+04  0.25500000920E-02 0.  1.
    10030    2    1    2    0    0  0.00000000000E+00  0.00000000000E+00 -0.12261504492E+04  0.40207286588E+04  0.38292054037E+04 0.  0.
        5    1    3    3  502    0 -0.15030013892E+04  0.74571125264E+03  0.35532402311E+03  0.17150439352E+04  0.46999998093E+01 0. -1.
       -5    1    3    3    0  502  0.15030013892E+04 -0.74571125264E+03 -0.15814744723E+04  0.23056847236E+04  0.46999998093E+01 0.  1.
</event>
<event>
 5   0  0.6725199E-08  0.3791631E+04  0.7818609E-02  0.8047953E-01
        1   -1    0    0  501    0  0.00000000000E+00  0.00000000000E+00  0.23798929270E+04  0.23798929270E+04  0.50400001928E-02 0. -1.
       -1   -1    0    0    0  501  0.00000000000E+00  0.00000000000E+00 -0.15102005581E+04  0.15102005581E+04  0.50400001928E-02 0.  1.
    10030    2    1    2    0    0  0.00000000000E+00  0.00000000000E+00  0.86969236890E+03  0.38900934850E+04  0.37916305867E+04 0.  0.
        5    1    3    3  502    0 -0.54307095038E+03 -0.16142601536E+01 -0.14286822769E+04  0.15284252684E+04  0.46999998093E+01 0.  1.
       -5    1    3    3    0  502  0.54307095038E+03  0.16142601536E+01  0.22983746458E+04  0.23616682166E+04  0.46999998093E+01 0. -1.
</event>
<event>
 5   0  0.1370688E-07  0.3815825E+04  0.7818609E-02  0.8042767E-01
       -2   -1    0    0    0  501  0.00000000000E+00  0.00000000000E+00  0.17697522536E+04  0.17697522536E+04  0.25500000920E-02 0.  1.
        2   -1    0    0  501    0  0.00000000000E+00  0.00000000000E+00 -0.20568584445E+04  0.20568584445E+04  0.25500000920E-02 0. -1.
    10030    2    1    2    0    0  0.00000000000E+00  0.00000000000E+00 -0.28710619090E+03  0.38266106980E+04  0.38158248740E+04 0.  0.
        5    1    3    3  502    0 -0.56002755175E+03 -0.14494199226E+04 -0.12537771730E+04  0.19966041821E+04  0.46999998093E+01 0.  1.
       -5    1    3    3    0  502  0.56002755175E+03  0.14494199226E+04  0.96667098207E+03  0.18300065159E+04  0.46999998093E+01 0. -1.
</event>
<event>
 5   0  0.1370688E-07  0.3890358E+04  0.7818609E-02  0.8027038E-01
        2   -1    0    0  501    0  0.00000000000E+00  0.00000000000E+00  0.17300566667E+04  0.17300566667E+04  0.25500000920E-02 0. -1.
       -2   -1    0    0    0  501  0.00000000000E+00  0.00000000000E+00 -0.21870505986E+04  0.21870505986E+04  0.25500000920E-02 0.  1.
    10030    2    1    2    0    0  0.00000000000E+00  0.00000000000E+00 -0.45699393193E+03  0.39171072654E+04  0.38903580651E+04 0.  0.
        5    1    3    3  502    0  0.82876320541E+02  0.18515847029E+04  0.36587108925E+03  0.18892109836E+04  0.46999998093E+01 0. -1.
       -5    1    3    3    0  502 -0.82876320541E+02 -0.18515847029E+04 -0.82286502118E+03  0.20278962818E+04  0.46999998093E+01 0.  1.
</event>
<event>
 5   0  0.6661000E-08  0.3684842E+04  0.7818609E-02  0.8071329E-01
       -1   -1    0    0    0  501  0.00000000000E+00  0.00000000000E+00  0.15940384555E+04  0.15940384555E+04  0.50400001928E-02 0. -1.
        1   -1    0    0  501    0  0.00000000000E+00  0.00000000000E+00 -0.21295062962E+04  0.21295062962E+04  0.50400001928E-02 0.  1.
    10030    2    1    2    0    0  0.00000000000E+00  0.00000000000E+00 -0.53546784071E+03  0.37235447517E+04  0.36848418840E+04 0.  0.
        3    1    3    3  502    0 -0.11139365131E+04  0.38107277970E+03 -0.16998148891E+04  0.20677141209E+04  0.10100000352E+00 0.  1.
       -3    1    3    3    0  502  0.11139365131E+04 -0.38107277970E+03  0.11643470484E+04  0.16558306308E+04  0.10100000352E+00 0. -1.
</event>
<event>
 5   0  0.6661000E-08  0.3815591E+04  0.7818609E-02  0.8042817E-01
        1   -1    0    0  501    0  0.00000000000E+00  0.00000000000E+00  0.11384343123E+04  0.11384343123E+04  0.50400001928E-02 0.  1.
       -1   -1    0    0    0  501  0.00000000000E+00  0.00000000000E+00 -0.31970951451E+04  0.31970951451E+04  0.50400001928E-02 0. -1.
    10030    2    1    2    0    0  0.00000000000E+00  0.00000000000E+00 -0.20586608327E+04  0.43355294574E+04  0.38155905508E+04 0.  0.
        3    1    3    3  502    0  0.34055586584E+02 -0.14917675721E+04  0.32141933736E+03  0.15263815620E+04  0.10100000352E+00 0.  1.
       -3    1    3    3    0  502 -0.34055586584E+02  0.14917675721E+04 -0.23800801701E+04  0.28091478954E+04  0.10100000352E+00 0. -1.
</event>
<event>
 5   0  0.2205204E-07  0.3802194E+04  0.7818609E-02  0.8045684E-01
        2   -1    0    0  501    0  0.00000000000E+00  0.00000000000E+00  0.25306099313E+04  0.25306099313E+04  0.25500000920E-02 0.  1.
       -2   -1    0    0    0  501  0.00000000000E+00  0.00000000000E+00 -0.14281813854E+04  0.14281813854E+04  0.25500000920E-02 0. -1.
    10030    2    1    2    0    0  0.00000000000E+00  0.00000000000E+00  0.11024285458E+04  0.39587913167E+04  0.38021941022E+04 0.  0.
        2    1    3    3  502    0  0.75211003515E+03  0.45327002813E+03  0.23067930722E+04  0.24682822977E+04  0.25500000920E-02 0.  1.
       -2    1    3    3    0  502 -0.75211003515E+03 -0.45327002813E+03 -0.12043645264E+04  0.14905090190E+04  0.25500000920E-02 0. -1.
</event>
<event>
 5   0  0.2203998E-07  0.3812006E+04  0.7818609E-02  0.8043583E-01
       -2   -1    0    0    0  501  0.00000000000E+00  0.00000000000E+00  0.17357811073E+04  0.17357811073E+04  0.25500000920E-02 0. -1.
        2   -1    0    0  501    0  0.00000000000E+00  0.00000000000E+00 -0.20929177152E+04  0.20929177152E+04  0.25500000920E-02 0.  1.
    10030    2    1    2    0    0  0.00000000000E+00  0.00000000000E+00 -0.35713660788E+03  0.38286988225E+04  0.38120057866E+04 0.  0.
        3    1    3    3  502    0  0.11211369092E+04  0.14984932953E+04  0.18414591384E+03  0.18805158476E+04  0.10100000352E+00 0. -1.
       -3    1    3    3    0  502 -0.11211369092E+04 -0.14984932953E+04 -0.54128252172E+03  0.19481829749E+04  0.10100000352E+00 0.  1.
</event>
<event>
 5   0  0.6661000E-08  0.3811881E+04  0.7818609E-02  0.8043610E-01
        1   -1    0    0  501    0  0.00000000000E+00  0.00000000000E+00  0.29806779576E+04  0.29806779576E+04  0.50400001928E-02 0. -1.
       -1   -1    0    0    0  501  0.00000000000E+00  0.00000000000E+00 -0.12187192286E+04  0.12187192286E+04  0.50400001928E-02 0.  1.
    10030    2    1    2    0    0  0.00000000000E+00  0.00000000000E+00  0.17619587290E+04  0.41993971862E+04  0.38118811845E+04 0.  0.
        1    1    3    3  502    0 -0.10843652896E+03  0.10863848754E+04  0.26020456146E+04  0.28218135939E+04  0.50400001928E-02 0. -1.
       -1    1    3    3    0  502  0.10843652896E+03 -0.10863848754E+04 -0.84008688559E+03  0.13775835923E+04  0.50400001928E-02 0.  1.
</event>
<event>
 5   0  0.2081337E-07  0.3812525E+04  0.7818609E-02  0.8043472E-01
        2   -1    0    0  501    0  0.00000000000E+00  0.00000000000E+00  0.26542830583E+04  0.26542830583E+04  0.25500000920E-02 0. -1.
       -2   -1    0    0    0  501  0.00000000000E+00  0.00000000000E+00 -0.13690462625E+04  0.13690462625E+04  0.25500000920E-02 0.  1.
    10030    2    1    2    0    0  0.00000000000E+00  0.00000000000E+00  0.12852367958E+04  0.40233293208E+04  0.38125247806E+04 0.  0.
        1    1    3    3  502    0 -0.11842404501E+04 -0.14710886569E+04  0.91640332953E+03  0.20991241847E+04  0.50400001928E-02 0.  1.
       -1    1    3    3    0  502  0.11842404501E+04  0.14710886569E+04  0.36883346623E+03  0.19242051362E+04  0.50400001928E-02 0. -1.
</event>
<event>
 5   0  0.2081337E-07  0.3808058E+04  0.7818609E-02  0.8044428E-01
        2   -1    0    0  501    0  0.00000000000E+00  0.00000000000E+00  0.19778896273E+04  0.19778896273E+04  0.25500000920E-02 0.  1.
       -2   -1    0    0    0  501  0.00000000000E+00  0.00000000000E+00 -0.18329267939E+04  0.18329267939E+04  0.25500000920E-02 0. -1.
    10030    2    1    2    0    0  0.00000000000E+00  0.00000000000E+00  0.14496283337E+03  0.38108164212E+04  0.38080582418E+04 0.  0.
        1    1    3    3  502    0 -0.78052422083E+03  0.13816704327E+04  0.11254296446E+04  0.19454621890E+04  0.50400001928E-02 0.  1.
       -1    1    3    3    0  502  0.78052422083E+03 -0.13816704327E+04 -0.98046681122E+03  0.18653542322E+04  0.50400001928E-02 0. -1.
</event>
<event>
 5   0  0.1370688E-07  0.3813706E+04  0.7818609E-02  0.8043220E-01
       -2   -1    0    0    0  501  0.00000000000E+00  0.00000000000E+00  0.17757856474E+04  0.17757856474E+04  0.25500000920E-02 0. -1.
        2   -1    0    0  501    0  0.00000000000E+00  0.00000000000E+00 -0.20475936903E+04  0.20475936903E+04  0.25500000920E-02 0.  1.
    10030    2    1    2    0    0  0.00000000000E+00  0.00000000000E+00 -0.27180804298E+03  0.38233793377E+04  0.38137055403E+04 0.  0.
        5    1    3    3  502    0 -0.18876904152E+04  0.21115660445E+03 -0.30396929089E+03  0.19236376049E+04  0.46999998093E+01 0. -1.
       -5    1    3    3    0  502  0.18876904152E+04 -0.21115660445E+03  0.32161247906E+02  0.18997417328E+04  0.46999998093E+01 0.  1.
</event>
<event>
 5   0  0.2203998E-07  0.3788016E+04  0.7818609E-02  0.8048732E-01
       -2   -1    0    0    0  501  0.00000000000E+00  0.00000000000E+00  0.16787686435E+04  0.16787686435E+04  0.25500000920E-02 0. -1.
        2   -1    0    0  501    0  0.00000000000E+00  0.00000000000E+00 -0.21368432944E+04  0.21368432944E+04  0.25500000920E-02 0.  1.
    10030    2    1    2    0    0  0.00000000000E+00  0.00000000000E+00 -0.45807465083E+03  0.38156119379E+04  0.37880155853E+04 0.  0.
        3    1    3    3  502    0  0.79292162961E+03 -0.74948709369E+03  0.13304047081E+04  0.17205906869E+04  0.10100000352E+00 0. -1.
       -3    1    3    3    0  502 -0.79292162961E+03  0.74948709369E+03 -0.17884793590E+04  0.20950212510E+04  0.10100000352E+00 0.  1.
</event>
<event>
 5   0  0.6661000E-08  0.3778905E+04  0.7818609E-02  0.8050697E-01
        1   -1    0    0  501    0  0.00000000000E+00  0.00000000000E+00  0.22229471003E+04  0.22229471003E+04  0.50400001928E-02 0.  1.
       -1   -1    0    0    0  501  0.00000000000E+00  0.00000000000E+00 -0.16059899729E+04  0.16059899729E+04  0.50400001928E-02 0. -1.
    10030    2    1    2    0    0  0.00000000000E+00  0.00000000000E+00  0.61695712749E+03  0.38289370732E+04  0.37789050019E+04 0.  0.
        4    1    3    3  502    0  0.51678073650E+03 -0.87914083177E+03  0.19201600895E+04  0.21741589900E+04  0.12699999809E+01 0.  1.
       -4    1    3    3    0  502 -0.51678073650E+03  0.87914083177E+03 -0.13032029620E+04  0.16547780832E+04  0.12699999809E+01 0. -1.
</event>
<event>
 5   0  0.6661000E-08  0.3799802E+04  0.7818609E-02  0.8046197E-01
        1   -1    0    0  501    0  0.00000000000E+00  0.00000000000E+00  0.24903481262E+04  0.24903481262E+04  0.50400001928E-02 0. -1.
       -1   -1    0    0    0  501  0.00000000000E+00  0.00000000000E+00 -0.14494453693E+04  0.14494453694E+04  0.50400001928E-02 0.  1.
    10030    2    1    2    0    0  0.00000000000E+00  0.00000000000E+00  0.10409027568E+04  0.39397934955E+04  0.37998018683E+04 0.  0.
        1    1    3    3  502    0  0.59842622746E+03  0.17919616465E+04  0.72881032778E+03  0.20249456748E+04  0.50400001928E-02 0. -1.
       -1    1    3    3    0  502 -0.59842622746E+03 -0.17919616465E+04  0.31209242904E+03  0.19148478207E+04  0.50400001928E-02 0.  1.
</event>
<event>
 5   0  0.6661000E-08  0.3795547E+04  0.7818609E-02  0.8047111E-01
       -1   -1    0    0    0  501  0.00000000000E+00  0.00000000000E+00  0.13570402403E+04  0.13570402404E+04  0.50400001928E-02 0.  1.
        1   -1    0    0  501    0  0.00000000000E+00  0.00000000000E+00 -0.26539699413E+04  0.26539699413E+04  0.50400001928E-02 0. -1.
    10030    2    1    2    0    0  0.00000000000E+00  0.00000000000E+00 -0.12969297010E+04  0.40110101817E+04  0.37955468681E+04 0.  0.
        1    1    3    3  502    0 -0.18520039841E+03 -0.26602257202E+02  0.13472697244E+04  0.13601994625E+04  0.50400001928E-02 0.  1.
       -1    1    3    3    0  502  0.18520039841E+03  0.26602257202E+02 -0.26441994254E+04  0.26508107191E+04  0.50400001928E-02 0. -1.
</event>
<event>
 5   0  0.1370688E-07  0.3803179E+04  0.7818609E-02  0.8045473E-01
       -2   -1    0    0    0  501  0.00000000000E+00  0.00000000000E+00  0.10953388600E+04  0.10953388600E+04  0.25500000920E-02 0.  1.
        2   -1    0    0  501    0  0.00000000000E+00  0.00000000000E+00 -0.33013007824E+04  0.33013007824E+04  0.25500000920E-02 0. -1.
    10030    2    1    2    0    0  0.00000000000E+00  0.00000000000E+00 -0.22059619224E+04  0.43966396424E+04  0.38031792151E+04 0.  0.
        5    1    3    3  502    0 -0.63528063199E+03  0.13905430483E+04 -0.24102964381E+04  0.28542498944E+04  0.46999998093E+01 0. -1.
       -5    1    3    3    0  502  0.63528063199E+03 -0.13905430483E+04  0.20433451563E+03  0.15423897480E+04  0.46999998093E+01 0.  1.
</event>
<event>
 5   0  0.2081337E-07  0.3741045E+04  0.7818609E-02  0.8058926E-01
        2   -1    0    0  501    0  0.00000000000E+00  0.00000000000E+00  0.27076279806E+04  0.27076279806E+04  0.25500000920E-02 0. -1.
       -2   -1    0    0    0  501  0.00000000000E+00  0.00000000000E+00 -0.12922212111E+04  0.12922212111E+04  0.25500000920E-02 0.  1.
    10030    2    1    2    0    0  0.00000000000E+00  0.00000000000E+00  0.14154067695E+04  0.39998491917E+04  0.37410449386E+04 0.  0.
        1    1    3    3  502    0  0.40939503959E+03 -0.18243969215E+04  0.65086682947E+03  0.19798121263E+04  0.50400001928E-02 0.  1.
       -1    1    3    3    0  502 -0.40939503959E+03  0.18243969215E+04  0.76453993999E+03  0.20200370654E+04  0.50400001928E-02 0. -1.
</event>
<event>
 5   0  0.6661000E-08  0.3797210E+04  0.7818609E-02  0.8046754E-01
        1   -1    0    0  501    0  0.00000000000E+00  0.00000000000E+00  0.29770012972E+04  0.29770012972E+04  0.50400001928E-02 0. -1.
       -1   -1    0    0    0  501  0.00000000000E+00  0.00000000000E+00 -0.12108495058E+04  0.12108495058E+04  0.50400001928E-02 0.  1.
    10030    2    1    2    0    0  0.00000000000E+00  0.00000000000E+00  0.17661517914E+04  0.41878508030E+04  0.37972097911E+04 0.  0.
        3    1    3    3  502    0 -0.66013078594E+03 -0.16994664775E+04  0.29871657418E+03  0.18474822231E+04  0.10100000352E+00 0. -1.
       -3    1    3    3    0  502  0.66013078594E+03  0.16994664775E+04  0.14674352172E+04  0.23403685799E+04  0.10100000352E+00 0.  1.
</event>
<event>
 5   0  0.6661000E-08  0.3863183E+04  0.7818609E-02  0.8032730E-01
       -1   -1    0    0    0  501  0.00000000000E+00  0.00000000000E+00  0.14837981637E+04  0.14837981637E+04  0.50400001928E-02 0. -1.
        1   -1    0    0  501    0  0.00000000000E+00  0.00000000000E+00 -0.25145231227E+04  0.25145231227E+04  0.50400001928E-02 0.  1.
    10030    2    1    2    0    0  0.00000000000E+00  0.00000000000E+00 -0.10307249590E+04  0.39983212864E+04  0.38631825182E+04 0.  0.
        3    1    3    3  502    0  0.49860276991E+03  0.91793100980E+03 -0.21969577932E+04  0.24326581379E+04  0.10100000352E+00 0.  1.
       -3    1    3    3    0  502 -0.49860276991E+03 -0.91793100980E+03  0.11662328342E+04  0.15656631485E+04  0.10100000352E+00 0. -1.
</event>
<event>
 5   0  0.2081337E-07  0.3792048E+04  0.7818609E-02  0.8047864E-01
       -2   -1    0    0    0  501  0.00000000000E+00  0.00000000000E+00  0.20744166350E+04  0.20744166350E+04  0.25500000920E-02 0. -1.
        2   -1    0    0  501    0  0.00000000000E+00  0.00000000000E+00 -0.17329721700E+04  0.17329721700E+04  0.25500000920E-02 0.  1.
    10030    2    1    2    0    0  0.00000000000E+00  0.00000000000E+00  0.34144446493E+03  0.38073888050E+04  0.37920476249E+04 0.  0.
        1    1    3    3  502    0  0.59816248958E+03 -0.99828085451E+03 -0.13321778670E+04  0.17689151754E+04  0.50400001928E-02 0.  1.
       -1    1    3    3    0  502 -0.59816248958E+03  0.99828085451E+03  0.16736223320E+04  0.20384736296E+04  0.50400001928E-02 0. -1.
</event>
<event>
 5   0  0.6661000E-08  0.3836872E+04  0.7818609E-02  0.8038288E-01
        1   -1    0    0  501    0  0.00000000000E+00  0.00000000000E+00  0.13238130283E+04  0.13238130283E+04  0.50400001928E-02 0. -1.
       -1   -1    0    0    0  501  0.00000000000E+00  0.00000000000E+00 -0.27801488398E+04  0.27801488398E+04  0.50400001928E-02 0.  1.
    10030    2    1    2    0    0  0.00000000000E+00  0.00000000000E+00 -0.14563358115E+04  0.41039618681E+04  0.38368722964E+04 0.  0.
        1    1    3    3  502    0  0.35786321983E+03 -0.64363833406E+03  0.11666027649E+04  0.13796008119E+04  0.50400001928E-02 0. -1.
       -1    1    3    3    0  502 -0.35786321983E+03  0.64363833406E+03 -0.26229385764E+04  0.27243610562E+04  0.50400001928E-02 0.  1.
</event>
<event>
 5   0  0.6661000E-08  0.3640554E+04  0.7818609E-02  0.8081265E-01
       -1   -1    0    0    0  501  0.00000000000E+00  0.00000000000E+00  0.12367672214E+04  0.12367672214E+04  0.50400001928E-02 0. -1.
        1   -1    0    0  501    0  0.00000000000E+00  0.00000000000E+00 -0.26790888047E+04  0.26790888047E+04  0.50400001928E-02 0.  1.
    10030    2    1    2    0    0  0.00000000000E+00  0.00000000000E+00 -0.14423215833E+04  0.39158560261E+04  0.36405544725E+04 0.  0.
        2    1    3    3  502    0  0.14995773249E+04  0.89972971780E+03 -0.17782482318E+03  0.17578018620E+04  0.25500000920E-02 0.  1.
       -2    1    3    3    0  502 -0.14995773249E+04 -0.89972971780E+03 -0.12644967601E+04  0.21580541640E+04  0.25500000920E-02 0. -1.
</event>
<event>
 5   0  0.6661000E-08  0.3758212E+04  0.7818609E-02  0.8055182E-01
        1   -1    0    0  501    0  0.00000000000E+00  0.00000000000E+00  0.11815330642E+04  0.11815330642E+04  0.50400001928E-02 0.  1.
       -1   -1    0    0    0  501  0.00000000000E+00  0.00000000000E+00 -0.29885229614E+04  0.29885229614E+04  0.50400001928E-02 0. -1.
    10030    2    1    2    0    0  0.00000000000E+00  0.00000000000E+00 -0.18069898972E+04  0.41700560256E+04  0.37582116449E+04 0.  0.
        4    1    3    3  502    0 -0.40171709552E+03  0.13588200935E+04  0.46596354356E+03  0.14916072902E+04  0.12699999809E+01 0.  1.
       -4    1    3    3    0  502  0.40171709552E+03 -0.13588200935E+04 -0.22729534408E+04  0.26784487354E+04  0.12699999809E+01 0. -1.
</event>
<event>
 5   0  0.6661000E-08  0.3853730E+04  0.7818609E-02  0.8034722E-01
       -1   -1    0    0    0  501  0.00000000000E+00  0.00000000000E+00  0.19420299784E+04  0.19420299784E+04  0.50400001928E-02 0.  1.
        1   -1    0    0  501    0  0.00000000000E+00  0.00000000000E+00 -0.19118183325E+04  0.19118183325E+04  0.50400001928E-02 0. -1.
    10030    2    1    2    0    0  0.00000000000E+00  0.00000000000E+00  0.30211645893E+02  0.38538483109E+04  0.38537298893E+04 0.  0.
        2    1    3    3  502    0  0.28043835369E+03  0.10381222272E+04 -0.15838382675E+04  0.19143894813E+04  0.25500000920E-02 0. -1.
       -2    1    3    3    0  502 -0.28043835369E+03 -0.10381222272E+04  0.16140499134E+04  0.19394588296E+04  0.25500000920E-02 0.  1.
</event>
<event>
 5   0  0.6661000E-08  0.3824971E+04  0.7818609E-02  0.8040817E-01
       -1   -1    0    0    0  501  0.00000000000E+00  0.00000000000E+00  0.24168686011E+04  0.24168686011E+04  0.50400001928E-02 0. -1.
        1   -1    0    0  501    0  0.00000000000E+00  0.00000000000E+00 -0.15133637715E+04  0.15133637715E+04  0.50400001928E-02 0.  1.
    10030    2    1    2    0    0  0.00000000000E+00  0.00000000000E+00  0.90350482962E+03  0.39302323725E+04  0.38249713104E+04 0.  0.
        4    1    3    3  502    0  0.67078717973E+03  0.14662565279E+04  0.15085181288E+04  0.22080516761E+04  0.12699999809E+01 0. -1.
       -4    1    3    3    0  502 -0.67078717973E+03 -0.14662565279E+04 -0.60501329920E+03  0.17221806965E+04  0.12699999809E+01 0.  1.
</event>
<event>
 5   0  0.6661000E-08  0.3765722E+04  0.7818609E-02  0.8053551E-01
       -1   -1    0    0    0  501  0.00000000000E+00  0.00000000000E+00  0.18466572271E+04  0.18466572271E+04  0.50400001928E-02 0.  1.
        1   -1    0    0  501    0  0.00000000000E+00  0.00000000000E+00 -0.19197742434E+04  0.19197742434E+04  0.50400001928E-02 0. -1.
    10030    2    1    2    0    0  0.00000000000E+00  0.00000000000E+00 -0.73117016276E+02  0.37664314705E+04  0.37657217003E+04 0.  0.
        3    1    3    3  502    0 -0.95302492684E+03  0.11135779784E+04 -0.12186664380E+04  0.19061637712E+04  0.10100000352E+00 0.  1.
       -3    1    3    3    0  502  0.95302492684E+03 -0.11135779784E+04  0.11455494218E+04  0.18602676993E+04  0.10100000352E+00 0. -1.
</event>
<event>
 5   0  0.6661000E-08  0.3415888E+04  0.7818609E-02  0.8134018E-01
       -1   -1    0    0    0  501  0.00000000000E+00  0.00000000000E+00  0.18352800021E+04  0.18352800021E+04  0.50400001928E-02 0.  1.
        1   -1    0    0  501    0  0.00000000000E+00  0.00000000000E+00 -0.15894425104E+04  0.15894425105E+04  0.50400001928E-02 0. -1.
    10030    2    1    2    0    0  0.00000000000E+00  0.00000000000E+00  0.24583749163E+03  0.34247225125E+04  0.34158876175E+04 0.  0.
        4    1    3    3  502    0  0.98100598900E+03 -0.11958976674E+04  0.84903392415E+03  0.17644841169E+04  0.12699999809E+01 0.  1.
       -4    1    3    3    0  502 -0.98100598900E+03  0.11958976674E+04 -0.60319643252E+03  0.16602383957E+04  0.12699999809E+01 0. -1.
</event>
<event>
 5   0  0.1370688E-07  0.3796517E+04  0.7818609E-02  0.8046903E-01
        2   -1    0    0  501    0  0.00000000000E+00  0.00000000000E+00  0.24198725933E+04  0.24198725933E+04  0.25500000920E-02 0. -1.
       -2   -1    0    0    0  501  0.00000000000E+00  0.00000000000E+00 -0.14890807227E+04  0.14890807227E+04  0.25500000920E-02 0.  1.
    10030    2    1    2    0    0  0.00000000000E+00  0.00000000000E+00  0.93079187062E+03  0.39089533160E+04  0.37965171566E+04 0.  0.
        5    1    3    3  502    0  0.92515589667E+03 -0.15355950610E+04  0.11078941543E+04  0.21074670037E+04  0.46999998093E+01 0. -1.
       -5    1    3    3    0  502 -0.92515589667E+03  0.15355950610E+04 -0.17710228368E+03  0.18014863123E+04  0.46999998093E+01 0.  1.
</event>
<event>
 5   0  0.6661000E-08  0.3809869E+04  0.7818609E-02  0.8044040E-01
        1   -1    0    0  501    0  0.00000000000E+00  0.00000000000E+00  0.16618986930E+04  0.16618986930E+04  0.50400001928E-02 0. -1.
       -1   -1    0    0    0  501  0.00000000000E+00  0.00000000000E+00 -0.21835115502E+04  0.21835115502E+04  0.50400001928E-02 0.  1.
    10030    2    1    2    0    0  0.00000000000E+00  0.00000000000E+00 -0.52161285716E+03  0.38454102432E+04  0.38098687597E+04 0.  0.
        2    1    3    3  502    0  0.26314772662E+03  0.13535900974E+03 -0.21601707311E+04  0.21803454715E+04  0.25500000920E-02 0.  1.
       -2    1    3    3    0  502 -0.26314772662E+03 -0.13535900974E+03  0.16385578740E+04  0.16650647717E+04  0.25500000920E-02 0. -1.
</event>
<event>
 5   0  0.6661000E-08  0.3793661E+04  0.7818609E-02  0.8047517E-01
       -1   -1    0    0    0  501  0.00000000000E+00  0.00000000000E+00  0.18184520918E+04  0.18184520918E+04  0.50400001928E-02 0.  1.
        1   -1    0    0  501    0  0.00000000000E+00  0.00000000000E+00 -0.19785867146E+04  0.19785867146E+04  0.50400001928E-02 0. -1.
    10030    2    1    2    0    0  0.00000000000E+00  0.00000000000E+00 -0.16013462274E+03  0.37970388064E+04  0.37936605805E+04 0.  0.
        3    1    3    3  502    0 -0.14037341306E+04 -0.12719973880E+04 -0.17771583796E+03  0.19026375887E+04  0.10100000352E+00 0.  1.
       -3    1    3    3    0  502  0.14037341306E+04  0.12719973880E+04  0.17581215226E+02  0.18944012178E+04  0.10100000352E+00 0. -1.
</event>
<event>
 5   0  0.1370688E-07  0.3772280E+04  0.7818609E-02  0.8052130E-01
        2   -1    0    0  501    0  0.00000000000E+00  0.00000000000E+00  0.25581401343E+04  0.25581401343E+04  0.25500000920E-02 0.  1.
       -2   -1    0    0    0  501  0.00000000000E+00  0.00000000000E+00 -0.13906681991E+04  0.13906681991E+04  0.25500000920E-02 0. -1.
    10030    2    1    2    0    0  0.00000000000E+00  0.00000000000E+00  0.11674719352E+04  0.39488083333E+04  0.37722800180E+04 0.  0.
        5    1    3    3  502    0  0.22846850181E+03  0.45259849082E+03 -0.13179959208E+04  0.14121538824E+04  0.46999998093E+01 0. -1.
       -5    1    3    3    0  502 -0.22846850181E+03 -0.45259849082E+03  0.24854678560E+04  0.25366544510E+04  0.46999998093E+01 0.  1.
</event>
<event>
 5   0  0.2081337E-07  0.3780598E+04  0.7818609E-02  0.8050331E-01
        2   -1    0    0  501    0  0.00000000000E+00  0.00000000000E+00  0.13875512507E+04  0.13875512507E+04  0.25500000920E-02 0.  1.
       -2   -1    0    0    0  501  0.00000000000E+00  0.00000000000E+00 -0.25752063348E+04  0.25752063348E+04  0.25500000920E-02 0. -1.
    10030    2    1    2    0    0  0.00000000000E+00  0.00000000000E+00 -0.11876550841E+04  0.39627575855E+04  0.37805982440E+04 0.  0.
        1    1    3    3  502    0  0.70204024488E+03  0.15769193802E+04  0.21381440777E+03  0.17393251099E+04  0.50400001928E-02 0. -1.
       -1    1    3    3    0  502 -0.70204024488E+03 -0.15769193802E+04 -0.14014694918E+04  0.22234324756E+04  0.50400001928E-02 0.  1.
</event>
<event>
 5   0  0.6661000E-08  0.3795208E+04  0.7818609E-02  0.8047184E-01
        1   -1    0    0  501    0  0.00000000000E+00  0.00000000000E+00  0.23305566255E+04  0.23305566255E+04  0.50400001928E-02 0.  1.
       -1   -1    0    0    0  501  0.00000000000E+00  0.00000000000E+00 -0.15450821460E+04  0.15450821460E+04  0.50400001928E-02 0. -1.
    10030    2    1    2    0    0  0.00000000000E+00  0.00000000000E+00  0.78547447944E+03  0.38756387715E+04  0.37952082590E+04 0.  0.
        1    1    3    3  502    0  0.12663376207E+03 -0.13039021717E+04  0.17946768530E+04  0.22219500421E+04  0.50400001928E-02 0.  1.
       -1    1    3    3    0  502 -0.12663376207E+03  0.13039021717E+04 -0.10092023735E+04  0.16536887294E+04  0.50400001928E-02 0. -1.
</event>
<event>
 5   0  0.2205204E-07  0.3794385E+04  0.7818609E-02  0.8047361E-01
       -2   -1    0    0    0  501  0.00000000000E+00  0.00000000000E+00  0.21744766848E+04  0.21744766848E+04  0.25500000920E-02 0.  1.
        2   -1    0    0  501    0  0.00000000000E+00  0.00000000000E+00 -0.16552671932E+04  0.16552671932E+04  0.25500000920E-02 0. -1.
    10030    2    1    2    0    0  0.00000000000E+00  0.00000000000E+00  0.51920949161E+03  0.38297438780E+04  0.37943852828E+04 0.  0.
        2    1    3    3  502    0 -0.12994091047E+04 -0.10661341794E+04 -0.62850036522E+03  0.17944689518E+04  0.25500000920E-02 0.  1.
       -2    1    3    3    0  502  0.12994091047E+04  0.10661341794E+04  0.11477098568E+04  0.20352749262E+04  0.25500000920E-02 0. -1.
</event>
<event>
 5   0  0.6725199E-08  0.3811939E+04  0.7818609E-02  0.8043598E-01
       -1   -1    0    0    0  501  0.00000000000E+00  0.00000000000E+00  0.27756404038E+04  0.27756404038E+04  0.50400001928E-02 0.  1.
        1   -1    0    0  501    0  0.00000000000E+00  0.00000000000E+00 -0.13087863356E+04  0.13087863356E+04  0.50400001928E-02 0. -1.
    10030    2    1    2    0    0  0.00000000000E+00  0.00000000000E+00  0.14668540682E+04  0.40844267393E+04  0.38119392613E+04 0.  0.
        5    1    3    3  502    0 -0.62051498635E+03  0.12964692935E+04 -0.60777936156E+03  0.15605413546E+04  0.46999998093E+01 0.  1.
       -5    1    3    3    0  502  0.62051498635E+03 -0.12964692935E+04  0.20746334297E+04  0.25238853847E+04  0.46999998093E+01 0. -1.
</event>
<event>
 5   0  0.6661000E-08  0.3829790E+04  0.7818609E-02  0.8039792E-01
       -1   -1    0    0    0  501  0.00000000000E+00  0.00000000000E+00  0.17633581819E+04  0.17633581819E+04  0.50400001928E-02 0. -1.
        1   -1    0    0  501    0  0.00000000000E+00  0.00000000000E+00 -0.20794541108E+04  0.20794541108E+04  0.50400001928E-02 0.  1.
    10030    2    1    2    0    0  0.00000000000E+00  0.00000000000E+00 -0.31609592893E+03  0.38428122927E+04  0.38297897698E+04 0.  0.
        4    1    3    3  502    0  0.24249954171E+02 -0.16551433318E+04 -0.11239912334E+04  0.20008611683E+04  0.12699999809E+01 0.  1.
       -4    1    3    3    0  502 -0.24249954171E+02  0.16551433318E+04  0.80789530443E+03  0.18419511245E+04  0.12699999809E+01 0. -1.
</event>
<event>
 5   0  0.6661000E-08  0.3823323E+04  0.7818609E-02  0.8041168E-01
        1   -1    0    0  501    0  0.00000000000E+00  0.00000000000E+00  0.25892008922E+04  0.25892008922E+04  0.50400001928E-02 0.  1.
       -1   -1    0    0    0  501  0.00000000000E+00  0.00000000000E+00 -0.14114199037E+04  0.14114199037E+04  0.50400001928E-02 0. -1.
    10030    2    1    2    0    0  0.00000000000E+00  0.00000000000E+00  0.11777809884E+04  0.40006207959E+04  0.38233229913E+04 0.  0.
        1    1    3    3  502    0  0.12367723355E+04  0.63039392671E+03 -0.78638217061E+03  0.15954307352E+04  0.50400001928E-02 0. -1.
       -1    1    3    3    0  502 -0.12367723355E+04 -0.63039392671E+03  0.19641631590E+04  0.24051900607E+04  0.50400001928E-02 0.  1.
</event>
<event>
 5   0  0.6661000E-08  0.3796361E+04  0.7818609E-02  0.8046936E-01
        3   -1    0    0  501    0  0.00000000000E+00  0.00000000000E+00  0.11754012431E+04  0.11754012475E+04  0.10100000352E+00 0.  1.
       -3   -1    0    0    0  501  0.00000000000E+00  0.00000000000E+00 -0.30654117970E+04  0.30654117987E+04  0.10100000352E+00 0. -1.
    10030    2    1    2    0    0  0.00000000000E+00  0.00000000000E+00 -0.18900105539E+04  0.42408130462E+04  0.37963608099E+04 0.  0.
        4    1    3    3  502    0  0.11278939531E+04  0.15115625802E+04 -0.70510477280E+03  0.20134896466E+04  0.12699999809E+01 0.  1.
       -4    1    3    3    0  502 -0.11278939531E+04 -0.15115625802E+04 -0.11849057811E+04  0.22273233996E+04  0.12699999809E+01 0. -1.
</event>
<event>
 5   0  0.2203998E-07  0.3795222E+04  0.7818609E-02  0.8047181E-01
        2   -1    0    0  501    0  0.00000000000E+00  0.00000000000E+00  0.17155061397E+04  0.17155061397E+04  0.25500000920E-02 0. -1.
       -2   -1    0    0    0  501  0.00000000000E+00  0.00000000000E+00 -0.20990470938E+04  0.20990470938E+04  0.25500000920E-02 0.  1.
    10030    2    1    2    0    0  0.00000000000E+00  0.00000000000E+00 -0.38354095404E+03  0.38145532335E+04  0.37952223529E+04 0.  0.
        3    1    3    3  502    0  0.15604599403E+04 -0.35680714460E+03  0.83252856734E+03  0.18042866705E+04  0.10100000352E+00 0. -1.
       -3    1    3    3    0  502 -0.15604599403E+04  0.35680714460E+03 -0.12160695214E+04  0.20102665631E+04  0.10100000352E+00 0.  1.
</event>
<event>
 5   0  0.2135314E-07  0.3793414E+04  0.7818609E-02  0.8047570E-01
       -2   -1    0    0    0  501  0.00000000000E+00  0.00000000000E+00  0.27512664956E+04  0.27512664956E+04  0.25500000920E-02 0. -1.
        2   -1    0    0  501    0  0.00000000000E+00  0.00000000000E+00 -0.13075787806E+04  0.13075787806E+04  0.25500000920E-02 0.  1.
    10030    2    1    2    0    0  0.00000000000E+00  0.00000000000E+00  0.14436877150E+04  0.40588452761E+04  0.37934141294E+04 0.  0.
        4    1    3    3  502    0 -0.91940268150E+03  0.11398117231E+04 -0.56791534669E+03  0.15706691277E+04  0.12699999809E+01 0.  1.
       -4    1    3    3    0  502  0.91940268150E+03 -0.11398117231E+04  0.20116030617E+04  0.24881761484E+04  0.12699999809E+01 0. -1.
</event>
<event>
 5   0  0.6661000E-08  0.3798668E+04  0.7818609E-02  0.8046441E-01
        1   -1    0    0  501    0  0.00000000000E+00  0.00000000000E+00  0.17265960562E+04  0.17265960562E+04  0.50400001928E-02 0. -1.
       -1   -1    0    0    0  501  0.00000000000E+00  0.00000000000E+00 -0.20893540018E+04  0.20893540018E+04  0.50400001928E-02 0.  1.
    10030    2    1    2    0    0  0.00000000000E+00  0.00000000000E+00 -0.36275794553E+03  0.38159500580E+04  0.37986683875E+04 0.  0.
        4    1    3    3  502    0  0.11328727061E+04  0.14106164820E+04  0.39937686574E+03  0.18527662889E+04  0.12699999809E+01 0. -1.
       -4    1    3    3    0  502 -0.11328727061E+04 -0.14106164820E+04 -0.76213481128E+03  0.19631837691E+04  0.12699999809E+01 0.  1.
</event>
<event>
 5   0  0.6661000E-08  0.3803261E+04  0.7818609E-02  0.8045455E-01
       -1   -1    0    0    0  501  0.00000000000E+00  0.00000000000E+00  0.15475687667E+04  0.15475687667E+04  0.50400001928E-02 0.  1.
        1   -1    0    0  501    0  0.00000000000E+00  0.00000000000E+00 -0.23366964961E+04  0.23366964961E+04  0.50400001928E-02 0. -1.
    10030    2    1    2    0    0  0.00000000000E+00  0.00000000000E+00 -0.78912772944E+03  0.38842652628E+04  0.38032609769E+04 0.  0.
        3    1    3    3  502    0  0.21748132125E+03  0.18890017290E+04 -0.41900785459E+03  0.19470986749E+04  0.10100000352E+00 0.  1.
       -3    1    3    3    0  502 -0.21748132125E+03 -0.18890017290E+04 -0.37011987485E+03  0.19371665879E+04  0.10100000352E+00 0. -1.
</event>
<event>
 5   0  0.2203998E-07  0.3802252E+04  0.7818609E-02  0.8045672E-01
        2   -1    0    0  501    0  0.00000000000E+00  0.00000000000E+00  0.16509801897E+04  0.16509801897E+04  0.25500000920E-02 0. -1.
       -2   -1    0    0    0  501  0.00000000000E+00  0.00000000000E+00 -0.21891718953E+04  0.21891718953E+04  0.25500000920E-02 0.  1.
    10030    2    1    2    0    0  0.00000000000E+00  0.00000000000E+00 -0.53819170560E+03  0.38401520849E+04  0.38022516649E+04 0.  0.
        3    1    3    3  502    0 -0.38906503196E+03 -0.13058991585E+04  0.10698394202E+04  0.17324262197E+04  0.10100000352E+00 0. -1.
       -3    1    3    3    0  502  0.38906503196E+03  0.13058991585E+04 -0.16080311258E+04  0.21077258653E+04  0.10100000352E+00 0.  1.
</event>
<event>
 5   0  0.6661000E-08  0.3798263E+04  0.7818609E-02  0.8046528E-01
        1   -1    0    0  501    0  0.00000000000E+00  0.00000000000E+00  0.15189186369E+04  0.15189186369E+04  0.50400001928E-02 0.  1.
       -1   -1    0    0    0  501  0.00000000000E+00  0.00000000000E+00 -0.23745191122E+04  0.23745191122E+04  0.50400001928E-02 0. -1.
    10030    2    1    2    0    0  0.00000000000E+00  0.00000000000E+00 -0.85560047531E+03  0.38934377491E+04  0.37982634628E+04 0.  0.
        2    1    3    3  502    0 -0.81531344283E+03 -0.24199456893E+03 -0.21684079124E+04  0.23292252480E+04  0.25500000920E-02 0. -1.
       -2    1    3    3    0  502  0.81531344283E+03  0.24199456893E+03  0.13128074371E+04  0.15642125010E+04  0.25500000920E-02 0.  1.
</event>
<event>
 5   0  0.2203998E-07  0.3805097E+04  0.7818609E-02  0.8045062E-01
        2   -1    0    0  501    0  0.00000000000E+00  0.00000000000E+00  0.29851406044E+04  0.29851406044E+04  0.25500000920E-02 0. -1.
       -2   -1    0    0    0  501  0.00000000000E+00  0.00000000000E+00 -0.12125693383E+04  0.12125693383E+04  0.25500000920E-02 0.  1.
    10030    2    1    2    0    0  0.00000000000E+00  0.00000000000E+00  0.17725712662E+04  0.41977099427E+04  0.38050965650E+04 0.  0.
        3    1    3    3  502    0  0.19268826405E+03  0.10240562287E+04 -0.86977258866E+03  0.13573224719E+04  0.10100000352E+00 0.  1.
       -3    1    3    3    0  502 -0.19268826405E+03 -0.10240562287E+04  0.26423438548E+04  0.28403874707E+04  0.10100000352E+00 0. -1.
</event>
<event>
 5   0  0.6725199E-08  0.3804167E+04  0.7818609E-02  0.8045261E-01
       -1   -1    0    0    0  501  0.00000000000E+00  0.00000000000E+00  0.16443386866E+04  0.16443386867E+04  0.50400001928E-02 0.  1.
        1   -1    0    0  501    0  0.00000000000E+00  0.00000000000E+00 -0.22002292157E+04  0.22002292158E+04  0.50400001928E-02 0. -1.
    10030    2    1    2    0    0  0.00000000000E+00  0.00000000000E+00 -0.55589052910E+03  0.38445679024E+04  0.38041671987E+04 0.  0.
        5    1    3    3  502    0 -0.70110392251E+03  0.16304243576E+04 -0.96936722991E+03  0.20222574546E+04  0.46999998093E+01 0. -1.
       -5    1    3    3    0  502  0.70110392251E+03 -0.16304243576E+04  0.41347670081E+03  0.18223104478E+04  0.46999998093E+01 0.  1.
</event>
<event>
 5   0  0.6661000E-08  0.3769995E+04  0.7818609E-02  0.8052625E-01
       -1   -1    0    0    0  501  0.00000000000E+00  0.00000000000E+00  0.20381102043E+04  0.20381102043E+04  0.50400001928E-02 0.  1.
        1   -1    0    0  501    0  0.00000000000E+00  0.00000000000E+00 -0.17433870189E+04  0.17433870189E+04  0.50400001928E-02 0. -1.
    10030    2    1    2    0    0  0.00000000000E+00  0.00000000000E+00  0.29472318536E+03  0.37814972232E+04  0.37699946277E+04 0.  0.
        2    1    3    3  502    0  0.10990731414E+04  0.10540358014E+04  0.12617245546E+04  0.19776000840E+04  0.25500000920E-02 0.  1.
       -2    1    3    3    0  502 -0.10990731414E+04 -0.10540358014E+04 -0.96700136922E+03  0.18038971392E+04  0.25500000920E-02 0. -1.
</event>
<event>
 5   0  0.1370688E-07  0.3815810E+04  0.7818609E-02  0.8042771E-01
        2   -1    0    0  501    0  0.00000000000E+00  0.00000000000E+00  0.24906440293E+04  0.24906440293E+04  0.25500000920E-02 0. -1.
       -2   -1    0    0    0  501  0.00000000000E+00  0.00000000000E+00 -0.14615097968E+04  0.14615097968E+04  0.25500000920E-02 0.  1.
    10030    2    1    2    0    0  0.00000000000E+00  0.00000000000E+00  0.10291342325E+04  0.39521538261E+04  0.38158095598E+04 0.  0.
        5    1    3    3  502    0  0.48235555841E+03 -0.14449411062E+04  0.17043321601E+04  0.22858897364E+04  0.46999998093E+01 0. -1.
       -5    1    3    3    0  502 -0.48235555841E+03  0.14449411062E+04 -0.67519792754E+03  0.16662640897E+04  0.46999998093E+01 0.  1.
</event>
<event>
 5   0  0.6661000E-08  0.3798231E+04  0.7818609E-02  0.8046535E-01
       -1   -1    0    0    0  501  0.00000000000E+00  0.00000000000E+00  0.13566540870E+04  0.13566540871E+04  0.50400001928E-02 0. -1.
        1   -1    0    0  501    0  0.00000000000E+00  0.00000000000E+00 -0.26584811116E+04  0.26584811116E+04  0.50400001928E-02 0.  1.
    10030    2    1    2    0    0  0.00000000000E+00  0.00000000000E+00 -0.13018270246E+04  0.40151351987E+04  0.37982307805E+04 0.  0.
        1    1    3    3  502    0 -0.14249124889E+04  0.85246372628E+03 -0.16252707589E+04  0.23234833861E+04  0.50400001928E-02 0.  1.
       -1    1    3    3    0  502  0.14249124889E+04 -0.85246372628E+03  0.32344373433E+03  0.16916518126E+04  0.50400001928E-02 0. -1.
</event>
<event>
 5   0  0.6661000E-08  0.3628497E+04  0.7818609E-02  0.8083995E-01
        1   -1    0    0  501    0  0.00000000000E+00  0.00000000000E+00  0.30783197780E+04  0.30783197780E+04  0.50400001928E-02 0. -1.
       -1   -1    0    0    0  501  0.00000000000E+00  0.00000000000E+00 -0.10692510838E+04  0.10692510838E+04  0.50400001928E-02 0.  1.
    10030    2    1    2    0    0  0.00000000000E+00  0.00000000000E+00  0.20090686942E+04  0.41475708619E+04  0.36284965256E+04 0.  0.
        1    1    3    3  502    0  0.26603226950E+03 -0.12902094616E+04  0.24304160666E+04  0.27644775058E+04  0.50400001928E-02 0. -1.
       -1    1    3    3    0  502 -0.26603226950E+03  0.12902094616E+04 -0.42134737244E+03  0.13830933560E+04  0.50400001928E-02 0.  1.
</event>
<event>
 5   0  0.1370688E-07  0.3776859E+04  0.7818609E-02  0.8051139E-01
        2   -1    0    0  501    0  0.00000000000E+00  0.00000000000E+00  0.25276108345E+04  0.25276108345E+04  0.25500000920E-02 0.  1.
       -2   -1    0    0    0  501  0.00000000000E+00  0.00000000000E+00 -0.14108843209E+04  0.14108843209E+04  0.25500000920E-02 0. -1.
    10030    2    1    2    0    0  0.00000000000E+00  0.00000000000E+00  0.11167265136E+04  0.39384951554E+04  0.37768592750E+04 0.  0.
        5    1    3    3  502    0 -0.11278379474E+04 -0.14394130416E+04  0.66791141519E+02  0.18298665215E+04  0.46999998093E+01 0.  1.
       -5    1    3    3    0  502  0.11278379474E+04  0.14394130416E+04  0.10499353721E+04  0.21086286339E+04  0.46999998093E+01 0. -1.
</event>
<event>
 5   0  0.6661000E-08  0.3755766E+04  0.7818609E-02  0.8055715E-01
       -1   -1    0    0    0  501  0.00000000000E+00  0.00000000000E+00  0.17711001102E+04  0.17711001102E+04  0.50400001928E-02 0. -1.
        1   -1    0    0  501    0  0.00000000000E+00  0.00000000000E+00 -0.19911041321E+04  0.19911041321E+04  0.50400001928E-02 0.  1.
    10030    2    1    2    0    0  0.00000000000E+00  0.00000000000E+00 -0.22000402192E+03  0.37622042423E+04  0.37557660991E+04 0.  0.
        2    1    3    3  502    0  0.47056006217E+03  0.16577803158E+04  0.63745562120E+03  0.18373927224E+04  0.25500000920E-02 0. -1.
       -2    1    3    3    0  502 -0.47056006217E+03 -0.16577803158E+04 -0.85745964312E+03  0.19248115199E+04  0.25500000920E-02 0.  1.
</event>
<event>
 5   0  0.6661000E-08  0.3797291E+04  0.7818609E-02  0.8046736E-01
        1   -1    0    0  501    0  0.00000000000E+00  0.00000000000E+00  0.21881823197E+04  0.21881823197E+04  0.50400001928E-02 0.  1.
       -1   -1    0    0    0  501  0.00000000000E+00  0.00000000000E+00 -0.16474197613E+04  0.16474197613E+04  0.50400001928E-02 0. -1.
    10030    2    1    2    0    0  0.00000000000E+00  0.00000000000E+00  0.54076255840E+03  0.38356020810E+04  0.37972910317E+04 0.  0.
        1    1    3    3  502    0 -0.43521133621E+03  0.14373005839E+04 -0.90306787272E+03  0.17523622509E+04  0.50400001928E-02 0. -1.
       -1    1    3    3    0  502  0.43521133621E+03 -0.14373005839E+04  0.14438304311E+04  0.20832398301E+04  0.50400001928E-02 0.  1.
</event>
<event>
 5   0  0.1370688E-07  0.3778711E+04  0.7818609E-02  0.8050739E-01
       -2   -1    0    0    0  501  0.00000000000E+00  0.00000000000E+00  0.14211399943E+04  0.14211399943E+04  0.25500000920E-02 0. -1.
        2   -1    0    0  501    0  0.00000000000E+00  0.00000000000E+00 -0.25118314812E+04  0.25118314812E+04  0.25500000920E-02 0.  1.
    10030    2    1    2    0    0  0.00000000000E+00  0.00000000000E+00 -0.10906914869E+04  0.39329714754E+04  0.37787109849E+04 0.  0.
        5    1    3    3  502    0  0.61586886578E+03  0.13830150790E+04 -0.17218065072E+04  0.22927417881E+04  0.46999998093E+01 0.  1.
       -5    1    3    3    0  502 -0.61586886578E+03 -0.13830150790E+04  0.63111502033E+03  0.16402296874E+04  0.46999998093E+01 0. -1.
</event>
<event>
 5   0  0.6725199E-08  0.3788578E+04  0.7818609E-02  0.8048610E-01
       -1   -1    0    0    0  501  0.00000000000E+00  0.00000000000E+00  0.19871752267E+04  0.19871752267E+04  0.50400001928E-02 0.  1.
        1   -1    0    0  501    0  0.00000000000E+00  0.00000000000E+00 -0.18057447988E+04  0.18057447988E+04  0.50400001928E-02 0. -1.
    10030    2    1    2    0    0  0.00000000000E+00  0.00000000000E+00  0.18143042788E+03  0.37929200255E+04  0.37885782716E+04 0.  0.
        5    1    3    3  502    0 -0.82412797989E+03  0.12333077420E+04 -0.10888006389E+04  0.18400390852E+04  0.46999998093E+01 0.  1.
       -5    1    3    3    0  502  0.82412797989E+03 -0.12333077420E+04  0.12702310668E+04  0.19528809403E+04  0.46999998093E+01 0. -1.
</event>
<event>
 5   0  0.2203998E-07  0.3790072E+04  0.7818609E-02  0.8048289E-01
       -2   -1    0    0    0  501  0.00000000000E+00  0.00000000000E+00  0.15765588975E+04  0.15765588975E+04  0.25500000920E-02 0. -1.
        2   -1    0    0  501    0  0.00000000000E+00  0.00000000000E+00 -0.22778483810E+04  0.22778483810E+04  0.25500000920E-02 0.  1.
    10030    2    1    2    0    0  0.00000000000E+00  0.00000000000E+00 -0.70128948356E+03  0.38544072785E+04  0.37900723646E+04 0.  0.
        3    1    3    3  502    0  0.53773174001E+03  0.52590712837E+03  0.14182563077E+04  0.16053612355E+04  0.10100000352E+00 0. -1.
       -3    1    3    3    0  502 -0.53773174001E+03 -0.52590712837E+03 -0.21195457913E+04  0.22490460430E+04  0.10100000352E+00 0.  1.
</event>
<event>
 5   0  0.6661000E-08  0.3781808E+04  0.7818609E-02  0.8050070E-01
        1   -1    0    0  501    0  0.00000000000E+00  0.00000000000E+00  0.20157593585E+04  0.20157593585E+04  0.50400001928E-02 0.  1.
       -1   -1    0    0    0  501  0.00000000000E+00  0.00000000000E+00 -0.17737818187E+04  0.17737818187E+04  0.50400001928E-02 0. -1.
    10030    2    1    2    0    0  0.00000000000E+00  0.00000000000E+00  0.24197753977E+03  0.37895411772E+04  0.37818076635E+04 0.  0.
        2    1    3    3  502    0  0.30384552731E+03  0.10884242411E+04  0.16401787233E+04  0.19917770150E+04  0.25500000920E-02 0.  1.
       -2    1    3    3    0  502 -0.30384552731E+03 -0.10884242411E+04 -0.13982011835E+04  0.17977641622E+04  0.25500000920E-02 0. -1.
</event>
<event>
 5   0  0.6661000E-08  0.3811585E+04  0.7818609E-02  0.8043673E-01
       -1   -1    0    0    0  501  0.00000000000E+00  0.00000000000E+00  0.13833129985E+04  0.13833129985E+04  0.50400001928E-02 0. -1.
        1   -1    0    0  501    0  0.00000000000E+00  0.00000000000E+00 -0.26256127888E+04  0.26256127888E+04  0.50400001928E-02 0.  1.
    10030    2    1    2    0    0  0.00000000000E+00  0.00000000000E+00 -0.12422997903E+04  0.40089257873E+04  0.38115846047E+04 0.  0.
        2    1    3    3  502    0 -0.56481030010E+03  0.24325170296E+03 -0.25183888502E+04  0.25923858638E+04  0.25500000920E-02 0.  1.
       -2    1    3    3    0  502  0.56481030010E+03 -0.24325170296E+03  0.12760890599E+04  0.14165399235E+04  0.25500000920E-02 0. -1.
</event>
<event>
 5   0  0.6661000E-08  0.3809472E+04  0.7818609E-02  0.8044125E-01
       -1   -1    0    0    0  501  0.00000000000E+00  0.00000000000E+00  0.25704726268E+04  0.25704726268E+04  0.50400001928E-02 0. -1.
        1   -1    0    0  501    0  0.00000000000E+00  0.00000000000E+00 -0.14114208164E+04  0.14114208164E+04  0.50400001928E-02 0.  1.
    10030    2    1    2    0    0  0.00000000000E+00  0.00000000000E+00  0.11590518104E+04  0.39818934433E+04  0.38094716555E+04 0.  0.
        4    1    3    3  502    0 -0.12460850036E+04 -0.62052414107E+03  0.19384616918E+04  0.23865065241E+04  0.12699999809E+01 0. -1.
       -4    1    3    3    0  502  0.12460850036E+04  0.62052414107E+03 -0.77940988144E+03  0.15953869192E+04  0.12699999809E+01 0.  1.
</event>
<event>
 5   0  0.6661000E-08  0.3796718E+04  0.7818609E-02  0.8046859E-01
        1   -1    0    0  501    0  0.00000000000E+00  0.00000000000E+00  0.10341180052E+04  0.10341180052E+04  0.50400001928E-02 0.  1.
       -1   -1    0    0    0  501  0.00000000000E+00  0.00000000000E+00 -0.34848706014E+04  0.34848706014E+04  0.50400001928E-02 0. -1.
    10030    2    1    2    0    0  0.00000000000E+00  0.00000000000E+00 -0.24507525961E+04  0.45189886066E+04  0.37967182854E+04 0.  0.
        2    1    3    3  502    0  0.63853105852E+03  0.10121176105E+04 -0.29793744641E+04  0.32107282924E+04  0.25500000920E-02 0. -1.
       -2    1    3    3    0  502 -0.63853105852E+03 -0.10121176105E+04  0.52862186800E+03  0.13082603142E+04  0.25500000920E-02 0.  1.
</event>
<event>
 5   0  0.2205204E-07  0.3749599E+04  0.7818609E-02  0.8057058E-01
        2   -1    0    0  501    0  0.00000000000E+00  0.00000000000E+00  0.16528247068E+04  0.16528247068E+04  0.25500000920E-02 0.  1.
       -2   -1    0    0    0  501  0.00000000000E+00  0.00000000000E+00 -0.21265860880E+04  0.21265860880E+04  0.25500000920E-02 0. -1.
    10030    2    1    2    0    0  0.00000000000E+00  0.00000000000E+00 -0.47376138122E+03  0.37794107949E+04  0.37495994600E+04 0.  0.
        2    1    3    3  502    0  0.46543518059E+03 -0.17992014293E+03  0.15846599204E+04  0.16613693835E+04  0.25500000920E-02 0.  1.
       -2    1    3    3    0  502 -0.46543518059E+03  0.17992014293E+03 -0.20584213016E+04  0.21180414113E+04  0.25500000920E-02 0. -1.
</event>
<event>
 5   0  0.2081337E-07  0.3804879E+04  0.7818609E-02  0.8045109E-01
        2   -1    0    0  501    0  0.00000000000E+00  0.00000000000E+00  0.24652542245E+04  0.24652542245E+04  0.25500000920E-02 0. -1.
       -2   -1    0    0    0  501  0.00000000000E+00  0.00000000000E+00 -0.14681149556E+04  0.14681149556E+04  0.25500000920E-02 0.  1.
    10030    2    1    2    0    0  0.00000000000E+00  0.00000000000E+00  0.99713926890E+03  0.39333691801E+04  0.38048792866E+04 0.  0.
        1    1    3    3  502    0  0.63311462064E+02  0.12305828980E+04 -0.99983818563E+03  0.15868267100E+04  0.50400001928E-02 0.  1.
       -1    1    3    3    0  502 -0.63311462064E+02 -0.12305828980E+04  0.19969774545E+04  0.23465424701E+04  0.50400001928E-02 0. -1.
</event>
<event>
 5   0  0.2203998E-07  0.3796577E+04  0.7818609E-02  0.8046890E-01
        2   -1    0    0  501    0  0.00000000000E+00  0.00000000000E+00  0.19351333852E+04  0.19351333852E+04  0.25500000920E-02 0.  1.
       -2   -1    0    0    0  501  0.00000000000E+00  0.00000000000E+00 -0.18621447716E+04  0.18621447716E+04  0.25500000920E-02 0. -1.
    10030    2    1    2    0    0  0.00000000000E+00  0.00000000000E+00  0.72988613607E+02  0.37972781568E+04  0.37965766240E+04 0.  0.
        3    1    3    3  502    0  0.13192163302E+03  0.89007187064E+03 -0.16353010910E+04  0.18665050015E+04  0.10100000352E+00 0. -1.
       -3    1    3    3    0  502 -0.13192163302E+03 -0.89007187064E+03  0.17082897046E+04  0.19307731553E+04  0.10100000352E+00 0.  1.
</event>
<event>
 5   0  0.2081337E-07  0.3771256E+04  0.7818609E-02  0.8052352E-01
       -2   -1    0    0    0  501  0.00000000000E+00  0.00000000000E+00  0.21134220060E+04  0.21134220060E+04  0.25500000920E-02 0. -1.
        2   -1    0    0  501    0  0.00000000000E+00  0.00000000000E+00 -0.16823863653E+04  0.16823863653E+04  0.25500000920E-02 0.  1.
    10030    2    1    2    0    0  0.00000000000E+00  0.00000000000E+00  0.43103564061E+03  0.37958083713E+04  0.37712556885E+04 0.  0.
        1    1    3    3  502    0 -0.12080283818E+04  0.96439342990E+03  0.13024583192E+04  0.20213324645E+04  0.50400001928E-02 0. -1.
       -1    1    3    3    0  502  0.12080283818E+04 -0.96439342990E+03 -0.87142267856E+03  0.17744759068E+04  0.50400001928E-02 0.  1.
</event>
<event>
 5   0  0.2135314E-07  0.3773634E+04  0.7818609E-02  0.8051837E-01
       -2   -1    0    0    0  501  0.00000000000E+00  0.00000000000E+00  0.27752237074E+04  0.27752237074E+04  0.25500000920E-02 0.  1.
        2   -1    0    0  501    0  0.00000000000E+00  0.00000000000E+00 -0.12828078648E+04  0.12828078648E+04  0.25500000920E-02 0. -1.
    10030    2    1    2    0    0  0.00000000000E+00  0.00000000000E+00  0.14924158425E+04  0.40580315722E+04  0.37736342157E+04 0.  0.
        4    1    3    3  502    0  0.53446051559E+03  0.59226905031E+03 -0.10925224601E+04  0.13527888266E+04  0.12699999809E+01 0. -1.
       -4    1    3    3    0  502 -0.53446051559E+03 -0.59226905031E+03  0.25849383027E+04  0.27052427455E+04  0.12699999809E+01 0.  1.
</event>
<event>
 5   0  0.6661000E-08  0.3803023E+04  0.7818609E-02  0.8045506E-01
        1   -1    0    0  501    0  0.00000000000E+00  0.00000000000E+00  0.14253489748E+04  0.14253489748E+04  0.50400001928E-02 0.  1.
       -1   -1    0    0    0  501  0.00000000000E+00  0.00000000000E+00 -0.25367444311E+04  0.25367444311E+04  0.50400001928E-02 0. -1.
    10030    2    1    2    0    0  0.00000000000E+00  0.00000000000E+00 -0.11113954563E+04  0.39620934059E+04  0.38030230471E+04 0.  0.
        1    1    3    3  502    0  0.46806165066E+01  0.10204282959E+04 -0.22273194466E+04  0.24499485162E+04  0.50400001928E-02 0. -1.
       -1    1    3    3    0  502 -0.46806165066E+01 -0.10204282959E+04  0.11159239903E+04  0.15121448896E+04  0.50400001928E-02 0.  1.
</event>
<event>
 5   0  0.6661000E-08  0.3828366E+04  0.7818609E-02  0.8040095E-01
       -1   -1    0    0    0  501  0.00000000000E+00  0.00000000000E+00  0.19225962427E+04  0.19225962427E+04  0.50400001928E-02 0.  1.
        1   -1    0    0  501    0  0.00000000000E+00  0.00000000000E+00 -0.19058069100E+04  0.19058069100E+04  0.50400001928E-02 0. -1.
    10030    2    1    2    0    0  0.00000000000E+00  0.00000000000E+00  0.16789332746E+02  0.38284031527E+04  0.38283663380E+04 0.  0.
        1    1    3    3  502    0 -0.11192914705E+04 -0.13439099420E+04  0.78634165411E+03  0.19176132366E+04  0.50400001928E-02 0.  1.
       -1    1    3    3    0  502  0.11192914705E+04  0.13439099420E+04 -0.76955232136E+03  0.19107899161E+04  0.50400001928E-02 0. -1.
</event>
<event>
 5   0  0.6725199E-08  0.3819832E+04  0.7818609E-02  0.8041912E-01
        1   -1    0    0  501    0  0.00000000000E+00  0.00000000000E+00  0.25935870120E+04  0.25935870120E+04  0.50400001928E-02 0.  1.
       -1   -1    0    0    0  501  0.00000000000E+00  0.00000000000E+00 -0.14064610486E+04  0.14064610486E+04  0.50400001928E-02 0. -1.
    10030    2    1    2    0    0  0.00000000000E+00  0.00000000000E+00  0.11871259635E+04  0.40000480606E+04  0.38198319903E+04 0.  0.
        5    1    3    3  502    0 -0.52187646626E+03 -0.53285202282E+03  0.24347737867E+04  0.25464547526E+04  0.46999998093E+01 0.  1.
       -5    1    3    3    0  502  0.52187646626E+03  0.53285202282E+03 -0.12476478233E+04  0.14535933080E+04  0.46999998093E+01 0. -1.
</event>
<event>
 5   0  0.6661000E-08  0.3809613E+04  0.7818609E-02  0.8044095E-01
        1   -1    0    0  501    0  0.00000000000E+00  0.00000000000E+00  0.19834371575E+04  0.19834371575E+04  0.50400001928E-02 0.  1.
       -1   -1    0    0    0  501  0.00000000000E+00  0.00000000000E+00 -0.18292928109E+04  0.18292928110E+04  0.50400001928E-02 0. -1.
    10030    2    1    2    0    0  0.00000000000E+00  0.00000000000E+00  0.15414434651E+03  0.38127299684E+04  0.38096127536E+04 0.  0.
        4    1    3    3  502    0  0.18446160753E+04  0.19944814619E+03 -0.35443916818E+03  0.18889194703E+04  0.12699999809E+01 0.  1.
       -4    1    3    3    0  502 -0.18446160753E+04 -0.19944814619E+03  0.50858351469E+03  0.19238104981E+04  0.12699999809E+01 0. -1.
</event>
<event>
 5   0  0.6661000E-08  0.3770887E+04  0.7818609E-02  0.8052431E-01
       -1   -1    0    0    0  501  0.00000000000E+00  0.00000000000E+00  0.17109675694E+04  0.17109675695E+04  0.50400001928E-02 0.  1.
        1   -1    0    0  501    0  0.00000000000E+00  0.00000000000E+00 -0.20777118358E+04  0.20777118358E+04  0.50400001928E-02 0. -1.
    10030    2    1    2    0    0  0.00000000000E+00  0.00000000000E+00 -0.36674426631E+03  0.37886794052E+04  0.37708872005E+04 0.  0.
        4    1    3    3  502    0  0.73118657035E+03  0.10969927786E+03 -0.19259801458E+04  0.20630242042E+04  0.12699999809E+01 0. -1.
       -4    1    3    3    0  502 -0.73118657035E+03 -0.10969927786E+03  0.15592358794E+04  0.17256552010E+04  0.12699999809E+01 0.  1.
</event>
<event>
 5   0  0.6661000E-08  0.3816542E+04  0.7818609E-02  0.8042614E-01
       -1   -1    0    0    0  501  0.00000000000E+00  0.00000000000E+00  0.18206472495E+04  0.18206472495E+04  0.50400001928E-02 0.  1.
        1   -1    0    0  501    0  0.00000000000E+00  0.00000000000E+00 -0.20001116297E+04  0.20001116297E+04  0.50400001928E-02 0. -1.
    10030    2    1    2    0    0  0.00000000000E+00  0.00000000000E+00 -0.17946438018E+03  0.38207588792E+04  0.38165417525E+04 0.  0.
        1    1    3    3  502    0  0.16210867402E+04 -0.88453828754E+03 -0.57106230525E+03  0.19329879353E+04  0.50400001928E-02 0. -1.
       -1    1    3    3    0  502 -0.16210867402E+04  0.88453828754E+03  0.39159792507E+03  0.18877709439E+04  0.50400001928E-02 0.  1.
</event>
<event>
 5   0  0.2135314E-07  0.3792374E+04  0.7818609E-02  0.8047793E-01
        2   -1    0    0  501    0  0.00000000000E+00  0.00000000000E+00  0.20625897697E+04  0.20625897697E+04  0.25500000920E-02 0. -1.
       -2   -1    0    0    0  501  0.00000000000E+00  0.00000000000E+00 -0.17432086850E+04  0.17432086850E+04  0.25500000920E-02 0.  1.
    10030    2    1    2    0    0  0.00000000000E+00  0.00000000000E+00  0.31938108471E+03  0.38057984547E+04  0.37923736103E+04 0.  0.
        4    1    3    3  502    0 -0.69437589847E+03  0.17739521833E+03 -0.16020568915E+04  0.17550540871E+04  0.12699999809E+01 0.  1.
       -4    1    3    3    0  502  0.69437589847E+03 -0.17739521833E+03  0.19214379763E+04  0.20507443676E+04  0.12699999809E+01 0. -1.
</event>
<event>
 5   0  0.6661000E-08  0.3823625E+04  0.7818609E-02  0.8041104E-01
       -1   -1    0    0    0  501  0.00000000000E+00  0.00000000000E+00  0.17332922824E+04  0.17332922825E+04  0.50400001928E-02 0.  1.
        1   -1    0    0  501    0  0.00000000000E+00  0.00000000000E+00 -0.21087193782E+04  0.21087193782E+04  0.50400001928E-02 0. -1.
    10030    2    1    2    0    0  0.00000000000E+00  0.00000000000E+00 -0.37542709572E+03  0.38420116606E+04  0.38236249942E+04 0.  0.
        2    1    3    3  502    0  0.14827137657E+04 -0.62802123261E+03 -0.12232888373E+04  0.20221983976E+04  0.25500000920E-02 0. -1.
       -2    1    3    3    0  502 -0.14827137657E+04  0.62802123261E+03  0.84786174160E+03  0.18198132631E+04  0.25500000920E-02 0.  1.
</event>
<event>
 5   0  0.6661000E-08  0.3807032E+04  0.7818609E-02  0.8044647E-01
        1   -1    0    0  501    0  0.00000000000E+00  0.00000000000E+00  0.23169063520E+04  0.23169063520E+04  0.50400001928E-02 0.  1.
       -1   -1    0    0    0  501  0.00000000000E+00  0.00000000000E+00 -0.15638843437E+04  0.15638843437E+04  0.50400001928E-02 0. -1.
    10030    2    1    2    0    0  0.00000000000E+00  0.00000000000E+00  0.75302200828E+03  0.38807906957E+04  0.38070322141E+04 0.  0.
        3    1    3    3  502    0 -0.42037566085E+02 -0.46086032469E+03  0.22586895150E+04  0.23056100562E+04  0.10100000352E+00 0.  1.
       -3    1    3    3    0  502  0.42037566085E+02  0.46086032469E+03 -0.15056675068E+04  0.15751806395E+04  0.10100000352E+00 0. -1.
</event>
<event>
 5   0  0.1370688E-07  0.3813739E+04  0.7818609E-02  0.8043213E-01
        2   -1    0    0  501    0  0.00000000000E+00  0.00000000000E+00  0.25243603862E+04  0.25243603862E+04  0.25500000920E-02 0. -1.
       -2   -1    0    0    0  501  0.00000000000E+00  0.00000000000E+00 -0.14404247327E+04  0.14404247327E+04  0.25500000920E-02 0.  1.
    10030    2    1    2    0    0  0.00000000000E+00  0.00000000000E+00  0.10839356535E+04  0.39647851189E+04  0.38137389185E+04 0.  0.
        5    1    3    3  502    0 -0.14827043697E+04 -0.27148434797E+02 -0.70425017779E+03  0.16416880606E+04  0.46999998093E+01 0.  1.
       -5    1    3    3    0  502  0.14827043697E+04  0.27148434797E+02  0.17881858313E+04  0.23230970583E+04  0.46999998093E+01 0. -1.
</event>
<event>
 5   0  0.6661000E-08  0.3775041E+04  0.7818609E-02  0.8051532E-01
       -1   -1    0    0    0  501  0.00000000000E+00  0.00000000000E+00  0.15162910483E+04  0.15162910483E+04  0.50400001928E-02 0. -1.
        1   -1    0    0  501    0  0.00000000000E+00  0.00000000000E+00 -0.23496371851E+04  0.23496371851E+04  0.50400001928E-02 0.  1.
    10030    2    1    2    0    0  0.00000000000E+00  0.00000000000E+00 -0.83334613677E+03  0.38659282334E+04  0.37750411021E+04 0.  0.
        2    1    3    3  502    0  0.71063672332E+03 -0.10759087743E+03 -0.22040164391E+04  0.23182469267E+04  0.25500000920E-02 0.  1.
       -2    1    3    3    0  502 -0.71063672332E+03  0.10759087743E+03  0.13706703023E+04  0.15476813067E+04  0.25500000920E-02 0. -1.
</event>
<event>
 5   0  0.6661000E-08  0.3775771E+04  0.7818609E-02  0.8051374E-01
       -1   -1    0    0    0  501  0.00000000000E+00  0.00000000000E+00  0.16406465802E+04  0.16406465802E+04  0.50400001928E-02 0. -1.
        1   -1    0    0  501    0  0.00000000000E+00  0.00000000000E+00 -0.21723819703E+04  0.21723819703E+04  0.50400001928E-02 0.  1.
    10030    2    1    2    0    0  0.00000000000E+00  0.00000000000E+00 -0.53173539008E+03  0.38130285506E+04  0.37757706766E+04 0.  0.
        3    1    3    3  502    0  0.14725216599E+04  0.10960060360E+04 -0.71131178645E+03  0.19686324537E+04  0.10100000352E+00 0.  1.
       -3    1    3    3    0  502 -0.14725216599E+04 -0.10960060360E+04  0.17957639638E+03  0.18443960969E+04  0.10100000352E+00 0. -1.
</event>
<event>
 5   0  0.6725199E-08  0.3781975E+04  0.7818609E-02  0.8050034E-01
        1   -1    0    0  501    0  0.00000000000E+00  0.00000000000E+00  0.28547124415E+04  0.28547124415E+04  0.50400001928E-02 0.  1.
       -1   -1    0    0    0  501  0.00000000000E+00  0.00000000000E+00 -0.12526073524E+04  0.12526073525E+04  0.50400001928E-02 0. -1.
    10030    2    1    2    0    0  0.00000000000E+00  0.00000000000E+00  0.16021050890E+04  0.41073197939E+04  0.37819750361E+04 0.  0.
        5    1    3    3  502    0 -0.13014354832E+04  0.11976205441E+04  0.74322058105E+02  0.17701907080E+04  0.46999998093E+01 0. -1.
       -5    1    3    3    0  502  0.13014354832E+04 -0.11976205441E+04  0.15277830309E+04  0.23371290859E+04  0.46999998093E+01 0.  1.
</event>
<event>
 5   0  0.2205204E-07  0.3817321E+04  0.7818609E-02  0.8042448E-01
        2   -1    0    0  501    0  0.00000000000E+00  0.00000000000E+00  0.23062339704E+04  0.23062339704E+04  0.25500000920E-02 0.  1.
       -2   -1    0    0    0  501  0.00000000000E+00  0.00000000000E+00 -0.15796247194E+04  0.15796247194E+04  0.25500000920E-02 0. -1.
    10030    2    1    2    0    0  0.00000000000E+00  0.00000000000E+00  0.72660925103E+03  0.38858586898E+04  0.38173206249E+04 0.  0.
        2    1    3    3  502    0  0.81902489574E+03  0.14733242335E+04 -0.54803366158E+03  0.17725199494E+04  0.25500000920E-02 0. -1.
       -2    1    3    3    0  502 -0.81902489574E+03 -0.14733242335E+04  0.12746429126E+04  0.21133387404E+04  0.25500000920E-02 0.  1.
</event>
<event>
 5   0  0.2205204E-07  0.3802784E+04  0.7818609E-02  0.8045558E-01
        2   -1    0    0  501    0  0.00000000000E+00  0.00000000000E+00  0.22977006402E+04  0.22977006402E+04  0.25500000920E-02 0. -1.
       -2   -1    0    0    0  501  0.00000000000E+00  0.00000000000E+00 -0.15734389369E+04  0.15734389369E+04  0.25500000920E-02 0.  1.
    10030    2    1    2    0    0  0.00000000000E+00  0.00000000000E+00  0.72426170327E+03  0.38711395771E+04  0.38027840605E+04 0.  0.
        2    1    3    3  502    0  0.46857272222E+03  0.14125471630E+04  0.15668052844E+04  0.21609555023E+04  0.25500000920E-02 0. -1.
       -2    1    3    3    0  502 -0.46857272222E+03 -0.14125471630E+04 -0.84254358109E+03  0.17101840748E+04  0.25500000920E-02 0.  1.
</event>
<event>
 5   0  0.1370688E-07  0.3796796E+04  0.7818609E-02  0.8046843E-01
        2   -1    0    0  501    0  0.00000000000E+00  0.00000000000E+00  0.23427392476E+04  0.23427392476E+04  0.25500000920E-02 0.  1.
       -2   -1    0    0    0  501  0.00000000000E+00  0.00000000000E+00 -0.15383335674E+04  0.15383335674E+04  0.25500000920E-02 0. -1.
    10030    2    1    2    0    0  0.00000000000E+00  0.00000000000E+00  0.80440568024E+03  0.38810728150E+04  0.37967957144E+04 0.  0.
        5    1    3    3  502    0 -0.55430445531E+03  0.82698526619E+03 -0.12500715880E+04  0.15980798243E+04  0.46999998093E+01 0. -1.
       -5    1    3    3    0  502  0.55430445531E+03 -0.82698526619E+03  0.20544772683E+04  0.22829929907E+04  0.46999998093E+01 0.  1.
</event>
<event>
 5   0  0.2135314E-07  0.3361225E+04  0.7818609E-02  0.8147489E-01
       -2   -1    0    0    0  501  0.00000000000E+00  0.00000000000E+00  0.15956511994E+04  0.15956511994E+04  0.25500000920E-02 0. -1.
        2   -1    0    0  501    0  0.00000000000E+00  0.00000000000E+00 -0.17700977704E+04  0.17700977704E+04  0.25500000920E-02 0.  1.
    10030    2    1    2    0    0  0.00000000000E+00  0.00000000000E+00 -0.17444657102E+03  0.33657489698E+04  0.33612251518E+04 0.  0.
        4    1    3    3  502    0 -0.11127648150E+04  0.12320008219E+04 -0.34908137728E+03  0.16964465744E+04  0.12699999809E+01 0.  1.
       -4    1    3    3    0  502  0.11127648150E+04 -0.12320008219E+04  0.17463480626E+03  0.16693023954E+04  0.12699999809E+01 0. -1.
</event>
<event>
 5   0  0.6661000E-08  0.3788189E+04  0.7818609E-02  0.8048694E-01
       -1   -1    0    0    0  501  0.00000000000E+00  0.00000000000E+00  0.32575496693E+04  0.32575496693E+04  0.50400001928E-02 0.  1.
        1   -1    0    0  501    0  0.00000000000E+00  0.00000000000E+00 -0.11013169462E+04  0.11013169462E+04  0.50400001928E-02 0. -1.
    10030    2    1    2    0    0  0.00000000000E+00  0.00000000000E+00  0.21562327231E+04  0.43588666155E+04  0.37881893585E+04 0.  0.
        1    1    3    3  502    0 -0.15333225843E+04  0.85389106093E+03  0.18977341593E+04  0.25848796937E+04  0.50400001928E-02 0.  1.
       -1    1    3    3    0  502  0.15333225843E+04 -0.85389106093E+03  0.25849856383E+03  0.17739869219E+04  0.50400001928E-02 0. -1.
</event>
<event>
 5   0  0.2135314E-07  0.3790228E+04  0.7818609E-02  0.8048255E-01
       -2   -1    0    0    0  501  0.00000000000E+00  0.00000000000E+00  0.17144511112E+04  0.17144511112E+04  0.25500000920E-02 0.  1.
        2   -1    0    0  501    0  0.00000000000E+00  0.00000000000E+00 -0.20948141029E+04  0.20948141029E+04  0.25500000920E-02 0. -1.
    10030    2    1    2    0    0  0.00000000000E+00  0.00000000000E+00 -0.38036299172E+03  0.38092652141E+04  0.37902276272E+04 0.  0.
        4    1    3    3  502    0 -0.55905748119E+03  0.90688010857E+03  0.13850063547E+04  0.17473468499E+04  0.12699999809E+01 0.  1.
       -4    1    3    3    0  502  0.55905748119E+03 -0.90688010857E+03 -0.17653693464E+04  0.20619183642E+04  0.12699999809E+01 0. -1.
</event>
<event>
 5   0  0.6661000E-08  0.3791293E+04  0.7818609E-02  0.8048026E-01
       -1   -1    0    0    0  501  0.00000000000E+00  0.00000000000E+00  0.25679979247E+04  0.25679979247E+04  0.50400001928E-02 0. -1.
        1   -1    0    0  501    0  0.00000000000E+00  0.00000000000E+00 -0.13993299591E+04  0.13993299591E+04  0.50400001928E-02 0.  1.
    10030    2    1    2    0    0  0.00000000000E+00  0.00000000000E+00  0.11686679656E+04  0.39673278838E+04  0.37912934104E+04 0.  0.
        4    1    3    3  502    0  0.57625774395E+03 -0.16578555714E+04  0.13337692615E+04  0.22044273948E+04  0.12699999809E+01 0. -1.
       -4    1    3    3    0  502 -0.57625774395E+03  0.16578555714E+04 -0.16510129590E+03  0.17629004890E+04  0.12699999809E+01 0.  1.
</event>
<event>
 5   0  0.2081337E-07  0.3817645E+04  0.7818609E-02  0.8042379E-01
       -2   -1    0    0    0  501  0.00000000000E+00  0.00000000000E+00  0.26381308389E+04  0.26381308389E+04  0.25500000920E-02 0. -1.
        2   -1    0    0  501    0  0.00000000000E+00  0.00000000000E+00 -0.13811304517E+04  0.13811304517E+04  0.25500000920E-02 0.  1.
    10030    2    1    2    0    0  0.00000000000E+00  0.00000000000E+00  0.12570003873E+04  0.40192612906E+04  0.38176447384E+04 0.  0.
        1    1    3    3  502    0  0.14347210668E+04 -0.12572057893E+04  0.69999766834E+03  0.20319910610E+04  0.50400001928E-02 0.  1.
       -1    1    3    3    0  502 -0.14347210668E+04  0.12572057893E+04  0.55700271892E+03  0.19872702296E+04  0.50400001928E-02 0. -1.
</event>
<event>
 5   0  0.6661000E-08  0.3818348E+04  0.7818609E-02  0.8042229E-01
        1   -1    0    0  501    0  0.00000000000E+00  0.00000000000E+00  0.23012860778E+04  0.23012860778E+04  0.50400001928E-02 0.  1.
       -1   -1    0    0    0  501  0.00000000000E+00  0.00000000000E+00 -0.15838729461E+04  0.15838729461E+04  0.50400001928E-02 0. -1.
    10030    2    1    2    0    0  0.00000000000E+00  0.00000000000E+00  0.71741313164E+03  0.38851590239E+04  0.38183476845E+04 0.  0.
        3    1    3    3  502    0 -0.52150148523E+03 -0.10914066300E+04 -0.11442348187E+04  0.16650542218E+04  0.10100000352E+00 0. -1.
       -3    1    3    3    0  502  0.52150148523E+03  0.10914066300E+04  0.18616479503E+04  0.22201048021E+04  0.10100000352E+00 0.  1.
</event>
<event>
 5   0  0.2203998E-07  0.3808282E+04  0.7818609E-02  0.8044380E-01
       -2   -1    0    0    0  501  0.00000000000E+00  0.00000000000E+00  0.23293698045E+04  0.23293698045E+04  0.25500000920E-02 0. -1.
        2   -1    0    0  501    0  0.00000000000E+00  0.00000000000E+00 -0.15565377425E+04  0.15565377425E+04  0.25500000920E-02 0.  1.
    10030    2    1    2    0    0  0.00000000000E+00  0.00000000000E+00  0.77283206201E+03  0.38859075469E+04  0.38082815110E+04 0.  0.
        3    1    3    3  502    0  0.35319613821E+03  0.25723513673E+03  0.22775240343E+04  0.23190586808E+04  0.10100000352E+00 0. -1.
       -3    1    3    3    0  502 -0.35319613821E+03 -0.25723513673E+03 -0.15046919723E+04  0.15668488662E+04  0.10100000352E+00 0.  1.
</event>
<event>
 5   0  0.6725199E-08  0.3816212E+04  0.7818609E-02  0.8042685E-01
       -1   -1    0    0    0  501  0.00000000000E+00  0.00000000000E+00  0.26887704814E+04  0.26887704814E+04  0.50400001928E-02 0. -1.
        1   -1    0    0  501    0  0.00000000000E+00  0.00000000000E+00 -0.13541019759E+04  0.13541019759E+04  0.50400001928E-02 0.  1.
    10030    2    1    2    0    0  0.00000000000E+00  0.00000000000E+00  0.13346685054E+04  0.40428724573E+04  0.38162124792E+04 0.  0.
        5    1    3    3  502    0  0.13837149417E+04  0.92673625437E+03 -0.31929101299E+03  0.16957228447E+04  0.46999998093E+01 0.  1.
       -5    1    3    3    0  502 -0.13837149417E+04 -0.92673625437E+03  0.16539595184E+04  0.23471496126E+04  0.46999998093E+01 0. -1.
</event>
<event>
 5   0  0.2081337E-07  0.4189814E+04  0.7818609E-02  0.7967313E-01
       -2   -1    0    0    0  501  0.00000000000E+00  0.00000000000E+00  0.15785361654E+04  0.15785361654E+04  0.25500000920E-02 0. -1.
        2   -1    0    0  501    0  0.00000000000E+00  0.00000000000E+00 -0.27801935579E+04  0.27801935579E+04  0.25500000920E-02 0.  1.
    10030    2    1    2    0    0  0.00000000000E+00  0.00000000000E+00 -0.12016573925E+04  0.43587297234E+04  0.41898143530E+04 0.  0.
        1    1    3    3  502    0  0.35487583677E+02 -0.15211106245E+04  0.89722563933E+03  0.17663665385E+04  0.50400001928E-02 0. -1.
       -1    1    3    3    0  502 -0.35487583677E+02  0.15211106245E+04 -0.20988830318E+04  0.25923631848E+04  0.50400001928E-02 0.  1.
</event>
<event>
 5   0  0.2203998E-07  0.3710157E+04  0.7818609E-02  0.8065715E-01
        2   -1    0    0  501    0  0.00000000000E+00  0.00000000000E+00  0.31268205196E+04  0.31268205196E+04  0.25500000920E-02 0. -1.
       -2   -1    0    0    0  501  0.00000000000E+00  0.00000000000E+00 -0.11005798344E+04  0.11005798344E+04  0.25500000920E-02 0.  1.
    10030    2    1    2    0    0  0.00000000000E+00  0.00000000000E+00  0.20262406852E+04  0.42274003540E+04  0.37101566596E+04 0.  0.
        3    1    3    3  502    0 -0.23973909113E+03 -0.55128300351E+03 -0.98651774708E+03  0.11552510798E+04  0.10100000352E+00 0.  1.
       -3    1    3    3    0  502  0.23973909113E+03  0.55128300351E+03  0.30127584322E+04  0.30721492742E+04  0.10100000352E+00 0. -1.
</event>
<event>
 5   0  0.6725199E-08  0.3833931E+04  0.7818609E-02  0.8038912E-01
        1   -1    0    0  501    0  0.00000000000E+00  0.00000000000E+00  0.21133445303E+04  0.21133445303E+04  0.50400001928E-02 0. -1.
       -1   -1    0    0    0  501  0.00000000000E+00  0.00000000000E+00 -0.17388344692E+04  0.17388344692E+04  0.50400001928E-02 0.  1.
    10030    2    1    2    0    0  0.00000000000E+00  0.00000000000E+00  0.37451006111E+03  0.38521789996E+04  0.38339307843E+04 0.  0.
        5    1    3    3  502    0 -0.73288102473E+03 -0.16047280693E+04  0.94080297478E+03  0.19993496693E+04  0.46999998093E+01 0. -1.
       -5    1    3    3    0  502  0.73288102473E+03  0.16047280693E+04 -0.56629291367E+03  0.18528293302E+04  0.46999998093E+01 0.  1.
</event>
<event>
 5   0  0.6661000E-08  0.3809100E+04  0.7818609E-02  0.8044205E-01
        1   -1    0    0  501    0  0.00000000000E+00  0.00000000000E+00  0.22811859906E+04  0.22811859906E+04  0.50400001928E-02 0. -1.
       -1   -1    0    0    0  501  0.00000000000E+00  0.00000000000E+00 -0.15900985245E+04  0.15900985245E+04  0.50400001928E-02 0.  1.
    10030    2    1    2    0    0  0.00000000000E+00  0.00000000000E+00  0.69108746607E+03  0.38712845151E+04  0.38090998820E+04 0.  0.
        4    1    3    3  502    0  0.84643446851E+03  0.16947283978E+04  0.14547160677E+03  0.18999261178E+04  0.12699999809E+01 0. -1.
       -4    1    3    3    0  502 -0.84643446851E+03 -0.16947283978E+04  0.54561585930E+03  0.19713583973E+04  0.12699999809E+01 0.  1.
</event>
<event>
 5   0  0.6661000E-08  0.3633197E+04  0.7818609E-02  0.8082929E-01
        1   -1    0    0  501    0  0.00000000000E+00  0.00000000000E+00  0.11742858115E+04  0.11742858115E+04  0.50400001928E-02 0. -1.
       -1   -1    0    0    0  501  0.00000000000E+00  0.00000000000E+00 -0.28102451011E+04  0.28102451011E+04  0.50400001928E-02 0.  1.
    10030    2    1    2    0    0  0.00000000000E+00  0.00000000000E+00 -0.16359592896E+04  0.39845309126E+04  0.36331974618E+04 0.  0.
        2    1    3    3  502    0 -0.71191258850E+03  0.15756864711E+04 -0.20694542025E+03  0.17413884678E+04  0.25500000920E-02 0. -1.
       -2    1    3    3    0  502  0.71191258850E+03 -0.15756864711E+04 -0.14290138693E+04  0.22431424448E+04  0.25500000920E-02 0.  1.
</event>
<event>
 5   0  0.2135314E-07  0.3797172E+04  0.7818609E-02  0.8046762E-01
       -2   -1    0    0    0  501  0.00000000000E+00  0.00000000000E+00  0.14415722861E+04  0.14415722861E+04  0.25500000920E-02 0. -1.
        2   -1    0    0  501    0  0.00000000000E+00  0.00000000000E+00 -0.25004837054E+04  0.25004837054E+04  0.25500000920E-02 0.  1.
    10030    2    1    2    0    0  0.00000000000E+00  0.00000000000E+00 -0.10589114193E+04  0.39420559915E+04  0.37971715850E+04 0.  0.
        4    1    3    3  502    0  0.39039391968E+03 -0.11294758928E+04 -0.20610446464E+04  0.23824419935E+04  0.12699999809E+01 0.  1.
       -4    1    3    3    0  502 -0.39039391968E+03  0.11294758928E+04  0.10021332272E+04  0.15596139980E+04  0.12699999809E+01 0. -1.
</event>
<event>
 5   0  0.2081337E-07  0.3789556E+04  0.7818609E-02  0.8048400E-01
       -2   -1    0    0    0  501  0.00000000000E+00  0.00000000000E+00  0.24640355616E+04  0.24640355616E+04  0.25500000920E-02 0.  1.
        2   -1    0    0  501    0  0.00000000000E+00  0.00000000000E+00 -0.14570342729E+04  0.14570342729E+04  0.25500000920E-02 0. -1.
    10030    2    1    2    0    0  0.00000000000E+00  0.00000000000E+00  0.10070012887E+04  0.39210698345E+04  0.37895563133E+04 0.  0.
        1    1    3    3  502    0 -0.15948146032E+03 -0.77097088345E+03 -0.12797824994E+04  0.15025557178E+04  0.50400001928E-02 0. -1.
       -1    1    3    3    0  502  0.15948146032E+03  0.77097088345E+03  0.22867837881E+04  0.24185141167E+04  0.50400001928E-02 0.  1.
</event>
<event>
 5   0  0.6661000E-08  0.3959612E+04  0.7818609E-02  0.8012744E-01
       -1   -1    0    0    0  501  0.00000000000E+00  0.00000000000E+00  0.27304330824E+04  0.27304330824E+04  0.50400001928E-02 0.  1.
        1   -1    0    0  501    0  0.00000000000E+00  0.00000000000E+00 -0.14355349810E+04  0.14355349810E+04  0.50400001928E-02 0. -1.
    10030    2    1    2    0    0  0.00000000000E+00  0.00000000000E+00  0.12948981014E+04  0.41659680634E+04  0.39596122048E+04 0.  0.
        4    1    3    3  502    0  0.14337184351E+04 -0.81485831019E+02  0.20813558507E+04  0.25286819259E+04  0.12699999809E+01 0.  1.
       -4    1    3    3    0  502 -0.14337184351E+04  0.81485831019E+02 -0.78645774932E+03  0.16372861376E+04  0.12699999809E+01 0. -1.
</event>
<event>
 5   0  0.1370688E-07  0.3806157E+04  0.7818609E-02  0.8044835E-01
       -2   -1    0    0    0  501  0.00000000000E+00  0.00000000000E+00  0.25295366033E+04  0.25295366033E+04  0.25500000920E-02 0. -1.
        2   -1    0    0  501    0  0.00000000000E+00  0.00000000000E+00 -0.14317670443E+04  0.14317670443E+04  0.25500000920E-02 0.  1.
    10030    2    1    2    0    0  0.00000000000E+00  0.00000000000E+00  0.10977695589E+04  0.39613036476E+04  0.38061566684E+04 0.  0.
        5    1    3    3  502    0  0.55986380235E+03  0.11877393801E+04  0.19825370401E+04  0.23779502765E+04  0.46999998093E+01 0. -1.
       -5    1    3    3    0  502 -0.55986380235E+03 -0.11877393801E+04 -0.88476748117E+03  0.15833533711E+04  0.46999998093E+01 0.  1.
</event>
<event>
 5   0  0.6661000E-08  0.3722246E+04  0.7818609E-02  0.8063050E-01
       -1   -1    0    0    0  501  0.00000000000E+00  0.00000000000E+00  0.14734190172E+04  0.14734190172E+04  0.50400001928E-02 0. -1.
        1   -1    0    0  501    0  0.00000000000E+00  0.00000000000E+00 -0.23508440810E+04  0.23508440810E+04  0.50400001928E-02 0.  1.
    10030    2    1    2    0    0  0.00000000000E+00  0.00000000000E+00 -0.87742506378E+03  0.38242630982E+04  0.37222457606E+04 0.  0.
        2    1    3    3  502    0  0.12814624737E+04 -0.95573939425E+03  0.54039897829E+03  0.16874877531E+04  0.25500000920E-02 0. -1.
       -2    1    3    3    0  502 -0.12814624737E+04  0.95573939425E+03 -0.14178240421E+04  0.21367753451E+04  0.25500000920E-02 0.  1.
</event>
<event>
 5   0  0.6661000E-08  0.3805045E+04  0.7818609E-02  0.8045073E-01
        1   -1    0    0  501    0  0.00000000000E+00  0.00000000000E+00  0.30896464622E+04  0.30896464622E+04  0.50400001928E-02 0. -1.
       -1   -1    0    0    0  501  0.00000000000E+00  0.00000000000E+00 -0.11715228981E+04  0.11715228981E+04  0.50400001928E-02 0.  1.
    10030    2    1    2    0    0  0.00000000000E+00  0.00000000000E+00  0.19181235642E+04  0.42611693603E+04  0.38050448499E+04 0.  0.
        3    1    3    3  502    0 -0.40382365701E+03  0.17431417363E+04  0.16830710426E+04  0.24564903426E+04  0.10100000352E+00 0. -1.
       -3    1    3    3    0  502  0.40382365701E+03 -0.17431417363E+04  0.23505252156E+03  0.18046790177E+04  0.10100000352E+00 0.  1.
</event>
<event>
 5   0  0.6661000E-08  0.3761623E+04  0.7818609E-02  0.8054441E-01
       -3   -1    0    0    0  501  0.00000000000E+00  0.00000000000E+00  0.20156747746E+04  0.20156747771E+04  0.10100000352E+00 0. -1.
        3   -1    0    0  501    0  0.00000000000E+00  0.00000000000E+00 -0.17549715144E+04  0.17549715173E+04  0.10100000352E+00 0.  1.
    10030    2    1    2    0    0  0.00000000000E+00  0.00000000000E+00  0.26070326018E+03  0.37706462945E+04  0.37616229593E+04 0.  0.
        4    1    3    3  502    0  0.11726705466E+04 -0.84534995407E+03  0.13364325252E+04  0.19687118283E+04  0.12699999809E+01 0. -1.
       -4    1    3    3    0  502 -0.11726705466E+04  0.84534995407E+03 -0.10757292650E+04  0.18019344661E+04  0.12699999809E+01 0.  1.
</event>
<event>
 5   0  0.6661000E-08  0.3791060E+04  0.7818609E-02  0.8048076E-01
        1   -1    0    0  501    0  0.00000000000E+00  0.00000000000E+00  0.26315268011E+04  0.26315268011E+04  0.50400001928E-02 0.  1.
       -1   -1    0    0    0  501  0.00000000000E+00  0.00000000000E+00 -0.13653802868E+04  0.13653802868E+04  0.50400001928E-02 0. -1.
    10030    2    1    2    0    0  0.00000000000E+00  0.00000000000E+00  0.12661465143E+04  0.39969070879E+04  0.37910604419E+04 0.  0.
        2    1    3    3  502    0 -0.18210371376E+04  0.29435791973E+02  0.11869481341E+04  0.21739108987E+04  0.25500000920E-02 0. -1.
       -2    1    3    3    0  502  0.18210371376E+04 -0.29435791973E+02  0.79198380201E+02  0.18229961892E+04  0.25500000920E-02 0.  1.
</event>
<event>
 5   0  0.6661000E-08  0.3792755E+04  0.7818609E-02  0.8047711E-01
        3   -1    0    0  501    0  0.00000000000E+00  0.00000000000E+00  0.21165813221E+04  0.21165813245E+04  0.10100000352E+00 0.  1.
       -3   -1    0    0    0  501  0.00000000000E+00  0.00000000000E+00 -0.16990833840E+04  0.16990833870E+04  0.10100000352E+00 0. -1.
    10030    2    1    2    0    0  0.00000000000E+00  0.00000000000E+00  0.41749793814E+03  0.38156647115E+04  0.37927552864E+04 0.  0.
        5    1    3    3  502    0 -0.34796222840E+03  0.18296729586E+03 -0.16576310671E+04  0.17036189681E+04  0.46999998093E+01 0. -1.
       -5    1    3    3    0  502  0.34796222840E+03 -0.18296729586E+03  0.20751290053E+04  0.21120457434E+04  0.46999998093E+01 0.  1.
</event>
<event>
 5   0  0.2135314E-07  0.3797008E+04  0.7818609E-02  0.8046797E-01
       -2   -1    0    0    0  501  0.00000000000E+00  0.00000000000E+00  0.18444407894E+04  0.18444407894E+04  0.25500000920E-02 0.  1.
        2   -1    0    0  501    0  0.00000000000E+00  0.00000000000E+00 -0.19541518731E+04  0.19541518731E+04  0.25500000920E-02 0. -1.
    10030    2    1    2    0    0  0.00000000000E+00  0.00000000000E+00 -0.10971108368E+03  0.37985926625E+04  0.37970079924E+04 0.  0.
        4    1    3    3  502    0 -0.41825538260E+03 -0.68685217656E+03 -0.17753442951E+04  0.19489875465E+04  0.12699999809E+01 0. -1.
       -4    1    3    3    0  502  0.41825538260E+03  0.68685217656E+03  0.16656332114E+04  0.18496051160E+04  0.12699999809E+01 0.  1.
</event>
<event>
 5   0  0.6661000E-08  0.3751807E+04  0.7818609E-02  0.8056577E-01
        1   -1    0    0  501    0  0.00000000000E+00  0.00000000000E+00  0.13525799143E+04  0.13525799143E+04  0.50400001928E-02 0. -1.
       -1   -1    0    0    0  501  0.00000000000E+00  0.00000000000E+00 -0.26017050218E+04  0.26017050218E+04  0.50400001928E-02 0.  1.
    10030    2    1    2    0    0  0.00000000000E+00  0.00000000000E+00 -0.12491251075E+04  0.39542849360E+04  0.37518070075E+04 0.  0.
        1    1    3    3  502    0 -0.14644916646E+04  0.88929299392E+03 -0.14296148912E+04  0.22314516804E+04  0.50400001928E-02 0.  1.
       -1    1    3    3    0  502  0.14644916646E+04 -0.88929299392E+03  0.18048978363E+03  0.17228332557E+04  0.50400001928E-02 0. -1.
</event>
<event>
 5   0  0.6661000E-08  0.3467832E+04  0.7818609E-02  0.8121456E-01
       -1   -1    0    0    0  501  0.00000000000E+00  0.00000000000E+00  0.13148972072E+04  0.13148972072E+04  0.50400001928E-02 0.  1.
        1   -1    0    0  501    0  0.00000000000E+00  0.00000000000E+00 -0.22864639814E+04  0.22864639814E+04  0.50400001928E-02 0. -1.
    10030    2    1    2    0    0  0.00000000000E+00  0.00000000000E+00 -0.97156677416E+03  0.36013611886E+04  0.34678322356E+04 0.  0.
        3    1    3    3  502    0  0.16331178274E+04  0.16508482076E+03  0.94422460101E+02  0.16441540218E+04  0.10100000352E+00 0. -1.
       -3    1    3    3    0  502 -0.16331178274E+04 -0.16508482076E+03 -0.10659892343E+04  0.19572071668E+04  0.10100000352E+00 0.  1.
</event>
<event>
 5   0  0.2205204E-07  0.3766284E+04  0.7818609E-02  0.8053429E-01
        2   -1    0    0  501    0  0.00000000000E+00  0.00000000000E+00  0.11911348748E+04  0.11911348748E+04  0.25500000920E-02 0.  1.
       -2   -1    0    0    0  501  0.00000000000E+00  0.00000000000E+00 -0.29771804592E+04  0.29771804592E+04  0.25500000920E-02 0. -1.
    10030    2    1    2    0    0  0.00000000000E+00  0.00000000000E+00 -0.17860455844E+04  0.41683153339E+04  0.37662838307E+04 0.  0.
        2    1    3    3  502    0  0.55316481781E+03 -0.73292310287E+02 -0.28835828789E+04  0.29370756370E+04  0.25500000920E-02 0. -1.
       -2    1    3    3    0  502 -0.55316481781E+03  0.73292310287E+02  0.10975372945E+04  0.12312396969E+04  0.25500000920E-02 0.  1.
</event>
<event>
 5   0  0.2135314E-07  0.3690616E+04  0.7818609E-02  0.8070045E-01
       -2   -1    0    0    0  501  0.00000000000E+00  0.00000000000E+00  0.23244478251E+04  0.23244478251E+04  0.25500000920E-02 0. -1.
        2   -1    0    0  501    0  0.00000000000E+00  0.00000000000E+00 -0.14649333683E+04  0.14649333683E+04  0.25500000920E-02 0.  1.
    10030    2    1    2    0    0  0.00000000000E+00  0.00000000000E+00  0.85951445679E+03  0.37893811935E+04  0.36906157654E+04 0.  0.
        4    1    3    3  502    0 -0.44167226979E+03  0.16019821849E+04 -0.39404719935E+03  0.17078337515E+04  0.12699999809E+01 0.  1.
       -4    1    3    3    0  502  0.44167226979E+03 -0.16019821849E+04  0.12535616561E+04  0.20815474420E+04  0.12699999809E+01 0. -1.
</event>
<event>
 5   0  0.6725199E-08  0.3673548E+04  0.7818609E-02  0.8073849E-01
        1   -1    0    0  501    0  0.00000000000E+00  0.00000000000E+00  0.21868439801E+04  0.21868439801E+04  0.50400001928E-02 0.  1.
       -1   -1    0    0    0  501  0.00000000000E+00  0.00000000000E+00 -0.15427435470E+04  0.15427435470E+04  0.50400001928E-02 0. -1.
    10030    2    1    2    0    0  0.00000000000E+00  0.00000000000E+00  0.64410043312E+03  0.37295875271E+04  0.36735483873E+04 0.  0.
        5    1    3    3  502    0  0.16832606090E+04  0.22168488520E+03  0.10336032273E+04  0.19876790958E+04  0.46999998093E+01 0.  1.
       -5    1    3    3    0  502 -0.16832606090E+04 -0.22168488520E+03 -0.38950279421E+03  0.17419084313E+04  0.46999998093E+01 0. -1.
</event>
<event>
 5   0  0.2135314E-07  0.3801297E+04  0.7818609E-02  0.8045877E-01
        2   -1    0    0  501    0  0.00000000000E+00  0.00000000000E+00  0.26731812537E+04  0.26731812537E+04  0.25500000920E-02 0. -1.
       -2   -1    0    0    0  501  0.00000000000E+00  0.00000000000E+00 -0.13513728686E+04  0.13513728686E+04  0.25500000920E-02 0.  1.
    10030    2    1    2    0    0  0.00000000000E+00  0.00000000000E+00  0.13218083851E+04  0.40245541224E+04  0.38012969467E+04 0.  0.
        4    1    3    3  502    0 -0.56679078715E+03  0.77858338370E+03 -0.10739367662E+04  0.14424928674E+04  0.12699999809E+01 0.  1.
       -4    1    3    3    0  502  0.56679078715E+03 -0.77858338370E+03  0.23957451513E+04  0.25820612550E+04  0.12699999809E+01 0. -1.
</event>
<event>
 5   0  0.6661000E-08  0.3769622E+04  0.7818609E-02  0.8052706E-01
        1   -1    0    0  501    0  0.00000000000E+00  0.00000000000E+00  0.26480468155E+04  0.26480468155E+04  0.50400001928E-02 0.  1.
       -1   -1    0    0    0  501  0.00000000000E+00  0.00000000000E+00 -0.13415592168E+04  0.13415592168E+04  0.50400001928E-02 0. -1.
    10030    2    1    2    0    0  0.00000000000E+00  0.00000000000E+00  0.13064875987E+04  0.39896060323E+04  0.37696215258E+04 0.  0.
        2    1    3    3  502    0 -0.18514225154E+04  0.27790755261E+02  0.10258906812E+04  0.21168347471E+04  0.25500000920E-02 0.  1.
       -2    1    3    3    0  502  0.18514225154E+04 -0.27790755261E+02  0.28059691750E+03  0.18727712852E+04  0.25500000920E-02 0. -1.
</event>
<event>
 5   0  0.1370688E-07  0.3825813E+04  0.7818609E-02  0.8040638E-01
        2   -1    0    0  501    0  0.00000000000E+00  0.00000000000E+00  0.23156633170E+04  0.23156633170E+04  0.25500000920E-02 0.  1.
       -2   -1    0    0    0  501  0.00000000000E+00  0.00000000000E+00 -0.15801996557E+04  0.15801996557E+04  0.25500000920E-02 0. -1.
    10030    2    1    2    0    0  0.00000000000E+00  0.00000000000E+00  0.73546366138E+03  0.38958629727E+04  0.38258125287E+04 0.  0.
        5    1    3    3  502    0  0.82073491849E+03 -0.32065784419E+03 -0.13612256347E+04  0.16215377202E+04  0.46999998093E+01 0. -1.
       -5    1    3    3    0  502 -0.82073491849E+03  0.32065784419E+03  0.20966892961E+04  0.22743252525E+04  0.46999998093E+01 0.  1.
</event>
<event>
 5   0  0.6661000E-08  0.3757029E+04  0.7818609E-02  0.8055440E-01
        1   -1    0    0  501    0  0.00000000000E+00  0.00000000000E+00  0.22469386803E+04  0.22469386803E+04  0.50400001928E-02 0. -1.
       -1   -1    0    0    0  501  0.00000000000E+00  0.00000000000E+00 -0.15704996209E+04  0.15704996209E+04  0.50400001928E-02 0.  1.
    10030    2    1    2    0    0  0.00000000000E+00  0.00000000000E+00  0.67643905944E+03  0.38174383012E+04  0.37570287972E+04 0.  0.
        2    1    3    3  502    0 -0.16428450428E+04  0.86668198401E+03  0.62333582265E+03  0.19592409356E+04  0.25500000920E-02 0. -1.
       -2    1    3    3    0  502  0.16428450428E+04 -0.86668198401E+03  0.53103236788E+02  0.18581973656E+04  0.25500000920E-02 0.  1.
</event>
<event>
 5   0  0.2203998E-07  0.3632230E+04  0.7818609E-02  0.8083149E-01
       -2   -1    0    0    0  501  0.00000000000E+00  0.00000000000E+00  0.21267186461E+04  0.21267186461E+04  0.25500000920E-02 0. -1.
        2   -1    0    0  501    0  0.00000000000E+00  0.00000000000E+00 -0.15508746431E+04  0.15508746431E+04  0.25500000920E-02 0.  1.
    10030    2    1    2    0    0  0.00000000000E+00  0.00000000000E+00  0.57584400306E+03  0.36775932892E+04  0.36322301806E+04 0.  0.
        3    1    3    3  502    0  0.13317471039E+04  0.11904648030E+04  0.61991531657E+03  0.18907807398E+04  0.10100000352E+00 0.  1.
       -3    1    3    3    0  502 -0.13317471039E+04 -0.11904648030E+04 -0.44071313513E+02  0.17868125494E+04  0.10100000352E+00 0. -1.
</event>
<event>
 5   0  0.1370688E-07  0.3797516E+04  0.7818609E-02  0.8046688E-01
       -2   -1    0    0    0  501  0.00000000000E+00  0.00000000000E+00  0.18057066197E+04  0.18057066197E+04  0.25500000920E-02 0.  1.
        2   -1    0    0  501    0  0.00000000000E+00  0.00000000000E+00 -0.19966040367E+04  0.19966040367E+04  0.25500000920E-02 0. -1.
    10030    2    1    2    0    0  0.00000000000E+00  0.00000000000E+00 -0.19089741697E+03  0.38023106564E+04  0.37975155700E+04 0.  0.
        5    1    3    3  502    0  0.67162534057E+03 -0.14942993290E+04  0.86557986761E+03  0.18529062793E+04  0.46999998093E+01 0.  1.
       -5    1    3    3    0  502 -0.67162534057E+03  0.14942993290E+04 -0.10564772846E+04  0.19494043771E+04  0.46999998093E+01 0. -1.
</event>
<event>
 5   0  0.2205204E-07  0.3800408E+04  0.7818609E-02  0.8046067E-01
        2   -1    0    0  501    0  0.00000000000E+00  0.00000000000E+00  0.25634509025E+04  0.25634509025E+04  0.25500000920E-02 0. -1.
       -2   -1    0    0    0  501  0.00000000000E+00  0.00000000000E+00 -0.14085600464E+04  0.14085600464E+04  0.25500000920E-02 0.  1.
    10030    2    1    2    0    0  0.00000000000E+00  0.00000000000E+00  0.11548908561E+04  0.39720109489E+04  0.38004076214E+04 0.  0.
        2    1    3    3  502    0 -0.18279296021E+04  0.47792005008E+03  0.36571385978E+03  0.19244429926E+04  0.25500000920E-02 0. -1.
       -2    1    3    3    0  502  0.18279296021E+04 -0.47792005008E+03  0.78917699630E+03  0.20475679564E+04  0.25500000920E-02 0.  1.
</event>
<event>
 5   0  0.6725199E-08  0.3814181E+04  0.7818609E-02  0.8043119E-01
       -1   -1    0    0    0  501  0.00000000000E+00  0.00000000000E+00  0.13048073469E+04  0.13048073469E+04  0.50400001928E-02 0.  1.
        1   -1    0    0  501    0  0.00000000000E+00  0.00000000000E+00 -0.27873799276E+04  0.27873799276E+04  0.50400001928E-02 0. -1.
    10030    2    1    2    0    0  0.00000000000E+00  0.00000000000E+00 -0.14825725807E+04  0.40921872746E+04  0.38141808076E+04 0.  0.
        5    1    3    3  502    0 -0.18873710915E+03 -0.17788315579E+04 -0.31955591685E+02  0.17891077825E+04  0.46999998093E+01 0.  1.
       -5    1    3    3    0  502  0.18873710915E+03  0.17788315579E+04 -0.14506169890E+04  0.23030794920E+04  0.46999998093E+01 0. -1.
</event>
<event>
 5   0  0.2135314E-07  0.3793420E+04  0.7818609E-02  0.8047568E-01
       -2   -1    0    0    0  501  0.00000000000E+00  0.00000000000E+00  0.16102694334E+04  0.16102694334E+04  0.25500000920E-02 0.  1.
        2   -1    0    0  501    0  0.00000000000E+00  0.00000000000E+00 -0.22341032582E+04  0.22341032582E+04  0.25500000920E-02 0. -1.
    10030    2    1    2    0    0  0.00000000000E+00  0.00000000000E+00 -0.62383382478E+03  0.38443726916E+04  0.37934196645E+04 0.  0.
        4    1    3    3  502    0  0.16443692578E+04  0.91416909499E+03 -0.55567033387E+03  0.19617406870E+04  0.12699999809E+01 0.  1.
       -4    1    3    3    0  502 -0.16443692578E+04 -0.91416909499E+03 -0.68163490910E+02  0.18826320046E+04  0.12699999809E+01 0. -1.
</event>
<event>
 5   0  0.1370688E-07  0.3777676E+04  0.7818609E-02  0.8050963E-01
        2   -1    0    0  501    0  0.00000000000E+00  0.00000000000E+00  0.29501768316E+04  0.29501768316E+04  0.25500000920E-02 0. -1.
       -2   -1    0    0    0  501  0.00000000000E+00  0.00000000000E+00 -0.12093201392E+04  0.12093201392E+04  0.25500000920E-02 0.  1.
    10030    2    1    2    0    0  0.00000000000E+00  0.00000000000E+00  0.17408566924E+04  0.41594969708E+04  0.37776756116E+04 0.  0.
        5    1    3    3  502    0 -0.12895876561E+04  0.10385056693E+04  0.18712279690E+04  0.24986089229E+04  0.46999998093E+01 0. -1.
       -5    1    3    3    0  502  0.12895876561E+04 -0.10385056693E+04 -0.13037127657E+03  0.16608880479E+04  0.46999998093E+01 0.  1.
</event>
<event>
 5   0  0.6661000E-08  0.3791834E+04  0.7818609E-02  0.8047910E-01
        1   -1    0    0  501    0  0.00000000000E+00  0.00000000000E+00  0.19868097439E+04  0.19868097439E+04  0.50400001928E-02 0.  1.
       -1   -1    0    0    0  501  0.00000000000E+00  0.00000000000E+00 -0.18091820628E+04  0.18091820628E+04  0.50400001928E-02 0. -1.
    10030    2    1    2    0    0  0.00000000000E+00  0.00000000000E+00  0.17762768112E+03  0.37959918067E+04  0.37918336203E+04 0.  0.
        4    1    3    3  502    0  0.10134782724E+04 -0.15634383333E+04  0.43994240621E+03  0.19144264322E+04  0.12699999809E+01 0. -1.
       -4    1    3    3    0  502 -0.10134782724E+04  0.15634383333E+04 -0.26231472509E+03  0.18815653745E+04  0.12699999809E+01 0.  1.
</event>
<event>
 5   0  0.1370688E-07  0.3797967E+04  0.7818609E-02  0.8046591E-01
       -2   -1    0    0    0  501  0.00000000000E+00  0.00000000000E+00  0.12667633992E+04  0.12667633992E+04  0.25500000920E-02 0. -1.
        2   -1    0    0  501    0  0.00000000000E+00  0.00000000000E+00 -0.28467345240E+04  0.28467345240E+04  0.25500000920E-02 0.  1.
    10030    2    1    2    0    0  0.00000000000E+00  0.00000000000E+00 -0.15799711249E+04  0.41134979232E+04  0.37979674049E+04 0.  0.
        5    1    3    3  502    0 -0.32172150638E+03 -0.17280765980E+04 -0.15682690936E+04  0.23556832334E+04  0.46999998093E+01 0. -1.
       -5    1    3    3    0  502  0.32172150638E+03  0.17280765980E+04 -0.11702031315E+02  0.17578146898E+04  0.46999998093E+01 0.  1.
</event>
<event>
 5   0  0.1370688E-07  0.3551983E+04  0.7818609E-02  0.8101580E-01
       -2   -1    0    0    0  501  0.00000000000E+00  0.00000000000E+00  0.21341842692E+04  0.21341842692E+04  0.25500000920E-02 0. -1.
        2   -1    0    0  501    0  0.00000000000E+00  0.00000000000E+00 -0.14779162256E+04  0.14779162256E+04  0.25500000920E-02 0.  1.
    10030    2    1    2    0    0  0.00000000000E+00  0.00000000000E+00  0.65626804367E+03  0.36121004948E+04  0.35519828602E+04 0.  0.
        5    1    3    3  502    0  0.65337003851E+02 -0.91434827821E+03  0.18750043707E+04  0.20870949136E+04  0.46999998093E+01 0. -1.
       -5    1    3    3    0  502 -0.65337003851E+02  0.91434827821E+03 -0.12187363271E+04  0.15250055812E+04  0.46999998093E+01 0.  1.
</event>
<event>
 5   0  0.6661000E-08  0.3445145E+04  0.7818609E-02  0.8126914E-01
        1   -1    0    0  501    0  0.00000000000E+00  0.00000000000E+00  0.11121287095E+04  0.11121287096E+04  0.50400001928E-02 0.  1.
       -1   -1    0    0    0  501  0.00000000000E+00  0.00000000000E+00 -0.26680870467E+04  0.26680870467E+04  0.50400001928E-02 0. -1.
    10030    2    1    2    0    0  0.00000000000E+00  0.00000000000E+00 -0.15559583372E+04  0.37802157563E+04  0.34451451083E+04 0.  0.
        3    1    3    3  502    0  0.16488157360E+04 -0.21391926183E+03 -0.28372356253E+03  0.16866694554E+04  0.10100000352E+00 0.  1.
       -3    1    3    3    0  502 -0.16488157360E+04  0.21391926183E+03 -0.12722347746E+04  0.20935463008E+04  0.10100000352E+00 0. -1.
</event>
<event>
 5   0  0.2081337E-07  0.3808082E+04  0.7818609E-02  0.8044423E-01
       -2   -1    0    0    0  501  0.00000000000E+00  0.00000000000E+00  0.19005428821E+04  0.19005428821E+04  0.25500000920E-02 0. -1.
        2   -1    0    0  501    0  0.00000000000E+00  0.00000000000E+00 -0.19075452424E+04  0.19075452424E+04  0.25500000920E-02 0.  1.
    10030    2    1    2    0    0  0.00000000000E+00  0.00000000000E+00 -0.70023602864E+01  0.38080881245E+04  0.38080816865E+04 0.  0.
        1    1    3    3  502    0  0.93271843675E+03 -0.11333504577E+04  0.12093176703E+04  0.19018139157E+04  0.50400001928E-02 0. -1.
       -1    1    3    3    0  502 -0.93271843675E+03  0.11333504577E+04 -0.12163200306E+04  0.19062742088E+04  0.50400001928E-02 0.  1.
</event>
<event>
 5   0  0.6661000E-08  0.3805463E+04  0.7818609E-02  0.8044984E-01
        1   -1    0    0  501    0  0.00000000000E+00  0.00000000000E+00  0.21286613251E+04  0.21286613251E+04  0.50400001928E-02 0.  1.
       -1   -1    0    0    0  501  0.00000000000E+00  0.00000000000E+00 -0.17007810840E+04  0.17007810840E+04  0.50400001928E-02 0. -1.
    10030    2    1    2    0    0  0.00000000000E+00  0.00000000000E+00  0.42788024111E+03  0.38294424091E+04  0.38054628712E+04 0.  0.
        4    1    3    3  502    0 -0.11356496723E+04  0.53774339684E+03 -0.12238800484E+04  0.17540673091E+04  0.12699999809E+01 0. -1.
       -4    1    3    3    0  502  0.11356496723E+04 -0.53774339684E+03  0.16517602895E+04  0.20753751000E+04  0.12699999809E+01 0.  1.
</event>
<event>
 5   0  0.2081337E-07  0.3790807E+04  0.7818609E-02  0.8048131E-01
        2   -1    0    0  501    0  0.00000000000E+00  0.00000000000E+00  0.26783025386E+04  0.26783025386E+04  0.25500000920E-02 0.  1.
       -2   -1    0    0    0  501  0.00000000000E+00  0.00000000000E+00 -0.13413549810E+04  0.13413549810E+04  0.25500000920E-02 0. -1.
    10030    2    1    2    0    0  0.00000000000E+00  0.00000000000E+00  0.13369475576E+04  0.40196575197E+04  0.37908070122E+04 0.  0.
        1    1    3    3  502    0 -0.17255066106E+04  0.73684293328E+01 -0.16317471450E+03  0.17332205124E+04  0.50400001928E-02 0. -1.
       -1    1    3    3    0  502  0.17255066106E+04 -0.73684293328E+01  0.15001222721E+04  0.22864370073E+04  0.50400001928E-02 0.  1.
</event>
<event>
 5   0  0.2081337E-07  0.3855929E+04  0.7818609E-02  0.8034258E-01
       -2   -1    0    0    0  501  0.00000000000E+00  0.00000000000E+00  0.18847794725E+04  0.18847794725E+04  0.25500000920E-02 0.  1.
        2   -1    0    0  501    0  0.00000000000E+00  0.00000000000E+00 -0.19721388247E+04  0.19721388247E+04  0.25500000920E-02 0. -1.
    10030    2    1    2    0    0  0.00000000000E+00  0.00000000000E+00 -0.87359352204E+02  0.38569182972E+04  0.38559288239E+04 0.  0.
        1    1    3    3  502    0  0.70043544801E+03 -0.54631851792E+03  0.16678915103E+04  0.18896919935E+04  0.50400001928E-02 0.  1.
       -1    1    3    3    0  502 -0.70043544801E+03  0.54631851792E+03 -0.17552508625E+04  0.19672263038E+04  0.50400001928E-02 0. -1.
</event>
<event>
 5   0  0.1370688E-07  0.3791567E+04  0.7818609E-02  0.8047967E-01
        2   -1    0    0  501    0  0.00000000000E+00  0.00000000000E+00  0.18453231681E+04  0.18453231681E+04  0.25500000920E-02 0.  1.
       -2   -1    0    0    0  501  0.00000000000E+00  0.00000000000E+00 -0.19476240649E+04  0.19476240649E+04  0.25500000920E-02 0. -1.
    10030    2    1    2    0    0  0.00000000000E+00  0.00000000000E+00 -0.10230089682E+03  0.37929472330E+04  0.37915673855E+04 0.  0.
        5    1    3    3  502    0  0.26331650968E+03 -0.12157885951E+03  0.18229925112E+04  0.18459254560E+04  0.46999998093E+01 0.  1.
       -5    1    3    3    0  502 -0.26331650968E+03  0.12157885951E+03 -0.19252934080E+04  0.19470217770E+04  0.46999998093E+01 0. -1.
</event>
<event>
 5   0  0.2203998E-07  0.3934450E+04  0.7818609E-02  0.8017902E-01
        2   -1    0    0  501    0  0.00000000000E+00  0.00000000000E+00  0.12829157930E+04  0.12829157930E+04  0.25500000920E-02 0.  1.
       -2   -1    0    0    0  501  0.00000000000E+00  0.00000000000E+00 -0.30165463676E+04  0.30165463676E+04  0.25500000920E-02 0. -1.
    10030    2    1    2    0    0  0.00000000000E+00  0.00000000000E+00 -0.17336305745E+04  0.42994621606E+04  0.39344503939E+04 0.  0.
        3    1    3    3  502    0 -0.11835971795E+04 -0.13795078490E+04 -0.44667145108E+02  0.18182242307E+04  0.10100000352E+00 0.  1.
       -3    1    3    3    0  502  0.11835971795E+04  0.13795078490E+04 -0.16889634294E+04  0.24812379300E+04  0.10100000352E+00 0. -1.
</event>
<event>
 5   0  0.6661000E-08  0.3833571E+04  0.7818609E-02  0.8038989E-01
       -1   -1    0    0    0  501  0.00000000000E+00  0.00000000000E+00  0.15108842050E+04  0.15108842050E+04  0.50400001928E-02 0.  1.
        1   -1    0    0  501    0  0.00000000000E+00  0.00000000000E+00 -0.24317325500E+04  0.24317325500E+04  0.50400001928E-02 0. -1.
    10030    2    1    2    0    0  0.00000000000E+00  0.00000000000E+00 -0.92084834498E+03  0.39426167550E+04  0.38335708162E+04 0.  0.
        2    1    3    3  502    0 -0.10935139392E+04  0.85902121314E+03  0.89633457686E+03  0.16544200958E+04  0.25500000920E-02 0.  1.
       -2    1    3    3    0  502  0.10935139392E+04 -0.85902121314E+03 -0.18171829218E+04  0.22881966592E+04  0.25500000920E-02 0. -1.
</event>
<event>
 5   0  0.6661000E-08  0.3781484E+04  0.7818609E-02  0.8050140E-01
        1   -1    0    0  501    0  0.00000000000E+00  0.00000000000E+00  0.20474443946E+04  0.20474443946E+04  0.50400001928E-02 0.  1.
       -1   -1    0    0    0  501  0.00000000000E+00  0.00000000000E+00 -0.17460328769E+04  0.17460328769E+04  0.50400001928E-02 0. -1.
    10030    2    1    2    0    0  0.00000000000E+00  0.00000000000E+00  0.30141151766E+03  0.37934772715E+04  0.37814839556E+04 0.  0.
        3    1    3    3  502    0  0.14405990081E+04 -0.36811899122E+03 -0.10209317162E+04  0.18036459390E+04  0.10100000352E+00 0. -1.
       -3    1    3    3    0  502 -0.14405990081E+04  0.36811899122E+03  0.13223432338E+04  0.19898313326E+04  0.10100000352E+00 0.  1.
</event>
<event>
 5   0  0.6725199E-08  0.3843389E+04  0.7818609E-02  0.8036907E-01
        1   -1    0    0  501    0  0.00000000000E+00  0.00000000000E+00  0.13880511619E+04  0.13880511619E+04  0.50400001928E-02 0. -1.
       -1   -1    0    0    0  501  0.00000000000E+00  0.00000000000E+00 -0.26604999414E+04  0.26604999414E+04  0.50400001928E-02 0.  1.
    10030    2    1    2    0    0  0.00000000000E+00  0.00000000000E+00 -0.12724487795E+04  0.40485511033E+04  0.38433891476E+04 0.  0.
        5    1    3    3  502    0  0.51421537547E+03  0.84039542542E+03 -0.23742083387E+04  0.25705192567E+04  0.46999998093E+01 0.  1.
       -5    1    3    3    0  502 -0.51421537547E+03 -0.84039542542E+03  0.11017595592E+04  0.14780318467E+04  0.46999998093E+01 0. -1.
</event>
<event>
 5   0  0.6661000E-08  0.3822160E+04  0.7818609E-02  0.8041416E-01
       -1   -1    0    0    0  501  0.00000000000E+00  0.00000000000E+00  0.24024866611E+04  0.24024866611E+04  0.50400001928E-02 0. -1.
        1   -1    0    0  501    0  0.00000000000E+00  0.00000000000E+00 -0.15201858787E+04  0.15201858787E+04  0.50400001928E-02 0.  1.
    10030    2    1    2    0    0  0.00000000000E+00  0.00000000000E+00  0.88230078235E+03  0.39226725398E+04  0.38221597538E+04 0.  0.
        2    1    3    3  502    0  0.36878199845E+02 -0.46031892501E+03  0.23443642404E+04  0.23894135695E+04  0.25500000920E-02 0. -1.
       -2    1    3    3    0  502 -0.36878199845E+02  0.46031892501E+03 -0.14620634581E+04  0.15332589702E+04  0.25500000920E-02 0.  1.
</event>
<event>
 5   0  0.6661000E-08  0.3807452E+04  0.7818609E-02  0.8044558E-01
        1   -1    0    0  501    0  0.00000000000E+00  0.00000000000E+00  0.16114139349E+04  0.16114139349E+04  0.50400001928E-02 0. -1.
       -1   -1    0    0    0  501  0.00000000000E+00  0.00000000000E+00 -0.22490632246E+04  0.22490632246E+04  0.50400001928E-02 0.  1.
    10030    2    1    2    0    0  0.00000000000E+00  0.00000000000E+00 -0.63764928975E+03  0.38604771595E+04  0.38074515470E+04 0.  0.
        1    1    3    3  502    0 -0.26618981418E+03  0.16419162793E+04  0.62004405183E+03  0.17751621649E+04  0.50400001928E-02 0. -1.
       -1    1    3    3    0  502  0.26618981418E+03 -0.16419162793E+04 -0.12576933416E+04  0.20853149946E+04  0.50400001928E-02 0.  1.
</event>
<event>
 5   0  0.2081337E-07  0.3852934E+04  0.7818609E-02  0.8034890E-01
       -2   -1    0    0    0  501  0.00000000000E+00  0.00000000000E+00  0.15537369341E+04  0.15537369341E+04  0.25500000920E-02 0.  1.
        2   -1    0    0  501    0  0.00000000000E+00  0.00000000000E+00 -0.23886125465E+04  0.23886125466E+04  0.25500000920E-02 0. -1.
    10030    2    1    2    0    0  0.00000000000E+00  0.00000000000E+00 -0.83487561241E+03  0.39423494807E+04  0.38529342247E+04 0.  0.
        1    1    3    3  502    0 -0.34641315494E+03 -0.15759819058E+04  0.65938954393E+03  0.17431338480E+04  0.50400001928E-02 0.  1.
       -1    1    3    3    0  502  0.34641315494E+03  0.15759819058E+04 -0.14942651563E+04  0.21992156327E+04  0.50400001928E-02 0. -1.
</event>
<event>
 5   0  0.6661000E-08  0.3816069E+04  0.7818609E-02  0.8042715E-01
        1   -1    0    0  501    0  0.00000000000E+00  0.00000000000E+00  0.23290755164E+04  0.23290755164E+04  0.50400001928E-02 0.  1.
       -1   -1    0    0    0  501  0.00000000000E+00  0.00000000000E+00 -0.15631078274E+04  0.15631078274E+04  0.50400001928E-02 0. -1.
    10030    2    1    2    0    0  0.00000000000E+00  0.00000000000E+00  0.76596768899E+03  0.38921833437E+04  0.38160692709E+04 0.  0.
        3    1    3    3  502    0 -0.13517354739E+03 -0.32410632366E+02  0.23239042361E+04  0.23280578270E+04  0.10100000352E+00 0.  1.
       -3    1    3    3    0  502  0.13517354739E+03  0.32410632366E+02 -0.15579365471E+04  0.15641255167E+04  0.10100000352E+00 0. -1.
</event>
<event>
 5   0  0.2205204E-07  0.3782100E+04  0.7818609E-02  0.8050007E-01
       -2   -1    0    0    0  501  0.00000000000E+00  0.00000000000E+00  0.21685561040E+04  0.21685561040E+04  0.25500000920E-02 0.  1.
        2   -1    0    0  501    0  0.00000000000E+00  0.00000000000E+00 -0.16490554131E+04  0.16490554131E+04  0.25500000920E-02 0. -1.
    10030    2    1    2    0    0  0.00000000000E+00  0.00000000000E+00  0.51950069096E+03  0.38176115171E+04  0.37820995132E+04 0.  0.
        2    1    3    3  502    0  0.29044786020E+03  0.53298747803E+03 -0.15480528744E+04  0.16627998416E+04  0.25500000920E-02 0. -1.
       -2    1    3    3    0  502 -0.29044786020E+03 -0.53298747803E+03  0.20675535654E+04  0.21548116755E+04  0.25500000920E-02 0.  1.
</event>
<event>
 5   0  0.6725199E-08  0.3779840E+04  0.7818609E-02  0.8050495E-01
       -1   -1    0    0    0  501  0.00000000000E+00  0.00000000000E+00  0.15970145055E+04  0.15970145056E+04  0.50400001928E-02 0.  1.
        1   -1    0    0  501    0  0.00000000000E+00  0.00000000000E+00 -0.22365462030E+04  0.22365462030E+04  0.50400001928E-02 0. -1.
    10030    2    1    2    0    0  0.00000000000E+00  0.00000000000E+00 -0.63953169745E+03  0.38335607086E+04  0.37798395355E+04 0.  0.
        5    1    3    3  502    0 -0.17440631023E+04  0.72504472341E+03 -0.38649365618E+03  0.19279121848E+04  0.46999998093E+01 0. -1.
       -5    1    3    3    0  502  0.17440631023E+04 -0.72504472341E+03 -0.25303804127E+03  0.19056485238E+04  0.46999998093E+01 0.  1.
</event>
<event>
 5   0  0.2135314E-07  0.3784030E+04  0.7818609E-02  0.8049591E-01
       -2   -1    0    0    0  501  0.00000000000E+00  0.00000000000E+00  0.16127089230E+04  0.16127089230E+04  0.25500000920E-02 0.  1.
        2   -1    0    0  501    0  0.00000000000E+00  0.00000000000E+00 -0.22196943688E+04  0.22196943689E+04  0.25500000920E-02 0. -1.
    10030    2    1    2    0    0  0.00000000000E+00  0.00000000000E+00 -0.60698544583E+03  0.38324032919E+04  0.37840300818E+04 0.  0.
        4    1    3    3  502    0 -0.15559054143E+04  0.20560638642E+03 -0.13736956818E+04  0.20857030190E+04  0.12699999809E+01 0. -1.
       -4    1    3    3    0  502  0.15559054143E+04 -0.20560638642E+03  0.76671023600E+03  0.17467002729E+04  0.12699999809E+01 0.  1.
</event>
<event>
 5   0  0.2081337E-07  0.3797784E+04  0.7818609E-02  0.8046631E-01
        2   -1    0    0  501    0  0.00000000000E+00  0.00000000000E+00  0.17167602472E+04  0.17167602472E+04  0.25500000920E-02 0.  1.
       -2   -1    0    0    0  501  0.00000000000E+00  0.00000000000E+00 -0.21003462172E+04  0.21003462172E+04  0.25500000920E-02 0. -1.
    10030    2    1    2    0    0  0.00000000000E+00  0.00000000000E+00 -0.38358597001E+03  0.38171064644E+04  0.37977840334E+04 0.  0.
        1    1    3    3  502    0 -0.86167566943E+03 -0.16363460496E+04 -0.62488850685E+03  0.19520755619E+04  0.50400001928E-02 0.  1.
       -1    1    3    3    0  502  0.86167566943E+03  0.16363460496E+04  0.24130253684E+03  0.18650309026E+04  0.50400001928E-02 0. -1.
</event>
<event>
 5   0  0.2081337E-07  0.3778521E+04  0.7818609E-02  0.8050780E-01
        2   -1    0    0  501    0  0.00000000000E+00  0.00000000000E+00  0.20238596025E+04  0.20238596025E+04  0.25500000920E-02 0.  1.
       -2   -1    0    0    0  501  0.00000000000E+00  0.00000000000E+00 -0.17636132602E+04  0.17636132602E+04  0.25500000920E-02 0. -1.
    10030    2    1    2    0    0  0.00000000000E+00  0.00000000000E+00  0.26024634227E+03  0.37874728627E+04  0.37785212090E+04 0.  0.
        1    1    3    3  502    0 -0.73238423283E+02  0.72178407468E+03  0.18786667725E+04  0.20138830550E+04  0.50400001928E-02 0.  1.
       -1    1    3    3    0  502  0.73238423283E+02 -0.72178407468E+03 -0.16184204302E+04  0.17735898077E+04  0.50400001928E-02 0. -1.
</event>
<event>
 5   0  0.6661000E-08  0.3804087E+04  0.7818609E-02  0.8045278E-01
       -1   -1    0    0    0  501  0.00000000000E+00  0.00000000000E+00  0.17442622377E+04  0.17442622377E+04  0.50400001928E-02 0. -1.
        1   -1    0    0  501    0  0.00000000000E+00  0.00000000000E+00 -0.20740970002E+04  0.20740970002E+04  0.50400001928E-02 0.  1.
    10030    2    1    2    0    0  0.00000000000E+00  0.00000000000E+00 -0.32983476245E+03  0.38183592379E+04  0.38040867892E+04 0.  0.
        2    1    3    3  502    0 -0.18917547318E+04  0.98443573964E+02  0.70202823151E+01  0.18943274233E+04  0.25500000920E-02 0.  1.
       -2    1    3    3    0  502  0.18917547318E+04 -0.98443573964E+02 -0.33685504477E+03  0.19240318146E+04  0.25500000920E-02 0. -1.
</event>
<event>
 5   0  0.2135314E-07  0.3842459E+04  0.7818609E-02  0.8037104E-01
       -2   -1    0    0    0  501  0.00000000000E+00  0.00000000000E+00  0.20617175571E+04  0.20617175571E+04  0.25500000920E-02 0. -1.
        2   -1    0    0  501    0  0.00000000000E+00  0.00000000000E+00 -0.17903141802E+04  0.17903141802E+04  0.25500000920E-02 0.  1.
    10030    2    1    2    0    0  0.00000000000E+00  0.00000000000E+00  0.27140337685E+03  0.38520317373E+04  0.38424586806E+04 0.  0.
        4    1    3    3  502    0 -0.11448069775E+04  0.32962767012E+03 -0.13753302558E+04  0.18195527863E+04  0.12699999809E+01 0.  1.
       -4    1    3    3    0  502  0.11448069775E+04 -0.32962767012E+03  0.16467336326E+04  0.20324789510E+04  0.12699999809E+01 0. -1.
</event>
<event>
 5   0  0.2135314E-07  0.3377120E+04  0.7818609E-02  0.8143545E-01
        2   -1    0    0  501    0  0.00000000000E+00  0.00000000000E+00  0.19066364762E+04  0.19066364762E+04  0.25500000920E-02 0. -1.
       -2   -1    0    0    0  501  0.00000000000E+00  0.00000000000E+00 -0.14954270138E+04  0.14954270138E+04  0.25500000920E-02 0.  1.
    10030    2    1    2    0    0  0.00000000000E+00  0.00000000000E+00  0.41120946237E+03  0.34020634899E+04  0.33771204846E+04 0.  0.
        4    1    3    3  502    0  0.85873244642E+03 -0.36395827739E+03  0.16236044149E+04  0.18724262205E+04  0.12699999809E+01 0. -1.
       -4    1    3    3    0  502 -0.85873244642E+03  0.36395827739E+03 -0.12123949525E+04  0.15296372694E+04  0.12699999809E+01 0.  1.
</event>
<event>
 5   0  0.1370688E-07  0.3804777E+04  0.7818609E-02  0.8045131E-01
       -2   -1    0    0    0  501  0.00000000000E+00  0.00000000000E+00  0.23146286151E+04  0.23146286151E+04  0.25500000920E-02 0.  1.
        2   -1    0    0  501    0  0.00000000000E+00  0.00000000000E+00 -0.15635689686E+04  0.15635689686E+04  0.25500000920E-02 0. -1.
    10030    2    1    2    0    0  0.00000000000E+00  0.00000000000E+00  0.75105964658E+03  0.38781975837E+04  0.38047767221E+04 0.  0.
        5    1    3    3  502    0  0.53510231319E+03  0.17474052321E+04 -0.16315670044E+03  0.18347756620E+04  0.46999998093E+01 0. -1.
       -5    1    3    3    0  502 -0.53510231319E+03 -0.17474052321E+04  0.91421634702E+03  0.20434219217E+04  0.46999998093E+01 0.  1.
</event>
<event>
 5   0  0.2081337E-07  0.3727839E+04  0.7818609E-02  0.8061820E-01
        2   -1    0    0  501    0  0.00000000000E+00  0.00000000000E+00  0.21105473609E+04  0.21105473609E+04  0.25500000920E-02 0.  1.
       -2   -1    0    0    0  501  0.00000000000E+00  0.00000000000E+00 -0.16461113542E+04  0.16461113542E+04  0.25500000920E-02 0. -1.
    10030    2    1    2    0    0  0.00000000000E+00  0.00000000000E+00  0.46443600669E+03  0.37566587151E+04  0.37278390386E+04 0.  0.
        1    1    3    3  502    0 -0.10895186722E+04  0.38478662880E+03 -0.12416498241E+04  0.16961149644E+04  0.50400001928E-02 0. -1.
       -1    1    3    3    0  502  0.10895186722E+04 -0.38478662880E+03  0.17060858308E+04  0.20605437508E+04  0.50400001928E-02 0.  1.
</event>
<event>
 5   0  0.6661000E-08  0.3764554E+04  0.7818609E-02  0.8053805E-01
       -1   -1    0    0    0  501  0.00000000000E+00  0.00000000000E+00  0.17991190268E+04  0.17991190268E+04  0.50400001928E-02 0.  1.
        1   -1    0    0  501    0  0.00000000000E+00  0.00000000000E+00 -0.19692786619E+04  0.19692786619E+04  0.50400001928E-02 0. -1.
    10030    2    1    2    0    0  0.00000000000E+00  0.00000000000E+00 -0.17015963504E+03  0.37683976887E+04  0.37645540027E+04 0.  0.
        3    1    3    3  502    0 -0.48558003505E+03 -0.11443419941E+04 -0.14999089645E+04  0.19480845675E+04  0.10100000352E+00 0. -1.
       -3    1    3    3    0  502  0.48558003505E+03  0.11443419941E+04  0.13297493295E+04  0.18203131213E+04  0.10100000352E+00 0.  1.
</event>
<event>
 5   0  0.6661000E-08  0.3832411E+04  0.7818609E-02  0.8039235E-01
       -1   -1    0    0    0  501  0.00000000000E+00  0.00000000000E+00  0.16897017056E+04  0.16897017056E+04  0.50400001928E-02 0. -1.
        1   -1    0    0  501    0  0.00000000000E+00  0.00000000000E+00 -0.21730719199E+04  0.21730719199E+04  0.50400001928E-02 0.  1.
    10030    2    1    2    0    0  0.00000000000E+00  0.00000000000E+00 -0.48337021427E+03  0.38627736255E+04  0.38324109015E+04 0.  0.
        3    1    3    3  502    0  0.29961359184E+03 -0.94574661760E+03  0.14107050727E+04  0.17246140964E+04  0.10100000352E+00 0. -1.
       -3    1    3    3    0  502 -0.29961359184E+03  0.94574661760E+03 -0.18940752869E+04  0.21381595291E+04  0.10100000352E+00 0.  1.
</event>
<event>
 5   0  0.6661000E-08  0.3812186E+04  0.7818609E-02  0.8043545E-01
        1   -1    0    0  501    0  0.00000000000E+00  0.00000000000E+00  0.29288901262E+04  0.29288901262E+04  0.50400001928E-02 0. -1.
       -1   -1    0    0    0  501  0.00000000000E+00  0.00000000000E+00 -0.12404667648E+04  0.12404667648E+04  0.50400001928E-02 0.  1.
    10030    2    1    2    0    0  0.00000000000E+00  0.00000000000E+00  0.16884233614E+04  0.41693568910E+04  0.38121861756E+04 0.  0.
        3    1    3    3  502    0  0.10897829140E+03 -0.27289657626E+03  0.29039682341E+04  0.29187977532E+04  0.10100000352E+00 0. -1.
       -3    1    3    3    0  502 -0.10897829140E+03  0.27289657626E+03 -0.12155448727E+04  0.12505591378E+04  0.10100000352E+00 0.  1.
</event>
<event>
 5   0  0.1370688E-07  0.3850995E+04  0.7818609E-02  0.8035299E-01
       -2   -1    0    0    0  501  0.00000000000E+00  0.00000000000E+00  0.13779862517E+04  0.13779862517E+04  0.25500000920E-02 0. -1.
        2   -1    0    0  501    0  0.00000000000E+00  0.00000000000E+00 -0.26905503941E+04  0.26905503941E+04  0.25500000920E-02 0.  1.
    10030    2    1    2    0    0  0.00000000000E+00  0.00000000000E+00 -0.13125641424E+04  0.40685366458E+04  0.38509954310E+04 0.  0.
        5    1    3    3  502    0 -0.17323094665E+03  0.16915961248E+04  0.29808128292E+03  0.17263779862E+04  0.46999998093E+01 0. -1.
       -5    1    3    3    0  502  0.17323094665E+03 -0.16915961248E+04 -0.16106454254E+04  0.23421586595E+04  0.46999998093E+01 0.  1.
</event>
<event>
 5   0  0.2203998E-07  0.3759582E+04  0.7818609E-02  0.8054885E-01
       -2   -1    0    0    0  501  0.00000000000E+00  0.00000000000E+00  0.17315454274E+04  0.17315454274E+04  0.25500000920E-02 0. -1.
        2   -1    0    0  501    0  0.00000000000E+00  0.00000000000E+00 -0.20407281033E+04  0.20407281033E+04  0.25500000920E-02 0.  1.
    10030    2    1    2    0    0  0.00000000000E+00  0.00000000000E+00 -0.30918267590E+03  0.37722735307E+04  0.37595815809E+04 0.  0.
        3    1    3    3  502    0 -0.68694665361E+03 -0.16558216669E+04  0.41297922162E+03  0.18396176084E+04  0.10100000352E+00 0. -1.
       -3    1    3    3    0  502  0.68694665361E+03  0.16558216669E+04 -0.72216189752E+03  0.19326559223E+04  0.10100000352E+00 0.  1.
</event>
<event>
 5   0  0.1370688E-07  0.3592760E+04  0.7818609E-02  0.8092152E-01
       -2   -1    0    0    0  501  0.00000000000E+00  0.00000000000E+00  0.14605875044E+04  0.14605875044E+04  0.25500000920E-02 0.  1.
        2   -1    0    0  501    0  0.00000000000E+00  0.00000000000E+00 -0.22093724782E+04  0.22093724782E+04  0.25500000920E-02 0. -1.
    10030    2    1    2    0    0  0.00000000000E+00  0.00000000000E+00 -0.74878497379E+03  0.36699599826E+04  0.35927604062E+04 0.  0.
        5    1    3    3  502    0 -0.12945909921E+04  0.26887021931E+03  0.86775597954E+03  0.15815434112E+04  0.46999998093E+01 0.  1.
       -5    1    3    3    0  502  0.12945909921E+04 -0.26887021931E+03 -0.16165409533E+04  0.20884165713E+04  0.46999998093E+01 0. -1.
</event>
<event>
 5   0  0.2205204E-07  0.3750236E+04  0.7818609E-02  0.8056919E-01
       -2   -1    0    0    0  501  0.00000000000E+00  0.00000000000E+00  0.19589892549E+04  0.19589892549E+04  0.25500000920E-02 0.  1.
        2   -1    0    0  501    0  0.00000000000E+00  0.00000000000E+00 -0.17948374576E+04  0.17948374576E+04  0.25500000920E-02 0. -1.
    10030    2    1    2    0    0  0.00000000000E+00  0.00000000000E+00  0.16415179733E+03  0.37538267125E+04  0.37502358826E+04 0.  0.
        2    1    3    3  502    0 -0.70528642055E+03  0.21240002949E+02  0.18210324199E+04  0.19529565144E+04  0.25500000920E-02 0.  1.
       -2    1    3    3    0  502  0.70528642055E+03 -0.21240002949E+02 -0.16568806226E+04  0.18008701981E+04  0.25500000920E-02 0. -1.
</event>
<event>
 5   0  0.6661000E-08  0.3810131E+04  0.7818609E-02  0.8043984E-01
        1   -1    0    0  501    0  0.00000000000E+00  0.00000000000E+00  0.24450022398E+04  0.24450022398E+04  0.50400001928E-02 0.  1.
       -1   -1    0    0    0  501  0.00000000000E+00  0.00000000000E+00 -0.14843647538E+04  0.14843647538E+04  0.50400001928E-02 0. -1.
    10030    2    1    2    0    0  0.00000000000E+00  0.00000000000E+00  0.96063748605E+03  0.39293669936E+04  0.38101313089E+04 0.  0.
        2    1    3    3  502    0 -0.11689443160E+04 -0.66505816797E+03 -0.91118057269E+03  0.16244947573E+04  0.25500000920E-02 0. -1.
       -2    1    3    3    0  502  0.11689443160E+04  0.66505816797E+03  0.18718180587E+04  0.23048722363E+04  0.25500000920E-02 0.  1.
</event>
<event>
 5   0  0.2081337E-07  0.3737423E+04  0.7818609E-02  0.8059719E-01
       -2   -1    0    0    0  501  0.00000000000E+00  0.00000000000E+00  0.16124182097E+04  0.16124182097E+04  0.25500000920E-02 0. -1.
        2   -1    0    0  501    0  0.00000000000E+00  0.00000000000E+00 -0.21657428614E+04  0.21657428614E+04  0.25500000920E-02 0.  1.
    10030    2    1    2    0    0  0.00000000000E+00  0.00000000000E+00 -0.55332465172E+03  0.37781610710E+04  0.37374232980E+04 0.  0.
        1    1    3    3  502    0 -0.33318749480E+03 -0.19148985082E+03  0.15720415422E+04  0.16183315112E+04  0.50400001928E-02 0. -1.
       -1    1    3    3    0  502  0.33318749480E+03  0.19148985082E+03 -0.21253661939E+04  0.21598295599E+04  0.50400001928E-02 0.  1.
</event>
<event>
 5   0  0.6725199E-08  0.3801869E+04  0.7818609E-02  0.8045754E-01
       -1   -1    0    0    0  501  0.00000000000E+00  0.00000000000E+00  0.14663936064E+04  0.14663936064E+04  0.50400001928E-02 0.  1.
        1   -1    0    0  501    0  0.00000000000E+00  0.00000000000E+00 -0.24642442738E+04  0.24642442738E+04  0.50400001928E-02 0. -1.
    10030    2    1    2    0    0  0.00000000000E+00  0.00000000000E+00 -0.99785066736E+03  0.39306378802E+04  0.38018690392E+04 0.  0.
        5    1    3    3  502    0  0.33971638444E+03  0.27144868006E+03  0.14142754863E+04  0.14796245635E+04  0.46999998093E+01 0.  1.
       -5    1    3    3    0  502 -0.33971638444E+03 -0.27144868006E+03 -0.24121261536E+04  0.24510133167E+04  0.46999998093E+01 0. -1.
</event>
<event>
 5   0  0.1370688E-07  0.3806318E+04  0.7818609E-02  0.8044800E-01
       -2   -1    0    0    0  501  0.00000000000E+00  0.00000000000E+00  0.18980755154E+04  0.18980755154E+04  0.25500000920E-02 0.  1.
        2   -1    0    0  501    0  0.00000000000E+00  0.00000000000E+00 -0.19082562478E+04  0.19082562478E+04  0.25500000920E-02 0. -1.
    10030    2    1    2    0    0  0.00000000000E+00  0.00000000000E+00 -0.10180732364E+02  0.38063317632E+04  0.38063181480E+04 0.  0.
        5    1    3    3  502    0 -0.45942662576E+03  0.14182802676E+03  0.18363299050E+04  0.18982406654E+04  0.46999998093E+01 0.  1.
       -5    1    3    3    0  502  0.45942662576E+03 -0.14182802676E+03 -0.18465106374E+04  0.19080910978E+04  0.46999998093E+01 0. -1.
</event>
<event>
 5   0  0.6661000E-08  0.3772147E+04  0.7818609E-02  0.8052159E-01
        1   -1    0    0  501    0  0.00000000000E+00  0.00000000000E+00  0.24633471947E+04  0.24633471947E+04  0.50400001928E-02 0.  1.
       -1   -1    0    0    0  501  0.00000000000E+00  0.00000000000E+00 -0.14440813927E+04  0.14440813928E+04  0.50400001928E-02 0. -1.
    10030    2    1    2    0    0  0.00000000000E+00  0.00000000000E+00  0.10192658019E+04  0.39074285874E+04  0.37721473183E+04 0.  0.
        1    1    3    3  502    0  0.15695054715E+04  0.30465040408E+03  0.15460732017E+04  0.22240732090E+04  0.50400001928E-02 0.  1.
       -1    1    3    3    0  502 -0.15695054715E+04 -0.30465040408E+03 -0.52680739971E+03  0.16833553785E+04  0.50400001928E-02 0. -1.
</event>
<event>
 5   0  0.6661000E-08  0.3636990E+04  0.7818609E-02  0.8082071E-01
       -1   -1    0    0    0  501  0.00000000000E+00  0.00000000000E+00  0.22138373997E+04  0.22138373997E+04  0.50400001928E-02 0. -1.
        1   -1    0    0  501    0  0.00000000000E+00  0.00000000000E+00 -0.14937516947E+04  0.14937516947E+04  0.50400001928E-02 0.  1.
    10030    2    1    2    0    0  0.00000000000E+00  0.00000000000E+00  0.72008570504E+03  0.37075890944E+04  0.36369896165E+04 0.  0.
        3    1    3    3  502    0 -0.39128931957E+03 -0.28716949150E+03  0.21465887141E+04  0.22007764008E+04  0.10100000352E+00 0. -1.
       -3    1    3    3    0  502  0.39128931957E+03  0.28716949150E+03 -0.14265030091E+04  0.15068126936E+04  0.10100000352E+00 0.  1.
</event>
<event>
 5   0  0.6661000E-08  0.3795613E+04  0.7818609E-02  0.8047097E-01
       -1   -1    0    0    0  501  0.00000000000E+00  0.00000000000E+00  0.18308159531E+04  0.18308159531E+04  0.50400001928E-02 0. -1.
        1   -1    0    0  501    0  0.00000000000E+00  0.00000000000E+00 -0.19672478404E+04  0.19672478404E+04  0.50400001928E-02 0.  1.
    10030    2    1    2    0    0  0.00000000000E+00  0.00000000000E+00 -0.13643188725E+03  0.37980637935E+04  0.37956125882E+04 0.  0.
        2    1    3    3  502    0 -0.19318231933E+03  0.93451196222E+03 -0.17097133019E+04  0.19579968312E+04  0.25500000920E-02 0.  1.
       -2    1    3    3    0  502  0.19318231933E+03 -0.93451196222E+03  0.15732814147E+04  0.18400669623E+04  0.25500000920E-02 0. -1.
</event>
<event>
 5   0  0.6661000E-08  0.3836206E+04  0.7818609E-02  0.8038430E-01
       -1   -1    0    0    0  501  0.00000000000E+00  0.00000000000E+00  0.12205831927E+04  0.12205831927E+04  0.50400001928E-02 0. -1.
        1   -1    0    0  501    0  0.00000000000E+00  0.00000000000E+00 -0.30142306088E+04  0.30142306088E+04  0.50400001928E-02 0.  1.
    10030    2    1    2    0    0  0.00000000000E+00  0.00000000000E+00 -0.17936474161E+04  0.42348138015E+04  0.38362060528E+04 0.  0.
        3    1    3    3  502    0 -0.60753169135E+03 -0.15591713120E+04  0.13814953447E+03  0.16790459316E+04  0.10100000352E+00 0. -1.
       -3    1    3    3    0  502  0.60753169135E+03  0.15591713120E+04 -0.19317969506E+04  0.25557678699E+04  0.10100000352E+00 0.  1.
</event>
<event>
 5   0  0.6661000E-08  0.3797951E+04  0.7818609E-02  0.8046595E-01
        1   -1    0    0  501    0  0.00000000000E+00  0.00000000000E+00  0.25827358074E+04  0.25827358074E+04  0.50400001928E-02 0.  1.
       -1   -1    0    0    0  501  0.00000000000E+00  0.00000000000E+00 -0.13962356790E+04  0.13962356790E+04  0.50400001928E-02 0. -1.
    10030    2    1    2    0    0  0.00000000000E+00  0.00000000000E+00  0.11865001284E+04  0.39789714864E+04  0.37979509653E+04 0.  0.
        4    1    3    3  502    0  0.11974999464E+04 -0.14364569695E+04  0.24785246640E+03  0.18864907115E+04  0.12699999809E+01 0.  1.
       -4    1    3    3    0  502 -0.11974999464E+04  0.14364569695E+04  0.93864766200E+03  0.20924807748E+04  0.12699999809E+01 0. -1.
</event>
<event>
 5   0  0.1370688E-07  0.3808283E+04  0.7818609E-02  0.8044380E-01
       -2   -1    0    0    0  501  0.00000000000E+00  0.00000000000E+00  0.32094304194E+04  0.32094304194E+04  0.25500000920E-02 0. -1.
        2   -1    0    0  501    0  0.00000000000E+00  0.00000000000E+00 -0.11297188985E+04  0.11297188985E+04  0.25500000920E-02 0.  1.
    10030    2    1    2    0    0  0.00000000000E+00  0.00000000000E+00  0.20797115209E+04  0.43391493179E+04  0.38082826567E+04 0.  0.
        5    1    3    3  502    0  0.13011997825E+04 -0.39525317113E+03  0.25584582635E+04  0.28974258781E+04  0.46999998093E+01 0. -1.
       -5    1    3    3    0  502 -0.13011997825E+04  0.39525317113E+03 -0.47874674261E+03  0.14417234398E+04  0.46999998093E+01 0.  1.
</event>
<event>
 5   0  0.2205204E-07  0.3768697E+04  0.7818609E-02  0.8052906E-01
       -2   -1    0    0    0  501  0.00000000000E+00  0.00000000000E+00  0.15239409506E+04  0.15239409506E+04  0.25500000920E-02 0.  1.
        2   -1    0    0  501    0  0.00000000000E+00  0.00000000000E+00 -0.23299907781E+04  0.23299907781E+04  0.25500000920E-02 0. -1.
    10030    2    1    2    0    0  0.00000000000E+00  0.00000000000E+00 -0.80604982747E+03  0.38539317287E+04  0.37686965180E+04 0.  0.
        2    1    3    3  502    0  0.10533775523E+04  0.78976766116E+03 -0.17816362091E+04  0.22153024191E+04  0.25500000920E-02 0. -1.
       -2    1    3    3    0  502 -0.10533775523E+04 -0.78976766116E+03  0.97558638161E+03  0.16386293096E+04  0.25500000920E-02 0.  1.
</event>
<event>
 5   0  0.1370688E-07  0.3790480E+04  0.7818609E-02  0.8048201E-01
        2   -1    0    0  501    0  0.00000000000E+00  0.00000000000E+00  0.23484399654E+04  0.23484399654E+04  0.25500000920E-02 0. -1.
       -2   -1    0    0    0  501  0.00000000000E+00  0.00000000000E+00 -0.15294980665E+04  0.15294980665E+04  0.25500000920E-02 0.  1.
    10030    2    1    2    0    0  0.00000000000E+00  0.00000000000E+00  0.81894189891E+03  0.38779380320E+04  0.37904798570E+04 0.  0.
        5    1    3    3  502    0  0.16135864549E+04  0.36042611069E+03  0.13573160660E+04  0.21391346899E+04  0.46999998093E+01 0.  1.
       -5    1    3    3    0  502 -0.16135864549E+04 -0.36042611069E+03 -0.53837416704E+03  0.17388033421E+04  0.46999998093E+01 0. -1.
</event>
<event>
 5   0  0.6725199E-08  0.3799858E+04  0.7818609E-02  0.8046185E-01
        1   -1    0    0  501    0  0.00000000000E+00  0.00000000000E+00  0.22346572307E+04  0.22346572307E+04  0.50400001928E-02 0. -1.
       -1   -1    0    0    0  501  0.00000000000E+00  0.00000000000E+00 -0.16153393996E+04  0.16153393996E+04  0.50400001928E-02 0.  1.
    10030    2    1    2    0    0  0.00000000000E+00  0.00000000000E+00  0.61931783110E+03  0.38499966302E+04  0.37998578232E+04 0.  0.
        5    1    3    3  502    0 -0.30394006709E+03 -0.17912171197E+04  0.87275236619E+03  0.20155786060E+04  0.46999998093E+01 0. -1.
       -5    1    3    3    0  502  0.30394006709E+03  0.17912171197E+04 -0.25343453509E+03  0.18344180243E+04  0.46999998093E+01 0.  1.
</event>
<event>
 5   0  0.6725199E-08  0.3795651E+04  0.7818609E-02  0.8047089E-01
        1   -1    0    0  501    0  0.00000000000E+00  0.00000000000E+00  0.19168639012E+04  0.19168639012E+04  0.50400001928E-02 0.  1.
       -1   -1    0    0    0  501  0.00000000000E+00  0.00000000000E+00 -0.18789765707E+04  0.18789765707E+04  0.50400001928E-02 0. -1.
    10030    2    1    2    0    0  0.00000000000E+00  0.00000000000E+00  0.37887330538E+02  0.37958404719E+04  0.37956513852E+04 0.  0.
        5    1    3    3  502    0 -0.18036355930E+04  0.21720414954E+03  0.56800769513E+03  0.19034005955E+04  0.46999998093E+01 0.  1.
       -5    1    3    3    0  502  0.18036355930E+04 -0.21720414954E+03 -0.53012036460E+03  0.18924398765E+04  0.46999998093E+01 0. -1.
</event>
<event>
 5   0  0.2203998E-07  0.3805957E+04  0.7818609E-02  0.8044878E-01
       -2   -1    0    0    0  501  0.00000000000E+00  0.00000000000E+00  0.32883322434E+04  0.32883322434E+04  0.25500000920E-02 0. -1.
        2   -1    0    0  501    0  0.00000000000E+00  0.00000000000E+00 -0.11012657279E+04  0.11012657279E+04  0.25500000920E-02 0.  1.
    10030    2    1    2    0    0  0.00000000000E+00  0.00000000000E+00  0.21870665155E+04  0.43895979712E+04  0.38059572260E+04 0.  0.
        3    1    3    3  502    0  0.27506764771E+03 -0.10896344174E+04 -0.67766060061E+03  0.13123220924E+04  0.10100000352E+00 0.  1.
       -3    1    3    3    0  502 -0.27506764771E+03  0.10896344174E+04  0.28647271161E+04  0.30772758788E+04  0.10100000352E+00 0. -1.
</event>
<event>
 5   0  0.2203998E-07  0.3759626E+04  0.7818609E-02  0.8054875E-01
       -2   -1    0    0    0  501  0.00000000000E+00  0.00000000000E+00  0.19136898812E+04  0.19136898812E+04  0.25500000920E-02 0. -1.
        2   -1    0    0  501    0  0.00000000000E+00  0.00000000000E+00 -0.18465354940E+04  0.18465354940E+04  0.25500000920E-02 0.  1.
    10030    2    1    2    0    0  0.00000000000E+00  0.00000000000E+00  0.67154387226E+02  0.37602253752E+04  0.37596256676E+04 0.  0.
        3    1    3    3  502    0  0.95958211030E+03 -0.14828284272E+04 -0.61004570348E+03  0.18686181369E+04  0.10100000352E+00 0.  1.
       -3    1    3    3    0  502 -0.95958211030E+03  0.14828284272E+04  0.67720009071E+03  0.18916072383E+04  0.10100000352E+00 0. -1.
</event>
<event>
 5   0  0.2135314E-07  0.3830225E+04  0.7818609E-02  0.8039700E-01
       -2   -1    0    0    0  501  0.00000000000E+00  0.00000000000E+00  0.13378683754E+04  0.13378683754E+04  0.25500000920E-02 0.  1.
        2   -1    0    0  501    0  0.00000000000E+00  0.00000000000E+00 -0.27414172729E+04  0.27414172729E+04  0.25500000920E-02 0. -1.
    10030    2    1    2    0    0  0.00000000000E+00  0.00000000000E+00 -0.14035488975E+04  0.40792856483E+04  0.38302247836E+04 0.  0.
        4    1    3    3  502    0 -0.11758837316E+04 -0.66395030604E+03  0.74451293431E+03  0.15420225943E+04  0.12699999809E+01 0.  1.
       -4    1    3    3    0  502  0.11758837316E+04  0.66395030604E+03 -0.21480618318E+04  0.25372630540E+04  0.12699999809E+01 0. -1.
</event>
<event>
 5   0  0.2203998E-07  0.3790220E+04  0.7818609E-02  0.8048257E-01
        2   -1    0    0  501    0  0.00000000000E+00  0.00000000000E+00  0.15106657044E+04  0.15106657044E+04  0.25500000920E-02 0.  1.
       -2   -1    0    0    0  501  0.00000000000E+00  0.00000000000E+00 -0.23773900583E+04  0.23773900583E+04  0.25500000920E-02 0. -1.
    10030    2    1    2    0    0  0.00000000000E+00  0.00000000000E+00 -0.86672435382E+03  0.38880557627E+04  0.37902198496E+04 0.  0.
        3    1    3    3  502    0  0.48748528571E+03 -0.33374932544E+03  0.14137876436E+04  0.15322617359E+04  0.10100000352E+00 0.  1.
       -3    1    3    3    0  502 -0.48748528571E+03  0.33374932544E+03 -0.22805119974E+04  0.23557940268E+04  0.10100000352E+00 0. -1.
</event>
<event>
 5   0  0.2081337E-07  0.3784292E+04  0.7818609E-02  0.8049534E-01
       -2   -1    0    0    0  501  0.00000000000E+00  0.00000000000E+00  0.17101017062E+04  0.17101017062E+04  0.25500000920E-02 0. -1.
        2   -1    0    0  501    0  0.00000000000E+00  0.00000000000E+00 -0.20935692302E+04  0.20935692302E+04  0.25500000920E-02 0.  1.
    10030    2    1    2    0    0  0.00000000000E+00  0.00000000000E+00 -0.38346752398E+03  0.38036709363E+04  0.37842919087E+04 0.  0.
        1    1    3    3  502    0  0.41688062399E+03  0.86977077932E+03 -0.18279291094E+04  0.20667886908E+04  0.50400001928E-02 0.  1.
       -1    1    3    3    0  502 -0.41688062399E+03 -0.86977077932E+03  0.14444615854E+04  0.17368822456E+04  0.50400001928E-02 0. -1.
</event>
<event>
 5   0  0.1370688E-07  0.3808080E+04  0.7818609E-02  0.8044423E-01
       -2   -1    0    0    0  501  0.00000000000E+00  0.00000000000E+00  0.19744499258E+04  0.19744499258E+04  0.25500000920E-02 0.  1.
        2   -1    0    0  501    0  0.00000000000E+00  0.00000000000E+00 -0.18361411135E+04  0.18361411135E+04  0.25500000920E-02 0. -1.
    10030    2    1    2    0    0  0.00000000000E+00  0.00000000000E+00  0.13830881233E+03  0.38105910393E+04  0.38080801911E+04 0.  0.
        5    1    3    3  502    0 -0.14481413711E+04  0.87755737211E+03  0.94043294379E+03  0.19369193540E+04  0.46999998093E+01 0.  1.
       -5    1    3    3    0  502  0.14481413711E+04 -0.87755737211E+03 -0.80212413146E+03  0.18736716853E+04  0.46999998093E+01 0. -1.
</event>
<event>
 5   0  0.1370688E-07  0.3784607E+04  0.7818609E-02  0.8049466E-01
       -2   -1    0    0    0  501  0.00000000000E+00  0.00000000000E+00  0.13916598370E+04  0.13916598370E+04  0.25500000920E-02 0. -1.
        2   -1    0    0  501    0  0.00000000000E+00  0.00000000000E+00 -0.25730514061E+04  0.25730514061E+04  0.25500000920E-02 0.  1.
    10030    2    1    2    0    0  0.00000000000E+00  0.00000000000E+00 -0.11813915691E+04  0.39647112431E+04  0.37846068754E+04 0.  0.
        5    1    3    3  502    0  0.61762359784E+03 -0.47738238994E+03 -0.23965142008E+04  0.25204474324E+04  0.46999998093E+01 0.  1.
       -5    1    3    3    0  502 -0.61762359784E+03  0.47738238994E+03  0.12151226317E+04  0.14442638107E+04  0.46999998093E+01 0. -1.
</event>
<event>
 5   0  0.6661000E-08  0.3821158E+04  0.7818609E-02  0.8041630E-01
        1   -1    0    0  501    0  0.00000000000E+00  0.00000000000E+00  0.24876392113E+04  0.24876392113E+04  0.50400001928E-02 0. -1.
       -1   -1    0    0    0  501  0.00000000000E+00  0.00000000000E+00 -0.14673802281E+04  0.14673802281E+04  0.50400001928E-02 0.  1.
    10030    2    1    2    0    0  0.00000000000E+00  0.00000000000E+00  0.10202589832E+04  0.39550194394E+04  0.38211582502E+04 0.  0.
        3    1    3    3  502    0  0.11195835162E+04  0.12079021521E+04 -0.49220532642E+03  0.17189418118E+04  0.10100000352E+00 0.  1.
       -3    1    3    3    0  502 -0.11195835162E+04 -0.12079021521E+04  0.15124643096E+04  0.22360776276E+04  0.10100000352E+00 0. -1.
</event>
<event>
 5   0  0.6661000E-08  0.3812862E+04  0.7818609E-02  0.8043400E-01
        1   -1    0    0  501    0  0.00000000000E+00  0.00000000000E+00  0.16260689293E+04  0.16260689293E+04  0.50400001928E-02 0.  1.
       -1   -1    0    0    0  501  0.00000000000E+00  0.00000000000E+00 -0.22351318842E+04  0.22351318842E+04  0.50400001928E-02 0. -1.
    10030    2    1    2    0    0  0.00000000000E+00  0.00000000000E+00 -0.60906295490E+03  0.38612008134E+04  0.38128616600E+04 0.  0.
        1    1    3    3  502    0  0.13154811474E+04 -0.66468384091E+03 -0.15290694113E+04  0.21237581129E+04  0.50400001928E-02 0. -1.
       -1    1    3    3    0  502 -0.13154811474E+04  0.66468384091E+03  0.92000645642E+03  0.17374427005E+04  0.50400001928E-02 0.  1.
</event>
<event>
 5   0  0.6661000E-08  0.3787760E+04  0.7818609E-02  0.8048787E-01
       -1   -1    0    0    0  501  0.00000000000E+00  0.00000000000E+00  0.14266354925E+04  0.14266354925E+04  0.50400001928E-02 0. -1.
        1   -1    0    0  501    0  0.00000000000E+00  0.00000000000E+00 -0.25141537393E+04  0.25141537393E+04  0.50400001928E-02 0.  1.
    10030    2    1    2    0    0  0.00000000000E+00  0.00000000000E+00 -0.10875182468E+04  0.39407892319E+04  0.37877597380E+04 0.  0.
        3    1    3    3  502    0 -0.81008475466E+02  0.15159356916E+04  0.63431192208E+03  0.16452887342E+04  0.10100000352E+00 0. -1.
       -3    1    3    3    0  502  0.81008475466E+02 -0.15159356916E+04 -0.17218301689E+04  0.22955004977E+04  0.10100000352E+00 0.  1.
</event>
<event>
 5   0  0.6661000E-08  0.3808476E+04  0.7818609E-02  0.8044338E-01
        1   -1    0    0  501    0  0.00000000000E+00  0.00000000000E+00  0.22423511096E+04  0.22423511096E+04  0.50400001928E-02 0. -1.
       -1   -1    0    0    0  501  0.00000000000E+00  0.00000000000E+00 -0.16171075922E+04  0.16171075922E+04  0.50400001928E-02 0.  1.
    10030    2    1    2    0    0  0.00000000000E+00  0.00000000000E+00  0.62524351739E+03  0.38594587018E+04  0.38084763377E+04 0.  0.
        4    1    3    3  502    0 -0.41016996123E+03 -0.13363001782E+04 -0.99781825590E+03  0.17174342631E+04  0.12699999809E+01 0.  1.
       -4    1    3    3    0  502  0.41016996123E+03  0.13363001782E+04  0.16230617733E+04  0.21420244387E+04  0.12699999809E+01 0. -1.
</event>
<event>
 5   0  0.6661000E-08  0.3804791E+04  0.7818609E-02  0.8045127E-01
       -1   -1    0    0    0  501  0.00000000000E+00  0.00000000000E+00  0.13074032228E+04  0.13074032228E+04  0.50400001928E-02 0.  1.
        1   -1    0    0  501    0  0.00000000000E+00  0.00000000000E+00 -0.27681661315E+04  0.27681661315E+04  0.50400001928E-02 0. -1.
    10030    2    1    2    0    0  0.00000000000E+00  0.00000000000E+00 -0.14607629087E+04  0.40755693543E+04  0.38047913591E+04 0.  0.
        2    1    3    3  502    0  0.82507517021E+03 -0.16143807585E+04 -0.13477077788E+04  0.22590463756E+04  0.25500000920E-02 0. -1.
       -2    1    3    3    0  502 -0.82507517021E+03  0.16143807585E+04 -0.11305512988E+03  0.18165229788E+04  0.25500000920E-02 0.  1.
</event>
<event>
 5   0  0.2135314E-07  0.3853119E+04  0.7818609E-02  0.8034851E-01
       -2   -1    0    0    0  501  0.00000000000E+00  0.00000000000E+00  0.19185368590E+04  0.19185368590E+04  0.25500000920E-02 0. -1.
        2   -1    0    0  501    0  0.00000000000E+00  0.00000000000E+00 -0.19346157676E+04  0.19346157676E+04  0.25500000920E-02 0.  1.
    10030    2    1    2    0    0  0.00000000000E+00  0.00000000000E+00 -0.16078908569E+02  0.38531526266E+04  0.38531190785E+04 0.  0.
        4    1    3    3  502    0 -0.60152637684E+03  0.18325015960E+03  0.18130242979E+04  0.19189771548E+04  0.12699999809E+01 0. -1.
       -4    1    3    3    0  502  0.60152637684E+03 -0.18325015960E+03 -0.18291032065E+04  0.19341754718E+04  0.12699999809E+01 0.  1.
</event>
<event>
 5   0  0.1370688E-07  0.3872192E+04  0.7818609E-02  0.8030838E-01
       -2   -1    0    0    0  501  0.00000000000E+00  0.00000000000E+00  0.12429226733E+04  0.12429226733E+04  0.25500000920E-02 0. -1.
        2   -1    0    0  501    0  0.00000000000E+00  0.00000000000E+00 -0.30158489567E+04  0.30158489567E+04  0.25500000920E-02 0.  1.
    10030    2    1    2    0    0  0.00000000000E+00  0.00000000000E+00 -0.17729262834E+04  0.42587716299E+04  0.38721916520E+04 0.  0.
        5    1    3    3  502    0 -0.11185821949E+04 -0.12608381227E+04  0.16127384306E+03  0.16932129934E+04  0.46999998093E+01 0. -1.
       -5    1    3    3    0  502  0.11185821949E+04  0.12608381227E+04 -0.19342001265E+04  0.25655586366E+04  0.46999998093E+01 0.  1.
</event>
<event>
 5   0  0.6661000E-08  0.3821929E+04  0.7818609E-02  0.8041465E-01
       -1   -1    0    0    0  501  0.00000000000E+00  0.00000000000E+00  0.15218989021E+04  0.15218989022E+04  0.50400001928E-02 0. -1.
        1   -1    0    0  501    0  0.00000000000E+00  0.00000000000E+00 -0.23994921260E+04  0.23994921260E+04  0.50400001928E-02 0.  1.
    10030    2    1    2    0    0  0.00000000000E+00  0.00000000000E+00 -0.87759322387E+03  0.39213910282E+04  0.38219285354E+04 0.  0.
        4    1    3    3  502    0  0.76827185417E+02  0.31250887752E+03 -0.23714891644E+04  0.23932251638E+04  0.12699999809E+01 0.  1.
       -4    1    3    3    0  502 -0.76827185417E+02 -0.31250887752E+03  0.14938959405E+04  0.15281658644E+04  0.12699999809E+01 0. -1.
</event>
<event>
 5   0  0.2203998E-07  0.3428122E+04  0.7818609E-02  0.8131039E-01
       -2   -1    0    0    0  501  0.00000000000E+00  0.00000000000E+00  0.15394301086E+04  0.15394301086E+04  0.25500000920E-02 0. -1.
        2   -1    0    0  501    0  0.00000000000E+00  0.00000000000E+00 -0.19085015896E+04  0.19085015896E+04  0.25500000920E-02 0.  1.
    10030    2    1    2    0    0  0.00000000000E+00  0.00000000000E+00 -0.36907148108E+03  0.34479316982E+04  0.34281218236E+04 0.  0.
        3    1    3    3  502    0 -0.67581003268E+03  0.34160480422E+03  0.13620731161E+04  0.15584146516E+04  0.10100000352E+00 0. -1.
       -3    1    3    3    0  502  0.67581003268E+03 -0.34160480422E+03 -0.17311445972E+04  0.18895170466E+04  0.10100000352E+00 0.  1.
</event>
<event>
 5   0  0.2081337E-07  0.3808876E+04  0.7818609E-02  0.8044253E-01
       -2   -1    0    0    0  501  0.00000000000E+00  0.00000000000E+00  0.36246542598E+04  0.36246542598E+04  0.25500000920E-02 0.  1.
        2   -1    0    0  501    0  0.00000000000E+00  0.00000000000E+00 -0.10006153879E+04  0.10006153880E+04  0.25500000920E-02 0. -1.
    10030    2    1    2    0    0  0.00000000000E+00  0.00000000000E+00  0.26240388718E+04  0.46252696477E+04  0.38088763846E+04 0.  0.
        1    1    3    3  502    0  0.10402921435E+04  0.15922023821E+04  0.11932333106E+04  0.22452442858E+04  0.50400001928E-02 0. -1.
       -1    1    3    3    0  502 -0.10402921435E+04 -0.15922023821E+04  0.14308055612E+04  0.23800253619E+04  0.50400001928E-02 0.  1.
</event>
<event>
 5   0  0.2205204E-07  0.3788071E+04  0.7818609E-02  0.8048720E-01
       -2   -1    0    0    0  501  0.00000000000E+00  0.00000000000E+00  0.14640229860E+04  0.14640229860E+04  0.25500000920E-02 0. -1.
        2   -1    0    0  501    0  0.00000000000E+00  0.00000000000E+00 -0.24503508141E+04  0.24503508141E+04  0.25500000920E-02 0.  1.
    10030    2    1    2    0    0  0.00000000000E+00  0.00000000000E+00 -0.98632782812E+03  0.39143738002E+04  0.37880707046E+04 0.  0.
        2    1    3    3  502    0  0.39646276879E+03  0.18514224462E+04 -0.44230799120E+03  0.19443724336E+04  0.25500000920E-02 0.  1.
       -2    1    3    3    0  502 -0.39646276879E+03 -0.18514224462E+04 -0.54401983691E+03  0.19700013666E+04  0.25500000920E-02 0. -1.
</event>
<event>
 5   0  0.1370688E-07  0.3818002E+04  0.7818609E-02  0.8042303E-01
        2   -1    0    0  501    0  0.00000000000E+00  0.00000000000E+00  0.25297099214E+04  0.25297099214E+04  0.25500000920E-02 0. -1.
       -2   -1    0    0    0  501  0.00000000000E+00  0.00000000000E+00 -0.14405938358E+04  0.14405938358E+04  0.25500000920E-02 0.  1.
    10030    2    1    2    0    0  0.00000000000E+00  0.00000000000E+00  0.10891160856E+04  0.39703037572E+04  0.38180018434E+04 0.  0.
        5    1    3    3  502    0  0.82840498843E+03  0.16503207053E+04  0.41043574426E+02  0.18470300269E+04  0.46999998093E+01 0. -1.
       -5    1    3    3    0  502 -0.82840498843E+03 -0.16503207053E+04  0.10480725112E+04  0.21232737303E+04  0.46999998093E+01 0.  1.
</event>
<event>
 5   0  0.6661000E-08  0.3808356E+04  0.7818609E-02  0.8044364E-01
       -1   -1    0    0    0  501  0.00000000000E+00  0.00000000000E+00  0.15169264762E+04  0.15169264762E+04  0.50400001928E-02 0.  1.
        1   -1    0    0  501    0  0.00000000000E+00  0.00000000000E+00 -0.23902893839E+04  0.23902893839E+04  0.50400001928E-02 0. -1.
    10030    2    1    2    0    0  0.00000000000E+00  0.00000000000E+00 -0.87336290776E+03  0.39072158601E+04  0.38083556831E+04 0.  0.
        4    1    3    3  502    0  0.40882304830E+03 -0.11807123380E+04 -0.19108787774E+04  0.22831288235E+04  0.12699999809E+01 0. -1.
       -4    1    3    3    0  502 -0.40882304830E+03  0.11807123380E+04  0.10375158697E+04  0.16240870366E+04  0.12699999809E+01 0.  1.
</event>
<event>
 5   0  0.1370688E-07  0.3811781E+04  0.7818609E-02  0.8043631E-01
        2   -1    0    0  501    0  0.00000000000E+00  0.00000000000E+00  0.16583120530E+04  0.16583120530E+04  0.25500000920E-02 0. -1.
       -2   -1    0    0    0  501  0.00000000000E+00  0.00000000000E+00 -0.21904315881E+04  0.21904315881E+04  0.25500000920E-02 0.  1.
    10030    2    1    2    0    0  0.00000000000E+00  0.00000000000E+00 -0.53211953516E+03  0.38487436411E+04  0.38117812654E+04 0.  0.
        5    1    3    3  502    0  0.14724861096E+04 -0.92899995747E+03  0.51679120879E+03  0.18161364231E+04  0.46999998093E+01 0. -1.
       -5    1    3    3    0  502 -0.14724861096E+04  0.92899995747E+03 -0.10489107439E+04  0.20326072180E+04  0.46999998093E+01 0.  1.
</event>
<event>
 5   0  0.1370688E-07  0.3808005E+04  0.7818609E-02  0.8044439E-01
        2   -1    0    0  501    0  0.00000000000E+00  0.00000000000E+00  0.23449308513E+04  0.23449308513E+04  0.25500000920E-02 0.  1.
       -2   -1    0    0    0  501  0.00000000000E+00  0.00000000000E+00 -0.15459843094E+04  0.15459843094E+04  0.25500000920E-02 0. -1.
    10030    2    1    2    0    0  0.00000000000E+00  0.00000000000E+00  0.79894654193E+03  0.38909151608E+04  0.38080054112E+04 0.  0.
        5    1    3    3  502    0 -0.76881329833E+03 -0.12870959942E+04 -0.79975608472E+03  0.16992121324E+04  0.46999998093E+01 0. -1.
       -5    1    3    3    0  502  0.76881329833E+03  0.12870959942E+04  0.15987026267E+04  0.21917030283E+04  0.46999998093E+01 0.  1.
</event>
<event>
 5   0  0.6725199E-08  0.3633116E+04  0.7818609E-02  0.8082948E-01
        1   -1    0    0  501    0  0.00000000000E+00  0.00000000000E+00  0.26416011091E+04  0.26416011091E+04  0.50400001928E-02 0.  1.
       -1   -1    0    0    0  501  0.00000000000E+00  0.00000000000E+00 -0.12491982429E+04  0.12491982429E+04  0.50400001928E-02 0. -1.
    10030    2    1    2    0    0  0.00000000000E+00  0.00000000000E+00  0.13924028662E+04  0.38907993521E+04  0.36331162734E+04 0.  0.
        5    1    3    3  502    0 -0.17141263540E+03 -0.17632466933E+04  0.26590736821E+03  0.17914100623E+04  0.46999998093E+01 0. -1.
       -5    1    3    3    0  502  0.17141263540E+03  0.17632466933E+04  0.11264954980E+04  0.20993892898E+04  0.46999998093E+01 0.  1.
</event>
<event>
 5   0  0.6661000E-08  0.3782786E+04  0.7818609E-02  0.8049859E-01
       -1   -1    0    0    0  501  0.00000000000E+00  0.00000000000E+00  0.15987531621E+04  0.15987531621E+04  0.50400001928E-02 0.  1.
        1   -1    0    0  501    0  0.00000000000E+00  0.00000000000E+00 -0.22375983803E+04  0.22375983804E+04  0.50400001928E-02 0. -1.
    10030    2    1    2    0    0  0.00000000000E+00  0.00000000000E+00 -0.63884521827E+03  0.38363515424E+04  0.37827860030E+04 0.  0.
        4    1    3    3  502    0  0.32097898341E+03 -0.17711931775E+04 -0.90834604586E+03  0.20162457519E+04  0.12699999809E+01 0. -1.
       -4    1    3    3    0  502 -0.32097898341E+03  0.17711931775E+04  0.26950082759E+03  0.18201057906E+04  0.12699999809E+01 0.  1.
</event>
<event>
 5   0  0.6661000E-08  0.3818296E+04  0.7818609E-02  0.8042240E-01
        1   -1    0    0  501    0  0.00000000000E+00  0.00000000000E+00  0.22249879662E+04  0.22249879662E+04  0.50400001928E-02 0. -1.
       -1   -1    0    0    0  501  0.00000000000E+00  0.00000000000E+00 -0.16381417754E+04  0.16381417754E+04  0.50400001928E-02 0.  1.
    10030    2    1    2    0    0  0.00000000000E+00  0.00000000000E+00  0.58684619076E+03  0.38631297416E+04  0.38182958173E+04 0.  0.
        3    1    3    3  502    0  0.19031984887E+04  0.10515440077E+03  0.40250271940E+03  0.19481351043E+04  0.10100000352E+00 0. -1.
       -3    1    3    3    0  502 -0.19031984887E+04 -0.10515440077E+03  0.18434347136E+03  0.19149946373E+04  0.10100000352E+00 0.  1.
</event>
<event>
 5   0  0.6661000E-08  0.3782393E+04  0.7818609E-02  0.8049944E-01
        3   -1    0    0  501    0  0.00000000000E+00  0.00000000000E+00  0.24978731299E+04  0.24978731320E+04  0.10100000352E+00 0.  1.
       -3   -1    0    0    0  501  0.00000000000E+00  0.00000000000E+00 -0.14318676875E+04  0.14318676910E+04  0.10100000352E+00 0. -1.
    10030    2    1    2    0    0  0.00000000000E+00  0.00000000000E+00  0.10660054425E+04  0.39297408230E+04  0.37823928052E+04 0.  0.
        1    1    3    3  502    0 -0.82432350986E+03  0.15497897950E+04 -0.19816433264E+03  0.17665295809E+04  0.50400001928E-02 0. -1.
       -1    1    3    3    0  502  0.82432350986E+03 -0.15497897950E+04  0.12641697751E+04  0.21632112421E+04  0.50400001928E-02 0.  1.
</event>
<event>
 5   0  0.6725199E-08  0.3798647E+04  0.7818609E-02  0.8046445E-01
       -1   -1    0    0    0  501  0.00000000000E+00  0.00000000000E+00  0.33297871369E+04  0.33297871369E+04  0.50400001928E-02 0. -1.
        1   -1    0    0  501    0  0.00000000000E+00  0.00000000000E+00 -0.10833812327E+04  0.10833812327E+04  0.50400001928E-02 0.  1.
    10030    2    1    2    0    0  0.00000000000E+00  0.00000000000E+00  0.22464059042E+04  0.44131683696E+04  0.37986465447E+04 0.  0.
        5    1    3    3  502    0  0.94289580436E+03  0.10762465935E+02 -0.79222309576E+03  0.12315875332E+04  0.46999998093E+01 0.  1.
       -5    1    3    3    0  502 -0.94289580436E+03 -0.10762465935E+02  0.30386290000E+04  0.31815808363E+04  0.46999998093E+01 0. -1.
</event>
<event>
 5   0  0.6661000E-08  0.3783950E+04  0.7818609E-02  0.8049608E-01
       -1   -1    0    0    0  501  0.00000000000E+00  0.00000000000E+00  0.20296383273E+04  0.20296383273E+04  0.50400001928E-02 0.  1.
        1   -1    0    0  501    0  0.00000000000E+00  0.00000000000E+00 -0.17636485289E+04  0.17636485289E+04  0.50400001928E-02 0. -1.
    10030    2    1    2    0    0  0.00000000000E+00  0.00000000000E+00  0.26598979839E+03  0.37932868563E+04  0.37839496034E+04 0.  0.
        4    1    3    3  502    0 -0.96461437135E+03 -0.16201405910E+04 -0.23051079961E+02  0.18857012980E+04  0.12699999809E+01 0.  1.
       -4    1    3    3    0  502  0.96461437135E+03  0.16201405910E+04  0.28904087835E+03  0.19075855583E+04  0.12699999809E+01 0. -1.
</event>
<event>
 5   0  0.6725199E-08  0.3806590E+04  0.7818609E-02  0.8044742E-01
        1   -1    0    0  501    0  0.00000000000E+00  0.00000000000E+00  0.19847870626E+04  0.19847870626E+04  0.50400001928E-02 0.  1.
       -1   -1    0    0    0  501  0.00000000000E+00  0.00000000000E+00 -0.18251488890E+04  0.18251488890E+04  0.50400001928E-02 0. -1.
    10030    2    1    2    0    0  0.00000000000E+00  0.00000000000E+00  0.15963817358E+03  0.38099359516E+04  0.38065900238E+04 0.  0.
        5    1    3    3  502    0  0.93553999150E+03  0.11176766236E+03 -0.15753523527E+04  0.18356154857E+04  0.46999998093E+01 0. -1.
       -5    1    3    3    0  502 -0.93553999150E+03 -0.11176766236E+03  0.17349905263E+04  0.19743204660E+04  0.46999998093E+01 0.  1.
</event>
<event>
 5   0  0.2081337E-07  0.3806964E+04  0.7818609E-02  0.8044662E-01
       -2   -1    0    0    0  501  0.00000000000E+00  0.00000000000E+00  0.17771302134E+04  0.17771302134E+04  0.25500000920E-02 0.  1.
        2   -1    0    0  501    0  0.00000000000E+00  0.00000000000E+00 -0.20388175616E+04  0.20388175616E+04  0.25500000920E-02 0. -1.
    10030    2    1    2    0    0  0.00000000000E+00  0.00000000000E+00 -0.26168734812E+03  0.38159477750E+04  0.38069642963E+04 0.  0.
        1    1    3    3  502    0  0.51140902153E+03 -0.11064964980E+04 -0.15962684648E+04  0.20084687449E+04  0.50400001928E-02 0. -1.
       -1    1    3    3    0  502 -0.51140902153E+03  0.11064964980E+04  0.13345811167E+04  0.18074790301E+04  0.50400001928E-02 0.  1.
</event>
<event>
 5   0  0.6661000E-08  0.3811115E+04  0.7818609E-02  0.8043774E-01
        1   -1    0    0  501    0  0.00000000000E+00  0.00000000000E+00  0.19082316597E+04  0.19082316597E+04  0.50400001928E-02 0. -1.
       -1   -1    0    0    0  501  0.00000000000E+00  0.00000000000E+00 -0.19028866567E+04  0.19028866567E+04  0.50400001928E-02 0.  1.
    10030    2    1    2    0    0  0.00000000000E+00  0.00000000000E+00  0.53450030610E+01  0.38111183164E+04  0.38111145683E+04 0.  0.
        1    1    3    3  502    0  0.11467919775E+04 -0.11759485091E+04 -0.96333146476E+03  0.19042043606E+04  0.50400001928E-02 0.  1.
       -1    1    3    3    0  502 -0.11467919775E+04  0.11759485091E+04  0.96867646782E+03  0.19069139559E+04  0.50400001928E-02 0. -1.
</event>
<event>
 5   0  0.2081337E-07  0.3760575E+04  0.7818609E-02  0.8054669E-01
       -2   -1    0    0    0  501  0.00000000000E+00  0.00000000000E+00  0.19192506492E+04  0.19192506492E+04  0.25500000920E-02 0. -1.
        2   -1    0    0  501    0  0.00000000000E+00  0.00000000000E+00 -0.18421149303E+04  0.18421149303E+04  0.25500000920E-02 0.  1.
    10030    2    1    2    0    0  0.00000000000E+00  0.00000000000E+00  0.77135718938E+02  0.37613655795E+04  0.37605745709E+04 0.  0.
        1    1    3    3  502    0  0.27515270495E+03 -0.12906357630E+03  0.18945211123E+04  0.19187435114E+04  0.50400001928E-02 0. -1.
       -1    1    3    3    0  502 -0.27515270495E+03  0.12906357630E+03 -0.18173853933E+04  0.18426220681E+04  0.50400001928E-02 0.  1.
</event>
<event>
 5   0  0.1370688E-07  0.3777761E+04  0.7818609E-02  0.8050944E-01
        2   -1    0    0  501    0  0.00000000000E+00  0.00000000000E+00  0.12101936481E+04  0.12101936481E+04  0.25500000920E-02 0.  1.
       -2   -1    0    0    0  501  0.00000000000E+00  0.00000000000E+00 -0.29481800369E+04  0.29481800369E+04  0.25500000920E-02 0. -1.
    10030    2    1    2    0    0  0.00000000000E+00  0.00000000000E+00 -0.17379863888E+04  0.41583736851E+04  0.37777605823E+04 0.  0.
        5    1    3    3  502    0 -0.95096886697E+03  0.16289657251E+04 -0.97893361583E+03  0.21251362859E+04  0.46999998093E+01 0.  1.
       -5    1    3    3    0  502  0.95096886697E+03 -0.16289657251E+04 -0.75905277299E+03  0.20332373992E+04  0.46999998093E+01 0. -1.
</event>
<event>
 5   0  0.1370688E-07  0.3766110E+04  0.7818609E-02  0.8053467E-01
       -2   -1    0    0    0  501  0.00000000000E+00  0.00000000000E+00  0.15814939897E+04  0.15814939897E+04  0.25500000920E-02 0.  1.
        2   -1    0    0  501    0  0.00000000000E+00  0.00000000000E+00 -0.22421185059E+04  0.22421185059E+04  0.25500000920E-02 0. -1.
    10030    2    1    2    0    0  0.00000000000E+00  0.00000000000E+00 -0.66062451618E+03  0.38236124956E+04  0.37661104292E+04 0.  0.
        5    1    3    3  502    0 -0.84330665838E+03 -0.66403948675E+03 -0.19011131936E+04  0.21832013249E+04  0.46999998093E+01 0. -1.
       -5    1    3    3    0  502  0.84330665838E+03  0.66403948675E+03  0.12404886774E+04  0.16404111707E+04  0.46999998093E+01 0.  1.
</event>
<event>
 5   0  0.6661000E-08  0.3814192E+04  0.7818609E-02  0.8043116E-01
        1   -1    0    0  501    0  0.00000000000E+00  0.00000000000E+00  0.30514485909E+04  0.30514485909E+04  0.50400001928E-02 0.  1.
       -1   -1    0    0    0  501  0.00000000000E+00  0.00000000000E+00 -0.11918976448E+04  0.11918976448E+04  0.50400001928E-02 0. -1.
    10030    2    1    2    0    0  0.00000000000E+00  0.00000000000E+00  0.18595509461E+04  0.42433462357E+04  0.38141915991E+04 0.  0.
        1    1    3    3  502    0 -0.94766735387E+03 -0.12332910316E+04  0.21575479067E+04  0.26597167428E+04  0.50400001928E-02 0.  1.
       -1    1    3    3    0  502  0.94766735387E+03  0.12332910316E+04 -0.29799696060E+03  0.15836294929E+04  0.50400001928E-02 0. -1.
</event>
<event>
 5   0  0.2205204E-07  0.3802776E+04  0.7818609E-02  0.8045559E-01
        2   -1    0    0  501    0  0.00000000000E+00  0.00000000000E+00  0.25074358893E+04  0.25074358893E+04  0.25500000920E-02 0. -1.
       -2   -1    0    0    0  501  0.00000000000E+00  0.00000000000E+00 -0.14418222803E+04  0.14418222803E+04  0.25500000920E-02 0.  1.
    10030    2    1    2    0    0  0.00000000000E+00  0.00000000000E+00  0.10656136090E+04  0.39492581697E+04  0.38027763183E+04 0.  0.
        2    1    3    3  502    0 -0.29079100465E+03 -0.14093880871E+04  0.18233917369E+04  0.23228628058E+04  0.25500000920E-02 0. -1.
       -2    1    3    3    0  502  0.29079100465E+03  0.14093880871E+04 -0.75777812790E+03  0.16263953639E+04  0.25500000920E-02 0.  1.
</event>
<event>
 5   0  0.6661000E-08  0.3405033E+04  0.7818609E-02  0.8136672E-01
       -1   -1    0    0    0  501  0.00000000000E+00  0.00000000000E+00  0.28357939395E+04  0.28357939395E+04  0.50400001928E-02 0. -1.
        1   -1    0    0  501    0  0.00000000000E+00  0.00000000000E+00 -0.10221341529E+04  0.10221341529E+04  0.50400001928E-02 0.  1.
    10030    2    1    2    0    0  0.00000000000E+00  0.00000000000E+00  0.18136597866E+04  0.38579280924E+04  0.34050326496E+04 0.  0.
        3    1    3    3  502    0  0.70423245374E+02  0.95394319912E+03  0.25025595806E+04  0.26791363394E+04  0.10100000352E+00 0. -1.
       -3    1    3    3    0  502 -0.70423245374E+02 -0.95394319912E+03 -0.68889979400E+03  0.11787917530E+04  0.10100000352E+00 0.  1.
</event>
<event>
 5   0  0.6661000E-08  0.3797576E+04  0.7818609E-02  0.8046675E-01
       -1   -1    0    0    0  501  0.00000000000E+00  0.00000000000E+00  0.17435273661E+04  0.17435273661E+04  0.50400001928E-02 0.  1.
        1   -1    0    0  501    0  0.00000000000E+00  0.00000000000E+00 -0.20678740458E+04  0.20678740458E+04  0.50400001928E-02 0. -1.
    10030    2    1    2    0    0  0.00000000000E+00  0.00000000000E+00 -0.32434667967E+03  0.38114014119E+04  0.37975755363E+04 0.  0.
        3    1    3    3  502    0 -0.66345639958E+03 -0.14830967875E+04  0.82407640948E+03  0.18217717788E+04  0.10100000352E+00 0.  1.
       -3    1    3    3    0  502  0.66345639958E+03  0.14830967875E+04 -0.11484230892E+04  0.19896296331E+04  0.10100000352E+00 0. -1.
</event>
<event>
 5   0  0.2205204E-07  0.3800680E+04  0.7818609E-02  0.8046009E-01
       -2   -1    0    0    0  501  0.00000000000E+00  0.00000000000E+00  0.18848292226E+04  0.18848292226E+04  0.25500000920E-02 0. -1.
        2   -1    0    0  501    0  0.00000000000E+00  0.00000000000E+00 -0.19159782767E+04  0.19159782767E+04  0.25500000920E-02 0.  1.
    10030    2    1    2    0    0  0.00000000000E+00  0.00000000000E+00 -0.31149054144E+02  0.38008074993E+04  0.38006798580E+04 0.  0.
        2    1    3    3  502    0  0.11941470842E+03 -0.18301891090E+04  0.48187538877E+03  0.18963269596E+04  0.25500000920E-02 0. -1.
       -2    1    3    3    0  502 -0.11941470842E+03  0.18301891090E+04 -0.51302444292E+03  0.19044805397E+04  0.25500000920E-02 0.  1.
</event>
<event>
 5   0  0.6661000E-08  0.3759468E+04  0.7818609E-02  0.8054909E-01
       -1   -1    0    0    0  501  0.00000000000E+00  0.00000000000E+00  0.18696155906E+04  0.18696155906E+04  0.50400001928E-02 0.  1.
        1   -1    0    0  501    0  0.00000000000E+00  0.00000000000E+00 -0.18899074894E+04  0.18899074894E+04  0.50400001928E-02 0. -1.
    10030    2    1    2    0    0  0.00000000000E+00  0.00000000000E+00 -0.20291898790E+02  0.37595230800E+04  0.37594683172E+04 0.  0.
        3    1    3    3  502    0  0.56660512438E+03 -0.43468909368E+03 -0.17489652626E+04  0.18891467585E+04  0.10100000352E+00 0. -1.
       -3    1    3    3    0  502 -0.56660512438E+03  0.43468909368E+03  0.17286733638E+04  0.18703763215E+04  0.10100000352E+00 0.  1.
</event>
<event>
 5   0  0.2203998E-07  0.3822687E+04  0.7818609E-02  0.8041304E-01
        2   -1    0    0  501    0  0.00000000000E+00  0.00000000000E+00  0.24565140899E+04  0.24565140899E+04  0.25500000920E-02 0. -1.
       -2   -1    0    0    0  501  0.00000000000E+00  0.00000000000E+00 -0.14871618935E+04  0.14871618935E+04  0.25500000920E-02 0.  1.
    10030    2    1    2    0    0  0.00000000000E+00  0.00000000000E+00  0.96935219638E+03  0.39436759834E+04  0.38226870892E+04 0.  0.
        3    1    3    3  502    0 -0.56090210074E+03 -0.66533681379E+03 -0.12709337060E+04  0.15403105978E+04  0.10100000352E+00 0.  1.
       -3    1    3    3    0  502  0.56090210074E+03  0.66533681379E+03  0.22402859024E+04  0.24033653856E+04  0.10100000352E+00 0. -1.
</event>
<event>
 5   0  0.2203998E-07  0.3789510E+04  0.7818609E-02  0.8048410E-01
       -2   -1    0    0    0  501  0.00000000000E+00  0.00000000000E+00  0.18093415773E+04  0.18093415773E+04  0.25500000920E-02 0. -1.
        2   -1    0    0  501    0  0.00000000000E+00  0.00000000000E+00 -0.19842005657E+04  0.19842005657E+04  0.25500000920E-02 0.  1.
    10030    2    1    2    0    0  0.00000000000E+00  0.00000000000E+00 -0.17485898847E+03  0.37935421430E+04  0.37895100376E+04 0.  0.
        3    1    3    3  502    0  0.11940415464E+04  0.14395178087E+04 -0.39131440224E+03  0.19107782989E+04  0.10100000352E+00 0.  1.
       -3    1    3    3    0  502 -0.11940415464E+04 -0.14395178087E+04  0.21645541378E+03  0.18827638441E+04  0.10100000352E+00 0. -1.
</event>
<event>
 5   0  0.2205204E-07  0.3802772E+04  0.7818609E-02  0.8045560E-01
       -2   -1    0    0    0  501  0.00000000000E+00  0.00000000000E+00  0.22021447756E+04  0.22021447756E+04  0.25500000920E-02 0.  1.
        2   -1    0    0  501    0  0.00000000000E+00  0.00000000000E+00 -0.16417038969E+04  0.16417038969E+04  0.25500000920E-02 0. -1.
    10030    2    1    2    0    0  0.00000000000E+00  0.00000000000E+00  0.56044087869E+03  0.38438486726E+04  0.38027724937E+04 0.  0.
        2    1    3    3  502    0 -0.16314880533E+04  0.78842252456E+03  0.86255651461E+03  0.20068301090E+04  0.25500000920E-02 0.  1.
       -2    1    3    3    0  502  0.16314880533E+04 -0.78842252456E+03 -0.30211563591E+03  0.18370185636E+04  0.25500000920E-02 0. -1.
</event>
<event>
 5   0  0.6661000E-08  0.3853571E+04  0.7818609E-02  0.8034755E-01
        1   -1    0    0  501    0  0.00000000000E+00  0.00000000000E+00  0.19942303658E+04  0.19942303658E+04  0.50400001928E-02 0. -1.
       -1   -1    0    0    0  501  0.00000000000E+00  0.00000000000E+00 -0.18616219843E+04  0.18616219843E+04  0.50400001928E-02 0.  1.
    10030    2    1    2    0    0  0.00000000000E+00  0.00000000000E+00  0.13260838150E+03  0.38558523501E+04  0.38535713776E+04 0.  0.
        4    1    3    3  502    0  0.40552336514E+03 -0.60270030181E+03 -0.17193542267E+04  0.18665147798E+04  0.12699999809E+01 0.  1.
       -4    1    3    3    0  502 -0.40552336514E+03  0.60270030181E+03  0.18519626082E+04  0.19893375703E+04  0.12699999809E+01 0. -1.
</event>
<event>
 5   0  0.2081337E-07  0.3790025E+04  0.7818609E-02  0.8048299E-01
        2   -1    0    0  501    0  0.00000000000E+00  0.00000000000E+00  0.31754034688E+04  0.31754034688E+04  0.25500000920E-02 0.  1.
       -2   -1    0    0    0  501  0.00000000000E+00  0.00000000000E+00 -0.11309026613E+04  0.11309026613E+04  0.25500000920E-02 0. -1.
    10030    2    1    2    0    0  0.00000000000E+00  0.00000000000E+00  0.20445008075E+04  0.43063061301E+04  0.37900249253E+04 0.  0.
        1    1    3    3  502    0 -0.31242158109E+03  0.10034790372E+04  0.28139145897E+04  0.30037797424E+04  0.50400001928E-02 0.  1.
       -1    1    3    3    0  502  0.31242158109E+03 -0.10034790372E+04 -0.76941378223E+03  0.13025263877E+04  0.50400001928E-02 0. -1.
</event>
<event>
 5   0  0.2205204E-07  0.3846438E+04  0.7818609E-02  0.8036262E-01
       -2   -1    0    0    0  501  0.00000000000E+00  0.00000000000E+00  0.14951091156E+04  0.14951091156E+04  0.25500000920E-02 0.  1.
        2   -1    0    0  501    0  0.00000000000E+00  0.00000000000E+00 -0.24739133313E+04  0.24739133313E+04  0.25500000920E-02 0. -1.
    10030    2    1    2    0    0  0.00000000000E+00  0.00000000000E+00 -0.97880421568E+03  0.39690224469E+04  0.38464375064E+04 0.  0.
        2    1    3    3  502    0  0.14677478521E+04  0.10807848942E+03  0.78811999091E+03  0.16694603431E+04  0.25500000920E-02 0.  1.
       -2    1    3    3    0  502 -0.14677478521E+04 -0.10807848942E+03 -0.17669242066E+04  0.22995621037E+04  0.25500000920E-02 0. -1.
</event>
<event>
 5   0  0.2081337E-07  0.3795597E+04  0.7818609E-02  0.8047100E-01
        2   -1    0    0  501    0  0.00000000000E+00  0.00000000000E+00  0.18932149865E+04  0.18932149865E+04  0.25500000920E-02 0. -1.
       -2   -1    0    0    0  501  0.00000000000E+00  0.00000000000E+00 -0.19023929224E+04  0.19023929224E+04  0.25500000920E-02 0.  1.
    10030    2    1    2    0    0  0.00000000000E+00  0.00000000000E+00 -0.91779358966E+01  0.37956079089E+04  0.37955968126E+04 0.  0.
        1    1    3    3  502    0  0.13521352013E+04  0.76952943732E+03 -0.10914194698E+04  0.19004319553E+04  0.50400001928E-02 0.  1.
       -1    1    3    3    0  502 -0.13521352013E+04 -0.76952943732E+03  0.10822415339E+04  0.18951759536E+04  0.50400001928E-02 0. -1.
</event>
<event>
 5   0  0.2203998E-07  0.3830524E+04  0.7818609E-02  0.8039636E-01
       -2   -1    0    0    0  501  0.00000000000E+00  0.00000000000E+00  0.17586811176E+04  0.17586811176E+04  0.25500000920E-02 0. -1.
        2   -1    0    0  501    0  0.00000000000E+00  0.00000000000E+00 -0.20857833271E+04  0.20857833271E+04  0.25500000920E-02 0.  1.
    10030    2    1    2    0    0  0.00000000000E+00  0.00000000000E+00 -0.32710220943E+03  0.38444644447E+04  0.38305235949E+04 0.  0.
        3    1    3    3  502    0 -0.17360845151E+04 -0.26290059406E+02  0.64781369691E+03  0.18531981025E+04  0.10100000352E+00 0. -1.
       -3    1    3    3    0  502  0.17360845151E+04  0.26290059406E+02 -0.97491590635E+03  0.19912663422E+04  0.10100000352E+00 0.  1.
</event>
<event>
 5   0  0.1370688E-07  0.3778226E+04  0.7818609E-02  0.8050844E-01
        2   -1    0    0  501    0  0.00000000000E+00  0.00000000000E+00  0.22638000445E+04  0.22638000445E+04  0.25500000920E-02 0.  1.
       -2   -1    0    0    0  501  0.00000000000E+00  0.00000000000E+00 -0.15764409899E+04  0.15764409899E+04  0.25500000920E-02 0. -1.
    10030    2    1    2    0    0  0.00000000000E+00  0.00000000000E+00  0.68735905454E+03  0.38402410344E+04  0.37782256063E+04 0.  0.
        5    1    3    3  502    0  0.46938166554E+03  0.18088164747E+04  0.62390021440E+02  0.18697729252E+04  0.46999998093E+01 0. -1.
       -5    1    3    3    0  502 -0.46938166554E+03 -0.18088164747E+04  0.62496903310E+03  0.19704681092E+04  0.46999998093E+01 0.  1.
</event>
<event>
 5   0  0.2081337E-07  0.3888731E+04  0.7818609E-02  0.8027377E-01
        2   -1    0    0  501    0  0.00000000000E+00  0.00000000000E+00  0.28245859181E+04  0.28245859181E+04  0.25500000920E-02 0. -1.
       -2   -1    0    0    0  501  0.00000000000E+00  0.00000000000E+00 -0.13384466501E+04  0.13384466501E+04  0.25500000920E-02 0.  1.
    10030    2    1    2    0    0  0.00000000000E+00  0.00000000000E+00  0.14861392680E+04  0.41630325682E+04  0.38887311864E+04 0.  0.
        1    1    3    3  502    0 -0.13676721784E+04 -0.13648276154E+04  0.51030230132E+03  0.19984218889E+04  0.50400001928E-02 0.  1.
       -1    1    3    3    0  502  0.13676721784E+04  0.13648276154E+04  0.97583696667E+03  0.21646106793E+04  0.50400001928E-02 0. -1.
</event>
<event>
 5   0  0.2135314E-07  0.3839580E+04  0.7818609E-02  0.8037714E-01
        2   -1    0    0  501    0  0.00000000000E+00  0.00000000000E+00  0.19281142132E+04  0.19281142132E+04  0.25500000920E-02 0. -1.
       -2   -1    0    0    0  501  0.00000000000E+00  0.00000000000E+00 -0.19115017470E+04  0.19115017470E+04  0.25500000920E-02 0.  1.
    10030    2    1    2    0    0  0.00000000000E+00  0.00000000000E+00  0.16612466258E+02  0.38396159602E+04  0.38395800223E+04 0.  0.
        4    1    3    3  502    0  0.11662722827E+04  0.60622756057E+02  0.15320415712E+04  0.19264005670E+04  0.12699999809E+01 0. -1.
       -4    1    3    3    0  502 -0.11662722827E+04 -0.60622756057E+02 -0.15154291049E+04  0.19132153932E+04  0.12699999809E+01 0.  1.
</event>
<event>
 5   0  0.6661000E-08  0.4009839E+04  0.7818609E-02  0.8002565E-01
        1   -1    0    0  501    0  0.00000000000E+00  0.00000000000E+00  0.12821844143E+04  0.12821844143E+04  0.50400001928E-02 0. -1.
       -1   -1    0    0    0  501  0.00000000000E+00  0.00000000000E+00 -0.31350425624E+04  0.31350425624E+04  0.50400001928E-02 0.  1.
    10030    2    1    2    0    0  0.00000000000E+00  0.00000000000E+00 -0.18528581481E+04  0.44172269767E+04  0.40098392545E+04 0.  0.
        4    1    3    3  502    0  0.51987004904E+03 -0.93527385648E+02 -0.30570125077E+04  0.31023119322E+04  0.12699999809E+01 0.  1.
       -4    1    3    3    0  502 -0.51987004904E+03  0.93527385648E+02  0.12041543596E+04  0.13149150445E+04  0.12699999809E+01 0. -1.
</event>
<event>
 5   0  0.1370688E-07  0.3792395E+04  0.7818609E-02  0.8047789E-01
       -2   -1    0    0    0  501  0.00000000000E+00  0.00000000000E+00  0.14520956962E+04  0.14520956962E+04  0.25500000920E-02 0. -1.
        2   -1    0    0  501    0  0.00000000000E+00  0.00000000000E+00 -0.24761209917E+04  0.24761209917E+04  0.25500000920E-02 0.  1.
    10030    2    1    2    0    0  0.00000000000E+00  0.00000000000E+00 -0.10240252954E+04  0.39282166879E+04  0.37923948293E+04 0.  0.
        5    1    3    3  502    0  0.94091138160E+03 -0.16195481709E+03 -0.22089783378E+04  0.24064810363E+04  0.46999998093E+01 0.  1.
       -5    1    3    3    0  502 -0.94091138160E+03  0.16195481709E+03  0.11849530424E+04  0.15217356517E+04  0.46999998093E+01 0. -1.
</event>
<event>
 5   0  0.6725199E-08  0.3818002E+04  0.7818609E-02  0.8042303E-01
        1   -1    0    0  501    0  0.00000000000E+00  0.00000000000E+00  0.26264236706E+04  0.26264236706E+04  0.50400001928E-02 0.  1.
       -1   -1    0    0    0  501  0.00000000000E+00  0.00000000000E+00 -0.13875465063E+04  0.13875465063E+04  0.50400001928E-02 0. -1.
    10030    2    1    2    0    0  0.00000000000E+00  0.00000000000E+00  0.12388771644E+04  0.40139701769E+04  0.38180020892E+04 0.  0.
        5    1    3    3  502    0 -0.12779218585E+04 -0.74899949479E+02 -0.86943129231E+03  0.15474582841E+04  0.46999998093E+01 0. -1.
       -5    1    3    3    0  502  0.12779218585E+04  0.74899949479E+02  0.21083084567E+04  0.24665118928E+04  0.46999998093E+01 0.  1.
</event>
<event>
 5   0  0.6725199E-08  0.3833109E+04  0.7818609E-02  0.8039087E-01
        1   -1    0    0  501    0  0.00000000000E+00  0.00000000000E+00  0.20076541765E+04  0.20076541765E+04  0.50400001928E-02 0.  1.
       -1   -1    0    0    0  501  0.00000000000E+00  0.00000000000E+00 -0.18295890156E+04  0.18295890156E+04  0.50400001928E-02 0. -1.
    10030    2    1    2    0    0  0.00000000000E+00  0.00000000000E+00  0.17806516095E+03  0.38372431921E+04  0.38331094576E+04 0.  0.
        5    1    3    3  502    0 -0.38023912704E+03  0.10039748282E+04  0.16783884946E+04  0.19923747836E+04  0.46999998093E+01 0.  1.
       -5    1    3    3    0  502  0.38023912704E+03 -0.10039748282E+04 -0.15003233337E+04  0.18448684085E+04  0.46999998093E+01 0. -1.
</event>
<event>
 5   0  0.6661000E-08  0.3820033E+04  0.7818609E-02  0.8041870E-01
       -1   -1    0    0    0  501  0.00000000000E+00  0.00000000000E+00  0.16216726226E+04  0.16216726226E+04  0.50400001928E-02 0.  1.
        1   -1    0    0  501    0  0.00000000000E+00  0.00000000000E+00 -0.22496293508E+04  0.22496293508E+04  0.50400001928E-02 0. -1.
    10030    2    1    2    0    0  0.00000000000E+00  0.00000000000E+00 -0.62795672817E+03  0.38713019734E+04  0.38200326329E+04 0.  0.
        1    1    3    3  502    0 -0.50797437173E+03  0.78054468944E+03  0.13759981124E+04  0.16615230302E+04  0.50400001928E-02 0.  1.
       -1    1    3    3    0  502  0.50797437173E+03 -0.78054468944E+03 -0.20039548406E+04  0.22097789432E+04  0.50400001928E-02 0. -1.
</event>
<event>
 5   0  0.2135314E-07  0.3793438E+04  0.7818609E-02  0.8047565E-01
        2   -1    0    0  501    0  0.00000000000E+00  0.00000000000E+00  0.24335318125E+04  0.24335318125E+04  0.25500000920E-02 0.  1.
       -2   -1    0    0    0  501  0.00000000000E+00  0.00000000000E+00 -0.14783215526E+04  0.14783215526E+04  0.25500000920E-02 0. -1.
    10030    2    1    2    0    0  0.00000000000E+00  0.00000000000E+00  0.95521025985E+03  0.39118533651E+04  0.37934377693E+04 0.  0.
        4    1    3    3  502    0  0.44038204340E+03 -0.17482317286E+04  0.10853145777E+04  0.21043193357E+04  0.12699999809E+01 0. -1.
       -4    1    3    3    0  502 -0.44038204340E+03  0.17482317286E+04 -0.13010431785E+03  0.18075340294E+04  0.12699999809E+01 0.  1.
</event>
<event>
 5   0  0.6661000E-08  0.3821935E+04  0.7818609E-02  0.8041464E-01
       -1   -1    0    0    0  501  0.00000000000E+00  0.00000000000E+00  0.19327766252E+04  0.19327766252E+04  0.50400001928E-02 0. -1.
        1   -1    0    0  501    0  0.00000000000E+00  0.00000000000E+00 -0.18894047557E+04  0.18894047557E+04  0.50400001928E-02 0.  1.
    10030    2    1    2    0    0  0.00000000000E+00  0.00000000000E+00  0.43371869472E+02  0.38221813809E+04  0.38219352937E+04 0.  0.
        1    1    3    3  502    0  0.26559951489E+03 -0.12037126110E+04 -0.14386581334E+04  0.18945195636E+04  0.50400001928E-02 0.  1.
       -1    1    3    3    0  502 -0.26559951489E+03  0.12037126110E+04  0.14820300028E+04  0.19276618172E+04  0.50400001928E-02 0. -1.
</event>
<event>
 5   0  0.1370688E-07  0.3792636E+04  0.7818609E-02  0.8047737E-01
       -2   -1    0    0    0  501  0.00000000000E+00  0.00000000000E+00  0.22340872170E+04  0.22340872170E+04  0.25500000920E-02 0. -1.
        2   -1    0    0  501    0  0.00000000000E+00  0.00000000000E+00 -0.16096154554E+04  0.16096154554E+04  0.25500000920E-02 0.  1.
    10030    2    1    2    0    0  0.00000000000E+00  0.00000000000E+00  0.62447176159E+03  0.38437026725E+04  0.37926356605E+04 0.  0.
        5    1    3    3  502    0  0.89577590972E+03  0.10012470159E+04  0.16685718019E+04  0.21422100773E+04  0.46999998093E+01 0. -1.
       -5    1    3    3    0  502 -0.89577590972E+03 -0.10012470159E+04 -0.10441000403E+04  0.17014925952E+04  0.46999998093E+01 0.  1.
</event>
<event>
 5   0  0.1370688E-07  0.3785292E+04  0.7818609E-02  0.8049318E-01
       -2   -1    0    0    0  501  0.00000000000E+00  0.00000000000E+00  0.21397290089E+04  0.21397290089E+04  0.25500000920E-02 0.  1.
        2   -1    0    0  501    0  0.00000000000E+00  0.00000000000E+00 -0.16740949661E+04  0.16740949661E+04  0.25500000920E-02 0. -1.
    10030    2    1    2    0    0  0.00000000000E+00  0.00000000000E+00  0.46563404279E+03  0.38138239750E+04  0.37852923599E+04 0.  0.
        5    1    3    3  502    0 -0.53464283444E+03  0.65436715540E+03 -0.14734792216E+04  0.16985883671E+04  0.46999998093E+01 0. -1.
       -5    1    3    3    0  502  0.53464283444E+03 -0.65436715540E+03  0.19391132644E+04  0.21152356078E+04  0.46999998093E+01 0.  1.
</event>
<event>
 5   0  0.1370688E-07  0.3779337E+04  0.7818609E-02  0.8050604E-01
        2   -1    0    0  501    0  0.00000000000E+00  0.00000000000E+00  0.20739959578E+04  0.20739959578E+04  0.25500000920E-02 0.  1.
       -2   -1    0    0    0  501  0.00000000000E+00  0.00000000000E+00 -0.17217230999E+04  0.17217230999E+04  0.25500000920E-02 0. -1.
    10030    2    1    2    0    0  0.00000000000E+00  0.00000000000E+00  0.35227285794E+03  0.37957190577E+04  0.37793368464E+04 0.  0.
        5    1    3    3  502    0 -0.53339735978E+03 -0.72705662256E+03  0.18439673233E+04  0.20526474746E+04  0.46999998093E+01 0.  1.
       -5    1    3    3    0  502  0.53339735978E+03  0.72705662256E+03 -0.14916944653E+04  0.17430715831E+04  0.46999998093E+01 0. -1.
</event>
<event>
 5   0  0.2205204E-07  0.3794122E+04  0.7818609E-02  0.8047417E-01
        2   -1    0    0  501    0  0.00000000000E+00  0.00000000000E+00  0.23414581461E+04  0.23414581461E+04  0.25500000920E-02 0. -1.
       -2   -1    0    0    0  501  0.00000000000E+00  0.00000000000E+00 -0.15370081452E+04  0.15370081452E+04  0.25500000920E-02 0.  1.
    10030    2    1    2    0    0  0.00000000000E+00  0.00000000000E+00  0.80445000091E+03  0.38784662912E+04  0.37941218969E+04 0.  0.
        2    1    3    3  502    0 -0.18239641974E+03 -0.12117863546E+04  0.18825703212E+04  0.22462781746E+04  0.25500000920E-02 0. -1.
       -2    1    3    3    0  502  0.18239641974E+03  0.12117863546E+04 -0.10781203203E+04  0.16321881167E+04  0.25500000920E-02 0.  1.
</event>
<event>
 5   0  0.6661000E-08  0.3788478E+04  0.7818609E-02  0.8048632E-01
        1   -1    0    0  501    0  0.00000000000E+00  0.00000000000E+00  0.22607387859E+04  0.22607387860E+04  0.50400001928E-02 0.  1.
       -1   -1    0    0    0  501  0.00000000000E+00  0.00000000000E+00 -0.15871547201E+04  0.15871547201E+04  0.50400001928E-02 0. -1.
    10030    2    1    2    0    0  0.00000000000E+00  0.00000000000E+00  0.67358406586E+03  0.38478935060E+04  0.37884784466E+04 0.  0.
        4    1    3    3  502    0 -0.17016949535E+04 -0.16633563955E+02  0.11817635955E+04  0.20718612885E+04  0.12699999809E+01 0.  1.
       -4    1    3    3    0  502  0.17016949535E+04  0.16633563955E+02 -0.50817952968E+03  0.17760322175E+04  0.12699999809E+01 0. -1.
</event>
<event>
 5   0  0.2081337E-07  0.3767627E+04  0.7818609E-02  0.8053138E-01
       -2   -1    0    0    0  501  0.00000000000E+00  0.00000000000E+00  0.20939845443E+04  0.20939845443E+04  0.25500000920E-02 0. -1.
        2   -1    0    0  501    0  0.00000000000E+00  0.00000000000E+00 -0.16947373484E+04  0.16947373484E+04  0.25500000920E-02 0.  1.
    10030    2    1    2    0    0  0.00000000000E+00  0.00000000000E+00  0.39924719584E+03  0.37887218927E+04  0.37676272715E+04 0.  0.
        1    1    3    3  502    0 -0.71066005461E+03 -0.91887219724E+03 -0.12917138297E+04  0.17372070821E+04  0.50400001928E-02 0. -1.
       -1    1    3    3    0  502  0.71066005461E+03  0.91887219724E+03  0.16909610256E+04  0.20515148106E+04  0.50400001928E-02 0.  1.
</event>
<event>
 5   0  0.1370688E-07  0.3804569E+04  0.7818609E-02  0.8045175E-01
       -2   -1    0    0    0  501  0.00000000000E+00  0.00000000000E+00  0.12793263773E+04  0.12793263773E+04  0.25500000920E-02 0. -1.
        2   -1    0    0  501    0  0.00000000000E+00  0.00000000000E+00 -0.28285874804E+04  0.28285874804E+04  0.25500000920E-02 0.  1.
    10030    2    1    2    0    0  0.00000000000E+00  0.00000000000E+00 -0.15492611031E+04  0.41079138577E+04  0.38045691342E+04 0.  0.
        5    1    3    3  502    0  0.16811650086E+02  0.10242221148E+04  0.95609242391E+03  0.14012310249E+04  0.46999998093E+01 0. -1.
       -5    1    3    3    0  502 -0.16811650086E+02 -0.10242221148E+04 -0.25053535270E+04  0.27066828328E+04  0.46999998093E+01 0.  1.
</event>
<event>
 5   0  0.2135314E-07  0.3815425E+04  0.7818609E-02  0.8042853E-01
        2   -1    0    0  501    0  0.00000000000E+00  0.00000000000E+00  0.16105796015E+04  0.16105796015E+04  0.25500000920E-02 0.  1.
       -2   -1    0    0    0  501  0.00000000000E+00  0.00000000000E+00 -0.22596626767E+04  0.22596626767E+04  0.25500000920E-02 0. -1.
    10030    2    1    2    0    0  0.00000000000E+00  0.00000000000E+00 -0.64908307519E+03  0.38702422782E+04  0.38154248064E+04 0.  0.
        4    1    3    3  502    0 -0.63163749331E+02  0.17741711172E+04  0.38384149990E+03  0.18163173518E+04  0.12699999809E+01 0.  1.
       -4    1    3    3    0  502  0.63163749331E+02 -0.17741711172E+04 -0.10329245751E+04  0.20539249264E+04  0.12699999809E+01 0. -1.
</event>
<event>
 5   0  0.1370688E-07  0.3808611E+04  0.7818609E-02  0.8044310E-01
        2   -1    0    0  501    0  0.00000000000E+00  0.00000000000E+00  0.19558523961E+04  0.19558523961E+04  0.25500000920E-02 0.  1.
       -2   -1    0    0    0  501  0.00000000000E+00  0.00000000000E+00 -0.18541170909E+04  0.18541170909E+04  0.25500000920E-02 0. -1.
    10030    2    1    2    0    0  0.00000000000E+00  0.00000000000E+00  0.10173530520E+03  0.38099694870E+04  0.38086109567E+04 0.  0.
        5    1    3    3  502    0  0.15043308569E+04  0.11585181433E+04 -0.94723430114E+02  0.19010971131E+04  0.46999998093E+01 0.  1.
       -5    1    3    3    0  502 -0.15043308569E+04 -0.11585181433E+04  0.19645873531E+03  0.19088723739E+04  0.46999998093E+01 0. -1.
</event>
<event>
 5   0  0.1370688E-07  0.3802322E+04  0.7818609E-02  0.8045657E-01
        2   -1    0    0  501    0  0.00000000000E+00  0.00000000000E+00  0.14037912374E+04  0.14037912374E+04  0.25500000920E-02 0.  1.
       -2   -1    0    0    0  501  0.00000000000E+00  0.00000000000E+00 -0.25747506474E+04  0.25747506474E+04  0.25500000920E-02 0. -1.
    10030    2    1    2    0    0  0.00000000000E+00  0.00000000000E+00 -0.11709594100E+04  0.39785418848E+04  0.38023216052E+04 0.  0.
        5    1    3    3  502    0  0.55312870111E+03  0.18177777083E+04 -0.65266738952E+03  0.20090455366E+04  0.46999998093E+01 0.  1.
       -5    1    3    3    0  502 -0.55312870111E+03 -0.18177777083E+04 -0.51829202047E+03  0.19694963482E+04  0.46999998093E+01 0. -1.
</event>
<event>
 5   0  0.6661000E-08  0.3359294E+04  0.7818609E-02  0.8147970E-01
        1   -1    0    0  501    0  0.00000000000E+00  0.00000000000E+00  0.30381845895E+04  0.30381845895E+04  0.50400001928E-02 0.  1.
       -1   -1    0    0    0  501  0.00000000000E+00  0.00000000000E+00 -0.92858537874E+03  0.92858537876E+03  0.50400001928E-02 0. -1.
    10030    2    1    2    0    0  0.00000000000E+00  0.00000000000E+00  0.21095992108E+04  0.39667699683E+04  0.33592938471E+04 0.  0.
        4    1    3    3  502    0  0.90328856339E+03  0.35187611478E+02 -0.61683989296E+03  0.10943772033E+04  0.12699999809E+01 0. -1.
       -4    1    3    3    0  502 -0.90328856339E+03 -0.35187611478E+02  0.27264391037E+04  0.28723927649E+04  0.12699999809E+01 0.  1.
</event>
<event>
 5   0  0.6661000E-08  0.3810001E+04  0.7818609E-02  0.8044012E-01
        1   -1    0    0  501    0  0.00000000000E+00  0.00000000000E+00  0.17670481340E+04  0.17670481340E+04  0.50400001928E-02 0.  1.
       -1   -1    0    0    0  501  0.00000000000E+00  0.00000000000E+00 -0.20537226689E+04  0.20537226690E+04  0.50400001928E-02 0. -1.
    10030    2    1    2    0    0  0.00000000000E+00  0.00000000000E+00 -0.28667453493E+03  0.38207708030E+04  0.38100009501E+04 0.  0.
        3    1    3    3  502    0  0.13711405077E+04  0.11702853178E+04  0.47438510092E+03  0.18640373524E+04  0.10100000352E+00 0. -1.
       -3    1    3    3    0  502 -0.13711405077E+04 -0.11702853178E+04 -0.76105963585E+03  0.19567334506E+04  0.10100000352E+00 0.  1.
</event>
<event>
 5   0  0.6725199E-08  0.3788199E+04  0.7818609E-02  0.8048692E-01
        1   -1    0    0  501    0  0.00000000000E+00  0.00000000000E+00  0.16220578959E+04  0.16220578959E+04  0.50400001928E-02 0. -1.
       -1   -1    0    0    0  501  0.00000000000E+00  0.00000000000E+00 -0.22117666137E+04  0.22117666137E+04  0.50400001928E-02 0.  1.
    10030    2    1    2    0    0  0.00000000000E+00  0.00000000000E+00 -0.58970871775E+03  0.38338245096E+04  0.37881993082E+04 0.  0.
        5    1    3    3  502    0 -0.20869049234E+03 -0.15408676183E+04 -0.13894381954E+04  0.20852782374E+04  0.46999998093E+01 0.  1.
       -5    1    3    3    0  502  0.20869049234E+03  0.15408676183E+04  0.79972947762E+03  0.17485462722E+04  0.46999998093E+01 0. -1.
</event>
<event>
 5   0  0.2081337E-07  0.3796556E+04  0.7818609E-02  0.8046894E-01
       -2   -1    0    0    0  501  0.00000000000E+00  0.00000000000E+00  0.14278016048E+04  0.14278016048E+04  0.25500000920E-02 0. -1.
        2   -1    0    0  501    0  0.00000000000E+00  0.00000000000E+00 -0.25237818104E+04  0.25237818104E+04  0.25500000920E-02 0.  1.
    10030    2    1    2    0    0  0.00000000000E+00  0.00000000000E+00 -0.10959802056E+04  0.39515834152E+04  0.37965561864E+04 0.  0.
        1    1    3    3  502    0 -0.29040986546E+03  0.13363423881E+04 -0.19183023852E+04  0.23558507825E+04  0.50400001928E-02 0.  1.
       -1    1    3    3    0  502  0.29040986546E+03 -0.13363423881E+04  0.82232217956E+03  0.15957326327E+04  0.50400001928E-02 0. -1.
</event>
<event>
 5   0  0.1370688E-07  0.3713634E+04  0.7818609E-02  0.8064947E-01
       -2   -1    0    0    0  501  0.00000000000E+00  0.00000000000E+00  0.12672936611E+04  0.12672936611E+04  0.25500000920E-02 0. -1.
        2   -1    0    0  501    0  0.00000000000E+00  0.00000000000E+00 -0.27205770644E+04  0.27205770644E+04  0.25500000920E-02 0.  1.
    10030    2    1    2    0    0  0.00000000000E+00  0.00000000000E+00 -0.14532834034E+04  0.39878707255E+04  0.37136343752E+04 0.  0.
        5    1    3    3  502    0  0.63089716144E+03 -0.47355810117E+03 -0.25316802018E+04  0.26517381541E+04  0.46999998093E+01 0.  1.
       -5    1    3    3    0  502 -0.63089716144E+03  0.47355810117E+03  0.10783967985E+04  0.13361325714E+04  0.46999998093E+01 0. -1.
</event>
<event>
 5   0  0.6725199E-08  0.3880266E+04  0.7818609E-02  0.8029146E-01
        1   -1    0    0  501    0  0.00000000000E+00  0.00000000000E+00  0.29259110327E+04  0.29259110327E+04  0.50400001928E-02 0.  1.
       -1   -1    0    0    0  501  0.00000000000E+00  0.00000000000E+00 -0.12864763918E+04  0.12864763918E+04  0.50400001928E-02 0. -1.
    10030    2    1    2    0    0  0.00000000000E+00  0.00000000000E+00  0.16394346409E+04  0.42123874244E+04  0.38802656960E+04 0.  0.
        5    1    3    3  502    0  0.14526285116E+04 -0.10223397916E+04 -0.27312817698E+02  0.17765349201E+04  0.46999998093E+01 0.  1.
       -5    1    3    3    0  502 -0.14526285116E+04  0.10223397916E+04  0.16667474586E+04  0.24358525044E+04  0.46999998093E+01 0. -1.
</event>
<event>
 5   0  0.6661000E-08  0.3797421E+04  0.7818609E-02  0.8046708E-01
        1   -1    0    0  501    0  0.00000000000E+00  0.00000000000E+00  0.21130365713E+04  0.21130365713E+04  0.50400001928E-02 0. -1.
       -1   -1    0    0    0  501  0.00000000000E+00  0.00000000000E+00 -0.17061239751E+04  0.17061239751E+04  0.50400001928E-02 0.  1.
    10030    2    1    2    0    0  0.00000000000E+00  0.00000000000E+00  0.40691259621E+03  0.38191605464E+04  0.37974214170E+04 0.  0.
        1    1    3    3  502    0 -0.19270654603E+03 -0.60384124662E+02 -0.16952923680E+04  0.17072780290E+04  0.50400001928E-02 0.  1.
       -1    1    3    3    0  502  0.19270654603E+03  0.60384124662E+02  0.21022049642E+04  0.21118825173E+04  0.50400001928E-02 0. -1.
</event>
<event>
 5   0  0.2135314E-07  0.3780300E+04  0.7818609E-02  0.8050396E-01
       -2   -1    0    0    0  501  0.00000000000E+00  0.00000000000E+00  0.14769045440E+04  0.14769045440E+04  0.25500000920E-02 0.  1.
        2   -1    0    0  501    0  0.00000000000E+00  0.00000000000E+00 -0.24190235893E+04  0.24190235893E+04  0.25500000920E-02 0. -1.
    10030    2    1    2    0    0  0.00000000000E+00  0.00000000000E+00 -0.94211904536E+03  0.38959281333E+04  0.37802999516E+04 0.  0.
        4    1    3    3  502    0  0.82418209003E+03 -0.16539120771E+04 -0.88066315096E+03  0.20470150157E+04  0.12699999809E+01 0. -1.
       -4    1    3    3    0  502 -0.82418209003E+03  0.16539120771E+04 -0.61455894405E+02  0.18489131175E+04  0.12699999809E+01 0.  1.
</event>
<event>
 5   0  0.6661000E-08  0.3817592E+04  0.7818609E-02  0.8042390E-01
       -1   -1    0    0    0  501  0.00000000000E+00  0.00000000000E+00  0.16019332987E+04  0.16019332987E+04  0.50400001928E-02 0.  1.
        1   -1    0    0  501    0  0.00000000000E+00  0.00000000000E+00 -0.22744405590E+04  0.22744405590E+04  0.50400001928E-02 0. -1.
    10030    2    1    2    0    0  0.00000000000E+00  0.00000000000E+00 -0.67250726037E+03  0.38763738577E+04  0.38175919464E+04 0.  0.
        4    1    3    3  502    0 -0.15464531028E+04 -0.11183484223E+04 -0.29992478557E+03  0.19318842830E+04  0.12699999809E+01 0. -1.
       -4    1    3    3    0  502  0.15464531028E+04  0.11183484223E+04 -0.37258247480E+03  0.19444895747E+04  0.12699999809E+01 0.  1.
</event>
<event>
 5   0  0.2135314E-07  0.3820705E+04  0.7818609E-02  0.8041726E-01
       -2   -1    0    0    0  501  0.00000000000E+00  0.00000000000E+00  0.16790925589E+04  0.16790925589E+04  0.25500000920E-02 0. -1.
        2   -1    0    0  501    0  0.00000000000E+00  0.00000000000E+00 -0.21734631822E+04  0.21734631822E+04  0.25500000920E-02 0.  1.
    10030    2    1    2    0    0  0.00000000000E+00  0.00000000000E+00 -0.49437062330E+03  0.38525557412E+04  0.38207045719E+04 0.  0.
        4    1    3    3  502    0  0.27143834806E+03 -0.97940950240E+03  0.13838663210E+04  0.17169768075E+04  0.12699999809E+01 0. -1.
       -4    1    3    3    0  502 -0.27143834806E+03  0.97940950240E+03 -0.18782369443E+04  0.21355789337E+04  0.12699999809E+01 0.  1.
</event>
<event>
 5   0  0.2081337E-07  0.3777323E+04  0.7818609E-02  0.8051039E-01
        2   -1    0    0  501    0  0.00000000000E+00  0.00000000000E+00  0.19730714635E+04  0.19730714635E+04  0.25500000920E-02 0.  1.
       -2   -1    0    0    0  501  0.00000000000E+00  0.00000000000E+00 -0.18078625943E+04  0.18078625943E+04  0.25500000920E-02 0. -1.
    10030    2    1    2    0    0  0.00000000000E+00  0.00000000000E+00  0.16520886920E+03  0.37809340578E+04  0.37773229117E+04 0.  0.
        1    1    3    3  502    0  0.27651538938E+03  0.51276423182E+03  0.18808892966E+04  0.19690435404E+04  0.50400001928E-02 0.  1.
       -1    1    3    3    0  502 -0.27651538938E+03 -0.51276423182E+03 -0.17156804274E+04  0.18118905174E+04  0.50400001928E-02 0. -1.
</event>
<event>
 5   0  0.1370688E-07  0.3795402E+04  0.7818609E-02  0.8047142E-01
       -2   -1    0    0    0  501  0.00000000000E+00  0.00000000000E+00  0.11044133426E+04  0.11044133426E+04  0.25500000920E-02 0.  1.
        2   -1    0    0  501    0  0.00000000000E+00  0.00000000000E+00 -0.32607983138E+04  0.32607983138E+04  0.25500000920E-02 0. -1.
    10030    2    1    2    0    0  0.00000000000E+00  0.00000000000E+00 -0.21563849712E+04  0.43652116564E+04  0.37954020421E+04 0.  0.
        5    1    3    3  502    0  0.11129637242E+04  0.42353161708E+02  0.68895949297E+03  0.13096447284E+04  0.46999998093E+01 0.  1.
       -5    1    3    3    0  502 -0.11129637242E+04 -0.42353161708E+02 -0.28453444642E+04  0.30555669280E+04  0.46999998093E+01 0. -1.
</event>
<event>
 5   0  0.6661000E-08  0.3822686E+04  0.7818609E-02  0.8041304E-01
       -1   -1    0    0    0  501  0.00000000000E+00  0.00000000000E+00  0.16234670940E+04  0.16234670940E+04  0.50400001928E-02 0. -1.
        1   -1    0    0  501    0  0.00000000000E+00  0.00000000000E+00 -0.22502654709E+04  0.22502654709E+04  0.50400001928E-02 0.  1.
    10030    2    1    2    0    0  0.00000000000E+00  0.00000000000E+00 -0.62679837689E+03  0.38737325649E+04  0.38226859378E+04 0.  0.
        1    1    3    3  502    0  0.17915734521E+04 -0.42655205806E+03  0.20484955177E+03  0.18530098304E+04  0.50400001928E-02 0. -1.
       -1    1    3    3    0  502 -0.17915734521E+04  0.42655205806E+03 -0.83164792866E+03  0.20207227345E+04  0.50400001928E-02 0.  1.
</event>
<event>
 5   0  0.6725199E-08  0.3785002E+04  0.7818609E-02  0.8049381E-01
        1   -1    0    0  501    0  0.00000000000E+00  0.00000000000E+00  0.19678935746E+04  0.19678935746E+04  0.50400001928E-02 0.  1.
       -1   -1    0    0    0  501  0.00000000000E+00  0.00000000000E+00 -0.18199968624E+04  0.18199968624E+04  0.50400001928E-02 0. -1.
    10030    2    1    2    0    0  0.00000000000E+00  0.00000000000E+00  0.14789671228E+03  0.37878904370E+04  0.37850020509E+04 0.  0.
        5    1    3    3  502    0 -0.52766476232E+03 -0.11496691664E+04  0.14826335304E+04  0.19489467845E+04  0.46999998093E+01 0.  1.
       -5    1    3    3    0  502  0.52766476232E+03  0.11496691664E+04 -0.13347368181E+04  0.18389436525E+04  0.46999998093E+01 0. -1.
</event>
<event>
 5   0  0.2135314E-07  0.3683780E+04  0.7818609E-02  0.8071566E-01
       -2   -1    0    0    0  501  0.00000000000E+00  0.00000000000E+00  0.15758907821E+04  0.15758907821E+04  0.25500000920E-02 0.  1.
        2   -1    0    0  501    0  0.00000000000E+00  0.00000000000E+00 -0.21527882581E+04  0.21527882581E+04  0.25500000920E-02 0. -1.
    10030    2    1    2    0    0  0.00000000000E+00  0.00000000000E+00 -0.57689747596E+03  0.37286790402E+04  0.36837802169E+04 0.  0.
        4    1    3    3  502    0  0.70739539781E+03 -0.16732501174E+04  0.19202136555E+02  0.18167400858E+04  0.12699999809E+01 0. -1.
       -4    1    3    3    0  502 -0.70739539781E+03  0.16732501174E+04 -0.59609961251E+03  0.19119389544E+04  0.12699999809E+01 0.  1.
</event>
<event>
 5   0  0.6661000E-08  0.3786001E+04  0.7818609E-02  0.8049166E-01
        1   -1    0    0  501    0  0.00000000000E+00  0.00000000000E+00  0.13491351783E+04  0.13491351783E+04  0.50400001928E-02 0. -1.
       -1   -1    0    0    0  501  0.00000000000E+00  0.00000000000E+00 -0.26561090971E+04  0.26561090971E+04  0.50400001928E-02 0.  1.
    10030    2    1    2    0    0  0.00000000000E+00  0.00000000000E+00 -0.13069739188E+04  0.40052442754E+04  0.37860006447E+04 0.  0.
        2    1    3    3  502    0  0.16145735730E+04 -0.45952520886E+03 -0.15790449025E+04  0.23046461864E+04  0.25500000920E-02 0.  1.
       -2    1    3    3    0  502 -0.16145735730E+04  0.45952520886E+03  0.27207098371E+03  0.17005980890E+04  0.25500000920E-02 0. -1.
</event>
<event>
 5   0  0.2135314E-07  0.3794229E+04  0.7818609E-02  0.8047395E-01
       -2   -1    0    0    0  501  0.00000000000E+00  0.00000000000E+00  0.19528806506E+04  0.19528806506E+04  0.25500000920E-02 0.  1.
        2   -1    0    0  501    0  0.00000000000E+00  0.00000000000E+00 -0.18429404623E+04  0.18429404623E+04  0.25500000920E-02 0. -1.
    10030    2    1    2    0    0  0.00000000000E+00  0.00000000000E+00  0.10994018831E+03  0.37958211129E+04  0.37942286537E+04 0.  0.
        4    1    3    3  502    0  0.11893845582E+04 -0.51718744005E+03 -0.13301407697E+04  0.18577929259E+04  0.12699999809E+01 0. -1.
       -4    1    3    3    0  502 -0.11893845582E+04  0.51718744005E+03  0.14400809580E+04  0.19380281871E+04  0.12699999809E+01 0.  1.
</event>
<event>
 5   0  0.1370688E-07  0.3795400E+04  0.7818609E-02  0.8047143E-01
       -2   -1    0    0    0  501  0.00000000000E+00  0.00000000000E+00  0.13654518028E+04  0.13654518028E+04  0.25500000920E-02 0.  1.
        2   -1    0    0  501    0  0.00000000000E+00  0.00000000000E+00 -0.26374161757E+04  0.26374161757E+04  0.25500000920E-02 0. -1.
    10030    2    1    2    0    0  0.00000000000E+00  0.00000000000E+00 -0.12719643729E+04  0.40028679785E+04  0.37953996742E+04 0.  0.
        5    1    3    3  502    0  0.72077429972E+03  0.58765325718E+03 -0.23806100273E+04  0.25558126171E+04  0.46999998093E+01 0. -1.
       -5    1    3    3    0  502 -0.72077429972E+03 -0.58765325718E+03  0.11086456544E+04  0.14470553613E+04  0.46999998093E+01 0.  1.
</event>
<event>
 5   0  0.2081337E-07  0.3806185E+04  0.7818609E-02  0.8044829E-01
        2   -1    0    0  501    0  0.00000000000E+00  0.00000000000E+00  0.19081508384E+04  0.19081508384E+04  0.25500000920E-02 0. -1.
       -2   -1    0    0    0  501  0.00000000000E+00  0.00000000000E+00 -0.18980471035E+04  0.18980471035E+04  0.25500000920E-02 0.  1.
    10030    2    1    2    0    0  0.00000000000E+00  0.00000000000E+00  0.10103734942E+02  0.38061979419E+04  0.38061845314E+04 0.  0.
        1    1    3    3  502    0  0.15567769212E+04  0.56123600917E+03  0.94485299280E+03  0.19055937181E+04  0.50400001928E-02 0. -1.
       -1    1    3    3    0  502 -0.15567769212E+04 -0.56123600917E+03 -0.93474925786E+03  0.19006042238E+04  0.50400001928E-02 0.  1.
</event>
<event>
 5   0  0.6661000E-08  0.3761136E+04  0.7818609E-02  0.8054547E-01
        1   -1    0    0  501    0  0.00000000000E+00  0.00000000000E+00  0.12876848334E+04  0.12876848334E+04  0.50400001928E-02 0. -1.
       -1   -1    0    0    0  501  0.00000000000E+00  0.00000000000E+00 -0.27464294332E+04  0.27464294332E+04  0.50400001928E-02 0.  1.
    10030    2    1    2    0    0  0.00000000000E+00  0.00000000000E+00 -0.14587445997E+04  0.40341142666E+04  0.37611357472E+04 0.  0.
        1    1    3    3  502    0  0.11098375976E+04 -0.13286698981E+04  0.58394503117E+02  0.17321989231E+04  0.50400001928E-02 0. -1.
       -1    1    3    3    0  502 -0.11098375976E+04  0.13286698981E+04 -0.15171391029E+04  0.23019153435E+04  0.50400001928E-02 0.  1.
</event>
<event>
 5   0  0.6661000E-08  0.3803146E+04  0.7818609E-02  0.8045480E-01
       -1   -1    0    0    0  501  0.00000000000E+00  0.00000000000E+00  0.28086511416E+04  0.28086511416E+04  0.50400001928E-02 0. -1.
        1   -1    0    0  501    0  0.00000000000E+00  0.00000000000E+00 -0.12874438850E+04  0.12874438850E+04  0.50400001928E-02 0.  1.
    10030    2    1    2    0    0  0.00000000000E+00  0.00000000000E+00  0.15212072566E+04  0.40960950265E+04  0.38031464538E+04 0.  0.
        4    1    3    3  502    0  0.50806006263E+03  0.17553680815E+04  0.19422925607E+03  0.18377074700E+04  0.12699999809E+01 0.  1.
       -4    1    3    3    0  502 -0.50806006263E+03 -0.17553680815E+04  0.13269780005E+04  0.22583875565E+04  0.12699999809E+01 0. -1.
</event>
<event>
 5   0  0.6661000E-08  0.3790513E+04  0.7818609E-02  0.8048194E-01
        1   -1    0    0  501    0  0.00000000000E+00  0.00000000000E+00  0.24577268094E+04  0.24577268094E+04  0.50400001928E-02 0.  1.
       -1   -1    0    0    0  501  0.00000000000E+00  0.00000000000E+00 -0.14615119826E+04  0.14615119827E+04  0.50400001928E-02 0. -1.
    10030    2    1    2    0    0  0.00000000000E+00  0.00000000000E+00  0.99621482680E+03  0.39192387921E+04  0.37905129901E+04 0.  0.
        3    1    3    3  502    0 -0.80722767104E+03 -0.72647439736E+03  0.21041157761E+04  0.23678439079E+04  0.10100000352E+00 0.  1.
       -3    1    3    3    0  502  0.80722767104E+03  0.72647439736E+03 -0.11079009493E+04  0.15513948842E+04  0.10100000352E+00 0. -1.
</event>
<event>
 5   0  0.2203998E-07  0.3788485E+04  0.7818609E-02  0.8048631E-01
        2   -1    0    0  501    0  0.00000000000E+00  0.00000000000E+00  0.23481072950E+04  0.23481072950E+04  0.25500000920E-02 0.  1.
       -2   -1    0    0    0  501  0.00000000000E+00  0.00000000000E+00 -0.15281048079E+04  0.15281048079E+04  0.25500000920E-02 0. -1.
    10030    2    1    2    0    0  0.00000000000E+00  0.00000000000E+00  0.82000248709E+03  0.38762121030E+04  0.37884846823E+04 0.  0.
        3    1    3    3  502    0 -0.44728480548E+03 -0.91235853890E+03 -0.12256709639E+04  0.15920838931E+04  0.10100000352E+00 0. -1.
       -3    1    3    3    0  502  0.44728480548E+03  0.91235853890E+03  0.20456734510E+04  0.22841282098E+04  0.10100000352E+00 0.  1.
</event>
<event>
 5   0  0.2205204E-07  0.3779431E+04  0.7818609E-02  0.8050583E-01
        2   -1    0    0  501    0  0.00000000000E+00  0.00000000000E+00  0.22709637635E+04  0.22709637635E+04  0.25500000920E-02 0. -1.
       -2   -1    0    0    0  501  0.00000000000E+00  0.00000000000E+00 -0.15724714047E+04  0.15724714047E+04  0.25500000920E-02 0.  1.
    10030    2    1    2    0    0  0.00000000000E+00  0.00000000000E+00  0.69849235876E+03  0.38434351682E+04  0.37794314806E+04 0.  0.
        2    1    3    3  502    0 -0.91239151994E+03  0.16535739547E+03 -0.13252177697E+04  0.16174064087E+04  0.25500000920E-02 0.  1.
       -2    1    3    3    0  502  0.91239151994E+03 -0.16535739547E+03  0.20237101285E+04  0.22260287595E+04  0.25500000920E-02 0. -1.
</event>
<event>
 5   0  0.6661000E-08  0.3813042E+04  0.7818609E-02  0.8043362E-01
       -1   -1    0    0    0  501  0.00000000000E+00  0.00000000000E+00  0.12921040567E+04  0.12921040567E+04  0.50400001928E-02 0. -1.
        1   -1    0    0  501    0  0.00000000000E+00  0.00000000000E+00 -0.28131039806E+04  0.28131039806E+04  0.50400001928E-02 0.  1.
    10030    2    1    2    0    0  0.00000000000E+00  0.00000000000E+00 -0.15209999239E+04  0.41052080373E+04  0.38130423891E+04 0.  0.
        2    1    3    3  502    0 -0.69164098985E+03  0.44668199148E+03  0.10908312914E+04  0.13666766138E+04  0.25500000920E-02 0. -1.
       -2    1    3    3    0  502  0.69164098985E+03 -0.44668199148E+03 -0.26118312153E+04  0.27385314235E+04  0.25500000920E-02 0.  1.
</event>
<event>
 5   0  0.2081337E-07  0.3552157E+04  0.7818609E-02  0.8101539E-01
       -2   -1    0    0    0  501  0.00000000000E+00  0.00000000000E+00  0.24205415046E+04  0.24205415046E+04  0.25500000920E-02 0. -1.
        2   -1    0    0  501    0  0.00000000000E+00  0.00000000000E+00 -0.13032024327E+04  0.13032024327E+04  0.25500000920E-02 0.  1.
    10030    2    1    2    0    0  0.00000000000E+00  0.00000000000E+00  0.11173390719E+04  0.37237439373E+04  0.35521574162E+04 0.  0.
        1    1    3    3  502    0 -0.26927151775E+03  0.63504808436E+03 -0.11570511716E+04  0.13470562845E+04  0.50400001928E-02 0.  1.
       -1    1    3    3    0  502  0.26927151775E+03 -0.63504808436E+03  0.22743902435E+04  0.23766876529E+04  0.50400001928E-02 0. -1.
</event>
<event>
 5   0  0.1370688E-07  0.3795224E+04  0.7818609E-02  0.8047181E-01
       -2   -1    0    0    0  501  0.00000000000E+00  0.00000000000E+00  0.23592729153E+04  0.23592729153E+04  0.25500000920E-02 0.  1.
        2   -1    0    0  501    0  0.00000000000E+00  0.00000000000E+00 -0.15262885767E+04  0.15262885767E+04  0.25500000920E-02 0. -1.
    10030    2    1    2    0    0  0.00000000000E+00  0.00000000000E+00  0.83298433852E+03  0.38855614920E+04  0.37952239986E+04 0.  0.
        5    1    3    3  502    0  0.62863295882E+03  0.17903645211E+04  0.43494036729E+03  0.19467356596E+04  0.46999998093E+01 0. -1.
       -5    1    3    3    0  502 -0.62863295882E+03 -0.17903645211E+04  0.39804397123E+03  0.19388258324E+04  0.46999998093E+01 0.  1.
</event>
<event>
 5   0  0.6661000E-08  0.3860928E+04  0.7818609E-02  0.8033205E-01
        1   -1    0    0  501    0  0.00000000000E+00  0.00000000000E+00  0.15163684057E+04  0.15163684057E+04  0.50400001928E-02 0.  1.
       -1   -1    0    0    0  501  0.00000000000E+00  0.00000000000E+00 -0.24576419257E+04  0.24576419257E+04  0.50400001928E-02 0. -1.
    10030    2    1    2    0    0  0.00000000000E+00  0.00000000000E+00 -0.94127352003E+03  0.39740103315E+04  0.38609276444E+04 0.  0.
        2    1    3    3  502    0 -0.16076594940E+04  0.12304802175E+03 -0.15633232392E+04  0.22458159797E+04  0.25500000920E-02 0. -1.
       -2    1    3    3    0  502  0.16076594940E+04 -0.12304802175E+03  0.62204971921E+03  0.17281943518E+04  0.25500000920E-02 0.  1.
</event>
<event>
 5   0  0.2081337E-07  0.3819886E+04  0.7818609E-02  0.8041901E-01
       -2   -1    0    0    0  501  0.00000000000E+00  0.00000000000E+00  0.18301226865E+04  0.18301226865E+04  0.25500000920E-02 0. -1.
        2   -1    0    0  501    0  0.00000000000E+00  0.00000000000E+00 -0.19932441735E+04  0.19932441735E+04  0.25500000920E-02 0.  1.
    10030    2    1    2    0    0  0.00000000000E+00  0.00000000000E+00 -0.16312148697E+03  0.38233668601E+04  0.38198855385E+04 0.  0.
        1    1    3    3  502    0  0.21564390534E+03  0.17574304877E+04  0.63520443763E+03  0.18811031048E+04  0.50400001928E-02 0. -1.
       -1    1    3    3    0  502 -0.21564390534E+03 -0.17574304877E+04 -0.79832592460E+03  0.19422637553E+04  0.50400001928E-02 0.  1.
</event>
<event>
 5   0  0.6661000E-08  0.3628670E+04  0.7818609E-02  0.8083956E-01
        1   -1    0    0  501    0  0.00000000000E+00  0.00000000000E+00  0.19897057724E+04  0.19897057724E+04  0.50400001928E-02 0. -1.
       -1   -1    0    0    0  501  0.00000000000E+00  0.00000000000E+00 -0.16544210820E+04  0.16544210820E+04  0.50400001928E-02 0.  1.
    10030    2    1    2    0    0  0.00000000000E+00  0.00000000000E+00  0.33528469038E+03  0.36441268544E+04  0.36286698262E+04 0.  0.
        4    1    3    3  502    0  0.56698314980E+03  0.15570380677E+04  0.90968909851E+03  0.18903368232E+04  0.12699999809E+01 0. -1.
       -4    1    3    3    0  502 -0.56698314980E+03 -0.15570380677E+04 -0.57440440812E+03  0.17537900312E+04  0.12699999809E+01 0.  1.
</event>
<event>
 5   0  0.2081337E-07  0.3834643E+04  0.7818609E-02  0.8038761E-01
       -2   -1    0    0    0  501  0.00000000000E+00  0.00000000000E+00  0.19817457424E+04  0.19817457424E+04  0.25500000920E-02 0.  1.
        2   -1    0    0  501    0  0.00000000000E+00  0.00000000000E+00 -0.18549917915E+04  0.18549917915E+04  0.25500000920E-02 0. -1.
    10030    2    1    2    0    0  0.00000000000E+00  0.00000000000E+00  0.12675395098E+03  0.38367375339E+04  0.38346431829E+04 0.  0.
        1    1    3    3  502    0  0.76141412831E+02 -0.12588825987E+04 -0.13815513603E+04  0.18706328002E+04  0.50400001928E-02 0. -1.
       -1    1    3    3    0  502 -0.76141412831E+02  0.12588825987E+04  0.15083053112E+04  0.19661047337E+04  0.50400001928E-02 0.  1.
</event>
<event>
 5   0  0.6661000E-08  0.3751488E+04  0.7818609E-02  0.8056646E-01
       -1   -1    0    0    0  501  0.00000000000E+00  0.00000000000E+00  0.20728169427E+04  0.20728169427E+04  0.50400001928E-02 0.  1.
        1   -1    0    0  501    0  0.00000000000E+00  0.00000000000E+00 -0.16974077981E+04  0.16974077981E+04  0.50400001928E-02 0. -1.
    10030    2    1    2    0    0  0.00000000000E+00  0.00000000000E+00  0.37540914459E+03  0.37702247409E+04  0.37514880475E+04 0.  0.
        2    1    3    3  502    0 -0.15076560001E+04 -0.77324114845E+03 -0.62098017212E+03  0.18045899430E+04  0.25500000920E-02 0. -1.
       -2    1    3    3    0  502  0.15076560001E+04  0.77324114845E+03  0.99638931671E+03  0.19656347979E+04  0.25500000920E-02 0.  1.
</event>
<event>
 5   0  0.2205204E-07  0.3800961E+04  0.7818609E-02  0.8045949E-01
       -2   -1    0    0    0  501  0.00000000000E+00  0.00000000000E+00  0.20246502546E+04  0.20246502546E+04  0.25500000920E-02 0. -1.
        2   -1    0    0  501    0  0.00000000000E+00  0.00000000000E+00 -0.17839257697E+04  0.17839257697E+04  0.25500000920E-02 0.  1.
    10030    2    1    2    0    0  0.00000000000E+00  0.00000000000E+00  0.24072448496E+03  0.38085760243E+04  0.38009608069E+04 0.  0.
        2    1    3    3  502    0 -0.16614263088E+04 -0.47776222273E+03 -0.67066963494E+03  0.18542901284E+04  0.25500000920E-02 0. -1.
       -2    1    3    3    0  502  0.16614263088E+04  0.47776222273E+03  0.91139411990E+03  0.19542858959E+04  0.25500000920E-02 0.  1.
</event>
<event>
 5   0  0.2205204E-07  0.3793472E+04  0.7818609E-02  0.8047557E-01
        2   -1    0    0  501    0  0.00000000000E+00  0.00000000000E+00  0.26525546597E+04  0.26525546597E+04  0.25500000920E-02 0.  1.
       -2   -1    0    0    0  501  0.00000000000E+00  0.00000000000E+00 -0.13562804583E+04  0.13562804583E+04  0.25500000920E-02 0. -1.
    10030    2    1    2    0    0  0.00000000000E+00  0.00000000000E+00  0.12962742014E+04  0.40088351181E+04  0.37934723142E+04 0.  0.
        2    1    3    3  502    0 -0.65294771008E+02 -0.39609830056E+03  0.26071456862E+04  0.26378714714E+04  0.25500000920E-02 0.  1.
       -2    1    3    3    0  502  0.65294771008E+02  0.39609830056E+03 -0.13108714848E+04  0.13709636467E+04  0.25500000920E-02 0. -1.
</event>
<event>
 5   0  0.6661000E-08  0.3789279E+04  0.7818609E-02  0.8048459E-01
        1   -1    0    0  501    0  0.00000000000E+00  0.00000000000E+00  0.16065168867E+04  0.16065168867E+04  0.50400001928E-02 0.  1.
       -1   -1    0    0    0  501  0.00000000000E+00  0.00000000000E+00 -0.22344361334E+04  0.22344361334E+04  0.50400001928E-02 0. -1.
    10030    2    1    2    0    0  0.00000000000E+00  0.00000000000E+00 -0.62791924672E+03  0.38409530201E+04  0.37892792880E+04 0.  0.
        4    1    3    3  502    0  0.40910808778E+03 -0.13826664358E+04  0.93183338035E+03  0.17168141897E+04  0.12699999809E+01 0.  1.
       -4    1    3    3    0  502 -0.40910808778E+03  0.13826664358E+04 -0.15597526271E+04  0.21241388304E+04  0.12699999809E+01 0. -1.
</event>
<event>
 5   0  0.6725199E-08  0.3808968E+04  0.7818609E-02  0.8044233E-01
       -1   -1    0    0    0  501  0.00000000000E+00  0.00000000000E+00  0.16513315417E+04  0.16513315417E+04  0.50400001928E-02 0. -1.
        1   -1    0    0  501    0  0.00000000000E+00  0.00000000000E+00 -0.21964457133E+04  0.21964457133E+04  0.50400001928E-02 0.  1.
    10030    2    1    2    0    0  0.00000000000E+00  0.00000000000E+00 -0.54511417168E+03  0.38477772550E+04  0.38089684094E+04 0.  0.
        5    1    3    3  502    0  0.14908889129E+02  0.17936991133E+04 -0.91896680158E+03  0.20154654193E+04  0.46999998093E+01 0. -1.
       -5    1    3    3    0  502 -0.14908889129E+02 -0.17936991133E+04  0.37385262990E+03  0.18323118357E+04  0.46999998093E+01 0.  1.
</event>
<event>
 5   0  0.1370688E-07  0.3809760E+04  0.7818609E-02  0.8044064E-01
       -2   -1    0    0    0  501  0.00000000000E+00  0.00000000000E+00  0.14110195293E+04  0.14110195293E+04  0.25500000920E-02 0. -1.
        2   -1    0    0  501    0  0.00000000000E+00  0.00000000000E+00 -0.25715935175E+04  0.25715935175E+04  0.25500000920E-02 0.  1.
    10030    2    1    2    0    0  0.00000000000E+00  0.00000000000E+00 -0.11605739882E+04  0.39826130468E+04  0.38097604516E+04 0.  0.
        5    1    3    3  502    0  0.11973363941E+03 -0.13895679788E+04 -0.19365773038E+04  0.23865433279E+04  0.46999998093E+01 0.  1.
       -5    1    3    3    0  502 -0.11973363941E+03  0.13895679788E+04  0.77600331559E+03  0.15960697190E+04  0.46999998093E+01 0. -1.
</event>
<event>
 5   0  0.2203998E-07  0.3780404E+04  0.7818609E-02  0.8050373E-01
       -2   -1    0    0    0  501  0.00000000000E+00  0.00000000000E+00  0.24425013773E+04  0.24425013773E+04  0.25500000920E-02 0.  1.
        2   -1    0    0  501    0  0.00000000000E+00  0.00000000000E+00 -0.14627890350E+04  0.14627890351E+04  0.25500000920E-02 0. -1.
    10030    2    1    2    0    0  0.00000000000E+00  0.00000000000E+00  0.97971234228E+03  0.39052904124E+04  0.37804043344E+04 0.  0.
        3    1    3    3  502    0 -0.25270814340E+03 -0.12278819702E+04 -0.97155399028E+03  0.15860241816E+04  0.10100000352E+00 0. -1.
       -3    1    3    3    0  502  0.25270814340E+03  0.12278819702E+04  0.19512663326E+04  0.23192662308E+04  0.10100000352E+00 0.  1.
</event>
<event>
 5   0  0.1370688E-07  0.3902286E+04  0.7818609E-02  0.8024554E-01
        2   -1    0    0  501    0  0.00000000000E+00  0.00000000000E+00  0.24080210197E+04  0.24080210197E+04  0.25500000920E-02 0.  1.
       -2   -1    0    0    0  501  0.00000000000E+00  0.00000000000E+00 -0.15809491325E+04  0.15809491325E+04  0.25500000920E-02 0. -1.
    10030    2    1    2    0    0  0.00000000000E+00  0.00000000000E+00  0.82707188723E+03  0.39889701523E+04  0.39022858646E+04 0.  0.
        5    1    3    3  502    0  0.18363485555E+04  0.64108195825E+03  0.57115108298E+03  0.20271649523E+04  0.46999998093E+01 0. -1.
       -5    1    3    3    0  502 -0.18363485555E+04 -0.64108195825E+03  0.25592080425E+03  0.19618051999E+04  0.46999998093E+01 0.  1.
</event>
<event>
 5   0  0.6661000E-08  0.3806194E+04  0.7818609E-02  0.8044827E-01
        1   -1    0    0  501    0  0.00000000000E+00  0.00000000000E+00  0.26248384790E+04  0.26248384791E+04  0.50400001928E-02 0.  1.
       -1   -1    0    0    0  501  0.00000000000E+00  0.00000000000E+00 -0.13798100805E+04  0.13798100806E+04  0.50400001928E-02 0. -1.
    10030    2    1    2    0    0  0.00000000000E+00  0.00000000000E+00  0.12450283985E+04  0.40046485596E+04  0.38061942111E+04 0.  0.
        1    1    3    3  502    0 -0.55644148787E+03  0.17058787434E+04 -0.44686138090E+02  0.17948945004E+04  0.50400001928E-02 0.  1.
       -1    1    3    3    0  502  0.55644148787E+03 -0.17058787434E+04  0.12897145366E+04  0.22097540592E+04  0.50400001928E-02 0. -1.
</event>
<event>
 5   0  0.2081337E-07  0.3385511E+04  0.7818609E-02  0.8141471E-01
        2   -1    0    0  501    0  0.00000000000E+00  0.00000000000E+00  0.25367033936E+04  0.25367033936E+04  0.25500000920E-02 0.  1.
       -2   -1    0    0    0  501  0.00000000000E+00  0.00000000000E+00 -0.11295849632E+04  0.11295849632E+04  0.25500000920E-02 0. -1.
    10030    2    1    2    0    0  0.00000000000E+00  0.00000000000E+00  0.14071184304E+04  0.36662883568E+04  0.33855114883E+04 0.  0.
        1    1    3    3  502    0  0.85630783462E+03 -0.14120344848E+04  0.11063141936E+04  0.19877212050E+04  0.50400001928E-02 0. -1.
       -1    1    3    3    0  502 -0.85630783462E+03  0.14120344848E+04  0.30080423680E+03  0.16785671517E+04  0.50400001928E-02 0.  1.
</event>
<event>
 5   0  0.6725199E-08  0.3804091E+04  0.7818609E-02  0.8045278E-01
        1   -1    0    0  501    0  0.00000000000E+00  0.00000000000E+00  0.12719373268E+04  0.12719373268E+04  0.50400001928E-02 0.  1.
       -1   -1    0    0    0  501  0.00000000000E+00  0.00000000000E+00 -0.28443046121E+04  0.28443046122E+04  0.50400001928E-02 0. -1.
    10030    2    1    2    0    0  0.00000000000E+00  0.00000000000E+00 -0.15723672854E+04  0.41162419389E+04  0.38040910636E+04 0.  0.
        5    1    3    3  502    0 -0.65245651210E+03  0.13314816002E+03  0.11416778669E+04  0.13216952653E+04  0.46999998093E+01 0.  1.
       -5    1    3    3    0  502  0.65245651210E+03 -0.13314816002E+03 -0.27140451522E+04  0.27945466736E+04  0.46999998093E+01 0. -1.
</event>
<event>
 5   0  0.6725199E-08  0.3812382E+04  0.7818609E-02  0.8043503E-01
       -1   -1    0    0    0  501  0.00000000000E+00  0.00000000000E+00  0.15971634240E+04  0.15971634240E+04  0.50400001928E-02 0. -1.
        1   -1    0    0  501    0  0.00000000000E+00  0.00000000000E+00 -0.22750107993E+04  0.22750107993E+04  0.50400001928E-02 0.  1.
    10030    2    1    2    0    0  0.00000000000E+00  0.00000000000E+00 -0.67784737531E+03  0.38721742233E+04  0.38123819525E+04 0.  0.
        5    1    3    3  502    0 -0.11256808049E+04 -0.12477213333E+04  0.57495244828E+03  0.17761076003E+04  0.46999998093E+01 0. -1.
       -5    1    3    3    0  502  0.11256808049E+04  0.12477213333E+04 -0.12527998236E+04  0.20960666230E+04  0.46999998093E+01 0.  1.
</event>
<event>
 5   0  0.2205204E-07  0.3786116E+04  0.7818609E-02  0.8049141E-01
       -2   -1    0    0    0  501  0.00000000000E+00  0.00000000000E+00  0.14559617182E+04  0.14559617182E+04  0.25500000920E-02 0. -1.
        2   -1    0    0  501    0  0.00000000000E+00  0.00000000000E+00 -0.24613752131E+04  0.24613752131E+04  0.25500000920E-02 0.  1.
    10030    2    1    2    0    0  0.00000000000E+00  0.00000000000E+00 -0.10054134949E+04  0.39173369314E+04  0.37861157323E+04 0.  0.
        2    1    3    3  502    0 -0.26026872849E+03  0.10714337690E+04 -0.20948569447E+04  0.23673055889E+04  0.25500000920E-02 0.  1.
       -2    1    3    3    0  502  0.26026872849E+03 -0.10714337690E+04  0.10894434498E+04  0.15500313425E+04  0.25500000920E-02 0. -1.
</event>
<event>
 5   0  0.2205204E-07  0.3735902E+04  0.7818609E-02  0.8060052E-01
       -2   -1    0    0    0  501  0.00000000000E+00  0.00000000000E+00  0.17418534233E+04  0.17418534233E+04  0.25500000920E-02 0.  1.
        2   -1    0    0  501    0  0.00000000000E+00  0.00000000000E+00 -0.20031776308E+04  0.20031776308E+04  0.25500000920E-02 0. -1.
    10030    2    1    2    0    0  0.00000000000E+00  0.00000000000E+00 -0.26132420752E+03  0.37450310541E+04  0.37359024686E+04 0.  0.
        2    1    3    3  502    0  0.76085753420E+03  0.15058897002E+04 -0.93426536032E+03  0.19285900912E+04  0.25500000920E-02 0. -1.
       -2    1    3    3    0  502 -0.76085753420E+03 -0.15058897002E+04  0.67294115280E+03  0.18164409629E+04  0.25500000920E-02 0.  1.
</event>
<event>
 5   0  0.6661000E-08  0.3797739E+04  0.7818609E-02  0.8046640E-01
        1   -1    0    0  501    0  0.00000000000E+00  0.00000000000E+00  0.16064468055E+04  0.16064468055E+04  0.50400001928E-02 0.  1.
       -1   -1    0    0    0  501  0.00000000000E+00  0.00000000000E+00 -0.22445223602E+04  0.22445223602E+04  0.50400001928E-02 0. -1.
    10030    2    1    2    0    0  0.00000000000E+00  0.00000000000E+00 -0.63807555468E+03  0.38509691657E+04  0.37977392093E+04 0.  0.
        1    1    3    3  502    0  0.35461256502E+03 -0.17701418180E+04 -0.91597703409E+03  0.20243927618E+04  0.50400001928E-02 0. -1.
       -1    1    3    3    0  502 -0.35461256502E+03  0.17701418180E+04  0.27790147941E+03  0.18265764039E+04  0.50400001928E-02 0.  1.
</event>
<event>
 5   0  0.1370688E-07  0.3800670E+04  0.7818609E-02  0.8046011E-01
       -2   -1    0    0    0  501  0.00000000000E+00  0.00000000000E+00  0.10931347609E+04  0.10931347609E+04  0.25500000920E-02 0.  1.
        2   -1    0    0  501    0  0.00000000000E+00  0.00000000000E+00 -0.33035940119E+04  0.33035940120E+04  0.25500000920E-02 0. -1.
    10030    2    1    2    0    0  0.00000000000E+00  0.00000000000E+00 -0.22104592510E+04  0.43967287729E+04  0.38006701780E+04 0.  0.
        5    1    3    3  502    0  0.15178419280E+04 -0.89770030477E+03 -0.19244917709E+04  0.26102491494E+04  0.46999998093E+01 0. -1.
       -5    1    3    3    0  502 -0.15178419280E+04  0.89770030477E+03 -0.28596748012E+03  0.17864796235E+04  0.46999998093E+01 0.  1.
</event>
<event>
 5   0  0.6661000E-08  0.3802025E+04  0.7818609E-02  0.8045720E-01
        1   -1    0    0  501    0  0.00000000000E+00  0.00000000000E+00  0.28554481902E+04  0.28554481902E+04  0.50400001928E-02 0.  1.
       -1   -1    0    0    0  501  0.00000000000E+00  0.00000000000E+00 -0.12655979115E+04  0.12655979115E+04  0.50400001928E-02 0. -1.
    10030    2    1    2    0    0  0.00000000000E+00  0.00000000000E+00  0.15898502787E+04  0.41210461017E+04  0.38020253896E+04 0.  0.
        4    1    3    3  502    0  0.55337905175E+03 -0.79891093152E+03  0.25658334798E+04  0.27437183001E+04  0.12699999809E+01 0.  1.
       -4    1    3    3    0  502 -0.55337905175E+03  0.79891093152E+03 -0.97598320103E+03  0.13773278016E+04  0.12699999809E+01 0. -1.
</event>
<event>
 5   0  0.2205204E-07  0.3815184E+04  0.7818609E-02  0.8042904E-01
       -2   -1    0    0    0  501  0.00000000000E+00  0.00000000000E+00  0.18022251201E+04  0.18022251201E+04  0.25500000920E-02 0.  1.
        2   -1    0    0  501    0  0.00000000000E+00  0.00000000000E+00 -0.20191187018E+04  0.20191187018E+04  0.25500000920E-02 0. -1.
    10030    2    1    2    0    0  0.00000000000E+00  0.00000000000E+00 -0.21689358178E+03  0.38213438219E+04  0.38151835840E+04 0.  0.
        2    1    3    3  502    0 -0.31311273102E+03 -0.56891488732E+03  0.16881056022E+04  0.18087023679E+04  0.25500000920E-02 0.  1.
       -2    1    3    3    0  502  0.31311273102E+03  0.56891488732E+03 -0.19049991840E+04  0.20126414540E+04  0.25500000920E-02 0. -1.
</event>
<event>
 5   0  0.6661000E-08  0.3831530E+04  0.7818609E-02  0.8039422E-01
        1   -1    0    0  501    0  0.00000000000E+00  0.00000000000E+00  0.20171237694E+04  0.20171237694E+04  0.50400001928E-02 0. -1.
       -1   -1    0    0    0  501  0.00000000000E+00  0.00000000000E+00 -0.18194994228E+04  0.18194994228E+04  0.50400001928E-02 0.  1.
    10030    2    1    2    0    0  0.00000000000E+00  0.00000000000E+00  0.19762434665E+03  0.38366231922E+04  0.38315299994E+04 0.  0.
        3    1    3    3  502    0 -0.10870351784E+04  0.34256099225E+03 -0.14430925248E+04  0.18388881309E+04  0.10100000352E+00 0.  1.
       -3    1    3    3    0  502  0.10870351784E+04 -0.34256099225E+03  0.16407168715E+04  0.19977350613E+04  0.10100000352E+00 0. -1.
</event>
<event>
 5   0  0.6725199E-08  0.3318049E+04  0.7818609E-02  0.8158318E-01
       -1   -1    0    0    0  501  0.00000000000E+00  0.00000000000E+00  0.99219247515E+03  0.99219247516E+03  0.50400001928E-02 0.  1.
        1   -1    0    0  501    0  0.00000000000E+00  0.00000000000E+00 -0.27740207746E+04  0.27740207746E+04  0.50400001928E-02 0. -1.
    10030    2    1    2    0    0  0.00000000000E+00  0.00000000000E+00 -0.17818282995E+04  0.37662132498E+04  0.33180491488E+04 0.  0.
        5    1    3    3  502    0 -0.14823082074E+03  0.15614127307E+04 -0.27718062320E+03  0.15927439467E+04  0.46999998093E+01 0. -1.
       -5    1    3    3    0  502  0.14823082074E+03 -0.15614127307E+04 -0.15046476763E+04  0.21734693031E+04  0.46999998093E+01 0.  1.
</event>
<event>
 5   0  0.1370688E-07  0.3804669E+04  0.7818609E-02  0.8045154E-01
        2   -1    0    0  501    0  0.00000000000E+00  0.00000000000E+00  0.17938454176E+04  0.17938454176E+04  0.25500000920E-02 0. -1.
       -2   -1    0    0    0  501  0.00000000000E+00  0.00000000000E+00 -0.20173847850E+04  0.20173847850E+04  0.25500000920E-02 0.  1.
    10030    2    1    2    0    0  0.00000000000E+00  0.00000000000E+00 -0.22353936739E+03  0.38112302027E+04  0.38046689487E+04 0.  0.
        5    1    3    3  502    0 -0.93865244114E+03 -0.44749737983E+03  0.14839407171E+04  0.18120221997E+04  0.46999998093E+01 0. -1.
       -5    1    3    3    0  502  0.93865244114E+03  0.44749737983E+03 -0.17074800845E+04  0.19992080030E+04  0.46999998093E+01 0.  1.
</event>
<event>
 5   0  0.6725199E-08  0.3709053E+04  0.7818609E-02  0.8065959E-01
       -1   -1    0    0    0  501  0.00000000000E+00  0.00000000000E+00  0.19780422408E+04  0.19780422408E+04  0.50400001928E-02 0. -1.
        1   -1    0    0  501    0  0.00000000000E+00  0.00000000000E+00 -0.17387232315E+04  0.17387232315E+04  0.50400001928E-02 0.  1.
    10030    2    1    2    0    0  0.00000000000E+00  0.00000000000E+00  0.23931900928E+03  0.37167654724E+04  0.37090527077E+04 0.  0.
        5    1    3    3  502    0  0.70500547627E+03  0.17147041432E+04  0.74812818785E+02  0.18554951005E+04  0.46999998093E+01 0. -1.
       -5    1    3    3    0  502 -0.70500547627E+03 -0.17147041432E+04  0.16450619050E+03  0.18612703718E+04  0.46999998093E+01 0.  1.
</event>
<event>
 5   0  0.2205204E-07  0.4004595E+04  0.7818609E-02  0.8003620E-01
       -2   -1    0    0    0  501  0.00000000000E+00  0.00000000000E+00  0.20160992863E+04  0.20160992863E+04  0.25500000920E-02 0.  1.
        2   -1    0    0  501    0  0.00000000000E+00  0.00000000000E+00 -0.19885900051E+04  0.19885900051E+04  0.25500000920E-02 0. -1.
    10030    2    1    2    0    0  0.00000000000E+00  0.00000000000E+00  0.27509281196E+02  0.40046892914E+04  0.40045948060E+04 0.  0.
        2    1    3    3  502    0 -0.14485221922E+04  0.13007427240E+04  0.48178995057E+03  0.20055597054E+04  0.25500000920E-02 0.  1.
       -2    1    3    3    0  502  0.14485221922E+04 -0.13007427240E+04 -0.45428066937E+03  0.19991295861E+04  0.25500000920E-02 0. -1.
</event>
<event>
 5   0  0.2205204E-07  0.3764047E+04  0.7818609E-02  0.8053915E-01
        2   -1    0    0  501    0  0.00000000000E+00  0.00000000000E+00  0.24814762412E+04  0.24814762412E+04  0.25500000920E-02 0. -1.
       -2   -1    0    0    0  501  0.00000000000E+00  0.00000000000E+00 -0.14273808778E+04  0.14273808778E+04  0.25500000920E-02 0.  1.
    10030    2    1    2    0    0  0.00000000000E+00  0.00000000000E+00  0.10540953635E+04  0.39088571190E+04  0.37640466178E+04 0.  0.
        2    1    3    3  502    0 -0.95684378121E+03 -0.73923724815E+03  0.20247497390E+04  0.23583115223E+04  0.25500000920E-02 0. -1.
       -2    1    3    3    0  502  0.95684378121E+03  0.73923724815E+03 -0.97065437551E+03  0.15505455967E+04  0.25500000920E-02 0.  1.
</event>
<event>
 5   0  0.6661000E-08  0.3779602E+04  0.7818609E-02  0.8050547E-01
       -1   -1    0    0    0  501  0.00000000000E+00  0.00000000000E+00  0.15499007588E+04  0.15499007588E+04  0.50400001928E-02 0. -1.
        1   -1    0    0  501    0  0.00000000000E+00  0.00000000000E+00 -0.23042423817E+04  0.23042423817E+04  0.50400001928E-02 0.  1.
    10030    2    1    2    0    0  0.00000000000E+00  0.00000000000E+00 -0.75434162288E+03  0.38541431405E+04  0.37796015747E+04 0.  0.
        2    1    3    3  502    0 -0.11911080820E+04  0.11098428162E+04 -0.13557095607E+04  0.21185933901E+04  0.25500000920E-02 0.  1.
       -2    1    3    3    0  502  0.11911080820E+04 -0.11098428162E+04  0.60136793779E+03  0.17355497504E+04  0.25500000920E-02 0. -1.
</event>
<event>
 5   0  0.2135314E-07  0.3776918E+04  0.7818609E-02  0.8051126E-01
       -2   -1    0    0    0  501  0.00000000000E+00  0.00000000000E+00  0.12934851429E+04  0.12934851429E+04  0.25500000920E-02 0.  1.
        2   -1    0    0  501    0  0.00000000000E+00  0.00000000000E+00 -0.27571071342E+04  0.27571071342E+04  0.25500000920E-02 0. -1.
    10030    2    1    2    0    0  0.00000000000E+00  0.00000000000E+00 -0.14636219914E+04  0.40505922771E+04  0.37769178521E+04 0.  0.
        4    1    3    3  502    0  0.14493279572E+03  0.15387168446E+04 -0.18956252241E+04  0.24458233064E+04  0.12699999809E+01 0. -1.
       -4    1    3    3    0  502 -0.14493279572E+03 -0.15387168446E+04  0.43200323273E+03  0.16047689707E+04  0.12699999809E+01 0.  1.
</event>
<event>
 5   0  0.6725199E-08  0.3777314E+04  0.7818609E-02  0.8051041E-01
        1   -1    0    0  501    0  0.00000000000E+00  0.00000000000E+00  0.19919124755E+04  0.19919124755E+04  0.50400001928E-02 0.  1.
       -1   -1    0    0    0  501  0.00000000000E+00  0.00000000000E+00 -0.17907537925E+04  0.17907537925E+04  0.50400001928E-02 0. -1.
    10030    2    1    2    0    0  0.00000000000E+00  0.00000000000E+00  0.20115868296E+03  0.37826662680E+04  0.37773137650E+04 0.  0.
        5    1    3    3  502    0 -0.55267487985E+03  0.35262672424E+03  0.18743055966E+04  0.19856582508E+04  0.46999998093E+01 0.  1.
       -5    1    3    3    0  502  0.55267487985E+03 -0.35262672424E+03 -0.16731469136E+04  0.17970080173E+04  0.46999998093E+01 0. -1.
</event>
<event>
 5   0  0.6725199E-08  0.3716736E+04  0.7818609E-02  0.8064263E-01
       -1   -1    0    0    0  501  0.00000000000E+00  0.00000000000E+00  0.18199420581E+04  0.18199420581E+04  0.50400001928E-02 0.  1.
        1   -1    0    0  501    0  0.00000000000E+00  0.00000000000E+00 -0.18976053399E+04  0.18976053399E+04  0.50400001928E-02 0. -1.
    10030    2    1    2    0    0  0.00000000000E+00  0.00000000000E+00 -0.77663281791E+02  0.37175473981E+04  0.37167360778E+04 0.  0.
        5    1    3    3  502    0 -0.35958445190E+03  0.12315136973E+04 -0.13835888487E+04  0.18868670215E+04  0.46999998093E+01 0. -1.
       -5    1    3    3    0  502  0.35958445190E+03 -0.12315136973E+04  0.13059255669E+04  0.18306803765E+04  0.46999998093E+01 0.  1.
</event>
<event>
 5   0  0.6661000E-08  0.3786310E+04  0.7818609E-02  0.8049099E-01
        1   -1    0    0  501    0  0.00000000000E+00  0.00000000000E+00  0.18556872990E+04  0.18556872990E+04  0.50400001928E-02 0.  1.
       -1   -1    0    0    0  501  0.00000000000E+00  0.00000000000E+00 -0.19313796625E+04  0.19313796625E+04  0.50400001928E-02 0. -1.
    10030    2    1    2    0    0  0.00000000000E+00  0.00000000000E+00 -0.75692363500E+02  0.37870669616E+04  0.37863104518E+04 0.  0.
        3    1    3    3  502    0  0.14766013423E+04  0.10913623114E+04 -0.49903860334E+03  0.19027513649E+04  0.10100000352E+00 0.  1.
       -3    1    3    3    0  502 -0.14766013423E+04 -0.10913623114E+04  0.42334623984E+03  0.18843155967E+04  0.10100000352E+00 0. -1.
</event>
<event>
 5   0  0.2205204E-07  0.3800125E+04  0.7818609E-02  0.8046128E-01
        2   -1    0    0  501    0  0.00000000000E+00  0.00000000000E+00  0.24817136335E+04  0.24817136335E+04  0.25500000920E-02 0.  1.
       -2   -1    0    0    0  501  0.00000000000E+00  0.00000000000E+00 -0.14547357692E+04  0.14547357692E+04  0.25500000920E-02 0. -1.
    10030    2    1    2    0    0  0.00000000000E+00  0.00000000000E+00  0.10269778643E+04  0.39364494027E+04  0.38001250461E+04 0.  0.
        2    1    3    3  502    0  0.15366285698E+04 -0.23422587560E+03 -0.61848375758E+03  0.16729050423E+04  0.25500000920E-02 0. -1.
       -2    1    3    3    0  502 -0.15366285698E+04  0.23422587560E+03  0.16454616219E+04  0.22635443604E+04  0.25500000920E-02 0.  1.
</event>
<event>
 5   0  0.6661000E-08  0.3789438E+04  0.7818609E-02  0.8048425E-01
       -1   -1    0    0    0  501  0.00000000000E+00  0.00000000000E+00  0.17111851207E+04  0.17111851207E+04  0.50400001928E-02 0. -1.
        1   -1    0    0  501    0  0.00000000000E+00  0.00000000000E+00 -0.20979377466E+04  0.20979377466E+04  0.50400001928E-02 0.  1.
    10030    2    1    2    0    0  0.00000000000E+00  0.00000000000E+00 -0.38675262592E+03  0.38091228672E+04  0.37894378771E+04 0.  0.
        4    1    3    3  502    0  0.67287856020E+03 -0.17111096750E+04 -0.65324202991E+03  0.19512530946E+04  0.12699999809E+01 0. -1.
       -4    1    3    3    0  502 -0.67287856020E+03  0.17111096750E+04  0.26648940399E+03  0.18578697726E+04  0.12699999809E+01 0.  1.
</event>
<event>
 5   0  0.2205204E-07  0.3785239E+04  0.7818609E-02  0.8049330E-01
       -2   -1    0    0    0  501  0.00000000000E+00  0.00000000000E+00  0.16221192732E+04  0.16221192732E+04  0.25500000920E-02 0. -1.
        2   -1    0    0  501    0  0.00000000000E+00  0.00000000000E+00 -0.22082280105E+04  0.22082280105E+04  0.25500000920E-02 0.  1.
    10030    2    1    2    0    0  0.00000000000E+00  0.00000000000E+00 -0.58610873726E+03  0.38303472837E+04  0.37852393401E+04 0.  0.
        2    1    3    3  502    0  0.10506296668E+04 -0.14395694904E+03  0.12932564751E+04  0.16724409138E+04  0.25500000920E-02 0. -1.
       -2    1    3    3    0  502 -0.10506296668E+04  0.14395694904E+03 -0.18793652124E+04  0.21579063699E+04  0.25500000920E-02 0.  1.
</event>
<event>
 5   0  0.2205204E-07  0.3801296E+04  0.7818609E-02  0.8045877E-01
       -2   -1    0    0    0  501  0.00000000000E+00  0.00000000000E+00  0.29987683525E+04  0.29987683525E+04  0.25500000920E-02 0.  1.
        2   -1    0    0  501    0  0.00000000000E+00  0.00000000000E+00 -0.12046491104E+04  0.12046491104E+04  0.25500000920E-02 0. -1.
    10030    2    1    2    0    0  0.00000000000E+00  0.00000000000E+00  0.17941192422E+04  0.42034174629E+04  0.38012964252E+04 0.  0.
        2    1    3    3  502    0  0.12282183021E+03  0.16532479307E+03 -0.11922735598E+04  0.12099312917E+04  0.25500000920E-02 0. -1.
       -2    1    3    3    0  502 -0.12282183021E+03 -0.16532479307E+03  0.29863928020E+04  0.29934861712E+04  0.25500000920E-02 0.  1.
</event>
<event>
 5   0  0.6661000E-08  0.3820197E+04  0.7818609E-02  0.8041835E-01
       -1   -1    0    0    0  501  0.00000000000E+00  0.00000000000E+00  0.14941455540E+04  0.14941455540E+04  0.50400001928E-02 0. -1.
        1   -1    0    0  501    0  0.00000000000E+00  0.00000000000E+00 -0.24418477868E+04  0.24418477868E+04  0.50400001928E-02 0.  1.
    10030    2    1    2    0    0  0.00000000000E+00  0.00000000000E+00 -0.94770223280E+03  0.39359933408E+04  0.38201968610E+04 0.  0.
        3    1    3    3  502    0  0.17678254737E+04 -0.51816016708E+03  0.46205403054E+02  0.18427782867E+04  0.10100000352E+00 0. -1.
       -3    1    3    3    0  502 -0.17678254737E+04  0.51816016708E+03 -0.99390763585E+03  0.20932150542E+04  0.10100000352E+00 0.  1.
</event>
<event>
 5   0  0.6661000E-08  0.3805645E+04  0.7818609E-02  0.8044945E-01
       -1   -1    0    0    0  501  0.00000000000E+00  0.00000000000E+00  0.26940707095E+04  0.26940707095E+04  0.50400001928E-02 0. -1.
        1   -1    0    0  501    0  0.00000000000E+00  0.00000000000E+00 -0.13439638923E+04  0.13439638923E+04  0.50400001928E-02 0.  1.
    10030    2    1    2    0    0  0.00000000000E+00  0.00000000000E+00  0.13501068172E+04  0.40380346018E+04  0.38056451526E+04 0.  0.
        1    1    3    3  502    0 -0.22391627449E+03  0.14454589001E+04  0.19664362797E+04  0.24507879492E+04  0.50400001928E-02 0. -1.
       -1    1    3    3    0  502  0.22391627449E+03 -0.14454589001E+04 -0.61632946251E+03  0.15872466526E+04  0.50400001928E-02 0.  1.
</event>
<event>
 5   0  0.6661000E-08  0.3803717E+04  0.7818609E-02  0.8045358E-01
        1   -1    0    0  501    0  0.00000000000E+00  0.00000000000E+00  0.17977494596E+04  0.17977494596E+04  0.50400001928E-02 0. -1.
       -1   -1    0    0    0  501  0.00000000000E+00  0.00000000000E+00 -0.20119963853E+04  0.20119963853E+04  0.50400001928E-02 0.  1.
    10030    2    1    2    0    0  0.00000000000E+00  0.00000000000E+00 -0.21424692571E+03  0.38097458450E+04  0.38037168215E+04 0.  0.
        3    1    3    3  502    0 -0.12551183256E+04 -0.13574982469E+04  0.33961254678E+03  0.18797500349E+04  0.10100000352E+00 0.  1.
       -3    1    3    3    0  502  0.12551183256E+04  0.13574982469E+04 -0.55385947249E+03  0.19299958101E+04  0.10100000352E+00 0. -1.
</event>
<event>
 5   0  0.6725199E-08  0.3822966E+04  0.7818609E-02  0.8041244E-01
       -1   -1    0    0    0  501  0.00000000000E+00  0.00000000000E+00  0.12885307674E+04  0.12885307674E+04  0.50400001928E-02 0. -1.
        1   -1    0    0  501    0  0.00000000000E+00  0.00000000000E+00 -0.28356071267E+04  0.28356071267E+04  0.50400001928E-02 0.  1.
    10030    2    1    2    0    0  0.00000000000E+00  0.00000000000E+00 -0.15470763593E+04  0.41241378941E+04  0.38229658785E+04 0.  0.
        5    1    3    3  502    0 -0.10096508982E+04 -0.12793739985E+04 -0.18509967141E+04  0.24662529655E+04  0.46999998093E+01 0.  1.
       -5    1    3    3    0  502  0.10096508982E+04  0.12793739985E+04  0.30392035482E+03  0.16578849286E+04  0.46999998093E+01 0. -1.
</event>
<event>
 5   0  0.6661000E-08  0.3750675E+04  0.7818609E-02  0.8056824E-01
       -1   -1    0    0    0  501  0.00000000000E+00  0.00000000000E+00  0.15244231930E+04  0.15244231930E+04  0.50400001928E-02 0. -1.
        1   -1    0    0  501    0  0.00000000000E+00  0.00000000000E+00 -0.23070301136E+04  0.23070301136E+04  0.50400001928E-02 0.  1.
    10030    2    1    2    0    0  0.00000000000E+00  0.00000000000E+00 -0.78260692059E+03  0.38314533065E+04  0.37506747190E+04 0.  0.
        4    1    3    3  502    0  0.51373873707E+03 -0.54840901956E+03  0.13639007853E+04  0.15572112598E+04  0.12699999809E+01 0. -1.
       -4    1    3    3    0  502 -0.51373873707E+03  0.54840901956E+03 -0.21465077059E+04  0.22742420467E+04  0.12699999809E+01 0.  1.
</event>
<event>
 5   0  0.6661000E-08  0.3867946E+04  0.7818609E-02  0.8031729E-01
       -1   -1    0    0    0  501  0.00000000000E+00  0.00000000000E+00  0.17974404380E+04  0.17974404380E+04  0.50400001928E-02 0. -1.
        1   -1    0    0  501    0  0.00000000000E+00  0.00000000000E+00 -0.20808764457E+04  0.20808764457E+04  0.50400001928E-02 0.  1.
    10030    2    1    2    0    0  0.00000000000E+00  0.00000000000E+00 -0.28343600768E+03  0.38783168837E+04  0.38679459510E+04 0.  0.
        2    1    3    3  502    0 -0.16400834304E+03  0.75362715732E+03  0.16365644988E+04  0.18091976088E+04  0.25500000920E-02 0. -1.
       -2    1    3    3    0  502  0.16400834304E+03 -0.75362715732E+03 -0.19200005065E+04  0.20691192749E+04  0.25500000920E-02 0.  1.
</event>
<event>
 5   0  0.2081337E-07  0.3801799E+04  0.7818609E-02  0.8045769E-01
       -2   -1    0    0    0  501  0.00000000000E+00  0.00000000000E+00  0.19385750853E+04  0.19385750853E+04  0.25500000920E-02 0.  1.
        2   -1    0    0  501    0  0.00000000000E+00  0.00000000000E+00 -0.18639562049E+04  0.18639562049E+04  0.25500000920E-02 0. -1.
    10030    2    1    2    0    0  0.00000000000E+00  0.00000000000E+00  0.74618880421E+02  0.38025312902E+04  0.38017990788E+04 0.  0.
        1    1    3    3  502    0  0.30872869304E+03 -0.51182678385E+02 -0.18380145995E+04  0.18644652694E+04  0.50400001928E-02 0. -1.
       -1    1    3    3    0  502 -0.30872869304E+03  0.51182678385E+02  0.19126334800E+04  0.19380660209E+04  0.50400001928E-02 0.  1.
</event>
<event>
 5   0  0.2203998E-07  0.3821398E+04  0.7818609E-02  0.8041579E-01
       -2   -1    0    0    0  501  0.00000000000E+00  0.00000000000E+00  0.12824561518E+04  0.12824561518E+04  0.25500000920E-02 0. -1.
        2   -1    0    0  501    0  0.00000000000E+00  0.00000000000E+00 -0.28467019043E+04  0.28467019043E+04  0.25500000920E-02 0.  1.
    10030    2    1    2    0    0  0.00000000000E+00  0.00000000000E+00 -0.15642457525E+04  0.41291580561E+04  0.38213978434E+04 0.  0.
        3    1    3    3  502    0  0.53068339267E+03  0.82555080640E+03 -0.25535467244E+04  0.27356461543E+04  0.10100000352E+00 0.  1.
       -3    1    3    3    0  502 -0.53068339267E+03 -0.82555080640E+03  0.98930097194E+03  0.13935119018E+04  0.10100000352E+00 0. -1.
</event>
<event>
 5   0  0.6725199E-08  0.3800326E+04  0.7818609E-02  0.8046085E-01
       -1   -1    0    0    0  501  0.00000000000E+00  0.00000000000E+00  0.12707726814E+04  0.12707726814E+04  0.50400001928E-02 0.  1.
        1   -1    0    0  501    0  0.00000000000E+00  0.00000000000E+00 -0.28412781315E+04  0.28412781315E+04  0.50400001928E-02 0. -1.
    10030    2    1    2    0    0  0.00000000000E+00  0.00000000000E+00 -0.15705054501E+04  0.41120508129E+04  0.38003255807E+04 0.  0.
        5    1    3    3  502    0  0.19408940279E+03 -0.15381062674E+04  0.40357569315E+03  0.16019790936E+04  0.46999998093E+01 0.  1.
       -5    1    3    3    0  502 -0.19408940279E+03  0.15381062674E+04 -0.19740811432E+04  0.25100717193E+04  0.46999998093E+01 0. -1.
</event>
<event>
 5   0  0.2205204E-07  0.3791641E+04  0.7818609E-02  0.8047951E-01
       -2   -1    0    0    0  501  0.00000000000E+00  0.00000000000E+00  0.22327798124E+04  0.22327798124E+04  0.25500000920E-02 0.  1.
        2   -1    0    0  501    0  0.00000000000E+00  0.00000000000E+00 -0.16097131780E+04  0.16097131780E+04  0.25500000920E-02 0. -1.
    10030    2    1    2    0    0  0.00000000000E+00  0.00000000000E+00  0.62306663446E+03  0.38424929904E+04  0.37916408519E+04 0.  0.
        2    1    3    3  502    0  0.41508872945E+03  0.23127355992E+03  0.21714540262E+04  0.22228357341E+04  0.25500000920E-02 0.  1.
       -2    1    3    3    0  502 -0.41508872945E+03 -0.23127355992E+03 -0.15483873918E+04  0.16196572563E+04  0.25500000920E-02 0. -1.
</event>
<event>
 5   0  0.2135314E-07  0.3797645E+04  0.7818609E-02  0.8046660E-01
       -2   -1    0    0    0  501  0.00000000000E+00  0.00000000000E+00  0.20417341034E+04  0.20417341034E+04  0.25500000920E-02 0. -1.
        2   -1    0    0  501    0  0.00000000000E+00  0.00000000000E+00 -0.17659139078E+04  0.17659139078E+04  0.25500000920E-02 0.  1.
    10030    2    1    2    0    0  0.00000000000E+00  0.00000000000E+00  0.27582019563E+03  0.38076480112E+04  0.37976448750E+04 0.  0.
        4    1    3    3  502    0  0.97489531669E+03  0.10606952317E+04 -0.11022917842E+04  0.18139856790E+04  0.12699999809E+01 0.  1.
       -4    1    3    3    0  502 -0.97489531669E+03 -0.10606952317E+04  0.13781119798E+04  0.19936623322E+04  0.12699999809E+01 0. -1.
</event>
<event>
 5   0  0.6661000E-08  0.3797497E+04  0.7818609E-02  0.8046692E-01
        1   -1    0    0  501    0  0.00000000000E+00  0.00000000000E+00  0.15061972800E+04  0.15061972801E+04  0.50400001928E-02 0.  1.
       -1   -1    0    0    0  501  0.00000000000E+00  0.00000000000E+00 -0.23936083894E+04  0.23936083894E+04  0.50400001928E-02 0. -1.
    10030    2    1    2    0    0  0.00000000000E+00  0.00000000000E+00 -0.88741110937E+03  0.38998056695E+04  0.37974973052E+04 0.  0.
        4    1    3    3  502    0  0.17250477175E+04 -0.18718334687E+02  0.37082428960E+03  0.17645544113E+04  0.12699999809E+01 0.  1.
       -4    1    3    3    0  502 -0.17250477175E+04  0.18718334687E+02 -0.12582353990E+04  0.21352512582E+04  0.12699999809E+01 0. -1.
</event>
<event>
 5   0  0.1370688E-07  0.3793946E+04  0.7818609E-02  0.8047455E-01
        2   -1    0    0  501    0  0.00000000000E+00  0.00000000000E+00  0.20450709020E+04  0.20450709020E+04  0.25500000920E-02 0. -1.
       -2   -1    0    0    0  501  0.00000000000E+00  0.00000000000E+00 -0.17595995946E+04  0.17595995946E+04  0.25500000920E-02 0.  1.
    10030    2    1    2    0    0  0.00000000000E+00  0.00000000000E+00  0.28547130737E+03  0.38046704966E+04  0.37939456665E+04 0.  0.
        5    1    3    3  502    0  0.30727049918E+03  0.92828181397E+03 -0.14873936879E+04  0.17800236960E+04  0.46999998093E+01 0.  1.
       -5    1    3    3    0  502 -0.30727049918E+03 -0.92828181397E+03  0.17728649952E+04  0.20246468006E+04  0.46999998093E+01 0. -1.
</event>
<event>
 5   0  0.2203998E-07  0.3800719E+04  0.7818609E-02  0.8046001E-01
        2   -1    0    0  501    0  0.00000000000E+00  0.00000000000E+00  0.22644769188E+04  0.22644769188E+04  0.25500000920E-02 0.  1.
       -2   -1    0    0    0  501  0.00000000000E+00  0.00000000000E+00 -0.15947903026E+04  0.15947903026E+04  0.25500000920E-02 0. -1.
    10030    2    1    2    0    0  0.00000000000E+00  0.00000000000E+00  0.66968661628E+03  0.38592672214E+04  0.38007187902E+04 0.  0.
        3    1    3    3  502    0  0.11625693647E+04 -0.37379139203E+03 -0.11436353574E+04  0.16730778145E+04  0.10100000352E+00 0. -1.
       -3    1    3    3    0  502 -0.11625693647E+04  0.37379139203E+03  0.18133219737E+04  0.21861894069E+04  0.10100000352E+00 0.  1.
</event>
<event>
 5   0  0.6661000E-08  0.3793086E+04  0.7818609E-02  0.8047640E-01
        1   -1    0    0  501    0  0.00000000000E+00  0.00000000000E+00  0.25317884677E+04  0.25317884677E+04  0.50400001928E-02 0.  1.
       -1   -1    0    0    0  501  0.00000000000E+00  0.00000000000E+00 -0.14206854409E+04  0.14206854409E+04  0.50400001928E-02 0. -1.
    10030    2    1    2    0    0  0.00000000000E+00  0.00000000000E+00  0.11111030268E+04  0.39524739085E+04  0.37930858231E+04 0.  0.
        4    1    3    3  502    0  0.35768159414E+03 -0.76811673005E+03  0.23235919540E+04  0.24732611296E+04  0.12699999809E+01 0.  1.
       -4    1    3    3    0  502 -0.35768159414E+03  0.76811673005E+03 -0.12124889272E+04  0.14792127789E+04  0.12699999809E+01 0. -1.
</event>
<event>
 5   0  0.6661000E-08  0.3747657E+04  0.7818609E-02  0.8057482E-01
        3   -1    0    0  501    0  0.00000000000E+00  0.00000000000E+00  0.21812386531E+04  0.21812386554E+04  0.10100000352E+00 0. -1.
       -3   -1    0    0    0  501  0.00000000000E+00  0.00000000000E+00 -0.16097428049E+04  0.16097428081E+04  0.10100000352E+00 0.  1.
    10030    2    1    2    0    0  0.00000000000E+00  0.00000000000E+00  0.57149584814E+03  0.37909814635E+04  0.37476569950E+04 0.  0.
        5    1    3    3  502    0  0.36519228783E+03  0.11937668363E+04  0.16993168243E+04  0.21085882542E+04  0.46999998093E+01 0. -1.
       -5    1    3    3    0  502 -0.36519228783E+03 -0.11937668363E+04 -0.11278209762E+04  0.16823932093E+04  0.46999998093E+01 0.  1.
</event>
<event>
 5   0  0.6661000E-08  0.3854851E+04  0.7818609E-02  0.8034485E-01
        1   -1    0    0  501    0  0.00000000000E+00  0.00000000000E+00  0.13668787634E+04  0.13668787634E+04  0.50400001928E-02 0. -1.
       -1   -1    0    0    0  501  0.00000000000E+00  0.00000000000E+00 -0.27178486739E+04  0.27178486739E+04  0.50400001928E-02 0.  1.
    10030    2    1    2    0    0  0.00000000000E+00  0.00000000000E+00 -0.13509699105E+04  0.40847274373E+04  0.38548512991E+04 0.  0.
        1    1    3    3  502    0 -0.61256406778E+03 -0.71060091809E+03 -0.24595686628E+04  0.26324259550E+04  0.50400001928E-02 0.  1.
       -1    1    3    3    0  502  0.61256406778E+03  0.71060091809E+03  0.11085987522E+04  0.14523014823E+04  0.50400001928E-02 0. -1.
</event>
<event>
 5   0  0.2135314E-07  0.3744790E+04  0.7818609E-02  0.8058108E-01
       -2   -1    0    0    0  501  0.00000000000E+00  0.00000000000E+00  0.13075703372E+04  0.13075703372E+04  0.25500000920E-02 0.  1.
        2   -1    0    0  501    0  0.00000000000E+00  0.00000000000E+00 -0.26812048565E+04  0.26812048565E+04  0.25500000920E-02 0. -1.
    10030    2    1    2    0    0  0.00000000000E+00  0.00000000000E+00 -0.13736345193E+04  0.39887751937E+04  0.37447904819E+04 0.  0.
        4    1    3    3  502    0 -0.11339315540E+04  0.13342923425E+03  0.89387072996E+03  0.14500381459E+04  0.12699999809E+01 0.  1.
       -4    1    3    3    0  502  0.11339315540E+04 -0.13342923425E+03 -0.22675052492E+04  0.25387370478E+04  0.12699999809E+01 0. -1.
</event>
<event>
 5   0  0.2203998E-07  0.3828408E+04  0.7818609E-02  0.8040086E-01
        2   -1    0    0  501    0  0.00000000000E+00  0.00000000000E+00  0.18275888775E+04  0.18275888775E+04  0.25500000920E-02 0. -1.
       -2   -1    0    0    0  501  0.00000000000E+00  0.00000000000E+00 -0.20049244673E+04  0.20049244673E+04  0.25500000920E-02 0.  1.
    10030    2    1    2    0    0  0.00000000000E+00  0.00000000000E+00 -0.17733558974E+03  0.38325133448E+04  0.38284083673E+04 0.  0.
        3    1    3    3  502    0  0.12115440649E+04 -0.11572592634E+03  0.13903960763E+04  0.18478183813E+04  0.10100000352E+00 0. -1.
       -3    1    3    3    0  502 -0.12115440649E+04  0.11572592634E+03 -0.15677316660E+04  0.19846949635E+04  0.10100000352E+00 0.  1.
</event>
<event>
 5   0  0.2205204E-07  0.3780271E+04  0.7818609E-02  0.8050402E-01
       -2   -1    0    0    0  501  0.00000000000E+00  0.00000000000E+00  0.13603078085E+04  0.13603078085E+04  0.25500000920E-02 0.  1.
        2   -1    0    0  501    0  0.00000000000E+00  0.00000000000E+00 -0.26263268556E+04  0.26263268556E+04  0.25500000920E-02 0. -1.
    10030    2    1    2    0    0  0.00000000000E+00  0.00000000000E+00 -0.12660190471E+04  0.39866346642E+04  0.37802713815E+04 0.  0.
        2    1    3    3  502    0 -0.16432712130E+04  0.84577857478E+03 -0.21523862851E+03  0.18606475605E+04  0.25500000920E-02 0. -1.
       -2    1    3    3    0  502  0.16432712130E+04 -0.84577857478E+03 -0.10507804186E+04  0.21259871037E+04  0.25500000920E-02 0.  1.
</event>
<event>
 5   0  0.2205204E-07  0.3948775E+04  0.7818609E-02  0.8014961E-01
       -2   -1    0    0    0  501  0.00000000000E+00  0.00000000000E+00  0.20650147051E+04  0.20650147051E+04  0.25500000920E-02 0. -1.
        2   -1    0    0  501    0  0.00000000000E+00  0.00000000000E+00 -0.18877374188E+04  0.18877374188E+04  0.25500000920E-02 0.  1.
    10030    2    1    2    0    0  0.00000000000E+00  0.00000000000E+00  0.17727728630E+03  0.39527521239E+04  0.39487747615E+04 0.  0.
        2    1    3    3  502    0 -0.14723106829E+04 -0.12375103681E+04 -0.35798883620E+03  0.19563452315E+04  0.25500000920E-02 0. -1.
       -2    1    3    3    0  502  0.14723106829E+04  0.12375103681E+04  0.53526612250E+03  0.19964068924E+04  0.25500000920E-02 0.  1.
</event>
<event>
 5   0  0.2135314E-07  0.3775745E+04  0.7818609E-02  0.8051380E-01
        2   -1    0    0  501    0  0.00000000000E+00  0.00000000000E+00  0.19022816533E+04  0.19022816533E+04  0.25500000920E-02 0.  1.
       -2   -1    0    0    0  501  0.00000000000E+00  0.00000000000E+00 -0.18735726848E+04  0.18735726848E+04  0.25500000920E-02 0. -1.
    10030    2    1    2    0    0  0.00000000000E+00  0.00000000000E+00  0.28708968484E+02  0.37758543381E+04  0.37757451950E+04 0.  0.
        4    1    3    3  502    0  0.22744430630E+03  0.17381932226E+04 -0.68639021060E+03  0.18825991941E+04  0.12699999809E+01 0. -1.
       -4    1    3    3    0  502 -0.22744430630E+03 -0.17381932226E+04  0.71509917909E+03  0.18932551440E+04  0.12699999809E+01 0.  1.
</event>
<event>
 5   0  0.1370688E-07  0.3823134E+04  0.7818609E-02  0.8041209E-01
        2   -1    0    0  501    0  0.00000000000E+00  0.00000000000E+00  0.26060971658E+04  0.26060971658E+04  0.25500000920E-02 0.  1.
       -2   -1    0    0    0  501  0.00000000000E+00  0.00000000000E+00 -0.14021305372E+04  0.14021305372E+04  0.25500000920E-02 0. -1.
    10030    2    1    2    0    0  0.00000000000E+00  0.00000000000E+00  0.12039666286E+04  0.40082277030E+04  0.38231340124E+04 0.  0.
        5    1    3    3  502    0  0.44281815868E+03 -0.41871008708E+03  0.25015118985E+04  0.25746824906E+04  0.46999998093E+01 0.  1.
       -5    1    3    3    0  502 -0.44281815868E+03  0.41871008708E+03 -0.12975452699E+04  0.14335452125E+04  0.46999998093E+01 0. -1.
</event>
<event>
 5   0  0.1370688E-07  0.3806768E+04  0.7818609E-02  0.8044704E-01
       -2   -1    0    0    0  501  0.00000000000E+00  0.00000000000E+00  0.12540990215E+04  0.12540990215E+04  0.25500000920E-02 0. -1.
        2   -1    0    0  501    0  0.00000000000E+00  0.00000000000E+00 -0.28888229627E+04  0.28888229628E+04  0.25500000920E-02 0.  1.
    10030    2    1    2    0    0  0.00000000000E+00  0.00000000000E+00 -0.16347239412E+04  0.41429219843E+04  0.38067676845E+04 0.  0.
        5    1    3    3  502    0 -0.35037803560E+03 -0.10830856816E+04 -0.24775197900E+04  0.27265299855E+04  0.46999998093E+01 0.  1.
       -5    1    3    3    0  502  0.35037803560E+03  0.10830856816E+04  0.84279584880E+03  0.14163919988E+04  0.46999998093E+01 0. -1.
</event>
<event>
 5   0  0.2203998E-07  0.3755379E+04  0.7818609E-02  0.8055799E-01
        2   -1    0    0  501    0  0.00000000000E+00  0.00000000000E+00  0.19890701178E+04  0.19890701178E+04  0.25500000920E-02 0.  1.
       -2   -1    0    0    0  501  0.00000000000E+00  0.00000000000E+00 -0.17725460979E+04  0.17725460979E+04  0.25500000920E-02 0. -1.
    10030    2    1    2    0    0  0.00000000000E+00  0.00000000000E+00  0.21652401984E+03  0.37616162157E+04  0.37553793288E+04 0.  0.
        3    1    3    3  502    0 -0.16539128900E+04  0.33487607901E+03 -0.71660344682E+03  0.18333276701E+04  0.10100000352E+00 0. -1.
       -3    1    3    3    0  502  0.16539128900E+04 -0.33487607901E+03  0.93312746666E+03  0.19282885456E+04  0.10100000352E+00 0.  1.
</event>
<event>
 5   0  0.6661000E-08  0.3884543E+04  0.7818609E-02  0.8028252E-01
        1   -1    0    0  501    0  0.00000000000E+00  0.00000000000E+00  0.21635162501E+04  0.21635162501E+04  0.50400001928E-02 0.  1.
       -1   -1    0    0    0  501  0.00000000000E+00  0.00000000000E+00 -0.17436518421E+04  0.17436518421E+04  0.50400001928E-02 0. -1.
    10030    2    1    2    0    0  0.00000000000E+00  0.00000000000E+00  0.41986440798E+03  0.39071680922E+04  0.38845432652E+04 0.  0.
        4    1    3    3  502    0  0.16366821287E+04  0.10437803792E+04  0.27520711505E+03  0.19605984901E+04  0.12699999809E+01 0.  1.
       -4    1    3    3    0  502 -0.16366821287E+04 -0.10437803792E+04  0.14465729293E+03  0.19465696020E+04  0.12699999809E+01 0. -1.
</event>
<event>
 5   0  0.6661000E-08  0.3648882E+04  0.7818609E-02  0.8079386E-01
       -1   -1    0    0    0  501  0.00000000000E+00  0.00000000000E+00  0.15912611280E+04  0.15912611280E+04  0.50400001928E-02 0. -1.
        1   -1    0    0  501    0  0.00000000000E+00  0.00000000000E+00 -0.20917904762E+04  0.20917904762E+04  0.50400001928E-02 0.  1.
    10030    2    1    2    0    0  0.00000000000E+00  0.00000000000E+00 -0.50052934819E+03  0.36830516042E+04  0.36488819507E+04 0.  0.
        1    1    3    3  502    0  0.17283957800E+04 -0.35528404776E+03  0.21776504134E+03  0.17779202289E+04  0.50400001928E-02 0. -1.
       -1    1    3    3    0  502 -0.17283957800E+04  0.35528404776E+03 -0.71829438952E+03  0.19051313753E+04  0.50400001928E-02 0.  1.
</event>
<event>
 5   0  0.2205204E-07  0.3743289E+04  0.7818609E-02  0.8058436E-01
       -2   -1    0    0    0  501  0.00000000000E+00  0.00000000000E+00  0.15533707857E+04  0.15533707857E+04  0.25500000920E-02 0.  1.
        2   -1    0    0  501    0  0.00000000000E+00  0.00000000000E+00 -0.22551304123E+04  0.22551304123E+04  0.25500000920E-02 0. -1.
    10030    2    1    2    0    0  0.00000000000E+00  0.00000000000E+00 -0.70175962653E+03  0.38085011980E+04  0.37432893024E+04 0.  0.
        2    1    3    3  502    0 -0.13722273172E+04 -0.10362633282E+04 -0.11028112169E+04  0.20428025053E+04  0.25500000920E-02 0.  1.
       -2    1    3    3    0  502  0.13722273172E+04  0.10362633282E+04  0.40105159036E+03  0.17656986927E+04  0.25500000920E-02 0. -1.
</event>
<event>
 5   0  0.2135314E-07  0.3801310E+04  0.7818609E-02  0.8045874E-01
        2   -1    0    0  501    0  0.00000000000E+00  0.00000000000E+00  0.20030973789E+04  0.20030973789E+04  0.25500000920E-02 0.  1.
       -2   -1    0    0    0  501  0.00000000000E+00  0.00000000000E+00 -0.18034517384E+04  0.18034517384E+04  0.25500000920E-02 0. -1.
    10030    2    1    2    0    0  0.00000000000E+00  0.00000000000E+00  0.19964564053E+03  0.38065491174E+04  0.38013100112E+04 0.  0.
        4    1    3    3  502    0 -0.13524831836E+03 -0.51636081754E+03 -0.17268533715E+04  0.18074691646E+04  0.12699999809E+01 0. -1.
       -4    1    3    3    0  502  0.13524831836E+03  0.51636081754E+03  0.19264990120E+04  0.19990799528E+04  0.12699999809E+01 0.  1.
</event>
<event>
 5   0  0.6725199E-08  0.3754240E+04  0.7818609E-02  0.8056047E-01
       -1   -1    0    0    0  501  0.00000000000E+00  0.00000000000E+00  0.23752749264E+04  0.23752749265E+04  0.50400001928E-02 0.  1.
        1   -1    0    0  501    0  0.00000000000E+00  0.00000000000E+00 -0.14834403950E+04  0.14834403950E+04  0.50400001928E-02 0. -1.
    10030    2    1    2    0    0  0.00000000000E+00  0.00000000000E+00  0.89183453146E+03  0.38587153214E+04  0.37542396168E+04 0.  0.
        5    1    3    3  502    0 -0.13997376360E+04 -0.42051432234E+03 -0.76476678461E+03  0.16495417757E+04  0.46999998093E+01 0.  1.
       -5    1    3    3    0  502  0.13997376360E+04  0.42051432234E+03  0.16566013161E+04  0.22091735458E+04  0.46999998093E+01 0. -1.
</event>
<event>
 5   0  0.6725199E-08  0.3682237E+04  0.7818609E-02  0.8071910E-01
        1   -1    0    0  501    0  0.00000000000E+00  0.00000000000E+00  0.16311617879E+04  0.16311617879E+04  0.50400001928E-02 0. -1.
       -1   -1    0    0    0  501  0.00000000000E+00  0.00000000000E+00 -0.20781000712E+04  0.20781000712E+04  0.50400001928E-02 0.  1.
    10030    2    1    2    0    0  0.00000000000E+00  0.00000000000E+00 -0.44693828332E+03  0.37092618591E+04  0.36822370524E+04 0.  0.
        5    1    3    3  502    0  0.19763917100E+03  0.57646800129E+03 -0.19735507472E+04  0.20655026604E+04  0.46999998093E+01 0.  1.
       -5    1    3    3    0  502 -0.19763917100E+03 -0.57646800129E+03  0.15266124639E+04  0.16437591987E+04  0.46999998093E+01 0. -1.
</event>
<event>
 5   0  0.2081337E-07  0.3808575E+04  0.7818609E-02  0.8044317E-01
       -2   -1    0    0    0  501  0.00000000000E+00  0.00000000000E+00  0.12822569288E+04  0.12822569288E+04  0.25500000920E-02 0. -1.
        2   -1    0    0  501    0  0.00000000000E+00  0.00000000000E+00 -0.28280686823E+04  0.28280686823E+04  0.25500000920E-02 0.  1.
    10030    2    1    2    0    0  0.00000000000E+00  0.00000000000E+00 -0.15458117535E+04  0.41103256111E+04  0.38085748846E+04 0.  0.
        1    1    3    3  502    0 -0.20209770607E+03  0.49316671377E+03  0.12001229886E+04  0.13131458709E+04  0.50400001928E-02 0. -1.
       -1    1    3    3    0  502  0.20209770607E+03 -0.49316671377E+03 -0.27459347422E+04  0.27971797402E+04  0.50400001928E-02 0.  1.
</event>
<event>
 5   0  0.6725199E-08  0.3685083E+04  0.7818609E-02  0.8071276E-01
       -1   -1    0    0    0  501  0.00000000000E+00  0.00000000000E+00  0.19809858342E+04  0.19809858342E+04  0.50400001928E-02 0.  1.
        1   -1    0    0  501    0  0.00000000000E+00  0.00000000000E+00 -0.17137726395E+04  0.17137726395E+04  0.50400001928E-02 0. -1.
    10030    2    1    2    0    0  0.00000000000E+00  0.00000000000E+00  0.26721319469E+03  0.36947584738E+04  0.36850830775E+04 0.  0.
        5    1    3    3  502    0  0.10104274492E+03  0.75889074506E+03  0.18139581054E+04  0.19689060154E+04  0.46999998093E+01 0.  1.
       -5    1    3    3    0  502 -0.10104274492E+03 -0.75889074506E+03 -0.15467449107E+04  0.17258524584E+04  0.46999998093E+01 0. -1.
</event>
<event>
 5   0  0.6661000E-08  0.3780756E+04  0.7818609E-02  0.8050297E-01
       -1   -1    0    0    0  501  0.00000000000E+00  0.00000000000E+00  0.19155714722E+04  0.19155714722E+04  0.50400001928E-02 0.  1.
        1   -1    0    0  501    0  0.00000000000E+00  0.00000000000E+00 -0.18655158797E+04  0.18655158797E+04  0.50400001928E-02 0. -1.
    10030    2    1    2    0    0  0.00000000000E+00  0.00000000000E+00  0.50055592424E+02  0.37810873519E+04  0.37807560091E+04 0.  0.
        2    1    3    3  502    0  0.14093302764E+04  0.11967792269E+04 -0.36875365333E+03  0.18853306349E+04  0.25500000920E-02 0. -1.
       -2    1    3    3    0  502 -0.14093302764E+04 -0.11967792269E+04  0.41880924576E+03  0.18957567170E+04  0.25500000920E-02 0.  1.
</event>
<event>
 5   0  0.6661000E-08  0.3358307E+04  0.7818609E-02  0.8148216E-01
        1   -1    0    0  501    0  0.00000000000E+00  0.00000000000E+00  0.21321714274E+04  0.21321714274E+04  0.50400001928E-02 0.  1.
       -1   -1    0    0    0  501  0.00000000000E+00  0.00000000000E+00 -0.13223871370E+04  0.13223871370E+04  0.50400001928E-02 0. -1.
    10030    2    1    2    0    0  0.00000000000E+00  0.00000000000E+00  0.80978429042E+03  0.34545585645E+04  0.33583067576E+04 0.  0.
        4    1    3    3  502    0  0.51759311165E+03  0.15347008017E+04 -0.50916360672E+02  0.16204330497E+04  0.12699999809E+01 0. -1.
       -4    1    3    3    0  502 -0.51759311165E+03 -0.15347008017E+04  0.86070065109E+03  0.18341255147E+04  0.12699999809E+01 0.  1.
</event>
<event>
 5   0  0.6661000E-08  0.3746856E+04  0.7818609E-02  0.8057657E-01
       -1   -1    0    0    0  501  0.00000000000E+00  0.00000000000E+00  0.15944557003E+04  0.15944557003E+04  0.50400001928E-02 0.  1.
        1   -1    0    0  501    0  0.00000000000E+00  0.00000000000E+00 -0.22012100616E+04  0.22012100616E+04  0.50400001928E-02 0. -1.
    10030    2    1    2    0    0  0.00000000000E+00  0.00000000000E+00 -0.60675436133E+03  0.37956657619E+04  0.37468557112E+04 0.  0.
        1    1    3    3  502    0 -0.15575202100E+03 -0.12457146472E+04 -0.17120559758E+04  0.21230165658E+04  0.50400001928E-02 0. -1.
       -1    1    3    3    0  502  0.15575202100E+03  0.12457146472E+04  0.11053016144E+04  0.16726491961E+04  0.50400001928E-02 0.  1.
</event>
<event>
 5   0  0.6661000E-08  0.3791997E+04  0.7818609E-02  0.8047875E-01
        1   -1    0    0  501    0  0.00000000000E+00  0.00000000000E+00  0.26536248656E+04  0.26536248656E+04  0.50400001928E-02 0.  1.
       -1   -1    0    0    0  501  0.00000000000E+00  0.00000000000E+00 -0.13546789935E+04  0.13546789935E+04  0.50400001928E-02 0. -1.
    10030    2    1    2    0    0  0.00000000000E+00  0.00000000000E+00  0.12989458721E+04  0.40083038591E+04  0.37919967627E+04 0.  0.
        1    1    3    3  502    0 -0.16286916484E+04  0.84756433597E+03  0.14940322243E+03  0.18420974763E+04  0.50400001928E-02 0. -1.
       -1    1    3    3    0  502  0.16286916484E+04 -0.84756433597E+03  0.11495426496E+04  0.21662063828E+04  0.50400001928E-02 0.  1.
</event>
<event>
 5   0  0.1370688E-07  0.3790532E+04  0.7818609E-02  0.8048190E-01
        2   -1    0    0  501    0  0.00000000000E+00  0.00000000000E+00  0.31044780093E+04  0.31044780093E+04  0.25500000920E-02 0. -1.
       -2   -1    0    0    0  501  0.00000000000E+00  0.00000000000E+00 -0.11570487628E+04  0.11570487628E+04  0.25500000920E-02 0.  1.
    10030    2    1    2    0    0  0.00000000000E+00  0.00000000000E+00  0.19474292465E+04  0.42615267721E+04  0.37905315933E+04 0.  0.
        5    1    3    3  502    0 -0.18896287639E+04  0.53131350612E+02  0.82083839922E+03  0.20609021261E+04  0.46999998093E+01 0. -1.
       -5    1    3    3    0  502  0.18896287639E+04 -0.53131350612E+02  0.11265908473E+04  0.22006246461E+04  0.46999998093E+01 0.  1.
</event>
<event>
 5   0  0.6725199E-08  0.3811220E+04  0.7818609E-02  0.8043751E-01
        1   -1    0    0  501    0  0.00000000000E+00  0.00000000000E+00  0.15263777678E+04  0.15263777678E+04  0.50400001928E-02 0. -1.
       -1   -1    0    0    0  501  0.00000000000E+00  0.00000000000E+00 -0.23790634346E+04  0.23790634346E+04  0.50400001928E-02 0.  1.
    10030    2    1    2    0    0  0.00000000000E+00  0.00000000000E+00 -0.85268566677E+03  0.39054412024E+04  0.38112200329E+04 0.  0.
        5    1    3    3  502    0  0.24424303869E+03  0.26206892284E+03 -0.23442416668E+04  0.23714607027E+04  0.46999998093E+01 0.  1.
       -5    1    3    3    0  502 -0.24424303869E+03 -0.26206892284E+03  0.14915560000E+04  0.15339804997E+04  0.46999998093E+01 0. -1.
</event>
<event>
 5   0  0.2203998E-07  0.3796873E+04  0.7818609E-02  0.8046826E-01
        2   -1    0    0  501    0  0.00000000000E+00  0.00000000000E+00  0.25081300039E+04  0.25081300039E+04  0.25500000920E-02 0. -1.
       -2   -1    0    0    0  501  0.00000000000E+00  0.00000000000E+00 -0.14369513797E+04  0.14369513797E+04  0.25500000920E-02 0.  1.
    10030    2    1    2    0    0  0.00000000000E+00  0.00000000000E+00  0.10711786243E+04  0.39450813836E+04  0.37968728551E+04 0.  0.
        3    1    3    3  502    0 -0.48715143794E+03 -0.94022489065E+03  0.21727598262E+04  0.24170694324E+04  0.10100000352E+00 0. -1.
       -3    1    3    3    0  502  0.48715143794E+03  0.94022489065E+03 -0.11015812019E+04  0.15280119512E+04  0.10100000352E+00 0.  1.
</event>
<event>
 5   0  0.6661000E-08  0.3765090E+04  0.7818609E-02  0.8053688E-01
       -1   -1    0    0    0  501  0.00000000000E+00  0.00000000000E+00  0.25093125617E+04  0.25093125617E+04  0.50400001928E-02 0. -1.
        1   -1    0    0  501    0  0.00000000000E+00  0.00000000000E+00 -0.14123289808E+04  0.14123289808E+04  0.50400001928E-02 0.  1.
    10030    2    1    2    0    0  0.00000000000E+00  0.00000000000E+00  0.10969835809E+04  0.39216415425E+04  0.37650895622E+04 0.  0.
        3    1    3    3  502    0  0.43720208057E+03 -0.18309356909E+04  0.57186775144E+03  0.19673596262E+04  0.10100000352E+00 0. -1.
       -3    1    3    3    0  502 -0.43720208057E+03  0.18309356909E+04  0.52511582942E+03  0.19542819162E+04  0.10100000352E+00 0.  1.
</event>
<event>
 5   0  0.1370688E-07  0.3809251E+04  0.7818609E-02  0.8044173E-01
       -2   -1    0    0    0  501  0.00000000000E+00  0.00000000000E+00  0.19483506414E+04  0.19483506414E+04  0.25500000920E-02 0. -1.
        2   -1    0    0  501    0  0.00000000000E+00  0.00000000000E+00 -0.18618813681E+04  0.18618813681E+04  0.25500000920E-02 0.  1.
    10030    2    1    2    0    0  0.00000000000E+00  0.00000000000E+00  0.86469273347E+02  0.38102320095E+04  0.38092507178E+04 0.  0.
        5    1    3    3  502    0  0.10748349836E+04  0.15470706945E+04  0.32415871215E+03  0.19114912860E+04  0.46999998093E+01 0. -1.
       -5    1    3    3    0  502 -0.10748349836E+04 -0.15470706945E+04 -0.23768943881E+03  0.18987407235E+04  0.46999998093E+01 0.  1.
</event>
<event>
 5   0  0.1370688E-07  0.3794824E+04  0.7818609E-02  0.8047267E-01
       -2   -1    0    0    0  501  0.00000000000E+00  0.00000000000E+00  0.22427781293E+04  0.22427781293E+04  0.25500000920E-02 0. -1.
        2   -1    0    0  501    0  0.00000000000E+00  0.00000000000E+00 -0.16052287646E+04  0.16052287647E+04  0.25500000920E-02 0.  1.
    10030    2    1    2    0    0  0.00000000000E+00  0.00000000000E+00  0.63754936466E+03  0.38480068940E+04  0.37948238251E+04 0.  0.
        5    1    3    3  502    0  0.64575440764E+03  0.13499157596E+04 -0.86414132660E+03  0.17280143621E+04  0.46999998093E+01 0. -1.
       -5    1    3    3    0  502 -0.64575440764E+03 -0.13499157596E+04  0.15016906913E+04  0.21199925319E+04  0.46999998093E+01 0.  1.
</event>
<event>
 5   0  0.2203998E-07  0.3797385E+04  0.7818609E-02  0.8046716E-01
        2   -1    0    0  501    0  0.00000000000E+00  0.00000000000E+00  0.24036928358E+04  0.24036928358E+04  0.25500000920E-02 0. -1.
       -2   -1    0    0    0  501  0.00000000000E+00  0.00000000000E+00 -0.14997891882E+04  0.14997891882E+04  0.25500000920E-02 0.  1.
    10030    2    1    2    0    0  0.00000000000E+00  0.00000000000E+00  0.90390364758E+03  0.39034820240E+04  0.37973846404E+04 0.  0.
        3    1    3    3  502    0 -0.43231996149E+03 -0.32828754283E+03 -0.14183218398E+04  0.15186540460E+04  0.10100000352E+00 0.  1.
       -3    1    3    3    0  502  0.43231996149E+03  0.32828754283E+03  0.23222254874E+04  0.23848279780E+04  0.10100000352E+00 0. -1.
</event>
<event>
 5   0  0.6661000E-08  0.3663601E+04  0.7818609E-02  0.8076077E-01
       -1   -1    0    0    0  501  0.00000000000E+00  0.00000000000E+00  0.15766619568E+04  0.15766619568E+04  0.50400001928E-02 0.  1.
        1   -1    0    0  501    0  0.00000000000E+00  0.00000000000E+00 -0.21282258396E+04  0.21282258396E+04  0.50400001928E-02 0. -1.
    10030    2    1    2    0    0  0.00000000000E+00  0.00000000000E+00 -0.55156388282E+03  0.37048877964E+04  0.36636008062E+04 0.  0.
        1    1    3    3  502    0  0.96180700362E+03  0.82425277723E+03  0.10623945015E+04  0.16532233454E+04  0.50400001928E-02 0.  1.
       -1    1    3    3    0  502 -0.96180700362E+03 -0.82425277723E+03 -0.16139583844E+04  0.20516644510E+04  0.50400001928E-02 0. -1.
</event>
<event>
 5   0  0.2135314E-07  0.3816833E+04  0.7818609E-02  0.8042552E-01
        2   -1    0    0  501    0  0.00000000000E+00  0.00000000000E+00  0.13166736088E+04  0.13166736088E+04  0.25500000920E-02 0. -1.
       -2   -1    0    0    0  501  0.00000000000E+00  0.00000000000E+00 -0.27661027409E+04  0.27661027409E+04  0.25500000920E-02 0.  1.
    10030    2    1    2    0    0  0.00000000000E+00  0.00000000000E+00 -0.14494291321E+04  0.40827763497E+04  0.38168334930E+04 0.  0.
        4    1    3    3  502    0 -0.17071694514E+04  0.74032999957E+03 -0.27147361559E+03  0.18804828053E+04  0.12699999809E+01 0. -1.
       -4    1    3    3    0  502  0.17071694514E+04 -0.74032999957E+03 -0.11779555165E+04  0.22022935444E+04  0.12699999809E+01 0.  1.
</event>
<event>
 5   0  0.2081337E-07  0.3806630E+04  0.7818609E-02  0.8044734E-01
       -2   -1    0    0    0  501  0.00000000000E+00  0.00000000000E+00  0.17498453712E+04  0.17498453712E+04  0.25500000920E-02 0.  1.
        2   -1    0    0  501    0  0.00000000000E+00  0.00000000000E+00 -0.20702446042E+04  0.20702446042E+04  0.25500000920E-02 0. -1.
    10030    2    1    2    0    0  0.00000000000E+00  0.00000000000E+00 -0.32039923296E+03  0.38200899754E+04  0.38066299731E+04 0.  0.
        1    1    3    3  502    0  0.16494541995E+04  0.28808264894E+03  0.74794061841E+03  0.18338772962E+04  0.50400001928E-02 0.  1.
       -1    1    3    3    0  502 -0.16494541995E+04 -0.28808264894E+03 -0.10683398514E+04  0.19862126792E+04  0.50400001928E-02 0. -1.
</event>
<event>
 5   0  0.2203998E-07  0.3800165E+04  0.7818609E-02  0.8046120E-01
       -2   -1    0    0    0  501  0.00000000000E+00  0.00000000000E+00  0.14791779511E+04  0.14791779511E+04  0.25500000920E-02 0.  1.
        2   -1    0    0  501    0  0.00000000000E+00  0.00000000000E+00 -0.24407564453E+04  0.24407564453E+04  0.25500000920E-02 0. -1.
    10030    2    1    2    0    0  0.00000000000E+00  0.00000000000E+00 -0.96157849423E+03  0.39199343963E+04  0.38001647953E+04 0.  0.
        3    1    3    3  502    0 -0.51986955280E+03 -0.16634356105E+04  0.30005663262E+03  0.17684220014E+04  0.10100000352E+00 0.  1.
       -3    1    3    3    0  502  0.51986955280E+03  0.16634356105E+04 -0.12616351268E+04  0.21515123949E+04  0.10100000352E+00 0. -1.
</event>
<event>
 5   0  0.6725199E-08  0.3774097E+04  0.7818609E-02  0.8051737E-01
        1   -1    0    0  501    0  0.00000000000E+00  0.00000000000E+00  0.29343855915E+04  0.29343855915E+04  0.50400001928E-02 0.  1.
       -1   -1    0    0    0  501  0.00000000000E+00  0.00000000000E+00 -0.12135256734E+04  0.12135256734E+04  0.50400001928E-02 0. -1.
    10030    2    1    2    0    0  0.00000000000E+00  0.00000000000E+00  0.17208599181E+04  0.41479112650E+04  0.37740971111E+04 0.  0.
        5    1    3    3  502    0  0.16567970614E+04 -0.69502141403E+03  0.14945515805E+04  0.23370361113E+04  0.46999998093E+01 0.  1.
       -5    1    3    3    0  502 -0.16567970614E+04  0.69502141403E+03  0.22630833759E+03  0.18108751537E+04  0.46999998093E+01 0. -1.
</event>
<event>
 5   0  0.1370688E-07  0.3806016E+04  0.7818609E-02  0.8044865E-01
        2   -1    0    0  501    0  0.00000000000E+00  0.00000000000E+00  0.24060937353E+04  0.24060937354E+04  0.25500000920E-02 0.  1.
       -2   -1    0    0    0  501  0.00000000000E+00  0.00000000000E+00 -0.15051118539E+04  0.15051118539E+04  0.25500000920E-02 0. -1.
    10030    2    1    2    0    0  0.00000000000E+00  0.00000000000E+00  0.90098188142E+03  0.39112055893E+04  0.38060163966E+04 0.  0.
        5    1    3    3  502    0 -0.89968830060E+03 -0.37029191190E+03  0.21311931060E+04  0.23427678680E+04  0.46999998093E+01 0.  1.
       -5    1    3    3    0  502  0.89968830060E+03  0.37029191190E+03 -0.12302112246E+04  0.15684377213E+04  0.46999998093E+01 0. -1.
</event>
<event>
 5   0  0.6661000E-08  0.3795245E+04  0.7818609E-02  0.8047176E-01
        1   -1    0    0  501    0  0.00000000000E+00  0.00000000000E+00  0.21718064286E+04  0.21718064286E+04  0.50400001928E-02 0.  1.
       -1   -1    0    0    0  501  0.00000000000E+00  0.00000000000E+00 -0.16580535555E+04  0.16580535555E+04  0.50400001928E-02 0. -1.
    10030    2    1    2    0    0  0.00000000000E+00  0.00000000000E+00  0.51375287313E+03  0.38298599841E+04  0.37952451151E+04 0.  0.
        1    1    3    3  502    0 -0.13811954490E+04  0.20436161253E+02  0.15698399985E+04  0.20910562225E+04  0.50400001928E-02 0.  1.
       -1    1    3    3    0  502  0.13811954490E+04 -0.20436161253E+02 -0.10560871254E+04  0.17388037616E+04  0.50400001928E-02 0. -1.
</event>
<event>
 5   0  0.2205204E-07  0.3872636E+04  0.7818609E-02  0.8030745E-01
       -2   -1    0    0    0  501  0.00000000000E+00  0.00000000000E+00  0.11234711509E+04  0.11234711509E+04  0.25500000920E-02 0.  1.
        2   -1    0    0  501    0  0.00000000000E+00  0.00000000000E+00 -0.33372702565E+04  0.33372702565E+04  0.25500000920E-02 0. -1.
    10030    2    1    2    0    0  0.00000000000E+00  0.00000000000E+00 -0.22137991055E+04  0.44607414074E+04  0.38726357206E+04 0.  0.
        2    1    3    3  502    0  0.84998199130E+02  0.52400567315E+03 -0.32518136397E+04  0.32948594184E+04  0.25500000920E-02 0. -1.
       -2    1    3    3    0  502 -0.84998199130E+02 -0.52400567315E+03  0.10380145342E+04  0.11658819891E+04  0.25500000920E-02 0.  1.
</event>
<event>
 5   0  0.2135314E-07  0.3841213E+04  0.7818609E-02  0.8037368E-01
       -2   -1    0    0    0  501  0.00000000000E+00  0.00000000000E+00  0.15419783849E+04  0.15419783849E+04  0.25500000920E-02 0.  1.
        2   -1    0    0  501    0  0.00000000000E+00  0.00000000000E+00 -0.23922057934E+04  0.23922057934E+04  0.25500000920E-02 0. -1.
    10030    2    1    2    0    0  0.00000000000E+00  0.00000000000E+00 -0.85022740855E+03  0.39341841783E+04  0.38412131550E+04 0.  0.
        4    1    3    3  502    0  0.13955697686E+04 -0.43905537550E+03  0.84932785453E+03  0.16916690040E+04  0.12699999809E+01 0.  1.
       -4    1    3    3    0  502 -0.13955697686E+04  0.43905537550E+03 -0.16995552631E+04  0.22425151743E+04  0.12699999809E+01 0. -1.
</event>
<event>
 5   0  0.6661000E-08  0.3435514E+04  0.7818609E-02  0.8129245E-01
       -1   -1    0    0    0  501  0.00000000000E+00  0.00000000000E+00  0.16054160484E+04  0.16054160484E+04  0.50400001928E-02 0.  1.
        1   -1    0    0  501    0  0.00000000000E+00  0.00000000000E+00 -0.18379593939E+04  0.18379593939E+04  0.50400001928E-02 0. -1.
    10030    2    1    2    0    0  0.00000000000E+00  0.00000000000E+00 -0.23254334552E+03  0.34433754423E+04  0.34355142307E+04 0.  0.
        2    1    3    3  502    0 -0.47444289504E+03  0.15220974180E+04 -0.75711950569E+03  0.17649664462E+04  0.25500000920E-02 0.  1.
       -2    1    3    3    0  502  0.47444289504E+03 -0.15220974180E+04  0.52457616017E+03  0.16784089961E+04  0.25500000920E-02 0. -1.
</event>
<event>
 5   0  0.6661000E-08  0.3827815E+04  0.7818609E-02  0.8040212E-01
        1   -1    0    0  501    0  0.00000000000E+00  0.00000000000E+00  0.27477510369E+04  0.27477510369E+04  0.50400001928E-02 0. -1.
       -1   -1    0    0    0  501  0.00000000000E+00  0.00000000000E+00 -0.13331056841E+04  0.13331056841E+04  0.50400001928E-02 0.  1.
    10030    2    1    2    0    0  0.00000000000E+00  0.00000000000E+00  0.14146453529E+04  0.40808567210E+04  0.38278153172E+04 0.  0.
        3    1    3    3  502    0  0.22772885271E+03 -0.41594108482E+03  0.26841301136E+04  0.27256965886E+04  0.10100000352E+00 0. -1.
       -3    1    3    3    0  502 -0.22772885271E+03  0.41594108482E+03 -0.12694847607E+04  0.13551601324E+04  0.10100000352E+00 0.  1.
</event>
<event>
 5   0  0.1370688E-07  0.3753015E+04  0.7818609E-02  0.8056314E-01
       -2   -1    0    0    0  501  0.00000000000E+00  0.00000000000E+00  0.12715286881E+04  0.12715286881E+04  0.25500000920E-02 0.  1.
        2   -1    0    0  501    0  0.00000000000E+00  0.00000000000E+00 -0.27693282046E+04  0.27693282046E+04  0.25500000920E-02 0. -1.
    10030    2    1    2    0    0  0.00000000000E+00  0.00000000000E+00 -0.14977995164E+04  0.40408568927E+04  0.37530149261E+04 0.  0.
        5    1    3    3  502    0 -0.12015618246E+04  0.12269787471E+04 -0.15632341430E+04  0.23222727532E+04  0.46999998093E+01 0. -1.
       -5    1    3    3    0  502  0.12015618246E+04 -0.12269787471E+04  0.65434626578E+02  0.17185841395E+04  0.46999998093E+01 0.  1.
</event>
<event>
 5   0  0.6725199E-08  0.3865051E+04  0.7818609E-02  0.8032338E-01
        1   -1    0    0  501    0  0.00000000000E+00  0.00000000000E+00  0.13661075119E+04  0.13661075119E+04  0.50400001928E-02 0.  1.
       -1   -1    0    0    0  501  0.00000000000E+00  0.00000000000E+00 -0.27337921089E+04  0.27337921089E+04  0.50400001928E-02 0. -1.
    10030    2    1    2    0    0  0.00000000000E+00  0.00000000000E+00 -0.13676845970E+04  0.40998996209E+04  0.38650505487E+04 0.  0.
        5    1    3    3  502    0  0.13311500468E+04  0.71246105757E+03 -0.19634006173E+04  0.24767973837E+04  0.46999998093E+01 0. -1.
       -5    1    3    3    0  502 -0.13311500468E+04 -0.71246105757E+03  0.59571602030E+03  0.16231022372E+04  0.46999998093E+01 0.  1.
</event>
<event>
 5   0  0.2205204E-07  0.3790559E+04  0.7818609E-02  0.8048184E-01
       -2   -1    0    0    0  501  0.00000000000E+00  0.00000000000E+00  0.27057417252E+04  0.27057417252E+04  0.25500000920E-02 0. -1.
        2   -1    0    0  501    0  0.00000000000E+00  0.00000000000E+00 -0.13275786731E+04  0.13275786731E+04  0.25500000920E-02 0.  1.
    10030    2    1    2    0    0  0.00000000000E+00  0.00000000000E+00  0.13781630521E+04  0.40333203983E+04  0.37905593304E+04 0.  0.
        2    1    3    3  502    0  0.73311361944E+03  0.12150879016E+04  0.20257976318E+04  0.24734086263E+04  0.25500000920E-02 0. -1.
       -2    1    3    3    0  502 -0.73311361944E+03 -0.12150879016E+04 -0.64763457970E+03  0.15599117720E+04  0.25500000920E-02 0.  1.
</event>
<event>
 5   0  0.2203998E-07  0.3849120E+04  0.7818609E-02  0.8035695E-01
       -2   -1    0    0    0  501  0.00000000000E+00  0.00000000000E+00  0.33977294675E+04  0.33977294675E+04  0.25500000920E-02 0.  1.
        2   -1    0    0  501    0  0.00000000000E+00  0.00000000000E+00 -0.10901196486E+04  0.10901196486E+04  0.25500000920E-02 0. -1.
    10030    2    1    2    0    0  0.00000000000E+00  0.00000000000E+00  0.23076098189E+04  0.44878491160E+04  0.38491202387E+04 0.  0.
        3    1    3    3  502    0 -0.34544139252E+03  0.50020308021E+03  0.32828533257E+04  0.33386612355E+04  0.10100000352E+00 0.  1.
       -3    1    3    3    0  502  0.34544139252E+03 -0.50020308021E+03 -0.97524350676E+03  0.11491878806E+04  0.10100000352E+00 0. -1.
</event>
<event>
 5   0  0.2205204E-07  0.3808435E+04  0.7818609E-02  0.8044347E-01
        2   -1    0    0  501    0  0.00000000000E+00  0.00000000000E+00  0.13973079079E+04  0.13973079079E+04  0.25500000920E-02 0.  1.
       -2   -1    0    0    0  501  0.00000000000E+00  0.00000000000E+00 -0.25950222912E+04  0.25950222912E+04  0.25500000920E-02 0. -1.
    10030    2    1    2    0    0  0.00000000000E+00  0.00000000000E+00 -0.11977143833E+04  0.39923301991E+04  0.38084354628E+04 0.  0.
        2    1    3    3  502    0 -0.89385544462E+03 -0.73899636588E+03 -0.21820650065E+04  0.24711335207E+04  0.25500000920E-02 0. -1.
       -2    1    3    3    0  502  0.89385544462E+03  0.73899636588E+03  0.98435062323E+03  0.15211966783E+04  0.25500000920E-02 0.  1.
</event>
<event>
 5   0  0.6661000E-08  0.3794987E+04  0.7818609E-02  0.8047231E-01
        1   -1    0    0  501    0  0.00000000000E+00  0.00000000000E+00  0.11488398081E+04  0.11488398081E+04  0.50400001928E-02 0. -1.
       -1   -1    0    0    0  501  0.00000000000E+00  0.00000000000E+00 -0.31340159735E+04  0.31340159735E+04  0.50400001928E-02 0.  1.
    10030    2    1    2    0    0  0.00000000000E+00  0.00000000000E+00 -0.19851761654E+04  0.42828557816E+04  0.37949873831E+04 0.  0.
        1    1    3    3  502    0 -0.27358706661E+03  0.15320061940E+04 -0.22177807484E+04  0.27093254344E+04  0.50400001928E-02 0.  1.
       -1    1    3    3    0  502  0.27358706661E+03 -0.15320061940E+04  0.23260458304E+03  0.15735303472E+04  0.50400001928E-02 0. -1.
</event>
<event>
 5   0  0.6661000E-08  0.3800973E+04  0.7818609E-02  0.8045946E-01
       -1   -1    0    0    0  501  0.00000000000E+00  0.00000000000E+00  0.15948007364E+04  0.15948007365E+04  0.50400001928E-02 0. -1.
        1   -1    0    0  501    0  0.00000000000E+00  0.00000000000E+00 -0.22647649348E+04  0.22647649348E+04  0.50400001928E-02 0.  1.
    10030    2    1    2    0    0  0.00000000000E+00  0.00000000000E+00 -0.66996419835E+03  0.38595656712E+04  0.38009729207E+04 0.  0.
        3    1    3    3  502    0  0.11784116046E+04  0.14139278791E+04  0.14560311038E+03  0.18463602663E+04  0.10100000352E+00 0. -1.
       -3    1    3    3    0  502 -0.11784116046E+04 -0.14139278791E+04 -0.81556730873E+03  0.20132054049E+04  0.10100000352E+00 0.  1.
</event>
<event>
 5   0  0.1370688E-07  0.3800716E+04  0.7818609E-02  0.8046001E-01
        2   -1    0    0  501    0  0.00000000000E+00  0.00000000000E+00  0.30361895257E+04  0.30361895257E+04  0.25500000920E-02 0. -1.
       -2   -1    0    0    0  501  0.00000000000E+00  0.00000000000E+00 -0.11894383578E+04  0.11894383578E+04  0.25500000920E-02 0.  1.
    10030    2    1    2    0    0  0.00000000000E+00  0.00000000000E+00  0.18467511679E+04  0.42256278836E+04  0.38007158713E+04 0.  0.
        5    1    3    3  502    0 -0.10634790567E+04 -0.13815781558E+04  0.17639361774E+04  0.24801691137E+04  0.46999998093E+01 0. -1.
       -5    1    3    3    0  502  0.10634790567E+04  0.13815781558E+04  0.82814990571E+02  0.17454587699E+04  0.46999998093E+01 0.  1.
</event>
<event>
 5   0  0.6661000E-08  0.3743063E+04  0.7818609E-02  0.8058485E-01
       -1   -1    0    0    0  501  0.00000000000E+00  0.00000000000E+00  0.16869377457E+04  0.16869377457E+04  0.50400001928E-02 0. -1.
        1   -1    0    0  501    0  0.00000000000E+00  0.00000000000E+00 -0.20763240743E+04  0.20763240743E+04  0.50400001928E-02 0.  1.
    10030    2    1    2    0    0  0.00000000000E+00  0.00000000000E+00 -0.38938632858E+03  0.37632618200E+04  0.37430626248E+04 0.  0.
        3    1    3    3  502    0 -0.82299020921E+03  0.82498456323E+03 -0.16670814078E+04  0.20339795585E+04  0.10100000352E+00 0. -1.
       -3    1    3    3    0  502  0.82299020921E+03 -0.82498456323E+03  0.12776950793E+04  0.17292822615E+04  0.10100000352E+00 0.  1.
</event>
<event>
 5   0  0.6661000E-08  0.3790230E+04  0.7818609E-02  0.8048255E-01
       -1   -1    0    0    0  501  0.00000000000E+00  0.00000000000E+00  0.21385588062E+04  0.21385588062E+04  0.50400001928E-02 0. -1.
        1   -1    0    0  501    0  0.00000000000E+00  0.00000000000E+00 -0.16793838303E+04  0.16793838303E+04  0.50400001928E-02 0.  1.
    10030    2    1    2    0    0  0.00000000000E+00  0.00000000000E+00  0.45917497592E+03  0.38179426365E+04  0.37902301140E+04 0.  0.
        2    1    3    3  502    0  0.35513776338E+03  0.18146782906E+04 -0.18851470930E+03  0.18586871509E+04  0.25500000920E-02 0.  1.
       -2    1    3    3    0  502 -0.35513776338E+03 -0.18146782906E+04  0.64768968522E+03  0.19592554856E+04  0.25500000920E-02 0. -1.
</event>
<event>
 5   0  0.1370688E-07  0.3812777E+04  0.7818609E-02  0.8043419E-01
       -2   -1    0    0    0  501  0.00000000000E+00  0.00000000000E+00  0.15099848535E+04  0.15099848535E+04  0.25500000920E-02 0.  1.
        2   -1    0    0  501    0  0.00000000000E+00  0.00000000000E+00 -0.24068566531E+04  0.24068566531E+04  0.25500000920E-02 0. -1.
    10030    2    1    2    0    0  0.00000000000E+00  0.00000000000E+00 -0.89687179957E+03  0.39168415066E+04  0.38127769883E+04 0.  0.
        5    1    3    3  502    0  0.14172757018E+04  0.35427329332E+03  0.80978494013E+03  0.16703154554E+04  0.46999998093E+01 0.  1.
       -5    1    3    3    0  502 -0.14172757018E+04 -0.35427329332E+03 -0.17066567397E+04  0.22465260511E+04  0.46999998093E+01 0. -1.
</event>
<event>
 5   0  0.6661000E-08  0.3987245E+04  0.7818609E-02  0.8007125E-01
       -1   -1    0    0    0  501  0.00000000000E+00  0.00000000000E+00  0.19210748904E+04  0.19210748904E+04  0.50400001928E-02 0. -1.
        1   -1    0    0  501    0  0.00000000000E+00  0.00000000000E+00 -0.20689093294E+04  0.20689093294E+04  0.50400001928E-02 0.  1.
    10030    2    1    2    0    0  0.00000000000E+00  0.00000000000E+00 -0.14783443898E+03  0.39899842198E+04  0.39872445439E+04 0.  0.
        1    1    3    3  502    0 -0.13711327659E+04 -0.27862201572E+02  0.13740560741E+04  0.19413426948E+04  0.50400001928E-02 0. -1.
       -1    1    3    3    0  502  0.13711327659E+04  0.27862201572E+02 -0.15218905131E+04  0.20486415250E+04  0.50400001928E-02 0.  1.
</event>
<event>
 5   0  0.2203998E-07  0.3818624E+04  0.7818609E-02  0.8042170E-01
        2   -1    0    0  501    0  0.00000000000E+00  0.00000000000E+00  0.24272571058E+04  0.24272571058E+04  0.25500000920E-02 0. -1.
       -2   -1    0    0    0  501  0.00000000000E+00  0.00000000000E+00 -0.15018900322E+04  0.15018900322E+04  0.25500000920E-02 0.  1.
    10030    2    1    2    0    0  0.00000000000E+00  0.00000000000E+00  0.92536707361E+03  0.39291471379E+04  0.38186244919E+04 0.  0.
        3    1    3    3  502    0  0.10785032134E+04 -0.14608028642E+04  0.10699857858E+04  0.21076014285E+04  0.10100000352E+00 0. -1.
       -3    1    3    3    0  502 -0.10785032134E+04  0.14608028642E+04 -0.14461871217E+03  0.18215457094E+04  0.10100000352E+00 0.  1.
</event>
<event>
 5   0  0.2081337E-07  0.3646409E+04  0.7818609E-02  0.8079943E-01
       -2   -1    0    0    0  501  0.00000000000E+00  0.00000000000E+00  0.13469580840E+04  0.13469580840E+04  0.25500000920E-02 0. -1.
        2   -1    0    0  501    0  0.00000000000E+00  0.00000000000E+00 -0.24678376046E+04  0.24678376046E+04  0.25500000920E-02 0.  1.
    10030    2    1    2    0    0  0.00000000000E+00  0.00000000000E+00 -0.11208795206E+04  0.38147956886E+04  0.36464085408E+04 0.  0.
        1    1    3    3  502    0 -0.11999856469E+04 -0.11985792119E+04  0.13941884270E+03  0.17017624081E+04  0.50400001928E-02 0.  1.
       -1    1    3    3    0  502  0.11999856469E+04  0.11985792119E+04 -0.12602983633E+04  0.21130332805E+04  0.50400001928E-02 0. -1.
</event>
<event>
 5   0  0.2203998E-07  0.3569704E+04  0.7818609E-02  0.8097467E-01
        2   -1    0    0  501    0  0.00000000000E+00  0.00000000000E+00  0.11135154505E+04  0.11135154505E+04  0.25500000920E-02 0.  1.
       -2   -1    0    0    0  501  0.00000000000E+00  0.00000000000E+00 -0.28609367536E+04  0.28609367536E+04  0.25500000920E-02 0. -1.
    10030    2    1    2    0    0  0.00000000000E+00  0.00000000000E+00 -0.17474213032E+04  0.39744522041E+04  0.35697043452E+04 0.  0.
        3    1    3    3  502    0 -0.10207536060E+04  0.14454888975E+04 -0.61421524669E+03  0.18731354613E+04  0.10100000352E+00 0.  1.
       -3    1    3    3    0  502  0.10207536060E+04 -0.14454888975E+04 -0.11332060565E+04  0.21013167428E+04  0.10100000352E+00 0. -1.
</event>
<event>
 5   0  0.1370688E-07  0.3792730E+04  0.7818609E-02  0.8047717E-01
        2   -1    0    0  501    0  0.00000000000E+00  0.00000000000E+00  0.21581823207E+04  0.21581823207E+04  0.25500000920E-02 0.  1.
       -2   -1    0    0    0  501  0.00000000000E+00  0.00000000000E+00 -0.16663100482E+04  0.16663100482E+04  0.25500000920E-02 0. -1.
    10030    2    1    2    0    0  0.00000000000E+00  0.00000000000E+00  0.49187227251E+03  0.38244923689E+04  0.37927303552E+04 0.  0.
        5    1    3    3  502    0 -0.88860413260E+03  0.16085188186E+04  0.71807585599E+03  0.19729686058E+04  0.46999998093E+01 0.  1.
       -5    1    3    3    0  502  0.88860413260E+03 -0.16085188186E+04 -0.22620358348E+03  0.18515237632E+04  0.46999998093E+01 0. -1.
</event>
<event>
 5   0  0.2135314E-07  0.3794412E+04  0.7818609E-02  0.8047355E-01
       -2   -1    0    0    0  501  0.00000000000E+00  0.00000000000E+00  0.16349146939E+04  0.16349146939E+04  0.25500000920E-02 0. -1.
        2   -1    0    0  501    0  0.00000000000E+00  0.00000000000E+00 -0.22015775837E+04  0.22015775837E+04  0.25500000920E-02 0.  1.
    10030    2    1    2    0    0  0.00000000000E+00  0.00000000000E+00 -0.56666288975E+03  0.38364922776E+04  0.37944124928E+04 0.  0.
        4    1    3    3  502    0 -0.82817776833E+03 -0.97718409404E+03 -0.16983599387E+04  0.21272506349E+04  0.12699999809E+01 0.  1.
       -4    1    3    3    0  502  0.82817776833E+03  0.97718409404E+03  0.11316970489E+04  0.17092416427E+04  0.12699999809E+01 0. -1.
</event>
<event>
 5   0  0.6661000E-08  0.3704224E+04  0.7818609E-02  0.8067026E-01
       -1   -1    0    0    0  501  0.00000000000E+00  0.00000000000E+00  0.15159472655E+04  0.15159472655E+04  0.50400001928E-02 0. -1.
        1   -1    0    0  501    0  0.00000000000E+00  0.00000000000E+00 -0.22628224663E+04  0.22628224663E+04  0.50400001928E-02 0.  1.
    10030    2    1    2    0    0  0.00000000000E+00  0.00000000000E+00 -0.74687520082E+03  0.37787697318E+04  0.37042243615E+04 0.  0.
        3    1    3    3  502    0  0.27790308489E+03 -0.17036213574E+03  0.14864554534E+04  0.15217763328E+04  0.10100000352E+00 0. -1.
       -3    1    3    3    0  502 -0.27790308489E+03  0.17036213574E+03 -0.22333306542E+04  0.22569933990E+04  0.10100000352E+00 0.  1.
</event>
<event>
 5   0  0.1370688E-07  0.3832191E+04  0.7818609E-02  0.8039282E-01
        2   -1    0    0  501    0  0.00000000000E+00  0.00000000000E+00  0.21836200336E+04  0.21836200336E+04  0.25500000920E-02 0.  1.
       -2   -1    0    0    0  501  0.00000000000E+00  0.00000000000E+00 -0.16813466590E+04  0.16813466590E+04  0.25500000920E-02 0. -1.
    10030    2    1    2    0    0  0.00000000000E+00  0.00000000000E+00  0.50227337451E+03  0.38649666926E+04  0.38321911477E+04 0.  0.
        5    1    3    3  502    0  0.42100307376E+02  0.18032906920E+04 -0.40074296698E+03  0.18477680513E+04  0.46999998093E+01 0. -1.
       -5    1    3    3    0  502 -0.42100307376E+02 -0.18032906920E+04  0.90301634149E+03  0.20171986413E+04  0.46999998093E+01 0.  1.
</event>
<event>
 5   0  0.6661000E-08  0.3784599E+04  0.7818609E-02  0.8049468E-01
       -3   -1    0    0    0  501  0.00000000000E+00  0.00000000000E+00  0.23137590445E+04  0.23137590467E+04  0.10100000352E+00 0. -1.
        3   -1    0    0  501    0  0.00000000000E+00  0.00000000000E+00 -0.15476105646E+04  0.15476105679E+04  0.10100000352E+00 0.  1.
    10030    2    1    2    0    0  0.00000000000E+00  0.00000000000E+00  0.76614847989E+03  0.38613696146E+04  0.37845992928E+04 0.  0.
        3    1    3    3  502    0 -0.15338052566E+04 -0.85398303054E+03  0.11037684141E+04  0.20736803765E+04  0.10100000352E+00 0. -1.
       -3    1    3    3    0  502  0.15338052566E+04  0.85398303054E+03 -0.33761993424E+03  0.17876892381E+04  0.10100000352E+00 0.  1.
</event>
<event>
 5   0  0.6661000E-08  0.3806031E+04  0.7818609E-02  0.8044862E-01
       -3   -1    0    0    0  501  0.00000000000E+00  0.00000000000E+00  0.17526372937E+04  0.17526372966E+04  0.10100000352E+00 0.  1.
        3   -1    0    0  501    0  0.00000000000E+00  0.00000000000E+00 -0.20662964994E+04  0.20662965019E+04  0.10100000352E+00 0. -1.
    10030    2    1    2    0    0  0.00000000000E+00  0.00000000000E+00 -0.31365920567E+03  0.38189337985E+04  0.38060311691E+04 0.  0.
        5    1    3    3  502    0  0.11007521666E+04 -0.14437819072E+04 -0.72910042781E+03  0.19564690265E+04  0.46999998093E+01 0. -1.
       -5    1    3    3    0  502 -0.11007521666E+04  0.14437819072E+04  0.41544122214E+03  0.18624647720E+04  0.46999998093E+01 0.  1.
</event>
<event>
 5   0  0.6725199E-08  0.3806361E+04  0.7818609E-02  0.8044791E-01
        1   -1    0    0  501    0  0.00000000000E+00  0.00000000000E+00  0.16714953685E+04  0.16714953685E+04  0.50400001928E-02 0. -1.
       -1   -1    0    0    0  501  0.00000000000E+00  0.00000000000E+00 -0.21669791714E+04  0.21669791714E+04  0.50400001928E-02 0.  1.
    10030    2    1    2    0    0  0.00000000000E+00  0.00000000000E+00 -0.49548380297E+03  0.38384745399E+04  0.38063608072E+04 0.  0.
        5    1    3    3  502    0  0.11453380708E+04 -0.13811199551E+04  0.39226359199E+03  0.18366231084E+04  0.46999998093E+01 0. -1.
       -5    1    3    3    0  502 -0.11453380708E+04  0.13811199551E+04 -0.88774739496E+03  0.20018514315E+04  0.46999998093E+01 0.  1.
</event>
<event>
 5   0  0.1370688E-07  0.3738322E+04  0.7818609E-02  0.8059522E-01
        2   -1    0    0  501    0  0.00000000000E+00  0.00000000000E+00  0.21016961161E+04  0.21016961161E+04  0.25500000920E-02 0.  1.
       -2   -1    0    0    0  501  0.00000000000E+00  0.00000000000E+00 -0.16623540878E+04  0.16623540878E+04  0.25500000920E-02 0. -1.
    10030    2    1    2    0    0  0.00000000000E+00  0.00000000000E+00  0.43934202828E+03  0.37640502040E+04  0.37383221531E+04 0.  0.
        5    1    3    3  502    0  0.13637734005E+04 -0.92704492026E+03 -0.66641446264E+03  0.17786007135E+04  0.46999998093E+01 0. -1.
       -5    1    3    3    0  502 -0.13637734005E+04  0.92704492026E+03  0.11057564909E+04  0.19854494905E+04  0.46999998093E+01 0.  1.
</event>
<event>
 5   0  0.6661000E-08  0.3811333E+04  0.7818609E-02  0.8043727E-01
       -1   -1    0    0    0  501  0.00000000000E+00  0.00000000000E+00  0.28215728076E+04  0.28215728076E+04  0.50400001928E-02 0. -1.
        1   -1    0    0  501    0  0.00000000000E+00  0.00000000000E+00 -0.12870708953E+04  0.12870708953E+04  0.50400001928E-02 0.  1.
    10030    2    1    2    0    0  0.00000000000E+00  0.00000000000E+00  0.15345019122E+04  0.41086437029E+04  0.38113327011E+04 0.  0.
        3    1    3    3  502    0  0.10349076321E+04 -0.62504128355E+03 -0.82069917101E+03  0.14612520496E+04  0.10100000352E+00 0.  1.
       -3    1    3    3    0  502 -0.10349076321E+04  0.62504128355E+03  0.23552010832E+04  0.26473916533E+04  0.10100000352E+00 0. -1.
</event>
<event>
 5   0  0.6661000E-08  0.3831912E+04  0.7818609E-02  0.8039341E-01
       -1   -1    0    0    0  501  0.00000000000E+00  0.00000000000E+00  0.24464190766E+04  0.24464190766E+04  0.50400001928E-02 0. -1.
        1   -1    0    0  501    0  0.00000000000E+00  0.00000000000E+00 -0.15005146211E+04  0.15005146211E+04  0.50400001928E-02 0.  1.
    10030    2    1    2    0    0  0.00000000000E+00  0.00000000000E+00  0.94590445543E+03  0.39469336977E+04  0.38319121044E+04 0.  0.
        3    1    3    3  502    0  0.13806429626E+04  0.59817818132E+03  0.16946821366E+04  0.22662611679E+04  0.10100000352E+00 0. -1.
       -3    1    3    3    0  502 -0.13806429626E+04 -0.59817818132E+03 -0.74877768112E+03  0.16806725299E+04  0.10100000352E+00 0.  1.
</event>
<event>
 5   0  0.1370688E-07  0.3886618E+04  0.7818609E-02  0.8027818E-01
        2   -1    0    0  501    0  0.00000000000E+00  0.00000000000E+00  0.24209331502E+04  0.24209331502E+04  0.25500000920E-02 0.  1.
       -2   -1    0    0    0  501  0.00000000000E+00  0.00000000000E+00 -0.15599148982E+04  0.15599148982E+04  0.25500000920E-02 0. -1.
    10030    2    1    2    0    0  0.00000000000E+00  0.00000000000E+00  0.86101825206E+03  0.39808480484E+04  0.38866179069E+04 0.  0.
        5    1    3    3  502    0  0.86477762625E+03 -0.16506914826E+04 -0.13403920750E+03  0.18683177761E+04  0.46999998093E+01 0.  1.
       -5    1    3    3    0  502 -0.86477762625E+03  0.16506914826E+04  0.99505745957E+03  0.21125302723E+04  0.46999998093E+01 0. -1.
</event>
<event>
 5   0  0.6661000E-08  0.3806808E+04  0.7818609E-02  0.8044696E-01
        1   -1    0    0  501    0  0.00000000000E+00  0.00000000000E+00  0.16162285836E+04  0.16162285836E+04  0.50400001928E-02 0.  1.
       -1   -1    0    0    0  501  0.00000000000E+00  0.00000000000E+00 -0.22416050871E+04  0.22416050871E+04  0.50400001928E-02 0. -1.
    10030    2    1    2    0    0  0.00000000000E+00  0.00000000000E+00 -0.62537650343E+03  0.38578336707E+04  0.38068076993E+04 0.  0.
        1    1    3    3  502    0 -0.10482239892E+04  0.13627602467E+04  0.51499486457E+03  0.17947447540E+04  0.50400001928E-02 0.  1.
       -1    1    3    3    0  502  0.10482239892E+04 -0.13627602467E+04 -0.11403713680E+04  0.20630889167E+04  0.50400001928E-02 0. -1.
</event>
<event>
 5   0  0.6725199E-08  0.3625219E+04  0.7818609E-02  0.8084739E-01
        1   -1    0    0  501    0  0.00000000000E+00  0.00000000000E+00  0.26587741420E+04  0.26587741420E+04  0.50400001928E-02 0. -1.
       -1   -1    0    0    0  501  0.00000000000E+00  0.00000000000E+00 -0.12357399769E+04  0.12357399769E+04  0.50400001928E-02 0.  1.
    10030    2    1    2    0    0  0.00000000000E+00  0.00000000000E+00  0.14230341651E+04  0.38945141189E+04  0.36252191640E+04 0.  0.
        5    1    3    3  502    0  0.10359380366E+04  0.50661397965E+03  0.22138659951E+04  0.24962071377E+04  0.46999998093E+01 0. -1.
       -5    1    3    3    0  502 -0.10359380366E+04 -0.50661397965E+03 -0.79083183005E+03  0.13983069811E+04  0.46999998093E+01 0.  1.
</event>
<event>
 5   0  0.6661000E-08  0.3764809E+04  0.7818609E-02  0.8053749E-01
        1   -1    0    0  501    0  0.00000000000E+00  0.00000000000E+00  0.11383490370E+04  0.11383490370E+04  0.50400001928E-02 0.  1.
       -1   -1    0    0    0  501  0.00000000000E+00  0.00000000000E+00 -0.31127950523E+04  0.31127950523E+04  0.50400001928E-02 0. -1.
    10030    2    1    2    0    0  0.00000000000E+00  0.00000000000E+00 -0.19744460154E+04  0.42511440893E+04  0.37648092914E+04 0.  0.
        4    1    3    3  502    0 -0.16045462881E+03  0.11844960620E+04  0.65481817826E+03  0.13629251881E+04  0.12699999809E+01 0.  1.
       -4    1    3    3    0  502  0.16045462881E+03 -0.11844960620E+04 -0.26292641936E+04  0.28882189013E+04  0.12699999809E+01 0. -1.
</event>
<event>
 5   0  0.6661000E-08  0.3778808E+04  0.7818609E-02  0.8050718E-01
       -1   -1    0    0    0  501  0.00000000000E+00  0.00000000000E+00  0.16485518981E+04  0.16485518982E+04  0.50400001928E-02 0.  1.
        1   -1    0    0  501    0  0.00000000000E+00  0.00000000000E+00 -0.21654446218E+04  0.21654446218E+04  0.50400001928E-02 0. -1.
    10030    2    1    2    0    0  0.00000000000E+00  0.00000000000E+00 -0.51689272368E+03  0.38139965200E+04  0.37788081940E+04 0.  0.
        2    1    3    3  502    0  0.51929143494E+03 -0.15192486645E+04 -0.12637473475E+04  0.20432418989E+04  0.25500000920E-02 0. -1.
       -2    1    3    3    0  502 -0.51929143494E+03  0.15192486645E+04  0.74685462380E+03  0.17707546211E+04  0.25500000920E-02 0.  1.
</event>
<event>
 5   0  0.2205204E-07  0.3801233E+04  0.7818609E-02  0.8045890E-01
        2   -1    0    0  501    0  0.00000000000E+00  0.00000000000E+00  0.29303136302E+04  0.29303136302E+04  0.25500000920E-02 0.  1.
       -2   -1    0    0    0  501  0.00000000000E+00  0.00000000000E+00 -0.12327499454E+04  0.12327499454E+04  0.25500000920E-02 0. -1.
    10030    2    1    2    0    0  0.00000000000E+00  0.00000000000E+00  0.16975636848E+04  0.41630635756E+04  0.38012334670E+04 0.  0.
        2    1    3    3  502    0  0.16683872312E+04  0.26932115708E+03 -0.10364990519E+03  0.16931606958E+04  0.25500000920E-02 0. -1.
       -2    1    3    3    0  502 -0.16683872312E+04 -0.26932115708E+03  0.18012135900E+04  0.24699028798E+04  0.25500000920E-02 0.  1.
</event>
<event>
 5   0  0.2203998E-07  0.3806263E+04  0.7818609E-02  0.8044812E-01
       -2   -1    0    0    0  501  0.00000000000E+00  0.00000000000E+00  0.23875563565E+04  0.23875563565E+04  0.25500000920E-02 0. -1.
        2   -1    0    0  501    0  0.00000000000E+00  0.00000000000E+00 -0.15169941033E+04  0.15169941033E+04  0.25500000920E-02 0.  1.
    10030    2    1    2    0    0  0.00000000000E+00  0.00000000000E+00  0.87056225326E+03  0.39045504598E+04  0.38062626888E+04 0.  0.
        3    1    3    3  502    0 -0.69058615659E+03 -0.55746501592E+03  0.21622718818E+04  0.23373267176E+04  0.10100000352E+00 0. -1.
       -3    1    3    3    0  502  0.69058615659E+03  0.55746501592E+03 -0.12917096285E+04  0.15672237422E+04  0.10100000352E+00 0.  1.
</event>
<event>
 5   0  0.2135314E-07  0.3798267E+04  0.7818609E-02  0.8046527E-01
        2   -1    0    0  501    0  0.00000000000E+00  0.00000000000E+00  0.15968904569E+04  0.15968904569E+04  0.25500000920E-02 0.  1.
       -2   -1    0    0    0  501  0.00000000000E+00  0.00000000000E+00 -0.22585819285E+04  0.22585819285E+04  0.25500000920E-02 0. -1.
    10030    2    1    2    0    0  0.00000000000E+00  0.00000000000E+00 -0.66169147162E+03  0.38554723853E+04  0.37982669351E+04 0.  0.
        4    1    3    3  502    0  0.14823141310E+04  0.65341263364E+03  0.67529578188E+03  0.17550581924E+04  0.12699999809E+01 0. -1.
       -4    1    3    3    0  502 -0.14823141310E+04 -0.65341263364E+03 -0.13369872535E+04  0.21004141929E+04  0.12699999809E+01 0.  1.
</event>
<event>
 5   0  0.6661000E-08  0.3829899E+04  0.7818609E-02  0.8039769E-01
       -1   -1    0    0    0  501  0.00000000000E+00  0.00000000000E+00  0.32470531098E+04  0.32470531098E+04  0.50400001928E-02 0. -1.
        1   -1    0    0  501    0  0.00000000000E+00  0.00000000000E+00 -0.11293411564E+04  0.11293411564E+04  0.50400001928E-02 0.  1.
    10030    2    1    2    0    0  0.00000000000E+00  0.00000000000E+00  0.21177119533E+04  0.43763942662E+04  0.38298985438E+04 0.  0.
        3    1    3    3  502    0 -0.77835931538E+03  0.74475311130E+03  0.28679687873E+04  0.30636163917E+04  0.10100000352E+00 0. -1.
       -3    1    3    3    0  502  0.77835931538E+03 -0.74475311130E+03 -0.75025683394E+03  0.13127778745E+04  0.10100000352E+00 0.  1.
</event>
<event>
 5   0  0.2081337E-07  0.3808976E+04  0.7818609E-02  0.8044231E-01
        2   -1    0    0  501    0  0.00000000000E+00  0.00000000000E+00  0.14531756121E+04  0.14531756121E+04  0.25500000920E-02 0.  1.
       -2   -1    0    0    0  501  0.00000000000E+00  0.00000000000E+00 -0.24959642818E+04  0.24959642818E+04  0.25500000920E-02 0. -1.
    10030    2    1    2    0    0  0.00000000000E+00  0.00000000000E+00 -0.10427886697E+04  0.39491398940E+04  0.38089759375E+04 0.  0.
        1    1    3    3  502    0 -0.45261570880E+03 -0.35938683129E+02  0.13962403048E+04  0.14682096436E+04  0.50400001928E-02 0.  1.
       -1    1    3    3    0  502  0.45261570880E+03  0.35938683129E+02 -0.24390289745E+04  0.24809302504E+04  0.50400001928E-02 0. -1.
</event>
<event>
 5   0  0.1370688E-07  0.3697600E+04  0.7818609E-02  0.8068494E-01
        2   -1    0    0  501    0  0.00000000000E+00  0.00000000000E+00  0.10848249130E+04  0.10848249131E+04  0.25500000920E-02 0.  1.
       -2   -1    0    0    0  501  0.00000000000E+00  0.00000000000E+00 -0.31507950065E+04  0.31507950065E+04  0.25500000920E-02 0. -1.
    10030    2    1    2    0    0  0.00000000000E+00  0.00000000000E+00 -0.20659700935E+04  0.42356199196E+04  0.36975997182E+04 0.  0.
        5    1    3    3  502    0 -0.63793673524E+03  0.17333022703E+04 -0.93895036245E+03  0.20719435107E+04  0.46999998093E+01 0. -1.
       -5    1    3    3    0  502  0.63793673524E+03 -0.17333022703E+04 -0.11270197310E+04  0.21636764089E+04  0.46999998093E+01 0.  1.
</event>
<event>
 5   0  0.6661000E-08  0.3813972E+04  0.7818609E-02  0.8043163E-01
        1   -1    0    0  501    0  0.00000000000E+00  0.00000000000E+00  0.26290672439E+04  0.26290672439E+04  0.50400001928E-02 0. -1.
       -1   -1    0    0    0  501  0.00000000000E+00  0.00000000000E+00 -0.13832267200E+04  0.13832267200E+04  0.50400001928E-02 0.  1.
    10030    2    1    2    0    0  0.00000000000E+00  0.00000000000E+00  0.12458405239E+04  0.40122939640E+04  0.38139722393E+04 0.  0.
        4    1    3    3  502    0  0.14596679887E+04  0.11456986573E+04  0.10854868648E+04  0.21497765924E+04  0.12699999809E+01 0. -1.
       -4    1    3    3    0  502 -0.14596679887E+04 -0.11456986573E+04  0.16035365910E+03  0.18625173716E+04  0.12699999809E+01 0.  1.
</event>
<event>
 5   0  0.6661000E-08  0.3726460E+04  0.7818609E-02  0.8062123E-01
       -1   -1    0    0    0  501  0.00000000000E+00  0.00000000000E+00  0.17562553081E+04  0.17562553081E+04  0.50400001928E-02 0. -1.
        1   -1    0    0  501    0  0.00000000000E+00  0.00000000000E+00 -0.19767207687E+04  0.19767207687E+04  0.50400001928E-02 0.  1.
    10030    2    1    2    0    0  0.00000000000E+00  0.00000000000E+00 -0.22046546063E+03  0.37329760768E+04  0.37264601662E+04 0.  0.
        2    1    3    3  502    0  0.97274420416E+03  0.39404112766E+03  0.14319807675E+04  0.17754066057E+04  0.25500000920E-02 0. -1.
       -2    1    3    3    0  502 -0.97274420416E+03 -0.39404112766E+03 -0.16524462282E+04  0.19575694711E+04  0.25500000920E-02 0.  1.
</event>
<event>
 5   0  0.1370688E-07  0.3762625E+04  0.7818609E-02  0.8054223E-01
       -2   -1    0    0    0  501  0.00000000000E+00  0.00000000000E+00  0.13765784812E+04  0.13765784812E+04  0.25500000920E-02 0. -1.
        2   -1    0    0  501    0  0.00000000000E+00  0.00000000000E+00 -0.25711120075E+04  0.25711120075E+04  0.25500000920E-02 0.  1.
    10030    2    1    2    0    0  0.00000000000E+00  0.00000000000E+00 -0.11945335263E+04  0.39476904888E+04  0.37626253932E+04 0.  0.
        5    1    3    3  502    0  0.28371642949E+03 -0.17336750127E+04  0.10903924432E+03  0.17601237766E+04  0.46999998093E+01 0. -1.
       -5    1    3    3    0  502 -0.28371642949E+03  0.17336750127E+04 -0.13035727706E+04  0.21875667122E+04  0.46999998093E+01 0.  1.
</event>
<event>
 5   0  0.6661000E-08  0.3802607E+04  0.7818609E-02  0.8045596E-01
        1   -1    0    0  501    0  0.00000000000E+00  0.00000000000E+00  0.12774043516E+04  0.12774043516E+04  0.50400001928E-02 0. -1.
       -1   -1    0    0    0  501  0.00000000000E+00  0.00000000000E+00 -0.28299229164E+04  0.28299229164E+04  0.50400001928E-02 0.  1.
    10030    2    1    2    0    0  0.00000000000E+00  0.00000000000E+00 -0.15525185648E+04  0.41073272679E+04  0.38026074465E+04 0.  0.
        3    1    3    3  502    0 -0.53914097931E+03  0.18111108866E+04 -0.54927628653E+03  0.19678668878E+04  0.10100000352E+00 0. -1.
       -3    1    3    3    0  502  0.53914097931E+03 -0.18111108866E+04 -0.10032422783E+04  0.21394603801E+04  0.10100000352E+00 0.  1.
</event>
<event>
 5   0  0.6661000E-08  0.3733374E+04  0.7818609E-02  0.8060606E-01
       -1   -1    0    0    0  501  0.00000000000E+00  0.00000000000E+00  0.17687152293E+04  0.17687152293E+04  0.50400001928E-02 0. -1.
        1   -1    0    0  501    0  0.00000000000E+00  0.00000000000E+00 -0.19700857365E+04  0.19700857365E+04  0.50400001928E-02 0.  1.
    10030    2    1    2    0    0  0.00000000000E+00  0.00000000000E+00 -0.20137050724E+03  0.37388009658E+04  0.37333741549E+04 0.  0.
        2    1    3    3  502    0 -0.12688042777E+04 -0.12707782990E+04  0.40974068589E+03  0.18419091210E+04  0.25500000920E-02 0. -1.
       -2    1    3    3    0  502  0.12688042777E+04  0.12707782990E+04 -0.61111119313E+03  0.18968918448E+04  0.25500000920E-02 0.  1.
</event>
<event>
 5   0  0.2205204E-07  0.3775458E+04  0.7818609E-02  0.8051442E-01
        2   -1    0    0  501    0  0.00000000000E+00  0.00000000000E+00  0.17820283567E+04  0.17820283567E+04  0.25500000920E-02 0. -1.
       -2   -1    0    0    0  501  0.00000000000E+00  0.00000000000E+00 -0.19996989874E+04  0.19996989874E+04  0.25500000920E-02 0.  1.
    10030    2    1    2    0    0  0.00000000000E+00  0.00000000000E+00 -0.21767063074E+03  0.37817273441E+04  0.37754577473E+04 0.  0.
        2    1    3    3  502    0  0.66115204421E+03 -0.23743112444E+03 -0.18638935722E+04  0.19918822287E+04  0.25500000920E-02 0.  1.
       -2    1    3    3    0  502 -0.66115204421E+03  0.23743112444E+03  0.16462229414E+04  0.17898451155E+04  0.25500000920E-02 0. -1.
</event>
<event>
 5   0  0.2205204E-07  0.3801910E+04  0.7818609E-02  0.8045745E-01
       -2   -1    0    0    0  501  0.00000000000E+00  0.00000000000E+00  0.20737415033E+04  0.20737415033E+04  0.25500000920E-02 0.  1.
        2   -1    0    0  501    0  0.00000000000E+00  0.00000000000E+00 -0.17425655636E+04  0.17425655636E+04  0.25500000920E-02 0. -1.
    10030    2    1    2    0    0  0.00000000000E+00  0.00000000000E+00  0.33117593976E+03  0.38163070669E+04  0.38019103258E+04 0.  0.
        2    1    3    3  502    0  0.68731360852E+03  0.29122733028E+03 -0.15892933792E+04  0.17558663957E+04  0.25500000920E-02 0. -1.
       -2    1    3    3    0  502 -0.68731360852E+03 -0.29122733028E+03  0.19204693190E+04  0.20604406712E+04  0.25500000920E-02 0.  1.
</event>
<event>
 5   0  0.2203998E-07  0.3790907E+04  0.7818609E-02  0.8048109E-01
        2   -1    0    0  501    0  0.00000000000E+00  0.00000000000E+00  0.18700165862E+04  0.18700165862E+04  0.25500000920E-02 0. -1.
       -2   -1    0    0    0  501  0.00000000000E+00  0.00000000000E+00 -0.19212368752E+04  0.19212368752E+04  0.25500000920E-02 0.  1.
    10030    2    1    2    0    0  0.00000000000E+00  0.00000000000E+00 -0.51220289030E+02  0.37912534613E+04  0.37909074494E+04 0.  0.
        3    1    3    3  502    0 -0.10910424413E+04 -0.11012986875E+04 -0.11163573919E+04  0.19103628568E+04  0.10100000352E+00 0.  1.
       -3    1    3    3    0  502  0.10910424413E+04  0.11012986875E+04  0.10651371029E+04  0.18808906045E+04  0.10100000352E+00 0. -1.
</event>
<event>
 5   0  0.6661000E-08  0.3816642E+04  0.7818609E-02  0.8042593E-01
       -1   -1    0    0    0  501  0.00000000000E+00  0.00000000000E+00  0.17228187703E+04  0.17228187703E+04  0.50400001928E-02 0.  1.
        1   -1    0    0  501    0  0.00000000000E+00  0.00000000000E+00 -0.21137967844E+04  0.21137967844E+04  0.50400001928E-02 0. -1.
    10030    2    1    2    0    0  0.00000000000E+00  0.00000000000E+00 -0.39097801411E+03  0.38366155547E+04  0.38166418626E+04 0.  0.
        4    1    3    3  502    0 -0.10817516593E+04  0.48320476098E+03  0.13083392507E+04  0.17650571382E+04  0.12699999809E+01 0.  1.
       -4    1    3    3    0  502  0.10817516593E+04 -0.48320476098E+03 -0.16993172648E+04  0.20715584165E+04  0.12699999809E+01 0. -1.
</event>
<event>
 5   0  0.6661000E-08  0.3830286E+04  0.7818609E-02  0.8039687E-01
        1   -1    0    0  501    0  0.00000000000E+00  0.00000000000E+00  0.22107201639E+04  0.22107201639E+04  0.50400001928E-02 0.  1.
       -1   -1    0    0    0  501  0.00000000000E+00  0.00000000000E+00 -0.16590847287E+04  0.16590847287E+04  0.50400001928E-02 0. -1.
    10030    2    1    2    0    0  0.00000000000E+00  0.00000000000E+00  0.55163543522E+03  0.38698048926E+04  0.38302856621E+04 0.  0.
        2    1    3    3  502    0  0.46656445955E+03  0.18311980301E+04  0.59016036509E+03  0.19797115641E+04  0.25500000920E-02 0.  1.
       -2    1    3    3    0  502 -0.46656445955E+03 -0.18311980301E+04 -0.38524929873E+02  0.18900933286E+04  0.25500000920E-02 0. -1.
</event>
<event>
 5   0  0.6661000E-08  0.3797102E+04  0.7818609E-02  0.8046777E-01
       -1   -1    0    0    0  501  0.00000000000E+00  0.00000000000E+00  0.19994797458E+04  0.19994797458E+04  0.50400001928E-02 0.  1.
        1   -1    0    0  501    0  0.00000000000E+00  0.00000000000E+00 -0.18027164907E+04  0.18027164907E+04  0.50400001928E-02 0. -1.
    10030    2    1    2    0    0  0.00000000000E+00  0.00000000000E+00  0.19676325516E+03  0.38021962365E+04  0.37971015844E+04 0.  0.
        2    1    3    3  502    0 -0.16211364693E+04 -0.74417320780E+03 -0.55258129533E+03  0.18674108555E+04  0.25500000920E-02 0. -1.
       -2    1    3    3    0  502  0.16211364693E+04  0.74417320780E+03  0.74934455049E+03  0.19347853810E+04  0.25500000920E-02 0.  1.
</event>
<event>
 5   0  0.2203998E-07  0.3809583E+04  0.7818609E-02  0.8044101E-01
        2   -1    0    0  501    0  0.00000000000E+00  0.00000000000E+00  0.20527384206E+04  0.20527384206E+04  0.25500000920E-02 0.  1.
       -2   -1    0    0    0  501  0.00000000000E+00  0.00000000000E+00 -0.17675078645E+04  0.17675078645E+04  0.25500000920E-02 0. -1.
    10030    2    1    2    0    0  0.00000000000E+00  0.00000000000E+00  0.28523055607E+03  0.38202462852E+04  0.38095833380E+04 0.  0.
        3    1    3    3  502    0 -0.40822803037E+03  0.16984300284E+04  0.90429150957E+03  0.19669920769E+04  0.10100000352E+00 0. -1.
       -3    1    3    3    0  502  0.40822803037E+03 -0.16984300284E+04 -0.61906095350E+03  0.18532542083E+04  0.10100000352E+00 0.  1.
</event>
<event>
 5   0  0.2205204E-07  0.3905534E+04  0.7818609E-02  0.8023879E-01
        2   -1    0    0  501    0  0.00000000000E+00  0.00000000000E+00  0.25862350301E+04  0.25862350301E+04  0.25500000920E-02 0. -1.
       -2   -1    0    0    0  501  0.00000000000E+00  0.00000000000E+00 -0.14744596431E+04  0.14744596431E+04  0.25500000920E-02 0.  1.
    10030    2    1    2    0    0  0.00000000000E+00  0.00000000000E+00  0.11117753869E+04  0.40606946732E+04  0.39055341143E+04 0.  0.
        2    1    3    3  502    0  0.19061918619E+04  0.87959623792E+02  0.12468879117E+03  0.19122896236E+04  0.25500000920E-02 0. -1.
       -2    1    3    3    0  502 -0.19061918619E+04 -0.87959623792E+02  0.98708659578E+03  0.21484050496E+04  0.25500000920E-02 0.  1.
</event>
<event>
 5   0  0.2205204E-07  0.3777908E+04  0.7818609E-02  0.8050913E-01
        2   -1    0    0  501    0  0.00000000000E+00  0.00000000000E+00  0.26814368054E+04  0.26814368054E+04  0.25500000920E-02 0. -1.
       -2   -1    0    0    0  501  0.00000000000E+00  0.00000000000E+00 -0.13306845865E+04  0.13306845865E+04  0.25500000920E-02 0.  1.
    10030    2    1    2    0    0  0.00000000000E+00  0.00000000000E+00  0.13507522190E+04  0.40121213919E+04  0.37779076889E+04 0.  0.
        2    1    3    3  502    0  0.15749851366E+04 -0.84131680528E+02  0.17792848200E+04  0.23777112505E+04  0.25500000920E-02 0. -1.
       -2    1    3    3    0  502 -0.15749851366E+04  0.84131680528E+02 -0.42853260099E+03  0.16344101414E+04  0.25500000920E-02 0.  1.
</event>
<event>
 5   0  0.6661000E-08  0.3732936E+04  0.7818609E-02  0.8060702E-01
       -1   -1    0    0    0  501  0.00000000000E+00  0.00000000000E+00  0.14164298525E+04  0.14164298525E+04  0.50400001928E-02 0.  1.
        1   -1    0    0  501    0  0.00000000000E+00  0.00000000000E+00 -0.24594958847E+04  0.24594958847E+04  0.50400001928E-02 0. -1.
    10030    2    1    2    0    0  0.00000000000E+00  0.00000000000E+00 -0.10430660322E+04  0.38759257373E+04  0.37329363206E+04 0.  0.
        2    1    3    3  502    0 -0.38137970722E+03 -0.17830122128E+04 -0.10735433178E+03  0.18265015698E+04  0.25500000920E-02 0.  1.
       -2    1    3    3    0  502  0.38137970722E+03  0.17830122128E+04 -0.93571170039E+03  0.20494241675E+04  0.25500000920E-02 0. -1.
</event>
<event>
 5   0  0.6725199E-08  0.3795798E+04  0.7818609E-02  0.8047057E-01
       -1   -1    0    0    0  501  0.00000000000E+00  0.00000000000E+00  0.22548185502E+04  0.22548185502E+04  0.50400001928E-02 0.  1.
        1   -1    0    0  501    0  0.00000000000E+00  0.00000000000E+00 -0.15974772547E+04  0.15974772547E+04  0.50400001928E-02 0. -1.
    10030    2    1    2    0    0  0.00000000000E+00  0.00000000000E+00  0.65734129549E+03  0.38522958049E+04  0.37957983863E+04 0.  0.
        5    1    3    3  502    0 -0.18468305233E+04  0.79052582035E+02 -0.10780857588E+03  0.18516687262E+04  0.46999998093E+01 0. -1.
       -5    1    3    3    0  502  0.18468305233E+04 -0.79052582035E+02  0.76514987137E+03  0.20006270787E+04  0.46999998093E+01 0.  1.
</event>
<event>
 5   0  0.2081337E-07  0.3814396E+04  0.7818609E-02  0.8043072E-01
        2   -1    0    0  501    0  0.00000000000E+00  0.00000000000E+00  0.19843791238E+04  0.19843791238E+04  0.25500000920E-02 0. -1.
       -2   -1    0    0    0  501  0.00000000000E+00  0.00000000000E+00 -0.18330191740E+04  0.18330191740E+04  0.25500000920E-02 0.  1.
    10030    2    1    2    0    0  0.00000000000E+00  0.00000000000E+00  0.15135994978E+03  0.38173982978E+04  0.38143964044E+04 0.  0.
        1    1    3    3  502    0  0.17616996096E+04 -0.36755162973E+03  0.70762388089E+03  0.19337557425E+04  0.50400001928E-02 0. -1.
       -1    1    3    3    0  502 -0.17616996096E+04  0.36755162973E+03 -0.55626393112E+03  0.18836425553E+04  0.50400001928E-02 0.  1.
</event>
<event>
 5   0  0.2203998E-07  0.3800717E+04  0.7818609E-02  0.8046001E-01
       -2   -1    0    0    0  501  0.00000000000E+00  0.00000000000E+00  0.13979162906E+04  0.13979162906E+04  0.25500000920E-02 0.  1.
        2   -1    0    0  501    0  0.00000000000E+00  0.00000000000E+00 -0.25833894162E+04  0.25833894162E+04  0.25500000920E-02 0. -1.
    10030    2    1    2    0    0  0.00000000000E+00  0.00000000000E+00 -0.11854731256E+04  0.39813057069E+04  0.38007168535E+04 0.  0.
        3    1    3    3  502    0 -0.47509593877E+03  0.35501290031E+03  0.12984873582E+04  0.14275222380E+04  0.10100000352E+00 0.  1.
       -3    1    3    3    0  502  0.47509593877E+03 -0.35501290031E+03 -0.24839604838E+04  0.25537834688E+04  0.10100000352E+00 0. -1.
</event>
<event>
 5   0  0.1370688E-07  0.3759494E+04  0.7818609E-02  0.8054904E-01
        2   -1    0    0  501    0  0.00000000000E+00  0.00000000000E+00  0.20908548265E+04  0.20908548265E+04  0.25500000920E-02 0.  1.
       -2   -1    0    0    0  501  0.00000000000E+00  0.00000000000E+00 -0.16899542485E+04  0.16899542485E+04  0.25500000920E-02 0. -1.
    10030    2    1    2    0    0  0.00000000000E+00  0.00000000000E+00  0.40090057804E+03  0.37808090750E+04  0.37594941133E+04 0.  0.
        5    1    3    3  502    0  0.54578793334E+03 -0.14725421837E+04 -0.83844195694E+03  0.17802449146E+04  0.46999998093E+01 0. -1.
       -5    1    3    3    0  502 -0.54578793334E+03  0.14725421837E+04  0.12393425350E+04  0.20005641604E+04  0.46999998093E+01 0.  1.
</event>
<event>
 5   0  0.2203998E-07  0.3828615E+04  0.7818609E-02  0.8040042E-01
        2   -1    0    0  501    0  0.00000000000E+00  0.00000000000E+00  0.16910137683E+04  0.16910137683E+04  0.25500000920E-02 0.  1.
       -2   -1    0    0    0  501  0.00000000000E+00  0.00000000000E+00 -0.21670865071E+04  0.21670865071E+04  0.25500000920E-02 0. -1.
    10030    2    1    2    0    0  0.00000000000E+00  0.00000000000E+00 -0.47607273882E+03  0.38581002755E+04  0.38286149562E+04 0.  0.
        3    1    3    3  502    0 -0.18773399636E+03 -0.12420354286E+04  0.12176219255E+04  0.17494282560E+04  0.10100000352E+00 0. -1.
       -3    1    3    3    0  502  0.18773399636E+03  0.12420354286E+04 -0.16936946643E+04  0.21086720194E+04  0.10100000352E+00 0.  1.
</event>
<event>
 5   0  0.2205204E-07  0.3818724E+04  0.7818609E-02  0.8042149E-01
        2   -1    0    0  501    0  0.00000000000E+00  0.00000000000E+00  0.29497016096E+04  0.29497016096E+04  0.25500000920E-02 0. -1.
       -2   -1    0    0    0  501  0.00000000000E+00  0.00000000000E+00 -0.12359429136E+04  0.12359429136E+04  0.25500000920E-02 0.  1.
    10030    2    1    2    0    0  0.00000000000E+00  0.00000000000E+00  0.17137586960E+04  0.41856445231E+04  0.38187237666E+04 0.  0.
        2    1    3    3  502    0  0.87342037839E+03  0.14950711639E+04  0.17389121336E+04  0.24539593214E+04  0.25500000920E-02 0. -1.
       -2    1    3    3    0  502 -0.87342037839E+03 -0.14950711639E+04 -0.25153437525E+02  0.17316852018E+04  0.25500000920E-02 0.  1.
</event>
<event>
 5   0  0.1370688E-07  0.3750901E+04  0.7818609E-02  0.8056774E-01
       -2   -1    0    0    0  501  0.00000000000E+00  0.00000000000E+00  0.28883736031E+04  0.28883736031E+04  0.25500000920E-02 0.  1.
        2   -1    0    0  501    0  0.00000000000E+00  0.00000000000E+00 -0.12177489813E+04  0.12177489813E+04  0.25500000920E-02 0. -1.
    10030    2    1    2    0    0  0.00000000000E+00  0.00000000000E+00  0.16706246218E+04  0.41061225844E+04  0.37509006986E+04 0.  0.
        5    1    3    3  502    0 -0.44106013283E+03 -0.37262442736E+03 -0.11180223731E+04  0.12583239334E+04  0.46999998093E+01 0. -1.
       -5    1    3    3    0  502  0.44106013283E+03  0.37262442736E+03  0.27886469949E+04  0.28477986510E+04  0.46999998093E+01 0.  1.
</event>
<event>
 5   0  0.6661000E-08  0.3818902E+04  0.7818609E-02  0.8042111E-01
        1   -1    0    0  501    0  0.00000000000E+00  0.00000000000E+00  0.12024332112E+04  0.12024332113E+04  0.50400001928E-02 0. -1.
       -1   -1    0    0    0  501  0.00000000000E+00  0.00000000000E+00 -0.30321876746E+04  0.30321876746E+04  0.50400001928E-02 0.  1.
    10030    2    1    2    0    0  0.00000000000E+00  0.00000000000E+00 -0.18297544634E+04  0.42346208859E+04  0.38189020216E+04 0.  0.
        3    1    3    3  502    0  0.66249757923E+03  0.34874820608E+03 -0.28626443091E+04  0.29589289962E+04  0.10100000352E+00 0.  1.
       -3    1    3    3    0  502 -0.66249757923E+03 -0.34874820608E+03  0.10328898458E+04  0.12756918897E+04  0.10100000352E+00 0. -1.
</event>
<event>
 5   0  0.6725199E-08  0.3777521E+04  0.7818609E-02  0.8050996E-01
        1   -1    0    0  501    0  0.00000000000E+00  0.00000000000E+00  0.19063740189E+04  0.19063740189E+04  0.50400001928E-02 0. -1.
       -1   -1    0    0    0  501  0.00000000000E+00  0.00000000000E+00 -0.18713094276E+04  0.18713094276E+04  0.50400001928E-02 0.  1.
    10030    2    1    2    0    0  0.00000000000E+00  0.00000000000E+00  0.35064591269E+02  0.37776834464E+04  0.37775207076E+04 0.  0.
        5    1    3    3  502    0  0.38449859185E+03  0.16764291335E+04 -0.76297539993E+03  0.18815970232E+04  0.46999998093E+01 0.  1.
       -5    1    3    3    0  502 -0.38449859185E+03 -0.16764291335E+04  0.79803999120E+03  0.18960864232E+04  0.46999998093E+01 0. -1.
</event>
<event>
 5   0  0.2081337E-07  0.3784929E+04  0.7818609E-02  0.8049397E-01
        2   -1    0    0  501    0  0.00000000000E+00  0.00000000000E+00  0.14780028108E+04  0.14780028108E+04  0.25500000920E-02 0.  1.
       -2   -1    0    0    0  501  0.00000000000E+00  0.00000000000E+00 -0.24231497259E+04  0.24231497259E+04  0.25500000920E-02 0. -1.
    10030    2    1    2    0    0  0.00000000000E+00  0.00000000000E+00 -0.94514691508E+03  0.39011525367E+04  0.37849291173E+04 0.  0.
        1    1    3    3  502    0 -0.14541775212E+04  0.12002674372E+04 -0.30590486385E+03  0.19101968405E+04  0.50400001928E-02 0.  1.
       -1    1    3    3    0  502  0.14541775212E+04 -0.12002674372E+04 -0.63924205123E+03  0.19909556961E+04  0.50400001928E-02 0. -1.
</event>
<event>
 5   0  0.6661000E-08  0.3832502E+04  0.7818609E-02  0.8039216E-01
        1   -1    0    0  501    0  0.00000000000E+00  0.00000000000E+00  0.20265975606E+04  0.20265975606E+04  0.50400001928E-02 0. -1.
       -1   -1    0    0    0  501  0.00000000000E+00  0.00000000000E+00 -0.18119128048E+04  0.18119128048E+04  0.50400001928E-02 0.  1.
    10030    2    1    2    0    0  0.00000000000E+00  0.00000000000E+00  0.21468475574E+03  0.38385103654E+04  0.38325020914E+04 0.  0.
        2    1    3    3  502    0 -0.58645717448E+03 -0.85461444077E+03 -0.15069288412E+04  0.18289703093E+04  0.25500000920E-02 0.  1.
       -2    1    3    3    0  502  0.58645717448E+03  0.85461444077E+03  0.17216135969E+04  0.20095400561E+04  0.25500000920E-02 0. -1.
</event>
<event>
 5   0  0.2205204E-07  0.3780102E+04  0.7818609E-02  0.8050439E-01
       -2   -1    0    0    0  501  0.00000000000E+00  0.00000000000E+00  0.16774289834E+04  0.16774289834E+04  0.25500000920E-02 0.  1.
        2   -1    0    0  501    0  0.00000000000E+00  0.00000000000E+00 -0.21296235962E+04  0.21296235962E+04  0.25500000920E-02 0. -1.
    10030    2    1    2    0    0  0.00000000000E+00  0.00000000000E+00 -0.45219461280E+03  0.38070525797E+04  0.37801017680E+04 0.  0.
        2    1    3    3  502    0 -0.13359926359E+04 -0.10963737068E+04  0.54445937149E+03  0.18120010032E+04  0.25500000920E-02 0.  1.
       -2    1    3    3    0  502  0.13359926359E+04  0.10963737068E+04 -0.99665398430E+03  0.19950515765E+04  0.25500000920E-02 0. -1.
</event>
<event>
 5   0  0.6661000E-08  0.3811235E+04  0.7818609E-02  0.8043748E-01
       -1   -1    0    0    0  501  0.00000000000E+00  0.00000000000E+00  0.15954702304E+04  0.15954702304E+04  0.50400001928E-02 0. -1.
        1   -1    0    0  501    0  0.00000000000E+00  0.00000000000E+00 -0.22760548917E+04  0.22760548917E+04  0.50400001928E-02 0.  1.
    10030    2    1    2    0    0  0.00000000000E+00  0.00000000000E+00 -0.68058466128E+03  0.38715251221E+04  0.38112348773E+04 0.  0.
        1    1    3    3  502    0  0.31156085142E+03  0.10768884183E+04 -0.19056491016E+04  0.22109403719E+04  0.50400001928E-02 0.  1.
       -1    1    3    3    0  502 -0.31156085142E+03 -0.10768884183E+04  0.12250644403E+04  0.16605847502E+04  0.50400001928E-02 0. -1.
</event>
<event>
 5   0  0.2135314E-07  0.3788663E+04  0.7818609E-02  0.8048592E-01
       -2   -1    0    0    0  501  0.00000000000E+00  0.00000000000E+00  0.18394906847E+04  0.18394906847E+04  0.25500000920E-02 0. -1.
        2   -1    0    0  501    0  0.00000000000E+00  0.00000000000E+00 -0.19508067883E+04  0.19508067883E+04  0.25500000920E-02 0.  1.
    10030    2    1    2    0    0  0.00000000000E+00  0.00000000000E+00 -0.11131610366E+03  0.37902974730E+04  0.37886625158E+04 0.  0.
        4    1    3    3  502    0  0.13359459927E+04  0.60786492732E+03  0.11424554502E+04  0.18599617023E+04  0.12699999809E+01 0. -1.
       -4    1    3    3    0  502 -0.13359459927E+04 -0.60786492732E+03 -0.12537715539E+04  0.19303357707E+04  0.12699999809E+01 0.  1.
</event>
<event>
 5   0  0.6661000E-08  0.3762744E+04  0.7818609E-02  0.8054198E-01
        1   -1    0    0  501    0  0.00000000000E+00  0.00000000000E+00  0.27254543390E+04  0.27254543390E+04  0.50400001928E-02 0.  1.
       -1   -1    0    0    0  501  0.00000000000E+00  0.00000000000E+00 -0.12987046525E+04  0.12987046525E+04  0.50400001928E-02 0. -1.
    10030    2    1    2    0    0  0.00000000000E+00  0.00000000000E+00  0.14267496865E+04  0.40241589915E+04  0.37627438022E+04 0.  0.
        2    1    3    3  502    0 -0.18591198974E+03 -0.34249021572E+03  0.26818175931E+04  0.27099831030E+04  0.25500000920E-02 0.  1.
       -2    1    3    3    0  502  0.18591198974E+03  0.34249021572E+03 -0.12550679066E+04  0.13141758885E+04  0.25500000920E-02 0. -1.
</event>
<event>
 5   0  0.1370688E-07  0.3803091E+04  0.7818609E-02  0.8045492E-01
        2   -1    0    0  501    0  0.00000000000E+00  0.00000000000E+00  0.29346869084E+04  0.29346869084E+04  0.25500000920E-02 0.  1.
       -2   -1    0    0    0  501  0.00000000000E+00  0.00000000000E+00 -0.12321161014E+04  0.12321161014E+04  0.25500000920E-02 0. -1.
    10030    2    1    2    0    0  0.00000000000E+00  0.00000000000E+00  0.17025708070E+04  0.41668030098E+04  0.38030908443E+04 0.  0.
        5    1    3    3  502    0 -0.57177601906E+03 -0.11074530424E+04 -0.72219156120E+03  0.14404731161E+04  0.46999998093E+01 0.  1.
       -5    1    3    3    0  502  0.57177601906E+03  0.11074530424E+04  0.24247623682E+04  0.27263298937E+04  0.46999998093E+01 0. -1.
</event>
<event>
 5   0  0.6661000E-08  0.3780096E+04  0.7818609E-02  0.8050440E-01
       -1   -1    0    0    0  501  0.00000000000E+00  0.00000000000E+00  0.19806224396E+04  0.19806224396E+04  0.50400001928E-02 0.  1.
        1   -1    0    0  501    0  0.00000000000E+00  0.00000000000E+00 -0.18036152608E+04  0.18036152608E+04  0.50400001928E-02 0. -1.
    10030    2    1    2    0    0  0.00000000000E+00  0.00000000000E+00  0.17700717882E+03  0.37842377004E+04  0.37800956908E+04 0.  0.
        2    1    3    3  502    0 -0.52502185212E+03  0.10793479571E+04 -0.13731102161E+04  0.18237520729E+04  0.25500000920E-02 0. -1.
       -2    1    3    3    0  502  0.52502185212E+03 -0.10793479571E+04  0.15501173949E+04  0.19604856275E+04  0.25500000920E-02 0.  1.
</event>
<event>
 5   0  0.6661000E-08  0.3790823E+04  0.7818609E-02  0.8048127E-01
        1   -1    0    0  501    0  0.00000000000E+00  0.00000000000E+00  0.19566282260E+04  0.19566282260E+04  0.50400001928E-02 0. -1.
       -1   -1    0    0    0  501  0.00000000000E+00  0.00000000000E+00 -0.18361095992E+04  0.18361095992E+04  0.50400001928E-02 0.  1.
    10030    2    1    2    0    0  0.00000000000E+00  0.00000000000E+00  0.12051862677E+03  0.37927378252E+04  0.37908225323E+04 0.  0.
        3    1    3    3  502    0 -0.14249886396E+04 -0.12022922816E+04 -0.28121138874E+03  0.18855182865E+04  0.10100000352E+00 0.  1.
       -3    1    3    3    0  502  0.14249886396E+04  0.12022922816E+04  0.40173001552E+03  0.19072195387E+04  0.10100000352E+00 0. -1.
</event>
<event>
 5   0  0.2081337E-07  0.3800103E+04  0.7818609E-02  0.8046133E-01
       -2   -1    0    0    0  501  0.00000000000E+00  0.00000000000E+00  0.16675082120E+04  0.16675082120E+04  0.25500000920E-02 0.  1.
        2   -1    0    0  501    0  0.00000000000E+00  0.00000000000E+00 -0.21650246365E+04  0.21650246365E+04  0.25500000920E-02 0. -1.
    10030    2    1    2    0    0  0.00000000000E+00  0.00000000000E+00 -0.49751642445E+03  0.38325328485E+04  0.38001033462E+04 0.  0.
        1    1    3    3  502    0 -0.22988256252E+03  0.12148773506E+03 -0.21469976484E+04  0.21626844810E+04  0.50400001928E-02 0. -1.
       -1    1    3    3    0  502  0.22988256252E+03 -0.12148773506E+03  0.16494812239E+04  0.16698483675E+04  0.50400001928E-02 0.  1.
</event>
<event>
 5   0  0.6661000E-08  0.3768412E+04  0.7818609E-02  0.8052968E-01
       -1   -1    0    0    0  501  0.00000000000E+00  0.00000000000E+00  0.31443713419E+04  0.31443713420E+04  0.50400001928E-02 0.  1.
        1   -1    0    0  501    0  0.00000000000E+00  0.00000000000E+00 -0.11290754413E+04  0.11290754413E+04  0.50400001928E-02 0. -1.
    10030    2    1    2    0    0  0.00000000000E+00  0.00000000000E+00  0.20152959006E+04  0.42734467833E+04  0.37684121115E+04 0.  0.
        3    1    3    3  502    0 -0.14158615990E+04 -0.12425852012E+04  0.10523000483E+04  0.21577806774E+04  0.10100000352E+00 0. -1.
       -3    1    3    3    0  502  0.14158615990E+04  0.12425852012E+04  0.96299585238E+03  0.21156661059E+04  0.10100000352E+00 0.  1.
</event>
<event>
 5   0  0.2081337E-07  0.3820055E+04  0.7818609E-02  0.8041865E-01
        2   -1    0    0  501    0  0.00000000000E+00  0.00000000000E+00  0.25359288560E+04  0.25359288560E+04  0.25500000920E-02 0.  1.
       -2   -1    0    0    0  501  0.00000000000E+00  0.00000000000E+00 -0.14386068914E+04  0.14386068914E+04  0.25500000920E-02 0. -1.
    10030    2    1    2    0    0  0.00000000000E+00  0.00000000000E+00  0.10973219646E+04  0.39745357474E+04  0.38200548312E+04 0.  0.
        1    1    3    3  502    0  0.12907822820E+04 -0.13050964406E+04  0.10980377506E+04  0.21389442538E+04  0.50400001928E-02 0. -1.
       -1    1    3    3    0  502 -0.12907822820E+04  0.13050964406E+04 -0.71578598847E+00  0.18355914936E+04  0.50400001928E-02 0.  1.
</event>
<event>
 5   0  0.6661000E-08  0.3805285E+04  0.7818609E-02  0.8045022E-01
       -1   -1    0    0    0  501  0.00000000000E+00  0.00000000000E+00  0.18111696573E+04  0.18111696573E+04  0.50400001928E-02 0.  1.
        1   -1    0    0  501    0  0.00000000000E+00  0.00000000000E+00 -0.19987348673E+04  0.19987348673E+04  0.50400001928E-02 0. -1.
    10030    2    1    2    0    0  0.00000000000E+00  0.00000000000E+00 -0.18756520999E+03  0.38099045246E+04  0.38052847172E+04 0.  0.
        3    1    3    3  502    0 -0.14307790606E+04  0.80951703156E+03  0.86529547896E+03  0.18577359394E+04  0.10100000352E+00 0.  1.
       -3    1    3    3    0  502  0.14307790606E+04 -0.80951703156E+03 -0.10528606889E+04  0.19521685852E+04  0.10100000352E+00 0. -1.
</event>
<event>
 5   0  0.6725199E-08  0.3607235E+04  0.7818609E-02  0.8088836E-01
       -1   -1    0    0    0  501  0.00000000000E+00  0.00000000000E+00  0.24704355205E+04  0.24704355205E+04  0.50400001928E-02 0. -1.
        1   -1    0    0  501    0  0.00000000000E+00  0.00000000000E+00 -0.13167863756E+04  0.13167863756E+04  0.50400001928E-02 0.  1.
    10030    2    1    2    0    0  0.00000000000E+00  0.00000000000E+00  0.11536491449E+04  0.37872218961E+04  0.36072348608E+04 0.  0.
        5    1    3    3  502    0  0.62400580339E+03  0.63518627094E+03 -0.10699296833E+04  0.13919829233E+04  0.46999998093E+01 0.  1.
       -5    1    3    3    0  502 -0.62400580339E+03 -0.63518627094E+03  0.22235788282E+04  0.23952389728E+04  0.46999998093E+01 0. -1.
</event>
<event>
 5   0  0.2135314E-07  0.3802769E+04  0.7818609E-02  0.8045561E-01
       -2   -1    0    0    0  501  0.00000000000E+00  0.00000000000E+00  0.17849266480E+04  0.17849266480E+04  0.25500000920E-02 0. -1.
        2   -1    0    0  501    0  0.00000000000E+00  0.00000000000E+00 -0.20254402213E+04  0.20254402214E+04  0.25500000920E-02 0.  1.
    10030    2    1    2    0    0  0.00000000000E+00  0.00000000000E+00 -0.24051357337E+03  0.38103668693E+04  0.38027685835E+04 0.  0.
        4    1    3    3  502    0 -0.74428573713E+03  0.96815365043E+03  0.13400425503E+04  0.18130081078E+04  0.12699999809E+01 0. -1.
       -4    1    3    3    0  502  0.74428573713E+03 -0.96815365043E+03 -0.15805561237E+04  0.19973587615E+04  0.12699999809E+01 0.  1.
</event>
<event>
 5   0  0.2205204E-07  0.3786213E+04  0.7818609E-02  0.8049120E-01
       -2   -1    0    0    0  501  0.00000000000E+00  0.00000000000E+00  0.15494731660E+04  0.15494731660E+04  0.25500000920E-02 0. -1.
        2   -1    0    0  501    0  0.00000000000E+00  0.00000000000E+00 -0.23129488353E+04  0.23129488353E+04  0.25500000920E-02 0.  1.
    10030    2    1    2    0    0  0.00000000000E+00  0.00000000000E+00 -0.76347566927E+03  0.38624220013E+04  0.37862129653E+04 0.  0.
        2    1    3    3  502    0  0.40680028006E+03 -0.91511836262E+03 -0.20205995041E+04  0.22551608460E+04  0.25500000920E-02 0.  1.
       -2    1    3    3    0  502 -0.40680028006E+03  0.91511836262E+03  0.12571238348E+04  0.16072611553E+04  0.25500000920E-02 0. -1.
</event>
<event>
 5   0  0.6661000E-08  0.3794609E+04  0.7818609E-02  0.8047313E-01
        1   -1    0    0  501    0  0.00000000000E+00  0.00000000000E+00  0.28264930612E+04  0.28264930612E+04  0.50400001928E-02 0. -1.
       -1   -1    0    0    0  501  0.00000000000E+00  0.00000000000E+00 -0.12735794908E+04  0.12735794908E+04  0.50400001928E-02 0.  1.
    10030    2    1    2    0    0  0.00000000000E+00  0.00000000000E+00  0.15529135704E+04  0.41000725520E+04  0.37946085931E+04 0.  0.
        4    1    3    3  502    0 -0.31077382528E+03  0.18287632564E+04  0.34587190232E+03  0.18869510868E+04  0.12699999809E+01 0.  1.
       -4    1    3    3    0  502  0.31077382528E+03 -0.18287632564E+04  0.12070416681E+04  0.22131214652E+04  0.12699999809E+01 0. -1.
</event>
<event>
 5   0  0.6661000E-08  0.3766733E+04  0.7818609E-02  0.8053332E-01
        3   -1    0    0  501    0  0.00000000000E+00  0.00000000000E+00  0.16802795375E+04  0.16802795405E+04  0.10100000352E+00 0. -1.
       -3   -1    0    0    0  501  0.00000000000E+00  0.00000000000E+00 -0.21109993139E+04  0.21109993163E+04  0.10100000352E+00 0.  1.
    10030    2    1    2    0    0  0.00000000000E+00  0.00000000000E+00 -0.43071977641E+03  0.37912788568E+04  0.37667327811E+04 0.  0.
        1    1    3    3  502    0 -0.52350603323E+03  0.55598037168E+03 -0.19481757460E+04  0.20925012492E+04  0.50400001928E-02 0.  1.
       -1    1    3    3    0  502  0.52350603323E+03 -0.55598037168E+03  0.15174559696E+04  0.16987776076E+04  0.50400001928E-02 0. -1.
</event>
<event>
 5   0  0.1370688E-07  0.3823085E+04  0.7818609E-02  0.8041219E-01
       -2   -1    0    0    0  501  0.00000000000E+00  0.00000000000E+00  0.14428682375E+04  0.14428682375E+04  0.25500000920E-02 0. -1.
        2   -1    0    0  501    0  0.00000000000E+00  0.00000000000E+00 -0.25324514716E+04  0.25324514716E+04  0.25500000920E-02 0.  1.
    10030    2    1    2    0    0  0.00000000000E+00  0.00000000000E+00 -0.10895832341E+04  0.39753197091E+04  0.38230845093E+04 0.  0.
        5    1    3    3  502    0 -0.10946969195E+04  0.15307992001E+04 -0.89319209204E+03  0.20831518763E+04  0.46999998093E+01 0.  1.
       -5    1    3    3    0  502  0.10946969195E+04 -0.15307992001E+04 -0.19639114203E+03  0.18921678327E+04  0.46999998093E+01 0. -1.
</event>
<event>
 5   0  0.6661000E-08  0.3807387E+04  0.7818609E-02  0.8044571E-01
        1   -1    0    0  501    0  0.00000000000E+00  0.00000000000E+00  0.23659588697E+04  0.23659588698E+04  0.50400001928E-02 0. -1.
       -1   -1    0    0    0  501  0.00000000000E+00  0.00000000000E+00 -0.15317467390E+04  0.15317467390E+04  0.50400001928E-02 0.  1.
    10030    2    1    2    0    0  0.00000000000E+00  0.00000000000E+00  0.83421213072E+03  0.38977056088E+04  0.38073874420E+04 0.  0.
        4    1    3    3  502    0 -0.88321215803E+03  0.21312406020E+03 -0.12954684342E+04  0.15823165480E+04  0.12699999809E+01 0.  1.
       -4    1    3    3    0  502  0.88321215803E+03 -0.21312406020E+03  0.21296805649E+04  0.23153890608E+04  0.12699999809E+01 0. -1.
</event>
<event>
 5   0  0.2135314E-07  0.3815878E+04  0.7818609E-02  0.8042756E-01
        2   -1    0    0  501    0  0.00000000000E+00  0.00000000000E+00  0.18138397664E+04  0.18138397664E+04  0.25500000920E-02 0.  1.
       -2   -1    0    0    0  501  0.00000000000E+00  0.00000000000E+00 -0.20069196123E+04  0.20069196123E+04  0.25500000920E-02 0. -1.
    10030    2    1    2    0    0  0.00000000000E+00  0.00000000000E+00 -0.19307984592E+03  0.38207593786E+04  0.38158776713E+04 0.  0.
        4    1    3    3  502    0  0.20311026794E+03 -0.13460311898E+04  0.12420230699E+04  0.18427361895E+04  0.12699999809E+01 0.  1.
       -4    1    3    3    0  502 -0.20311026794E+03  0.13460311898E+04 -0.14351029159E+04  0.19780231892E+04  0.12699999809E+01 0. -1.
</event>
<event>
 5   0  0.6661000E-08  0.3831173E+04  0.7818609E-02  0.8039498E-01
       -1   -1    0    0    0  501  0.00000000000E+00  0.00000000000E+00  0.12492907010E+04  0.12492907010E+04  0.50400001928E-02 0.  1.
        1   -1    0    0  501    0  0.00000000000E+00  0.00000000000E+00 -0.29372441313E+04  0.29372441313E+04  0.50400001928E-02 0. -1.
    10030    2    1    2    0    0  0.00000000000E+00  0.00000000000E+00 -0.16879534303E+04  0.41865348323E+04  0.38311730735E+04 0.  0.
        2    1    3    3  502    0  0.66324626314E+03 -0.55946887702E+03  0.10222276253E+04  0.13408394191E+04  0.25500000920E-02 0.  1.
       -2    1    3    3    0  502 -0.66324626314E+03  0.55946887702E+03 -0.27101810557E+04  0.28456954131E+04  0.25500000920E-02 0. -1.
</event>
<event>
 5   0  0.6661000E-08  0.3772671E+04  0.7818609E-02  0.8052045E-01
        1   -1    0    0  501    0  0.00000000000E+00  0.00000000000E+00  0.15205994527E+04  0.15205994527E+04  0.50400001928E-02 0.  1.
       -1   -1    0    0    0  501  0.00000000000E+00  0.00000000000E+00 -0.23400389028E+04  0.23400389028E+04  0.50400001928E-02 0. -1.
    10030    2    1    2    0    0  0.00000000000E+00  0.00000000000E+00 -0.81943945014E+03  0.38606383555E+04  0.37726711359E+04 0.  0.
        2    1    3    3  502    0 -0.58163491960E+03  0.15527662678E+04  0.51062836722E+03  0.17349707755E+04  0.25500000920E-02 0.  1.
       -2    1    3    3    0  502  0.58163491960E+03 -0.15527662678E+04 -0.13300678174E+04  0.21256675801E+04  0.25500000920E-02 0. -1.
</event>
<event>
 5   0  0.2205204E-07  0.3787227E+04  0.7818609E-02  0.8048901E-01
       -2   -1    0    0    0  501  0.00000000000E+00  0.00000000000E+00  0.28282154111E+04  0.28282154111E+04  0.25500000920E-02 0.  1.
        2   -1    0    0  501    0  0.00000000000E+00  0.00000000000E+00 -0.12678569843E+04  0.12678569843E+04  0.25500000920E-02 0. -1.
    10030    2    1    2    0    0  0.00000000000E+00  0.00000000000E+00  0.15603584268E+04  0.40960723953E+04  0.37872273034E+04 0.  0.
        2    1    3    3  502    0  0.10611429972E+04 -0.51269863810E+03  0.23832409241E+04  0.26587067639E+04  0.25500000920E-02 0.  1.
       -2    1    3    3    0  502 -0.10611429972E+04  0.51269863810E+03 -0.82288249732E+03  0.14373656314E+04  0.25500000920E-02 0. -1.
</event>
<event>
 5   0  0.6725199E-08  0.3775934E+04  0.7818609E-02  0.8051339E-01
       -1   -1    0    0    0  501  0.00000000000E+00  0.00000000000E+00  0.22481477065E+04  0.22481477065E+04  0.50400001928E-02 0. -1.
        1   -1    0    0  501    0  0.00000000000E+00  0.00000000000E+00 -0.15854913774E+04  0.15854913774E+04  0.50400001928E-02 0.  1.
    10030    2    1    2    0    0  0.00000000000E+00  0.00000000000E+00  0.66265632913E+03  0.38336390839E+04  0.37759336878E+04 0.  0.
        5    1    3    3  502    0  0.17275528589E+04 -0.70482881645E+03  0.38521396748E+02  0.18662069898E+04  0.46999998093E+01 0.  1.
       -5    1    3    3    0  502 -0.17275528589E+04  0.70482881645E+03  0.62413493238E+03  0.19674320940E+04  0.46999998093E+01 0. -1.
</event>
<event>
 5   0  0.6661000E-08  0.3589867E+04  0.7818609E-02  0.8092817E-01
        1   -1    0    0  501    0  0.00000000000E+00  0.00000000000E+00  0.23749525293E+04  0.23749525293E+04  0.50400001928E-02 0.  1.
       -1   -1    0    0    0  501  0.00000000000E+00  0.00000000000E+00 -0.13565689103E+04  0.13565689104E+04  0.50400001928E-02 0. -1.
    10030    2    1    2    0    0  0.00000000000E+00  0.00000000000E+00  0.10183836190E+04  0.37315214397E+04  0.35898672760E+04 0.  0.
        4    1    3    3  502    0  0.14455440282E+04  0.77364311793E+02  0.16122940558E+04  0.21668125229E+04  0.12699999809E+01 0.  1.
       -4    1    3    3    0  502 -0.14455440282E+04 -0.77364311793E+02 -0.59391043683E+03  0.15647089167E+04  0.12699999809E+01 0. -1.
</event>
<event>
 5   0  0.6725199E-08  0.3810344E+04  0.7818609E-02  0.8043939E-01
        1   -1    0    0  501    0  0.00000000000E+00  0.00000000000E+00  0.20940427268E+04  0.20940427268E+04  0.50400001928E-02 0.  1.
       -1   -1    0    0    0  501  0.00000000000E+00  0.00000000000E+00 -0.17333367060E+04  0.17333367060E+04  0.50400001928E-02 0. -1.
    10030    2    1    2    0    0  0.00000000000E+00  0.00000000000E+00  0.36070602084E+03  0.38273794329E+04  0.38103444056E+04 0.  0.
        5    1    3    3  502    0 -0.25101350255E+02  0.11261512360E+04  0.17237157843E+04  0.20591417822E+04  0.46999998093E+01 0.  1.
       -5    1    3    3    0  502  0.25101350255E+02 -0.11261512360E+04 -0.13630097635E+04  0.17682376507E+04  0.46999998093E+01 0. -1.
</event>
<event>
 5   0  0.2205204E-07  0.3711467E+04  0.7818609E-02  0.8065425E-01
        2   -1    0    0  501    0  0.00000000000E+00  0.00000000000E+00  0.29353238071E+04  0.29353238071E+04  0.25500000920E-02 0. -1.
       -2   -1    0    0    0  501  0.00000000000E+00  0.00000000000E+00 -0.11732082000E+04  0.11732082000E+04  0.25500000920E-02 0.  1.
    10030    2    1    2    0    0  0.00000000000E+00  0.00000000000E+00  0.17621156070E+04  0.41085320071E+04  0.37114665351E+04 0.  0.
        2    1    3    3  502    0  0.17748857220E+03 -0.18383154625E+04  0.68045228291E+03  0.19682279447E+04  0.25500000920E-02 0.  1.
       -2    1    3    3    0  502 -0.17748857220E+03  0.18383154625E+04  0.10816633241E+04  0.21403040624E+04  0.25500000920E-02 0. -1.
</event>
<event>
 5   0  0.2205204E-07  0.3804738E+04  0.7818609E-02  0.8045139E-01
       -2   -1    0    0    0  501  0.00000000000E+00  0.00000000000E+00  0.22654479841E+04  0.22654479841E+04  0.25500000920E-02 0. -1.
        2   -1    0    0  501    0  0.00000000000E+00  0.00000000000E+00 -0.15974802303E+04  0.15974802303E+04  0.25500000920E-02 0.  1.
    10030    2    1    2    0    0  0.00000000000E+00  0.00000000000E+00  0.66796775381E+03  0.38629282144E+04  0.38047382918E+04 0.  0.
        2    1    3    3  502    0 -0.11008653350E+04 -0.54138505935E+03 -0.11422153255E+04  0.16762034835E+04  0.25500000920E-02 0.  1.
       -2    1    3    3    0  502  0.11008653350E+04  0.54138505935E+03  0.18101830793E+04  0.21867247309E+04  0.25500000920E-02 0. -1.
</event>
<event>
 5   0  0.6661000E-08  0.3806323E+04  0.7818609E-02  0.8044799E-01
       -1   -1    0    0    0  501  0.00000000000E+00  0.00000000000E+00  0.15547698321E+04  0.15547698321E+04  0.50400001928E-02 0. -1.
        1   -1    0    0  501    0  0.00000000000E+00  0.00000000000E+00 -0.23296207717E+04  0.23296207717E+04  0.50400001928E-02 0.  1.
    10030    2    1    2    0    0  0.00000000000E+00  0.00000000000E+00 -0.77485093958E+03  0.38843906038E+04  0.38063232107E+04 0.  0.
        4    1    3    3  502    0  0.11213292559E+04  0.79799693089E+02  0.11797386245E+04  0.16295803528E+04  0.12699999809E+01 0. -1.
       -4    1    3    3    0  502 -0.11213292559E+04 -0.79799693089E+02 -0.19545895641E+04  0.22548102510E+04  0.12699999809E+01 0.  1.
</event>
<event>
 5   0  0.2203998E-07  0.3818495E+04  0.7818609E-02  0.8042198E-01
        2   -1    0    0  501    0  0.00000000000E+00  0.00000000000E+00  0.25611549963E+04  0.25611549963E+04  0.25500000920E-02 0.  1.
       -2   -1    0    0    0  501  0.00000000000E+00  0.00000000000E+00 -0.14232740576E+04  0.14232740576E+04  0.25500000920E-02 0. -1.
    10030    2    1    2    0    0  0.00000000000E+00  0.00000000000E+00  0.11378809387E+04  0.39844290539E+04  0.38184947106E+04 0.  0.
        3    1    3    3  502    0  0.66129016033E+03  0.75160212982E+03  0.22653227215E+04  0.24766706443E+04  0.10100000352E+00 0.  1.
       -3    1    3    3    0  502 -0.66129016033E+03 -0.75160212982E+03 -0.11274417828E+04  0.15077584096E+04  0.10100000352E+00 0. -1.
</event>
<event>
 5   0  0.2203998E-07  0.3859083E+04  0.7818609E-02  0.8033593E-01
        2   -1    0    0  501    0  0.00000000000E+00  0.00000000000E+00  0.19506811495E+04  0.19506811495E+04  0.25500000920E-02 0.  1.
       -2   -1    0    0    0  501  0.00000000000E+00  0.00000000000E+00 -0.19086310642E+04  0.19086310642E+04  0.25500000920E-02 0. -1.
    10030    2    1    2    0    0  0.00000000000E+00  0.00000000000E+00  0.42050085290E+02  0.38593122137E+04  0.38590831234E+04 0.  0.
        3    1    3    3  502    0 -0.69325985117E+03  0.27717586660E+03 -0.17583205711E+04  0.19102688091E+04  0.10100000352E+00 0. -1.
       -3    1    3    3    0  502  0.69325985117E+03 -0.27717586660E+03  0.18003706564E+04  0.19490434045E+04  0.10100000352E+00 0.  1.
</event>
<event>
 5   0  0.2135314E-07  0.3770137E+04  0.7818609E-02  0.8052594E-01
        2   -1    0    0  501    0  0.00000000000E+00  0.00000000000E+00  0.20861668218E+04  0.20861668218E+04  0.25500000920E-02 0. -1.
       -2   -1    0    0    0  501  0.00000000000E+00  0.00000000000E+00 -0.17033555066E+04  0.17033555066E+04  0.25500000920E-02 0.  1.
    10030    2    1    2    0    0  0.00000000000E+00  0.00000000000E+00  0.38281131518E+03  0.37895223284E+04  0.37701372620E+04 0.  0.
        4    1    3    3  502    0  0.18232746988E+04  0.19509283531E+03 -0.24798074904E+03  0.18503750718E+04  0.12699999809E+01 0. -1.
       -4    1    3    3    0  502 -0.18232746988E+04 -0.19509283531E+03  0.63079206423E+03  0.19391472566E+04  0.12699999809E+01 0.  1.
</event>
<event>
 5   0  0.6661000E-08  0.3812499E+04  0.7818609E-02  0.8043478E-01
       -1   -1    0    0    0  501  0.00000000000E+00  0.00000000000E+00  0.16702170472E+04  0.16702170472E+04  0.50400001928E-02 0. -1.
        1   -1    0    0  501    0  0.00000000000E+00  0.00000000000E+00 -0.21756379868E+04  0.21756379868E+04  0.50400001928E-02 0.  1.
    10030    2    1    2    0    0  0.00000000000E+00  0.00000000000E+00 -0.50542093959E+03  0.38458550340E+04  0.38124992612E+04 0.  0.
        2    1    3    3  502    0  0.56076826728E+03  0.15958752104E+04 -0.11393250978E+04  0.20394461050E+04  0.25500000920E-02 0.  1.
       -2    1    3    3    0  502 -0.56076826728E+03 -0.15958752104E+04  0.63390415824E+03  0.18064089290E+04  0.25500000920E-02 0. -1.
</event>
<event>
 5   0  0.6661000E-08  0.3783483E+04  0.7818609E-02  0.8049709E-01
       -1   -1    0    0    0  501  0.00000000000E+00  0.00000000000E+00  0.13980253778E+04  0.13980253778E+04  0.50400001928E-02 0.  1.
        1   -1    0    0  501    0  0.00000000000E+00  0.00000000000E+00 -0.25598148905E+04  0.25598148905E+04  0.50400001928E-02 0. -1.
    10030    2    1    2    0    0  0.00000000000E+00  0.00000000000E+00 -0.11617895128E+04  0.39578402683E+04  0.37834831462E+04 0.  0.
        4    1    3    3  502    0  0.11408145993E+04  0.12693456421E+04  0.27279436065E+03  0.17283271349E+04  0.12699999809E+01 0.  1.
       -4    1    3    3    0  502 -0.11408145993E+04 -0.12693456421E+04 -0.14345838734E+04  0.22295131334E+04  0.12699999809E+01 0. -1.
</event>
<event>
 5   0  0.1370688E-07  0.3787400E+04  0.7818609E-02  0.8048864E-01
        2   -1    0    0  501    0  0.00000000000E+00  0.00000000000E+00  0.12436951150E+04  0.12436951150E+04  0.25500000920E-02 0. -1.
       -2   -1    0    0    0  501  0.00000000000E+00  0.00000000000E+00 -0.28834241124E+04  0.28834241124E+04  0.25500000920E-02 0.  1.
    10030    2    1    2    0    0  0.00000000000E+00  0.00000000000E+00 -0.16397289974E+04  0.41271192273E+04  0.37874004187E+04 0.  0.
        5    1    3    3  502    0  0.13757918723E+04  0.37991296171E+02  0.59750923914E+03  0.15004286039E+04  0.46999998093E+01 0. -1.
       -5    1    3    3    0  502 -0.13757918723E+04 -0.37991296171E+02 -0.22372382365E+04  0.26266906235E+04  0.46999998093E+01 0.  1.
</event>
<event>
 5   0  0.6661000E-08  0.3780161E+04  0.7818609E-02  0.8050426E-01
        1   -1    0    0  501    0  0.00000000000E+00  0.00000000000E+00  0.11997418588E+04  0.11997418589E+04  0.50400001928E-02 0.  1.
       -1   -1    0    0    0  501  0.00000000000E+00  0.00000000000E+00 -0.29776439396E+04  0.29776439396E+04  0.50400001928E-02 0. -1.
    10030    2    1    2    0    0  0.00000000000E+00  0.00000000000E+00 -0.17779020808E+04  0.41773857985E+04  0.37801608829E+04 0.  0.
        4    1    3    3  502    0  0.66755215546E+03  0.15585207739E+04 -0.18120676004E+04  0.24815727844E+04  0.12699999809E+01 0. -1.
       -4    1    3    3    0  502 -0.66755215546E+03 -0.15585207739E+04  0.34165519651E+02  0.16958130141E+04  0.12699999809E+01 0.  1.
</event>
<event>
 5   0  0.2203998E-07  0.3807517E+04  0.7818609E-02  0.8044544E-01
        2   -1    0    0  501    0  0.00000000000E+00  0.00000000000E+00  0.21126826427E+04  0.21126826427E+04  0.25500000920E-02 0. -1.
       -2   -1    0    0    0  501  0.00000000000E+00  0.00000000000E+00 -0.17154950085E+04  0.17154950085E+04  0.25500000920E-02 0.  1.
    10030    2    1    2    0    0  0.00000000000E+00  0.00000000000E+00  0.39718763417E+03  0.38281776512E+04  0.38075170534E+04 0.  0.
        3    1    3    3  502    0 -0.13354848456E+03  0.48534509795E+03  0.20445579341E+04  0.21056144514E+04  0.10100000352E+00 0. -1.
       -3    1    3    3    0  502  0.13354848456E+03 -0.48534509795E+03 -0.16473703000E+04  0.17225631998E+04  0.10100000352E+00 0.  1.
</event>
<event>
 5   0  0.1370688E-07  0.3685641E+04  0.7818609E-02  0.8071151E-01
       -2   -1    0    0    0  501  0.00000000000E+00  0.00000000000E+00  0.25522270930E+04  0.25522270930E+04  0.25500000920E-02 0.  1.
        2   -1    0    0  501    0  0.00000000000E+00  0.00000000000E+00 -0.13305977720E+04  0.13305977720E+04  0.25500000920E-02 0. -1.
    10030    2    1    2    0    0  0.00000000000E+00  0.00000000000E+00  0.12216293210E+04  0.38828248650E+04  0.36856411565E+04 0.  0.
        5    1    3    3  502    0  0.61262155251E+03 -0.17281949720E+04  0.80507788741E+03  0.20025322775E+04  0.46999998093E+01 0. -1.
       -5    1    3    3    0  502 -0.61262155251E+03  0.17281949720E+04  0.41655143355E+03  0.18802925875E+04  0.46999998093E+01 0.  1.
</event>
<event>
 5   0  0.6661000E-08  0.3788919E+04  0.7818609E-02  0.8048537E-01
       -1   -1    0    0    0  501  0.00000000000E+00  0.00000000000E+00  0.20742064784E+04  0.20742064784E+04  0.50400001928E-02 0. -1.
        1   -1    0    0  501    0  0.00000000000E+00  0.00000000000E+00 -0.17302890765E+04  0.17302890765E+04  0.50400001928E-02 0.  1.
    10030    2    1    2    0    0  0.00000000000E+00  0.00000000000E+00  0.34391740193E+03  0.38044955549E+04  0.37889190079E+04 0.  0.
        4    1    3    3  502    0  0.11225981514E+04  0.32519240697E+03  0.16690605364E+04  0.20375822433E+04  0.12699999809E+01 0. -1.
       -4    1    3    3    0  502 -0.11225981514E+04 -0.32519240697E+03 -0.13251431345E+04  0.17669133116E+04  0.12699999809E+01 0.  1.
</event>
<event>
 5   0  0.6661000E-08  0.3814945E+04  0.7818609E-02  0.8042955E-01
        1   -1    0    0  501    0  0.00000000000E+00  0.00000000000E+00  0.19993494264E+04  0.19993494264E+04  0.50400001928E-02 0. -1.
       -1   -1    0    0    0  501  0.00000000000E+00  0.00000000000E+00 -0.18198180680E+04  0.18198180680E+04  0.50400001928E-02 0.  1.
    10030    2    1    2    0    0  0.00000000000E+00  0.00000000000E+00  0.17953135837E+03  0.38191674944E+04  0.38149454573E+04 0.  0.
        3    1    3    3  502    0 -0.17992036394E+03  0.10776376576E+03  0.19877720809E+04  0.19988051988E+04  0.10100000352E+00 0. -1.
       -3    1    3    3    0  502  0.17992036394E+03 -0.10776376576E+03 -0.18082407226E+04  0.18203622957E+04  0.10100000352E+00 0.  1.
</event>
<event>
 5   0  0.6661000E-08  0.3828827E+04  0.7818609E-02  0.8039997E-01
        1   -1    0    0  501    0  0.00000000000E+00  0.00000000000E+00  0.17794416966E+04  0.17794416966E+04  0.50400001928E-02 0.  1.
       -1   -1    0    0    0  501  0.00000000000E+00  0.00000000000E+00 -0.20596227743E+04  0.20596227743E+04  0.50400001928E-02 0. -1.
    10030    2    1    2    0    0  0.00000000000E+00  0.00000000000E+00 -0.28018107771E+03  0.38390644709E+04  0.38288267884E+04 0.  0.
        2    1    3    3  502    0  0.80036758597E+03  0.14922341444E+04 -0.10355785591E+04  0.19848863863E+04  0.25500000920E-02 0. -1.
       -2    1    3    3    0  502 -0.80036758597E+03 -0.14922341444E+04  0.75539748139E+03  0.18541780846E+04  0.25500000920E-02 0.  1.
</event>
<event>
 5   0  0.1370688E-07  0.3783123E+04  0.7818609E-02  0.8049786E-01
       -2   -1    0    0    0  501  0.00000000000E+00  0.00000000000E+00  0.13525865923E+04  0.13525865923E+04  0.25500000920E-02 0. -1.
        2   -1    0    0  501    0  0.00000000000E+00  0.00000000000E+00 -0.26453050254E+04  0.26453050254E+04  0.25500000920E-02 0.  1.
    10030    2    1    2    0    0  0.00000000000E+00  0.00000000000E+00 -0.12927184331E+04  0.39978916178E+04  0.37831225780E+04 0.  0.
        5    1    3    3  502    0 -0.38327567144E+03  0.15773225054E+04  0.37992499490E+03  0.16670967633E+04  0.46999998093E+01 0. -1.
       -5    1    3    3    0  502  0.38327567144E+03 -0.15773225054E+04 -0.16726434280E+04  0.23307948545E+04  0.46999998093E+01 0.  1.
</event>
<event>
 5   0  0.6661000E-08  0.3790043E+04  0.7818609E-02  0.8048295E-01
       -1   -1    0    0    0  501  0.00000000000E+00  0.00000000000E+00  0.18211257805E+04  0.18211257805E+04  0.50400001928E-02 0.  1.
        1   -1    0    0  501    0  0.00000000000E+00  0.00000000000E+00 -0.19719159980E+04  0.19719159980E+04  0.50400001928E-02 0. -1.
    10030    2    1    2    0    0  0.00000000000E+00  0.00000000000E+00 -0.15079021748E+03  0.37930417785E+04  0.37900433037E+04 0.  0.
        4    1    3    3  502    0  0.90085332170E+03 -0.10119901135E+04  0.12505850847E+04  0.18438073012E+04  0.12699999809E+01 0.  1.
       -4    1    3    3    0  502 -0.90085332170E+03  0.10119901135E+04 -0.14013753022E+04  0.19492344773E+04  0.12699999809E+01 0. -1.
</event>
<event>
 5   0  0.6661000E-08  0.3755137E+04  0.7818609E-02  0.8055851E-01
        3   -1    0    0  501    0  0.00000000000E+00  0.00000000000E+00  0.16863334192E+04  0.16863334222E+04  0.10100000352E+00 0. -1.
       -3   -1    0    0    0  501  0.00000000000E+00  0.00000000000E+00 -0.20904905237E+04  0.20904905261E+04  0.10100000352E+00 0.  1.
    10030    2    1    2    0    0  0.00000000000E+00  0.00000000000E+00 -0.40415710446E+03  0.37768239484E+04  0.37551373040E+04 0.  0.
        2    1    3    3  502    0 -0.93261369205E+03 -0.11746012520E+04  0.93396117718E+03  0.17668446113E+04  0.25500000920E-02 0. -1.
       -2    1    3    3    0  502  0.93261369205E+03  0.11746012520E+04 -0.13381182816E+04  0.20099793371E+04  0.25500000920E-02 0.  1.
</event>
<event>
 5   0  0.6661000E-08  0.3921803E+04  0.7818609E-02  0.8020510E-01
        1   -1    0    0  501    0  0.00000000000E+00  0.00000000000E+00  0.24294740552E+04  0.24294740552E+04  0.50400001928E-02 0. -1.
       -1   -1    0    0    0  501  0.00000000000E+00  0.00000000000E+00 -0.15827021813E+04  0.15827021813E+04  0.50400001928E-02 0.  1.
    10030    2    1    2    0    0  0.00000000000E+00  0.00000000000E+00  0.84677187395E+03  0.40121762365E+04  0.39218025889E+04 0.  0.
        2    1    3    3  502    0  0.90942521587E+03 -0.16847847097E+04 -0.10148331501E+02  0.19145904862E+04  0.25500000920E-02 0.  1.
       -2    1    3    3    0  502 -0.90942521587E+03  0.16847847097E+04  0.85692020545E+03  0.20975857503E+04  0.25500000920E-02 0. -1.
</event>
<event>
 5   0  0.6725199E-08  0.3808943E+04  0.7818609E-02  0.8044238E-01
        1   -1    0    0  501    0  0.00000000000E+00  0.00000000000E+00  0.16433320208E+04  0.16433320208E+04  0.50400001928E-02 0.  1.
       -1   -1    0    0    0  501  0.00000000000E+00  0.00000000000E+00 -0.22071083909E+04  0.22071083909E+04  0.50400001928E-02 0. -1.
    10030    2    1    2    0    0  0.00000000000E+00  0.00000000000E+00 -0.56377637009E+03  0.38504404117E+04  0.38089431039E+04 0.  0.
        5    1    3    3  502    0 -0.66357137119E+03 -0.85871697894E+02  0.15205937362E+04  0.16613031974E+04  0.46999998093E+01 0.  1.
       -5    1    3    3    0  502  0.66357137119E+03  0.85871697894E+02 -0.20843701063E+04  0.21891372143E+04  0.46999998093E+01 0. -1.
</event>
<event>
 5   0  0.2205204E-07  0.3701347E+04  0.7818609E-02  0.8067663E-01
       -2   -1    0    0    0  501  0.00000000000E+00  0.00000000000E+00  0.20451124971E+04  0.20451124971E+04  0.25500000920E-02 0. -1.
        2   -1    0    0  501    0  0.00000000000E+00  0.00000000000E+00 -0.16747207205E+04  0.16747207205E+04  0.25500000920E-02 0.  1.
    10030    2    1    2    0    0  0.00000000000E+00  0.00000000000E+00  0.37039177665E+03  0.37198332176E+04  0.37013469303E+04 0.  0.
        2    1    3    3  502    0 -0.95693943057E+03  0.55066788616E+03 -0.13074912779E+04  0.17112865442E+04  0.25500000920E-02 0.  1.
       -2    1    3    3    0  502  0.95693943057E+03 -0.55066788616E+03  0.16778830545E+04  0.20085466734E+04  0.25500000920E-02 0. -1.
</event>
<event>
 5   0  0.2135314E-07  0.3822049E+04  0.7818609E-02  0.8041440E-01
       -2   -1    0    0    0  501  0.00000000000E+00  0.00000000000E+00  0.32409455744E+04  0.32409455744E+04  0.25500000920E-02 0.  1.
        2   -1    0    0  501    0  0.00000000000E+00  0.00000000000E+00 -0.11268359668E+04  0.11268359668E+04  0.25500000920E-02 0. -1.
    10030    2    1    2    0    0  0.00000000000E+00  0.00000000000E+00  0.21141096076E+04  0.43677815412E+04  0.38220486861E+04 0.  0.
        4    1    3    3  502    0  0.75316865624E+02  0.18367023987E+04  0.46010489523E+03  0.18949528910E+04  0.12699999809E+01 0. -1.
       -4    1    3    3    0  502 -0.75316865624E+02 -0.18367023987E+04  0.16540047124E+04  0.24728286502E+04  0.12699999809E+01 0.  1.
</event>
<event>
 5   0  0.2203998E-07  0.3827670E+04  0.7818609E-02  0.8040243E-01
        2   -1    0    0  501    0  0.00000000000E+00  0.00000000000E+00  0.11675349001E+04  0.11675349001E+04  0.25500000920E-02 0.  1.
       -2   -1    0    0    0  501  0.00000000000E+00  0.00000000000E+00 -0.31371783895E+04  0.31371783895E+04  0.25500000920E-02 0. -1.
    10030    2    1    2    0    0  0.00000000000E+00  0.00000000000E+00 -0.19696434894E+04  0.43047132896E+04  0.38276704444E+04 0.  0.
        3    1    3    3  502    0 -0.30303608313E+03 -0.18476195538E+04 -0.53887172362E+03  0.19483099415E+04  0.10100000352E+00 0.  1.
       -3    1    3    3    0  502  0.30303608313E+03  0.18476195538E+04 -0.14307717657E+04  0.23564033481E+04  0.10100000352E+00 0. -1.
</event>
<event>
 5   0  0.6661000E-08  0.3877499E+04  0.7818609E-02  0.8029725E-01
        1   -1    0    0  501    0  0.00000000000E+00  0.00000000000E+00  0.14417625918E+04  0.14417625918E+04  0.50400001928E-02 0. -1.
       -1   -1    0    0    0  501  0.00000000000E+00  0.00000000000E+00 -0.26070520165E+04  0.26070520165E+04  0.50400001928E-02 0.  1.
    10030    2    1    2    0    0  0.00000000000E+00  0.00000000000E+00 -0.11652894247E+04  0.40488146084E+04  0.38774992314E+04 0.  0.
        4    1    3    3  502    0  0.10290011530E+04  0.11334564894E+04 -0.18248181497E+04  0.23819172695E+04  0.12699999809E+01 0.  1.
       -4    1    3    3    0  502 -0.10290011530E+04 -0.11334564894E+04  0.65952872505E+03  0.16668973389E+04  0.12699999809E+01 0. -1.
</event>
<event>
 5   0  0.6661000E-08  0.3811673E+04  0.7818609E-02  0.8043655E-01
       -1   -1    0    0    0  501  0.00000000000E+00  0.00000000000E+00  0.13510369205E+04  0.13510369206E+04  0.50400001928E-02 0. -1.
        1   -1    0    0  501    0  0.00000000000E+00  0.00000000000E+00 -0.26884624568E+04  0.26884624568E+04  0.50400001928E-02 0.  1.
    10030    2    1    2    0    0  0.00000000000E+00  0.00000000000E+00 -0.13374255363E+04  0.40394993774E+04  0.38116726190E+04 0.  0.
        3    1    3    3  502    0  0.12562684161E+04 -0.10582751857E+04 -0.16929445641E+04  0.23588594721E+04  0.10100000352E+00 0.  1.
       -3    1    3    3    0  502 -0.12562684161E+04  0.10582751857E+04  0.35551902781E+03  0.16806399053E+04  0.10100000352E+00 0. -1.
</event>
<event>
 5   0  0.6725199E-08  0.3814998E+04  0.7818609E-02  0.8042944E-01
       -1   -1    0    0    0  501  0.00000000000E+00  0.00000000000E+00  0.14672709957E+04  0.14672709957E+04  0.50400001928E-02 0. -1.
        1   -1    0    0  501    0  0.00000000000E+00  0.00000000000E+00 -0.24798094737E+04  0.24798094737E+04  0.50400001928E-02 0.  1.
    10030    2    1    2    0    0  0.00000000000E+00  0.00000000000E+00 -0.10125384780E+04  0.39470804695E+04  0.38149980423E+04 0.  0.
        5    1    3    3  502    0 -0.16886567648E+04  0.62917250760E+02 -0.14217840279E+04  0.22083958345E+04  0.46999998093E+01 0.  1.
       -5    1    3    3    0  502  0.16886567648E+04 -0.62917250760E+02  0.40924554995E+03  0.17386846350E+04  0.46999998093E+01 0. -1.
</event>
<event>
 5   0  0.6725199E-08  0.3800345E+04  0.7818609E-02  0.8046081E-01
        1   -1    0    0  501    0  0.00000000000E+00  0.00000000000E+00  0.22978850555E+04  0.22978850555E+04  0.50400001928E-02 0.  1.
       -1   -1    0    0    0  501  0.00000000000E+00  0.00000000000E+00 -0.15712954421E+04  0.15712954421E+04  0.50400001928E-02 0. -1.
    10030    2    1    2    0    0  0.00000000000E+00  0.00000000000E+00  0.72658961339E+03  0.38691804975E+04  0.38003454128E+04 0.  0.
        5    1    3    3  502    0  0.18820842584E+04 -0.24089338843E+03  0.25964990033E+03  0.19151268734E+04  0.46999998093E+01 0. -1.
       -5    1    3    3    0  502 -0.18820842584E+04  0.24089338843E+03  0.46693971307E+03  0.19540536242E+04  0.46999998093E+01 0.  1.
</event>
<event>
 5   0  0.2205204E-07  0.3769742E+04  0.7818609E-02  0.8052680E-01
       -2   -1    0    0    0  501  0.00000000000E+00  0.00000000000E+00  0.28896432167E+04  0.28896432167E+04  0.25500000920E-02 0. -1.
        2   -1    0    0  501    0  0.00000000000E+00  0.00000000000E+00 -0.12294729187E+04  0.12294729187E+04  0.25500000920E-02 0.  1.
    10030    2    1    2    0    0  0.00000000000E+00  0.00000000000E+00  0.16601702980E+04  0.41191161354E+04  0.37697416779E+04 0.  0.
        2    1    3    3  502    0 -0.13697264779E+04 -0.50510654730E+03 -0.47265853876E+03  0.15344997044E+04  0.25500000920E-02 0.  1.
       -2    1    3    3    0  502  0.13697264779E+04  0.50510654730E+03  0.21328288368E+04  0.25846164310E+04  0.25500000920E-02 0. -1.
</event>
<event>
 5   0  0.2205204E-07  0.3800663E+04  0.7818609E-02  0.8046013E-01
        2   -1    0    0  501    0  0.00000000000E+00  0.00000000000E+00  0.28694414948E+04  0.28694414948E+04  0.25500000920E-02 0. -1.
       -2   -1    0    0    0  501  0.00000000000E+00  0.00000000000E+00 -0.12585232993E+04  0.12585232993E+04  0.25500000920E-02 0.  1.
    10030    2    1    2    0    0  0.00000000000E+00  0.00000000000E+00  0.16109181955E+04  0.41279647940E+04  0.38006625617E+04 0.  0.
        2    1    3    3  502    0  0.10472888041E+04  0.29574089412E+02 -0.91649752913E+03  0.13919971935E+04  0.25500000920E-02 0.  1.
       -2    1    3    3    0  502 -0.10472888041E+04 -0.29574089412E+02  0.25274157246E+04  0.27359676005E+04  0.25500000920E-02 0. -1.
</event>
<event>
 5   0  0.6661000E-08  0.3809968E+04  0.7818609E-02  0.8044019E-01
        1   -1    0    0  501    0  0.00000000000E+00  0.00000000000E+00  0.24838859192E+04  0.24838859192E+04  0.50400001928E-02 0.  1.
       -1   -1    0    0    0  501  0.00000000000E+00  0.00000000000E+00 -0.14610029263E+04  0.14610029263E+04  0.50400001928E-02 0. -1.
    10030    2    1    2    0    0  0.00000000000E+00  0.00000000000E+00  0.10228829929E+04  0.39448888454E+04  0.38099682920E+04 0.  0.
        1    1    3    3  502    0  0.62975886106E+03 -0.14089195524E+03 -0.13443799221E+04  0.14912424824E+04  0.50400001928E-02 0. -1.
       -1    1    3    3    0  502 -0.62975886106E+03  0.14089195524E+03  0.23672629150E+04  0.24536463631E+04  0.50400001928E-02 0.  1.
</event>
<event>
 5   0  0.6661000E-08  0.3784518E+04  0.7818609E-02  0.8049485E-01
       -1   -1    0    0    0  501  0.00000000000E+00  0.00000000000E+00  0.28557754827E+04  0.28557754827E+04  0.50400001928E-02 0. -1.
        1   -1    0    0  501    0  0.00000000000E+00  0.00000000000E+00 -0.12538253734E+04  0.12538253734E+04  0.50400001928E-02 0.  1.
    10030    2    1    2    0    0  0.00000000000E+00  0.00000000000E+00  0.16019501093E+04  0.41096008561E+04  0.37845178086E+04 0.  0.
        4    1    3    3  502    0 -0.65915807119E+03  0.15211955588E+04 -0.18958600204E+03  0.16686730525E+04  0.12699999809E+01 0.  1.
       -4    1    3    3    0  502  0.65915807119E+03 -0.15211955588E+04  0.17915361114E+04  0.24409278036E+04  0.12699999809E+01 0. -1.
</event>
<event>
 5   0  0.2081337E-07  0.3787504E+04  0.7818609E-02  0.8048842E-01
       -2   -1    0    0    0  501  0.00000000000E+00  0.00000000000E+00  0.18299282949E+04  0.18299282949E+04  0.25500000920E-02 0.  1.
        2   -1    0    0  501    0  0.00000000000E+00  0.00000000000E+00 -0.19598019334E+04  0.19598019334E+04  0.25500000920E-02 0. -1.
    10030    2    1    2    0    0  0.00000000000E+00  0.00000000000E+00 -0.12987363842E+03  0.37897302283E+04  0.37875041969E+04 0.  0.
        1    1    3    3  502    0 -0.45049239823E+03  0.11400921896E+04  0.13793599827E+04  0.18453692215E+04  0.50400001928E-02 0.  1.
       -1    1    3    3    0  502  0.45049239823E+03 -0.11400921896E+04 -0.15092336211E+04  0.19443610068E+04  0.50400001928E-02 0. -1.
</event>
<event>
 5   0  0.1370688E-07  0.3795283E+04  0.7818609E-02  0.8047168E-01
       -2   -1    0    0    0  501  0.00000000000E+00  0.00000000000E+00  0.15791905091E+04  0.15791905091E+04  0.25500000920E-02 0.  1.
        2   -1    0    0  501    0  0.00000000000E+00  0.00000000000E+00 -0.22803100729E+04  0.22803100729E+04  0.25500000920E-02 0. -1.
    10030    2    1    2    0    0  0.00000000000E+00  0.00000000000E+00 -0.70111956377E+03  0.38595005820E+04  0.37952834018E+04 0.  0.
        5    1    3    3  502    0 -0.11533576379E+04  0.12460253945E+04  0.51125167598E+03  0.17731930213E+04  0.46999998093E+01 0. -1.
       -5    1    3    3    0  502  0.11533576379E+04 -0.12460253945E+04 -0.12123712397E+04  0.20863075607E+04  0.46999998093E+01 0.  1.
</event>
<event>
 5   0  0.6661000E-08  0.3810458E+04  0.7818609E-02  0.8043914E-01
        1   -1    0    0  501    0  0.00000000000E+00  0.00000000000E+00  0.12776946802E+04  0.12776946802E+04  0.50400001928E-02 0.  1.
       -1   -1    0    0    0  501  0.00000000000E+00  0.00000000000E+00 -0.28409741965E+04  0.28409741966E+04  0.50400001928E-02 0. -1.
    10030    2    1    2    0    0  0.00000000000E+00  0.00000000000E+00 -0.15632795164E+04  0.41186688767E+04  0.38104580394E+04 0.  0.
        2    1    3    3  502    0 -0.15565323484E+04 -0.10871505871E+04 -0.95325315477E+03  0.21244719174E+04  0.25500000920E-02 0.  1.
       -2    1    3    3    0  502  0.15565323484E+04  0.10871505871E+04 -0.61002636162E+03  0.19941969593E+04  0.25500000920E-02 0. -1.
</event>
<event>
 5   0  0.6661000E-08  0.3773134E+04  0.7818609E-02  0.8051945E-01
        1   -1    0    0  501    0  0.00000000000E+00  0.00000000000E+00  0.23490165031E+04  0.23490165031E+04  0.50400001928E-02 0. -1.
       -1   -1    0    0    0  501  0.00000000000E+00  0.00000000000E+00 -0.15151593203E+04  0.15151593203E+04  0.50400001928E-02 0.  1.
    10030    2    1    2    0    0  0.00000000000E+00  0.00000000000E+00  0.83385718274E+03  0.38641758234E+04  0.37731335774E+04 0.  0.
        2    1    3    3  502    0 -0.63998288414E+03 -0.37341250688E+03  0.21937613377E+04  0.23155137225E+04  0.25500000920E-02 0. -1.
       -2    1    3    3    0  502  0.63998288414E+03  0.37341250688E+03 -0.13599041549E+04  0.15486621009E+04  0.25500000920E-02 0.  1.
</event>
<event>
 5   0  0.6661000E-08  0.3761864E+04  0.7818609E-02  0.8054389E-01
        1   -1    0    0  501    0  0.00000000000E+00  0.00000000000E+00  0.10180423590E+04  0.10180423590E+04  0.50400001928E-02 0. -1.
       -1   -1    0    0    0  501  0.00000000000E+00  0.00000000000E+00 -0.34752051872E+04  0.34752051872E+04  0.50400001928E-02 0.  1.
    10030    2    1    2    0    0  0.00000000000E+00  0.00000000000E+00 -0.24571628282E+04  0.44932475463E+04  0.37618644776E+04 0.  0.
        3    1    3    3  502    0  0.72049376411E+03 -0.14015100140E+04 -0.20073641125E+01  0.15758634532E+04  0.10100000352E+00 0. -1.
       -3    1    3    3    0  502 -0.72049376411E+03  0.14015100140E+04 -0.24551554641E+04  0.29173840930E+04  0.10100000352E+00 0.  1.
</event>
<event>
 5   0  0.2203998E-07  0.3776395E+04  0.7818609E-02  0.8051239E-01
       -2   -1    0    0    0  501  0.00000000000E+00  0.00000000000E+00  0.18095873513E+04  0.18095873513E+04  0.25500000920E-02 0. -1.
        2   -1    0    0  501    0  0.00000000000E+00  0.00000000000E+00 -0.19702230660E+04  0.19702230660E+04  0.25500000920E-02 0.  1.
    10030    2    1    2    0    0  0.00000000000E+00  0.00000000000E+00 -0.16063571470E+03  0.37798104172E+04  0.37763954980E+04 0.  0.
        3    1    3    3  502    0 -0.60187083864E+03  0.27042937505E+03  0.16904371698E+04  0.18146510377E+04  0.10100000352E+00 0. -1.
       -3    1    3    3    0  502  0.60187083864E+03 -0.27042937505E+03 -0.18510728845E+04  0.19651593796E+04  0.10100000352E+00 0.  1.
</event>
<event>
 5   0  0.6661000E-08  0.3822147E+04  0.7818609E-02  0.8041419E-01
        1   -1    0    0  501    0  0.00000000000E+00  0.00000000000E+00  0.15226233822E+04  0.15226233822E+04  0.50400001928E-02 0. -1.
       -1   -1    0    0    0  501  0.00000000000E+00  0.00000000000E+00 -0.23986240064E+04  0.23986240064E+04  0.50400001928E-02 0.  1.
    10030    2    1    2    0    0  0.00000000000E+00  0.00000000000E+00 -0.87600062416E+03  0.39212473886E+04  0.38221465159E+04 0.  0.
        3    1    3    3  502    0 -0.14443212134E+04  0.81878953090E+03 -0.14089646318E+04  0.21775356271E+04  0.10100000352E+00 0. -1.
       -3    1    3    3    0  502  0.14443212134E+04 -0.81878953090E+03  0.53296400763E+03  0.17437117615E+04  0.10100000352E+00 0.  1.
</event>
<event>
 5   0  0.6661000E-08  0.3807801E+04  0.7818609E-02  0.8044483E-01
       -1   -1    0    0    0  501  0.00000000000E+00  0.00000000000E+00  0.14270241369E+04  0.14270241369E+04  0.50400001928E-02 0. -1.
        1   -1    0    0  501    0  0.00000000000E+00  0.00000000000E+00 -0.25401375905E+04  0.25401375906E+04  0.50400001928E-02 0.  1.
    10030    2    1    2    0    0  0.00000000000E+00  0.00000000000E+00 -0.11131134537E+04  0.39671617275E+04  0.38078012830E+04 0.  0.
        2    1    3    3  502    0 -0.11697800040E+03 -0.10042831572E+04  0.11242073900E+04  0.15119890106E+04  0.25500000920E-02 0. -1.
       -2    1    3    3    0  502  0.11697800040E+03  0.10042831572E+04 -0.22373208436E+04  0.24551727169E+04  0.25500000920E-02 0.  1.
</event>
<event>
 5   0  0.2203998E-07  0.3779808E+04  0.7818609E-02  0.8050502E-01
        2   -1    0    0  501    0  0.00000000000E+00  0.00000000000E+00  0.19361427047E+04  0.19361427047E+04  0.25500000920E-02 0.  1.
       -2   -1    0    0    0  501  0.00000000000E+00  0.00000000000E+00 -0.18447693951E+04  0.18447693951E+04  0.25500000920E-02 0. -1.
    10030    2    1    2    0    0  0.00000000000E+00  0.00000000000E+00  0.91373309618E+02  0.37809120998E+04  0.37798078290E+04 0.  0.
        3    1    3    3  502    0  0.60816723277E+03 -0.47192370841E+03  0.17722145005E+04  0.19321810515E+04  0.10100000352E+00 0.  1.
       -3    1    3    3    0  502 -0.60816723277E+03  0.47192370841E+03 -0.16808411909E+04  0.18487310483E+04  0.10100000352E+00 0. -1.
</event>
<event>
 5   0  0.1370688E-07  0.3789120E+04  0.7818609E-02  0.8048494E-01
       -2   -1    0    0    0  501  0.00000000000E+00  0.00000000000E+00  0.14818937574E+04  0.14818937574E+04  0.25500000920E-02 0.  1.
        2   -1    0    0  501    0  0.00000000000E+00  0.00000000000E+00 -0.24221425209E+04  0.24221425209E+04  0.25500000920E-02 0. -1.
    10030    2    1    2    0    0  0.00000000000E+00  0.00000000000E+00 -0.94024876343E+03  0.39040362783E+04  0.37891201519E+04 0.  0.
        5    1    3    3  502    0 -0.16571379954E+04 -0.26089001746E+03  0.43701241724E+03  0.17335431577E+04  0.46999998093E+01 0.  1.
       -5    1    3    3    0  502  0.16571379954E+04  0.26089001746E+03 -0.13772611807E+04  0.21704931206E+04  0.46999998093E+01 0. -1.
</event>
<event>
 5   0  0.1370688E-07  0.3810765E+04  0.7818609E-02  0.8043849E-01
        2   -1    0    0  501    0  0.00000000000E+00  0.00000000000E+00  0.25886995897E+04  0.25886995897E+04  0.25500000920E-02 0. -1.
       -2   -1    0    0    0  501  0.00000000000E+00  0.00000000000E+00 -0.14024351486E+04  0.14024351486E+04  0.25500000920E-02 0.  1.
    10030    2    1    2    0    0  0.00000000000E+00  0.00000000000E+00  0.11862644411E+04  0.39911347383E+04  0.38107654316E+04 0.  0.
        5    1    3    3  502    0 -0.90347608566E+02 -0.99536377964E+03  0.22921187715E+04  0.25005483992E+04  0.46999998093E+01 0. -1.
       -5    1    3    3    0  502  0.90347608566E+02  0.99536377964E+03 -0.11058543304E+04  0.14905863391E+04  0.46999998093E+01 0.  1.
</event>
<event>
 5   0  0.1370688E-07  0.3796278E+04  0.7818609E-02  0.8046954E-01
        2   -1    0    0  501    0  0.00000000000E+00  0.00000000000E+00  0.13806764739E+04  0.13806764739E+04  0.25500000920E-02 0. -1.
       -2   -1    0    0    0  501  0.00000000000E+00  0.00000000000E+00 -0.26095404264E+04  0.26095404264E+04  0.25500000920E-02 0.  1.
    10030    2    1    2    0    0  0.00000000000E+00  0.00000000000E+00 -0.12288639525E+04  0.39902169002E+04  0.37962776897E+04 0.  0.
        5    1    3    3  502    0 -0.11715317604E+04 -0.37344915056E+03 -0.21343185936E+04  0.24631867332E+04  0.46999998093E+01 0.  1.
       -5    1    3    3    0  502  0.11715317604E+04  0.37344915056E+03  0.90545464113E+03  0.15270301670E+04  0.46999998093E+01 0. -1.
</event>
<event>
 5   0  0.2205204E-07  0.3824575E+04  0.7818609E-02  0.8040902E-01
       -2   -1    0    0    0  501  0.00000000000E+00  0.00000000000E+00  0.26406326010E+04  0.26406326010E+04  0.25500000920E-02 0.  1.
        2   -1    0    0  501    0  0.00000000000E+00  0.00000000000E+00 -0.13848360988E+04  0.13848360988E+04  0.25500000920E-02 0. -1.
    10030    2    1    2    0    0  0.00000000000E+00  0.00000000000E+00  0.12557965022E+04  0.40254686998E+04  0.38245749303E+04 0.  0.
        2    1    3    3  502    0 -0.16901084982E+04  0.52773586252E+03  0.13882508926E+04  0.22499360918E+04  0.25500000920E-02 0.  1.
       -2    1    3    3    0  502  0.16901084982E+04 -0.52773586252E+03 -0.13245439045E+03  0.17755326079E+04  0.25500000920E-02 0. -1.
</event>
<event>
 5   0  0.2135314E-07  0.3767459E+04  0.7818609E-02  0.8053174E-01
        2   -1    0    0  501    0  0.00000000000E+00  0.00000000000E+00  0.21967271397E+04  0.21967271397E+04  0.25500000920E-02 0.  1.
       -2   -1    0    0    0  501  0.00000000000E+00  0.00000000000E+00 -0.16153287911E+04  0.16153287911E+04  0.25500000920E-02 0. -1.
    10030    2    1    2    0    0  0.00000000000E+00  0.00000000000E+00  0.58139834851E+03  0.38120559308E+04  0.37674588757E+04 0.  0.
        4    1    3    3  502    0  0.79882080984E+03  0.15062895126E+04 -0.51966335581E+03  0.17824349633E+04  0.12699999809E+01 0. -1.
       -4    1    3    3    0  502 -0.79882080984E+03 -0.15062895126E+04  0.11010617043E+04  0.20296209675E+04  0.12699999809E+01 0.  1.
</event>
<event>
 5   0  0.1370688E-07  0.3843902E+04  0.7818609E-02  0.8036799E-01
       -2   -1    0    0    0  501  0.00000000000E+00  0.00000000000E+00  0.20326182795E+04  0.20326182795E+04  0.25500000920E-02 0.  1.
        2   -1    0    0  501    0  0.00000000000E+00  0.00000000000E+00 -0.18173087724E+04  0.18173087724E+04  0.25500000920E-02 0. -1.
    10030    2    1    2    0    0  0.00000000000E+00  0.00000000000E+00  0.21530950712E+03  0.38499270519E+04  0.38439016795E+04 0.  0.
        5    1    3    3  502    0  0.86613816241E+03  0.78316141879E+03  0.16365913819E+04  0.20104702349E+04  0.46999998093E+01 0.  1.
       -5    1    3    3    0  502 -0.86613816241E+03 -0.78316141879E+03 -0.14212818747E+04  0.18394568170E+04  0.46999998093E+01 0. -1.
</event>
<event>
 5   0  0.1370688E-07  0.3806586E+04  0.7818609E-02  0.8044743E-01
       -2   -1    0    0    0  501  0.00000000000E+00  0.00000000000E+00  0.15777856647E+04  0.15777856647E+04  0.25500000920E-02 0.  1.
        2   -1    0    0  501    0  0.00000000000E+00  0.00000000000E+00 -0.22959550749E+04  0.22959550749E+04  0.25500000920E-02 0. -1.
    10030    2    1    2    0    0  0.00000000000E+00  0.00000000000E+00 -0.71816941017E+03  0.38737407396E+04  0.38065863994E+04 0.  0.
        5    1    3    3  502    0 -0.15038687434E+04 -0.24991203849E+03 -0.15186718957E+04  0.21518512125E+04  0.46999998093E+01 0. -1.
       -5    1    3    3    0  502  0.15038687434E+04  0.24991203849E+03  0.80050248549E+03  0.17218895271E+04  0.46999998093E+01 0.  1.
</event>
<event>
 5   0  0.2081337E-07  0.3699722E+04  0.7818609E-02  0.8068023E-01
        2   -1    0    0  501    0  0.00000000000E+00  0.00000000000E+00  0.27163349701E+04  0.27163349701E+04  0.25500000920E-02 0. -1.
       -2   -1    0    0    0  501  0.00000000000E+00  0.00000000000E+00 -0.12597804839E+04  0.12597804839E+04  0.25500000920E-02 0.  1.
    10030    2    1    2    0    0  0.00000000000E+00  0.00000000000E+00  0.14565544861E+04  0.39761154540E+04  0.36997220345E+04 0.  0.
        1    1    3    3  502    0  0.79287566278E+03 -0.11614950566E+04 -0.56327822701E+03  0.15149273726E+04  0.50400001928E-02 0.  1.
       -1    1    3    3    0  502 -0.79287566278E+03  0.11614950566E+04  0.20198327131E+04  0.24611880814E+04  0.50400001928E-02 0. -1.
</event>
<event>
 5   0  0.6725199E-08  0.3747995E+04  0.7818609E-02  0.8057408E-01
       -1   -1    0    0    0  501  0.00000000000E+00  0.00000000000E+00  0.16440014686E+04  0.16440014686E+04  0.50400001928E-02 0. -1.
        1   -1    0    0  501    0  0.00000000000E+00  0.00000000000E+00 -0.21361702842E+04  0.21361702842E+04  0.50400001928E-02 0.  1.
    10030    2    1    2    0    0  0.00000000000E+00  0.00000000000E+00 -0.49216881568E+03  0.37801717528E+04  0.37479952425E+04 0.  0.
        5    1    3    3  502    0 -0.36210539811E+03 -0.28918660370E+03  0.15852948183E+04  0.16516449262E+04  0.46999998093E+01 0. -1.
       -5    1    3    3    0  502  0.36210539811E+03  0.28918660370E+03 -0.20774636340E+04  0.21285268266E+04  0.46999998093E+01 0.  1.
</event>
<event>
 5   0  0.2081337E-07  0.3596028E+04  0.7818609E-02  0.8091402E-01
       -2   -1    0    0    0  501  0.00000000000E+00  0.00000000000E+00  0.13856173337E+04  0.13856173337E+04  0.25500000920E-02 0. -1.
        2   -1    0    0  501    0  0.00000000000E+00  0.00000000000E+00 -0.23331512075E+04  0.23331512075E+04  0.25500000920E-02 0.  1.
    10030    2    1    2    0    0  0.00000000000E+00  0.00000000000E+00 -0.94753387374E+03  0.37187685412E+04  0.35960282286E+04 0.  0.
        1    1    3    3  502    0  0.91409221903E+03 -0.16688700728E+03 -0.20656047356E+04  0.22649809672E+04  0.50400001928E-02 0.  1.
       -1    1    3    3    0  502 -0.91409221903E+03  0.16688700728E+03  0.11180708619E+04  0.14537875740E+04  0.50400001928E-02 0. -1.
</event>
<event>
 5   0  0.1370688E-07  0.3796010E+04  0.7818609E-02  0.8047012E-01
        2   -1    0    0  501    0  0.00000000000E+00  0.00000000000E+00  0.22440170196E+04  0.22440170196E+04  0.25500000920E-02 0. -1.
       -2   -1    0    0    0  501  0.00000000000E+00  0.00000000000E+00 -0.16053458446E+04  0.16053458446E+04  0.25500000920E-02 0.  1.
    10030    2    1    2    0    0  0.00000000000E+00  0.00000000000E+00  0.63867117498E+03  0.38493628642E+04  0.37960102200E+04 0.  0.
        5    1    3    3  502    0  0.69130804831E+03  0.32824600911E+03  0.20806264069E+04  0.22169078905E+04  0.46999998093E+01 0. -1.
       -5    1    3    3    0  502 -0.69130804831E+03 -0.32824600911E+03 -0.14419552319E+04  0.16324549736E+04  0.46999998093E+01 0.  1.
</event>
<event>
 5   0  0.2203998E-07  0.3782652E+04  0.7818609E-02  0.8049888E-01
       -2   -1    0    0    0  501  0.00000000000E+00  0.00000000000E+00  0.15588209920E+04  0.15588209920E+04  0.25500000920E-02 0. -1.
        2   -1    0    0  501    0  0.00000000000E+00  0.00000000000E+00 -0.22947557080E+04  0.22947557080E+04  0.25500000920E-02 0.  1.
    10030    2    1    2    0    0  0.00000000000E+00  0.00000000000E+00 -0.73593471604E+03  0.38535767000E+04  0.37826516462E+04 0.  0.
        3    1    3    3  502    0  0.69944950714E+03  0.52544837811E+03 -0.20762468479E+04  0.22530260972E+04  0.10100000352E+00 0.  1.
       -3    1    3    3    0  502 -0.69944950714E+03 -0.52544837811E+03  0.13403121319E+04  0.16005506028E+04  0.10100000352E+00 0. -1.
</event>
<event>
 5   0  0.6661000E-08  0.3776376E+04  0.7818609E-02  0.8051244E-01
       -1   -1    0    0    0  501  0.00000000000E+00  0.00000000000E+00  0.14803413675E+04  0.14803413675E+04  0.50400001928E-02 0.  1.
        1   -1    0    0  501    0  0.00000000000E+00  0.00000000000E+00 -0.24084000221E+04  0.24084000221E+04  0.50400001928E-02 0. -1.
    10030    2    1    2    0    0  0.00000000000E+00  0.00000000000E+00 -0.92805865465E+03  0.38887413896E+04  0.37763761370E+04 0.  0.
        4    1    3    3  502    0  0.13106229587E+04  0.13031756718E+03  0.92920163201E+03  0.16118723566E+04  0.12699999809E+01 0.  1.
       -4    1    3    3    0  502 -0.13106229587E+04 -0.13031756718E+03 -0.18572602867E+04  0.22768690330E+04  0.12699999809E+01 0. -1.
</event>
<event>
 5   0  0.6661000E-08  0.3769238E+04  0.7818609E-02  0.8052789E-01
       -1   -1    0    0    0  501  0.00000000000E+00  0.00000000000E+00  0.23683921911E+04  0.23683921911E+04  0.50400001928E-02 0. -1.
        1   -1    0    0  501    0  0.00000000000E+00  0.00000000000E+00 -0.14996624981E+04  0.14996624981E+04  0.50400001928E-02 0.  1.
    10030    2    1    2    0    0  0.00000000000E+00  0.00000000000E+00  0.86872969302E+03  0.38680546892E+04  0.37692380926E+04 0.  0.
        1    1    3    3  502    0  0.13038975074E+04 -0.78322393010E+03  0.15762818097E+04  0.21904914467E+04  0.50400001928E-02 0. -1.
       -1    1    3    3    0  502 -0.13038975074E+04  0.78322393010E+03 -0.70755211669E+03  0.16775632424E+04  0.50400001928E-02 0.  1.
</event>
<event>
 5   0  0.6725199E-08  0.3792695E+04  0.7818609E-02  0.8047724E-01
        1   -1    0    0  501    0  0.00000000000E+00  0.00000000000E+00  0.25959678641E+04  0.25959678641E+04  0.50400001928E-02 0.  1.
       -1   -1    0    0    0  501  0.00000000000E+00  0.00000000000E+00 -0.13852770452E+04  0.13852770452E+04  0.50400001928E-02 0. -1.
    10030    2    1    2    0    0  0.00000000000E+00  0.00000000000E+00  0.12106908189E+04  0.39812449093E+04  0.37926954490E+04 0.  0.
        5    1    3    3  502    0  0.18364009004E+03  0.15870410668E+04 -0.46705407349E+03  0.16645073229E+04  0.46999998093E+01 0.  1.
       -5    1    3    3    0  502 -0.18364009004E+03 -0.15870410668E+04  0.16777448924E+04  0.23167375864E+04  0.46999998093E+01 0. -1.
</event>
<event>
 5   0  0.2135314E-07  0.3800474E+04  0.7818609E-02  0.8046053E-01
       -2   -1    0    0    0  501  0.00000000000E+00  0.00000000000E+00  0.13987065035E+04  0.13987065035E+04  0.25500000920E-02 0. -1.
        2   -1    0    0  501    0  0.00000000000E+00  0.00000000000E+00 -0.25816005852E+04  0.25816005852E+04  0.25500000920E-02 0.  1.
    10030    2    1    2    0    0  0.00000000000E+00  0.00000000000E+00 -0.11828940817E+04  0.39803070887E+04  0.38004744588E+04 0.  0.
        4    1    3    3  502    0 -0.14708844027E+04 -0.63249979881E+03  0.48037634295E+03  0.16716219565E+04  0.12699999809E+01 0. -1.
       -4    1    3    3    0  502  0.14708844027E+04  0.63249979881E+03 -0.16632704246E+04  0.23086851323E+04  0.12699999809E+01 0.  1.
</event>
<event>
 5   0  0.6661000E-08  0.3744106E+04  0.7818609E-02  0.8058257E-01
       -1   -1    0    0    0  501  0.00000000000E+00  0.00000000000E+00  0.16444394897E+04  0.16444394897E+04  0.50400001928E-02 0. -1.
        1   -1    0    0  501    0  0.00000000000E+00  0.00000000000E+00 -0.21311708950E+04  0.21311708950E+04  0.50400001928E-02 0.  1.
    10030    2    1    2    0    0  0.00000000000E+00  0.00000000000E+00 -0.48673140527E+03  0.37756103847E+04  0.37441055428E+04 0.  0.
        2    1    3    3  502    0  0.11724757141E+04  0.12015603096E+04  0.59193704141E+03  0.17801224505E+04  0.25500000920E-02 0. -1.
       -2    1    3    3    0  502 -0.11724757141E+04 -0.12015603096E+04 -0.10786684467E+04  0.19954879342E+04  0.25500000920E-02 0.  1.
</event>
<event>
 5   0  0.2205204E-07  0.3887471E+04  0.7818609E-02  0.8027640E-01
       -2   -1    0    0    0  501  0.00000000000E+00  0.00000000000E+00  0.22925561280E+04  0.22925561280E+04  0.25500000920E-02 0.  1.
        2   -1    0    0  501    0  0.00000000000E+00  0.00000000000E+00 -0.16479888694E+04  0.16479888694E+04  0.25500000920E-02 0. -1.
    10030    2    1    2    0    0  0.00000000000E+00  0.00000000000E+00  0.64456725858E+03  0.39405449975E+04  0.38874706335E+04 0.  0.
        2    1    3    3  502    0 -0.17969341719E+04 -0.53121185701E+03 -0.20144092228E+03  0.18846052373E+04  0.25500000920E-02 0. -1.
       -2    1    3    3    0  502  0.17969341719E+04  0.53121185701E+03  0.84600818086E+03  0.20559397602E+04  0.25500000920E-02 0.  1.
</event>
<event>
 5   0  0.2081337E-07  0.3792829E+04  0.7818609E-02  0.8047696E-01
        2   -1    0    0  501    0  0.00000000000E+00  0.00000000000E+00  0.26314479286E+04  0.26314479286E+04  0.25500000920E-02 0. -1.
       -2   -1    0    0    0  501  0.00000000000E+00  0.00000000000E+00 -0.13666952475E+04  0.13666952475E+04  0.25500000920E-02 0.  1.
    10030    2    1    2    0    0  0.00000000000E+00  0.00000000000E+00  0.12647526811E+04  0.39981431761E+04  0.37928286953E+04 0.  0.
        1    1    3    3  502    0  0.90593523152E+03 -0.16554312207E+04  0.43455806616E+03  0.19364947413E+04  0.50400001928E-02 0. -1.
       -1    1    3    3    0  502 -0.90593523152E+03  0.16554312207E+04  0.83019461495E+03  0.20616484348E+04  0.50400001928E-02 0.  1.
</event>
<event>
 5   0  0.1370688E-07  0.3806634E+04  0.7818609E-02  0.8044733E-01
        2   -1    0    0  501    0  0.00000000000E+00  0.00000000000E+00  0.33492857356E+04  0.33492857356E+04  0.25500000920E-02 0.  1.
       -2   -1    0    0    0  501  0.00000000000E+00  0.00000000000E+00 -0.10816081809E+04  0.10816081809E+04  0.25500000920E-02 0. -1.
    10030    2    1    2    0    0  0.00000000000E+00  0.00000000000E+00  0.22676775547E+04  0.44308939164E+04  0.38066336055E+04 0.  0.
        5    1    3    3  502    0  0.88850537407E+02  0.12277818913E+04  0.28235337166E+04  0.30802122539E+04  0.46999998093E+01 0.  1.
       -5    1    3    3    0  502 -0.88850537407E+02 -0.12277818913E+04 -0.55585616188E+03  0.13506816625E+04  0.46999998093E+01 0. -1.
</event>
<event>
 5   0  0.1370688E-07  0.3765676E+04  0.7818609E-02  0.8053561E-01
       -2   -1    0    0    0  501  0.00000000000E+00  0.00000000000E+00  0.15619887347E+04  0.15619887347E+04  0.25500000920E-02 0.  1.
        2   -1    0    0  501    0  0.00000000000E+00  0.00000000000E+00 -0.22695937017E+04  0.22695937017E+04  0.25500000920E-02 0. -1.
    10030    2    1    2    0    0  0.00000000000E+00  0.00000000000E+00 -0.70760496695E+03  0.38315824364E+04  0.37656764569E+04 0.  0.
        5    1    3    3  502    0 -0.75964167196E+02 -0.12796017363E+04  0.10494304125E+04  0.16566464436E+04  0.46999998093E+01 0.  1.
       -5    1    3    3    0  502  0.75964167196E+02  0.12796017363E+04 -0.17570353795E+04  0.21749359928E+04  0.46999998093E+01 0. -1.
</event>
<event>
 5   0  0.6661000E-08  0.3816124E+04  0.7818609E-02  0.8042704E-01
        1   -1    0    0  501    0  0.00000000000E+00  0.00000000000E+00  0.19543285141E+04  0.19543285141E+04  0.50400001928E-02 0. -1.
       -1   -1    0    0    0  501  0.00000000000E+00  0.00000000000E+00 -0.18628904031E+04  0.18628904031E+04  0.50400001928E-02 0.  1.
    10030    2    1    2    0    0  0.00000000000E+00  0.00000000000E+00  0.91438110935E+02  0.38172189172E+04  0.38161236004E+04 0.  0.
        4    1    3    3  502    0  0.88470985396E+03  0.14630175829E+04  0.89305501171E+03  0.19289066438E+04  0.12699999809E+01 0. -1.
       -4    1    3    3    0  502 -0.88470985396E+03 -0.14630175829E+04 -0.80161690078E+03  0.18883122734E+04  0.12699999809E+01 0.  1.
</event>
<event>
 5   0  0.2135314E-07  0.3783352E+04  0.7818609E-02  0.8049737E-01
       -2   -1    0    0    0  501  0.00000000000E+00  0.00000000000E+00  0.14074185861E+04  0.14074185861E+04  0.25500000920E-02 0.  1.
        2   -1    0    0  501    0  0.00000000000E+00  0.00000000000E+00 -0.25425542170E+04  0.25425542170E+04  0.25500000920E-02 0. -1.
    10030    2    1    2    0    0  0.00000000000E+00  0.00000000000E+00 -0.11351356309E+04  0.39499728031E+04  0.37833519853E+04 0.  0.
        4    1    3    3  502    0  0.60379276825E+03  0.90611944934E+03 -0.21825666633E+04  0.24391016822E+04  0.12699999809E+01 0. -1.
       -4    1    3    3    0  502 -0.60379276825E+03 -0.90611944934E+03  0.10474310324E+04  0.15108711209E+04  0.12699999809E+01 0.  1.
</event>
<event>
 5   0  0.2203998E-07  0.3894975E+04  0.7818609E-02  0.8026075E-01
       -2   -1    0    0    0  501  0.00000000000E+00  0.00000000000E+00  0.17365642074E+04  0.17365642074E+04  0.25500000920E-02 0. -1.
        2   -1    0    0  501    0  0.00000000000E+00  0.00000000000E+00 -0.21840300847E+04  0.21840300847E+04  0.25500000920E-02 0.  1.
    10030    2    1    2    0    0  0.00000000000E+00  0.00000000000E+00 -0.44746587733E+03  0.39205942921E+04  0.38949754674E+04 0.  0.
        3    1    3    3  502    0  0.90700887527E+03 -0.14227175238E+04  0.75524740035E+03  0.18485640098E+04  0.10100000352E+00 0. -1.
       -3    1    3    3    0  502 -0.90700887527E+03  0.14227175238E+04 -0.12027132777E+04  0.20720302823E+04  0.10100000352E+00 0.  1.
</event>
<event>
 5   0  0.6661000E-08  0.3774138E+04  0.7818609E-02  0.8051728E-01
       -1   -1    0    0    0  501  0.00000000000E+00  0.00000000000E+00  0.16278757125E+04  0.16278757125E+04  0.50400001928E-02 0.  1.
        1   -1    0    0  501    0  0.00000000000E+00  0.00000000000E+00 -0.21875311207E+04  0.21875311207E+04  0.50400001928E-02 0. -1.
    10030    2    1    2    0    0  0.00000000000E+00  0.00000000000E+00 -0.55965540823E+03  0.38154068333E+04  0.37741376667E+04 0.  0.
        1    1    3    3  502    0  0.10764170357E+04 -0.19023286105E+03 -0.18348827828E+04  0.21358035965E+04  0.50400001928E-02 0. -1.
       -1    1    3    3    0  502 -0.10764170357E+04  0.19023286105E+03  0.12752273745E+04  0.16796032368E+04  0.50400001928E-02 0.  1.
</event>
<event>
 5   0  0.6661000E-08  0.3806625E+04  0.7818609E-02  0.8044735E-01
        1   -1    0    0  501    0  0.00000000000E+00  0.00000000000E+00  0.16576970372E+04  0.16576970372E+04  0.50400001928E-02 0. -1.
       -1   -1    0    0    0  501  0.00000000000E+00  0.00000000000E+00 -0.21853201445E+04  0.21853201445E+04  0.50400001928E-02 0.  1.
    10030    2    1    2    0    0  0.00000000000E+00  0.00000000000E+00 -0.52762310731E+03  0.38430171816E+04  0.38066251345E+04 0.  0.
        1    1    3    3  502    0 -0.67120154353E+03  0.14040731285E+04  0.84241300927E+03  0.17696306226E+04  0.50400001928E-02 0. -1.
       -1    1    3    3    0  502  0.67120154353E+03 -0.14040731285E+04 -0.13700361166E+04  0.20733865590E+04  0.50400001928E-02 0.  1.
</event>
<event>
 5   0  0.6661000E-08  0.3896848E+04  0.7818609E-02  0.8025685E-01
       -1   -1    0    0    0  501  0.00000000000E+00  0.00000000000E+00  0.15064023900E+04  0.15064023900E+04  0.50400001928E-02 0. -1.
        1   -1    0    0  501    0  0.00000000000E+00  0.00000000000E+00 -0.25201471665E+04  0.25201471665E+04  0.50400001928E-02 0.  1.
    10030    2    1    2    0    0  0.00000000000E+00  0.00000000000E+00 -0.10137447765E+04  0.40265495565E+04  0.38968478106E+04 0.  0.
        2    1    3    3  502    0 -0.47245198665E+03 -0.53856772781E+03 -0.23791100349E+04  0.24846389346E+04  0.25500000920E-02 0.  1.
       -2    1    3    3    0  502  0.47245198665E+03  0.53856772781E+03  0.13653652584E+04  0.15419106219E+04  0.25500000920E-02 0. -1.
</event>
<event>
 5   0  0.6661000E-08  0.3823413E+04  0.7818609E-02  0.8041149E-01
       -1   -1    0    0    0  501  0.00000000000E+00  0.00000000000E+00  0.22970134983E+04  0.22970134983E+04  0.50400001928E-02 0. -1.
        1   -1    0    0  501    0  0.00000000000E+00  0.00000000000E+00 -0.15910322161E+04  0.15910322161E+04  0.50400001928E-02 0.  1.
    10030    2    1    2    0    0  0.00000000000E+00  0.00000000000E+00  0.70598128219E+03  0.38880457144E+04  0.38234133842E+04 0.  0.
        2    1    3    3  502    0 -0.38168122612E+01  0.42234312312E+03 -0.15429931497E+04  0.15997550255E+04  0.25500000920E-02 0.  1.
       -2    1    3    3    0  502  0.38168122612E+01 -0.42234312312E+03  0.22489744318E+04  0.22882906889E+04  0.25500000920E-02 0. -1.
</event>
<event>
 5   0  0.1370688E-07  0.3783420E+04  0.7818609E-02  0.8049722E-01
       -2   -1    0    0    0  501  0.00000000000E+00  0.00000000000E+00  0.17131729534E+04  0.17131729534E+04  0.25500000920E-02 0. -1.
        2   -1    0    0  501    0  0.00000000000E+00  0.00000000000E+00 -0.20888536310E+04  0.20888536310E+04  0.25500000920E-02 0.  1.
    10030    2    1    2    0    0  0.00000000000E+00  0.00000000000E+00 -0.37568067753E+03  0.38020265844E+04  0.37834204336E+04 0.  0.
        5    1    3    3  502    0  0.67238697699E+03 -0.95231191746E+03  0.13092994315E+04  0.17530799543E+04  0.46999998093E+01 0. -1.
       -5    1    3    3    0  502 -0.67238697699E+03  0.95231191746E+03 -0.16849801090E+04  0.20489466301E+04  0.46999998093E+01 0.  1.
</event>
<event>
 5   0  0.6725199E-08  0.3784562E+04  0.7818609E-02  0.8049476E-01
        1   -1    0    0  501    0  0.00000000000E+00  0.00000000000E+00  0.29276892684E+04  0.29276892685E+04  0.50400001928E-02 0. -1.
       -1   -1    0    0    0  501  0.00000000000E+00  0.00000000000E+00 -0.12230555568E+04  0.12230555568E+04  0.50400001928E-02 0.  1.
    10030    2    1    2    0    0  0.00000000000E+00  0.00000000000E+00  0.17046337117E+04  0.41507448252E+04  0.37845616012E+04 0.  0.
        5    1    3    3  502    0  0.43299900974E+03 -0.84582378132E+02 -0.11658539680E+04  0.12465471856E+04  0.46999998093E+01 0.  1.
       -5    1    3    3    0  502 -0.43299900974E+03  0.84582378132E+02  0.28704876797E+04  0.29041976397E+04  0.46999998093E+01 0. -1.
</event>
<event>
 5   0  0.6661000E-08  0.3775697E+04  0.7818609E-02  0.8051390E-01
        1   -1    0    0  501    0  0.00000000000E+00  0.00000000000E+00  0.29063697627E+04  0.29063697627E+04  0.50400001928E-02 0.  1.
       -1   -1    0    0    0  501  0.00000000000E+00  0.00000000000E+00 -0.12262623736E+04  0.12262623736E+04  0.50400001928E-02 0. -1.
    10030    2    1    2    0    0  0.00000000000E+00  0.00000000000E+00  0.16801073891E+04  0.41326321363E+04  0.37756969602E+04 0.  0.
        3    1    3    3  502    0 -0.21559752705E+03  0.16024938008E+04 -0.22648799060E+03  0.16327172123E+04  0.10100000352E+00 0. -1.
       -3    1    3    3    0  502  0.21559752705E+03 -0.16024938008E+04  0.19065953797E+04  0.24999149240E+04  0.10100000352E+00 0.  1.
</event>
<event>
 5   0  0.6661000E-08  0.3797831E+04  0.7818609E-02  0.8046620E-01
       -1   -1    0    0    0  501  0.00000000000E+00  0.00000000000E+00  0.25329752577E+04  0.25329752577E+04  0.50400001928E-02 0. -1.
        1   -1    0    0  501    0  0.00000000000E+00  0.00000000000E+00 -0.14235752302E+04  0.14235752302E+04  0.50400001928E-02 0.  1.
    10030    2    1    2    0    0  0.00000000000E+00  0.00000000000E+00  0.11094000274E+04  0.39565504879E+04  0.37978314000E+04 0.  0.
        3    1    3    3  502    0 -0.58745981708E+03  0.16536485456E+04  0.13104253716E+04  0.21901774389E+04  0.10100000352E+00 0.  1.
       -3    1    3    3    0  502  0.58745981708E+03 -0.16536485456E+04 -0.20102534415E+03  0.17663730490E+04  0.10100000352E+00 0. -1.
</event>
<event>
 5   0  0.6661000E-08  0.3793015E+04  0.7818609E-02  0.8047656E-01
        1   -1    0    0  501    0  0.00000000000E+00  0.00000000000E+00  0.22474550972E+04  0.22474550972E+04  0.50400001928E-02 0.  1.
       -1   -1    0    0    0  501  0.00000000000E+00  0.00000000000E+00 -0.16003614617E+04  0.16003614617E+04  0.50400001928E-02 0. -1.
    10030    2    1    2    0    0  0.00000000000E+00  0.00000000000E+00  0.64709363549E+03  0.38478165588E+04  0.37930149087E+04 0.  0.
        4    1    3    3  502    0  0.16182908172E+04  0.18375725442E+03 -0.66214334331E+03  0.17581431448E+04  0.12699999809E+01 0. -1.
       -4    1    3    3    0  502 -0.16182908172E+04 -0.18375725442E+03  0.13092369788E+04  0.20896734140E+04  0.12699999809E+01 0.  1.
</event>
<event>
 5   0  0.2205204E-07  0.3782323E+04  0.7818609E-02  0.8049959E-01
        2   -1    0    0  501    0  0.00000000000E+00  0.00000000000E+00  0.22072373997E+04  0.22072373997E+04  0.25500000920E-02 0. -1.
       -2   -1    0    0    0  501  0.00000000000E+00  0.00000000000E+00 -0.16203471965E+04  0.16203471965E+04  0.25500000920E-02 0.  1.
    10030    2    1    2    0    0  0.00000000000E+00  0.00000000000E+00  0.58689020325E+03  0.38275845962E+04  0.37823225313E+04 0.  0.
        2    1    3    3  502    0  0.18245725712E+04  0.43284796230E+03  0.45423415334E+02  0.18757627016E+04  0.25500000920E-02 0. -1.
       -2    1    3    3    0  502 -0.18245725712E+04 -0.43284796230E+03  0.54146678792E+03  0.19518218946E+04  0.25500000920E-02 0.  1.
</event>
<event>
 5   0  0.2081337E-07  0.3810196E+04  0.7818609E-02  0.8043970E-01
        2   -1    0    0  501    0  0.00000000000E+00  0.00000000000E+00  0.24268817017E+04  0.24268817017E+04  0.25500000920E-02 0. -1.
       -2   -1    0    0    0  501  0.00000000000E+00  0.00000000000E+00 -0.14954987268E+04  0.14954987268E+04  0.25500000920E-02 0.  1.
    10030    2    1    2    0    0  0.00000000000E+00  0.00000000000E+00  0.93138297484E+03  0.39223804285E+04  0.38101960553E+04 0.  0.
        1    1    3    3  502    0 -0.18817377466E+04 -0.29723460592E+03  0.47664124514E+03  0.19637902726E+04  0.50400001928E-02 0.  1.
       -1    1    3    3    0  502  0.18817377466E+04  0.29723460592E+03  0.45474172970E+03  0.19585901559E+04  0.50400001928E-02 0. -1.
</event>
<event>
 5   0  0.6725199E-08  0.3782829E+04  0.7818609E-02  0.8049850E-01
       -1   -1    0    0    0  501  0.00000000000E+00  0.00000000000E+00  0.16802835409E+04  0.16802835409E+04  0.50400001928E-02 0.  1.
        1   -1    0    0  501    0  0.00000000000E+00  0.00000000000E+00 -0.21290743881E+04  0.21290743881E+04  0.50400001928E-02 0. -1.
    10030    2    1    2    0    0  0.00000000000E+00  0.00000000000E+00 -0.44879084718E+03  0.38093579290E+04  0.37828289158E+04 0.  0.
        5    1    3    3  502    0 -0.11978488024E+04  0.11495634601E+04  0.68809876643E+03  0.17971755352E+04  0.46999998093E+01 0.  1.
       -5    1    3    3    0  502  0.11978488024E+04 -0.11495634601E+04 -0.11368896136E+04  0.20121823937E+04  0.46999998093E+01 0. -1.
</event>
<event>
 5   0  0.6661000E-08  0.3332298E+04  0.7818609E-02  0.8154726E-01
       -1   -1    0    0    0  501  0.00000000000E+00  0.00000000000E+00  0.26960228819E+04  0.26960228819E+04  0.50400001928E-02 0. -1.
        1   -1    0    0  501    0  0.00000000000E+00  0.00000000000E+00 -0.10296840949E+04  0.10296840949E+04  0.50400001928E-02 0.  1.
    10030    2    1    2    0    0  0.00000000000E+00  0.00000000000E+00  0.16663387870E+04  0.37257069768E+04  0.33322976343E+04 0.  0.
        2    1    3    3  502    0 -0.10282918446E+04  0.49121346765E+03  0.21921416499E+04  0.24706597908E+04  0.25500000920E-02 0. -1.
       -2    1    3    3    0  502  0.10282918446E+04 -0.49121346765E+03 -0.52580286291E+03  0.12550471860E+04  0.25500000920E-02 0.  1.
</event>
<event>
 5   0  0.6661000E-08  0.3801857E+04  0.7818609E-02  0.8045756E-01
       -1   -1    0    0    0  501  0.00000000000E+00  0.00000000000E+00  0.25890894783E+04  0.25890894783E+04  0.50400001928E-02 0.  1.
        1   -1    0    0  501    0  0.00000000000E+00  0.00000000000E+00 -0.13956758830E+04  0.13956758831E+04  0.50400001928E-02 0. -1.
    10030    2    1    2    0    0  0.00000000000E+00  0.00000000000E+00  0.11934135953E+04  0.39847653614E+04  0.38018573061E+04 0.  0.
        3    1    3    3  502    0  0.99475951900E+03 -0.15636679228E+04  0.15336007937E+03  0.18596029677E+04  0.10100000352E+00 0. -1.
       -3    1    3    3    0  502 -0.99475951900E+03  0.15636679228E+04  0.10400535159E+04  0.21251623937E+04  0.10100000352E+00 0.  1.
</event>
<event>
 5   0  0.2205204E-07  0.3844982E+04  0.7818609E-02  0.8036570E-01
        2   -1    0    0  501    0  0.00000000000E+00  0.00000000000E+00  0.14822493052E+04  0.14822493052E+04  0.25500000920E-02 0. -1.
       -2   -1    0    0    0  501  0.00000000000E+00  0.00000000000E+00 -0.24934879620E+04  0.24934879620E+04  0.25500000920E-02 0.  1.
    10030    2    1    2    0    0  0.00000000000E+00  0.00000000000E+00 -0.10112386567E+04  0.39757372672E+04  0.38449815600E+04 0.  0.
        2    1    3    3  502    0  0.11170537629E+04 -0.12313893818E+04 -0.15037663795E+04  0.22417498172E+04  0.25500000920E-02 0.  1.
       -2    1    3    3    0  502 -0.11170537629E+04  0.12313893818E+04  0.49252772278E+03  0.17339874500E+04  0.25500000920E-02 0. -1.
</event>
<event>
 5   0  0.2081337E-07  0.3792717E+04  0.7818609E-02  0.8047720E-01
        2   -1    0    0  501    0  0.00000000000E+00  0.00000000000E+00  0.12841036077E+04  0.12841036077E+04  0.25500000920E-02 0. -1.
       -2   -1    0    0    0  501  0.00000000000E+00  0.00000000000E+00 -0.28005333462E+04  0.28005333462E+04  0.25500000920E-02 0.  1.
    10030    2    1    2    0    0  0.00000000000E+00  0.00000000000E+00 -0.15164297386E+04  0.40846369539E+04  0.37927166903E+04 0.  0.
        1    1    3    3  502    0  0.78499189923E+03 -0.13937147222E+04  0.33877270688E+03  0.16350596184E+04  0.50400001928E-02 0. -1.
       -1    1    3    3    0  502 -0.78499189923E+03  0.13937147222E+04 -0.18552024455E+04  0.24495773355E+04  0.50400001928E-02 0.  1.
</event>
<event>
 5   0  0.6661000E-08  0.3785378E+04  0.7818609E-02  0.8049300E-01
        1   -1    0    0  501    0  0.00000000000E+00  0.00000000000E+00  0.14545722646E+04  0.14545722646E+04  0.50400001928E-02 0. -1.
       -1   -1    0    0    0  501  0.00000000000E+00  0.00000000000E+00 -0.24627670016E+04  0.24627670016E+04  0.50400001928E-02 0.  1.
    10030    2    1    2    0    0  0.00000000000E+00  0.00000000000E+00 -0.10081947370E+04  0.39173392662E+04  0.37853784882E+04 0.  0.
        4    1    3    3  502    0 -0.24747047177E+03  0.18641690413E+04 -0.28237835123E+03  0.19016064249E+04  0.12699999809E+01 0.  1.
       -4    1    3    3    0  502  0.24747047177E+03 -0.18641690413E+04 -0.72581638573E+03  0.20157328413E+04  0.12699999809E+01 0. -1.
</event>
<event>
 5   0  0.2205204E-07  0.3809703E+04  0.7818609E-02  0.8044076E-01
       -2   -1    0    0    0  501  0.00000000000E+00  0.00000000000E+00  0.14507917173E+04  0.14507917173E+04  0.25500000920E-02 0.  1.
        2   -1    0    0  501    0  0.00000000000E+00  0.00000000000E+00 -0.25010206637E+04  0.25010206637E+04  0.25500000920E-02 0. -1.
    10030    2    1    2    0    0  0.00000000000E+00  0.00000000000E+00 -0.10502289464E+04  0.39518123810E+04  0.38097034339E+04 0.  0.
        2    1    3    3  502    0 -0.15024439784E+04 -0.42433465368E+03  0.60695317509E+03  0.16750492421E+04  0.25500000920E-02 0.  1.
       -2    1    3    3    0  502  0.15024439784E+04  0.42433465368E+03 -0.16571821215E+04  0.22767631389E+04  0.25500000920E-02 0. -1.
</event>
<event>
 5   0  0.6661000E-08  0.3795412E+04  0.7818609E-02  0.8047140E-01
       -1   -1    0    0    0  501  0.00000000000E+00  0.00000000000E+00  0.17090429582E+04  0.17090429582E+04  0.50400001928E-02 0. -1.
        1   -1    0    0  501    0  0.00000000000E+00  0.00000000000E+00 -0.21071963021E+04  0.21071963021E+04  0.50400001928E-02 0.  1.
    10030    2    1    2    0    0  0.00000000000E+00  0.00000000000E+00 -0.39815334382E+03  0.38162392603E+04  0.37954124949E+04 0.  0.
        2    1    3    3  502    0  0.11606467738E+04 -0.50876643916E+02 -0.17078437427E+04  0.20655313157E+04  0.25500000920E-02 0.  1.
       -2    1    3    3    0  502 -0.11606467738E+04  0.50876643916E+02  0.13096903989E+04  0.17507079446E+04  0.25500000920E-02 0. -1.
</event>
<event>
 5   0  0.6661000E-08  0.3830875E+04  0.7818609E-02  0.8039561E-01
        3   -1    0    0  501    0  0.00000000000E+00  0.00000000000E+00  0.25309410807E+04  0.25309410827E+04  0.10100000352E+00 0.  1.
       -3   -1    0    0    0  501  0.00000000000E+00  0.00000000000E+00 -0.14496192833E+04  0.14496192869E+04  0.10100000352E+00 0. -1.
    10030    2    1    2    0    0  0.00000000000E+00  0.00000000000E+00  0.10813217973E+04  0.39805603695E+04  0.38308750992E+04 0.  0.
        4    1    3    3  502    0  0.12583024087E+04  0.13608547622E+04  0.38401628915E+02  0.18538411295E+04  0.12699999809E+01 0.  1.
       -4    1    3    3    0  502 -0.12583024087E+04 -0.13608547622E+04  0.10429201684E+04  0.21267192400E+04  0.12699999809E+01 0. -1.
</event>
<event>
 5   0  0.6661000E-08  0.3780275E+04  0.7818609E-02  0.8050401E-01
        1   -1    0    0  501    0  0.00000000000E+00  0.00000000000E+00  0.16796141097E+04  0.16796141097E+04  0.50400001928E-02 0. -1.
       -1   -1    0    0    0  501  0.00000000000E+00  0.00000000000E+00 -0.21270480697E+04  0.21270480697E+04  0.50400001928E-02 0.  1.
    10030    2    1    2    0    0  0.00000000000E+00  0.00000000000E+00 -0.44743396004E+03  0.38066621794E+04  0.37802750957E+04 0.  0.
        1    1    3    3  502    0 -0.31432455353E+03  0.10010390355E+04 -0.18068682067E+04  0.20894142222E+04  0.50400001928E-02 0.  1.
       -1    1    3    3    0  502  0.31432455353E+03 -0.10010390355E+04  0.13594342467E+04  0.17172479572E+04  0.50400001928E-02 0. -1.
</event>
<event>
 5   0  0.1370688E-07  0.3809109E+04  0.7818609E-02  0.8044203E-01
        2   -1    0    0  501    0  0.00000000000E+00  0.00000000000E+00  0.16158784915E+04  0.16158784915E+04  0.25500000920E-02 0. -1.
       -2   -1    0    0    0  501  0.00000000000E+00  0.00000000000E+00 -0.22448020131E+04  0.22448020131E+04  0.25500000920E-02 0.  1.
    10030    2    1    2    0    0  0.00000000000E+00  0.00000000000E+00 -0.62892352153E+03  0.38606805046E+04  0.38091087097E+04 0.  0.
        5    1    3    3  502    0 -0.13982896874E+04 -0.39471446864E+02  0.99552843404E+03  0.17169365154E+04  0.46999998093E+01 0. -1.
       -5    1    3    3    0  502  0.13982896874E+04  0.39471446864E+02 -0.16244519556E+04  0.21437439891E+04  0.46999998093E+01 0.  1.
</event>
<event>
 5   0  0.2205204E-07  0.3824108E+04  0.7818609E-02  0.8041001E-01
       -2   -1    0    0    0  501  0.00000000000E+00  0.00000000000E+00  0.17552384523E+04  0.17552384523E+04  0.25500000920E-02 0. -1.
        2   -1    0    0  501    0  0.00000000000E+00  0.00000000000E+00 -0.20828794052E+04  0.20828794052E+04  0.25500000920E-02 0.  1.
    10030    2    1    2    0    0  0.00000000000E+00  0.00000000000E+00 -0.32764095294E+03  0.38381178575E+04  0.38241077513E+04 0.  0.
        2    1    3    3  502    0  0.45424755547E+03 -0.41834985392E+03 -0.19800336545E+04  0.20740999771E+04  0.25500000920E-02 0.  1.
       -2    1    3    3    0  502 -0.45424755547E+03  0.41834985392E+03  0.16523927016E+04  0.17640178804E+04  0.25500000920E-02 0. -1.
</event>
<event>
 5   0  0.6725199E-08  0.3867103E+04  0.7818609E-02  0.8031906E-01
        1   -1    0    0  501    0  0.00000000000E+00  0.00000000000E+00  0.19345634999E+04  0.19345634999E+04  0.50400001928E-02 0.  1.
       -1   -1    0    0    0  501  0.00000000000E+00  0.00000000000E+00 -0.19325396436E+04  0.19325396436E+04  0.50400001928E-02 0. -1.
    10030    2    1    2    0    0  0.00000000000E+00  0.00000000000E+00  0.20238563624E+01  0.38671031435E+04  0.38671026139E+04 0.  0.
        5    1    3    3  502    0 -0.38346145641E+03 -0.27007741166E+03  0.18768091010E+04  0.19345332741E+04  0.46999998093E+01 0.  1.
       -5    1    3    3    0  502  0.38346145641E+03  0.27007741166E+03 -0.18747852446E+04  0.19325698695E+04  0.46999998093E+01 0. -1.
</event>
<event>
 5   0  0.6725199E-08  0.3812688E+04  0.7818609E-02  0.8043438E-01
        1   -1    0    0  501    0  0.00000000000E+00  0.00000000000E+00  0.22257865667E+04  0.22257865667E+04  0.50400001928E-02 0.  1.
       -1   -1    0    0    0  501  0.00000000000E+00  0.00000000000E+00 -0.16327471624E+04  0.16327471624E+04  0.50400001928E-02 0. -1.
    10030    2    1    2    0    0  0.00000000000E+00  0.00000000000E+00  0.59303940431E+03  0.38585337291E+04  0.38126876090E+04 0.  0.
        5    1    3    3  502    0 -0.16592897042E+04 -0.16539478934E+03  0.12314939997E+04  0.20729682391E+04  0.46999998093E+01 0.  1.
       -5    1    3    3    0  502  0.16592897042E+04  0.16539478934E+03 -0.63845459541E+03  0.17855654900E+04  0.46999998093E+01 0. -1.
</event>
<event>
 5   0  0.1370688E-07  0.3799083E+04  0.7818609E-02  0.8046352E-01
       -2   -1    0    0    0  501  0.00000000000E+00  0.00000000000E+00  0.16775530265E+04  0.16775530265E+04  0.25500000920E-02 0. -1.
        2   -1    0    0  501    0  0.00000000000E+00  0.00000000000E+00 -0.21509055139E+04  0.21509055139E+04  0.25500000920E-02 0.  1.
    10030    2    1    2    0    0  0.00000000000E+00  0.00000000000E+00 -0.47335248737E+03  0.38284585404E+04  0.37990830760E+04 0.  0.
        5    1    3    3  502    0  0.56741859893E+03  0.66952883088E+03  0.14609872177E+04  0.17043293291E+04  0.46999998093E+01 0. -1.
       -5    1    3    3    0  502 -0.56741859893E+03 -0.66952883088E+03 -0.19343397051E+04  0.21241292113E+04  0.46999998093E+01 0.  1.
</event>
<event>
 5   0  0.6661000E-08  0.3789811E+04  0.7818609E-02  0.8048345E-01
        1   -1    0    0  501    0  0.00000000000E+00  0.00000000000E+00  0.27447396766E+04  0.27447396766E+04  0.50400001928E-02 0. -1.
       -1   -1    0    0    0  501  0.00000000000E+00  0.00000000000E+00 -0.13081991084E+04  0.13081991084E+04  0.50400001928E-02 0.  1.
    10030    2    1    2    0    0  0.00000000000E+00  0.00000000000E+00  0.14365405682E+04  0.40529387850E+04  0.37898105481E+04 0.  0.
        1    1    3    3  502    0 -0.16324514230E+04 -0.81210403591E+03  0.16644481212E+03  0.18308780650E+04  0.50400001928E-02 0.  1.
       -1    1    3    3    0  502  0.16324514230E+04  0.81210403591E+03  0.12700957561E+04  0.22220607200E+04  0.50400001928E-02 0. -1.
</event>
<event>
 5   0  0.2205204E-07  0.3910420E+04  0.7818609E-02  0.8022866E-01
       -2   -1    0    0    0  501  0.00000000000E+00  0.00000000000E+00  0.14869403164E+04  0.14869403164E+04  0.25500000920E-02 0. -1.
        2   -1    0    0  501    0  0.00000000000E+00  0.00000000000E+00 -0.25709477797E+04  0.25709477797E+04  0.25500000920E-02 0.  1.
    10030    2    1    2    0    0  0.00000000000E+00  0.00000000000E+00 -0.10840074634E+04  0.40578880961E+04  0.39104198777E+04 0.  0.
        2    1    3    3  502    0 -0.65024388707E+03 -0.12026415800E+04  0.90844911461E+03  0.16414760664E+04  0.25500000920E-02 0. -1.
       -2    1    3    3    0  502  0.65024388707E+03  0.12026415800E+04 -0.19924565780E+04  0.24164120298E+04  0.25500000920E-02 0.  1.
</event>
<event>
 5   0  0.6661000E-08  0.3813191E+04  0.7818609E-02  0.8043330E-01
        1   -1    0    0  501    0  0.00000000000E+00  0.00000000000E+00  0.26762295216E+04  0.26762295216E+04  0.50400001928E-02 0. -1.
       -1   -1    0    0    0  501  0.00000000000E+00  0.00000000000E+00 -0.13582936947E+04  0.13582936948E+04  0.50400001928E-02 0.  1.
    10030    2    1    2    0    0  0.00000000000E+00  0.00000000000E+00  0.13179358269E+04  0.40345232164E+04  0.38131906246E+04 0.  0.
        1    1    3    3  502    0  0.13311146634E+04  0.38195984221E+03 -0.72757277487E+03  0.15643278783E+04  0.50400001928E-02 0.  1.
       -1    1    3    3    0  502 -0.13311146634E+04 -0.38195984221E+03  0.20455086018E+04  0.24701953380E+04  0.50400001928E-02 0. -1.
</event>
<event>
 5   0  0.1370688E-07  0.3845382E+04  0.7818609E-02  0.8036486E-01
        2   -1    0    0  501    0  0.00000000000E+00  0.00000000000E+00  0.18541770446E+04  0.18541770446E+04  0.25500000920E-02 0.  1.
       -2   -1    0    0    0  501  0.00000000000E+00  0.00000000000E+00 -0.19937362792E+04  0.19937362792E+04  0.25500000920E-02 0. -1.
    10030    2    1    2    0    0  0.00000000000E+00  0.00000000000E+00 -0.13955923464E+03  0.38479133238E+04  0.38453816674E+04 0.  0.
        5    1    3    3  502    0  0.68063104741E+03  0.12927139565E+04 -0.13205425123E+04  0.19693203429E+04  0.46999998093E+01 0. -1.
       -5    1    3    3    0  502 -0.68063104741E+03 -0.12927139565E+04  0.11809832776E+04  0.18785929810E+04  0.46999998093E+01 0.  1.
</event>
<event>
 5   0  0.6661000E-08  0.3825242E+04  0.7818609E-02  0.8040760E-01
        1   -1    0    0  501    0  0.00000000000E+00  0.00000000000E+00  0.23724638545E+04  0.23724638545E+04  0.50400001928E-02 0. -1.
       -1   -1    0    0    0  501  0.00000000000E+00  0.00000000000E+00 -0.15419075396E+04  0.15419075396E+04  0.50400001928E-02 0.  1.
    10030    2    1    2    0    0  0.00000000000E+00  0.00000000000E+00  0.83055631491E+03  0.39143713941E+04  0.38252424261E+04 0.  0.
        3    1    3    3  502    0  0.11358642032E+03 -0.51538564766E+03  0.22964801779E+04  0.23563415411E+04  0.10100000352E+00 0. -1.
       -3    1    3    3    0  502 -0.11358642032E+03  0.51538564766E+03 -0.14659238630E+04  0.15580298530E+04  0.10100000352E+00 0.  1.
</event>
<event>
 5   0  0.6725199E-08  0.3813928E+04  0.7818609E-02  0.8043173E-01
       -1   -1    0    0    0  501  0.00000000000E+00  0.00000000000E+00  0.30281697601E+04  0.30281697602E+04  0.50400001928E-02 0. -1.
        1   -1    0    0  501    0  0.00000000000E+00  0.00000000000E+00 -0.12008943609E+04  0.12008943609E+04  0.50400001928E-02 0.  1.
    10030    2    1    2    0    0  0.00000000000E+00  0.00000000000E+00  0.18272753992E+04  0.42290641211E+04  0.38139281529E+04 0.  0.
        5    1    3    3  502    0 -0.10119640792E+04  0.15960222344E+04  0.11966255118E+04  0.22368041881E+04  0.46999998093E+01 0. -1.
       -5    1    3    3    0  502  0.10119640792E+04 -0.15960222344E+04  0.63064988742E+03  0.19922599330E+04  0.46999998093E+01 0.  1.
</event>
<event>
 5   0  0.6725199E-08  0.3796491E+04  0.7818609E-02  0.8046908E-01
        1   -1    0    0  501    0  0.00000000000E+00  0.00000000000E+00  0.13763218885E+04  0.13763218885E+04  0.50400001928E-02 0.  1.
       -1   -1    0    0    0  501  0.00000000000E+00  0.00000000000E+00 -0.26180908033E+04  0.26180908033E+04  0.50400001928E-02 0. -1.
    10030    2    1    2    0    0  0.00000000000E+00  0.00000000000E+00 -0.12417689148E+04  0.39944126917E+04  0.37964908421E+04 0.  0.
        5    1    3    3  502    0 -0.10832126502E+04 -0.47784100277E+03 -0.21820283445E+04  0.24825292457E+04  0.46999998093E+01 0. -1.
       -5    1    3    3    0  502  0.10832126502E+04  0.47784100277E+03  0.94025942967E+03  0.15118834461E+04  0.46999998093E+01 0.  1.
</event>
<event>
 5   0  0.2205204E-07  0.3814475E+04  0.7818609E-02  0.8043056E-01
       -2   -1    0    0    0  501  0.00000000000E+00  0.00000000000E+00  0.15780495527E+04  0.15780495527E+04  0.25500000920E-02 0. -1.
        2   -1    0    0  501    0  0.00000000000E+00  0.00000000000E+00 -0.23050949116E+04  0.23050949116E+04  0.25500000920E-02 0.  1.
    10030    2    1    2    0    0  0.00000000000E+00  0.00000000000E+00 -0.72704535883E+03  0.38831444643E+04  0.38144745348E+04 0.  0.
        2    1    3    3  502    0 -0.17745848993E+04 -0.64641062627E+03 -0.63392784123E+03  0.19922004845E+04  0.25500000920E-02 0. -1.
       -2    1    3    3    0  502  0.17745848993E+04  0.64641062627E+03 -0.93117517605E+02  0.18909439798E+04  0.25500000920E-02 0.  1.
</event>
<event>
 5   0  0.6725199E-08  0.3781036E+04  0.7818609E-02  0.8050237E-01
        1   -1    0    0  501    0  0.00000000000E+00  0.00000000000E+00  0.19911302552E+04  0.19911302552E+04  0.50400001928E-02 0.  1.
       -1   -1    0    0    0  501  0.00000000000E+00  0.00000000000E+00 -0.17949899928E+04  0.17949899928E+04  0.50400001928E-02 0. -1.
    10030    2    1    2    0    0  0.00000000000E+00  0.00000000000E+00  0.19614026239E+03  0.37861202480E+04  0.37810363037E+04 0.  0.
        5    1    3    3  502    0 -0.14147848854E+04 -0.11345071012E+04 -0.43679614636E+03  0.18653513337E+04  0.46999998093E+01 0. -1.
       -5    1    3    3    0  502  0.14147848854E+04  0.11345071012E+04  0.63293640875E+03  0.19207689143E+04  0.46999998093E+01 0.  1.
</event>
<event>
 5   0  0.6661000E-08  0.3809145E+04  0.7818609E-02  0.8044195E-01
       -1   -1    0    0    0  501  0.00000000000E+00  0.00000000000E+00  0.10135982188E+04  0.10135982188E+04  0.50400001928E-02 0.  1.
        1   -1    0    0  501    0  0.00000000000E+00  0.00000000000E+00 -0.35787317099E+04  0.35787317099E+04  0.50400001928E-02 0. -1.
    10030    2    1    2    0    0  0.00000000000E+00  0.00000000000E+00 -0.25651334911E+04  0.45923299287E+04  0.38091448314E+04 0.  0.
        1    1    3    3  502    0 -0.12351538595E+04 -0.42208797594E+03 -0.29546838119E+04  0.32301578513E+04  0.50400001928E-02 0. -1.
       -1    1    3    3    0  502  0.12351538595E+04  0.42208797594E+03  0.38955032080E+03  0.13621720774E+04  0.50400001928E-02 0.  1.
</event>
<event>
 5   0  0.2205204E-07  0.3807327E+04  0.7818609E-02  0.8044584E-01
        2   -1    0    0  501    0  0.00000000000E+00  0.00000000000E+00  0.11623802472E+04  0.11623802472E+04  0.25500000920E-02 0.  1.
       -2   -1    0    0    0  501  0.00000000000E+00  0.00000000000E+00 -0.31176842104E+04  0.31176842104E+04  0.25500000920E-02 0. -1.
    10030    2    1    2    0    0  0.00000000000E+00  0.00000000000E+00 -0.19553039632E+04  0.42800644577E+04  0.38073269065E+04 0.  0.
        2    1    3    3  502    0 -0.74510857697E+03  0.96230431428E+03  0.66790401901E+03  0.13882766883E+04  0.25500000920E-02 0.  1.
       -2    1    3    3    0  502  0.74510857697E+03 -0.96230431428E+03 -0.26232079822E+04  0.28917877693E+04  0.25500000920E-02 0. -1.
</event>
<event>
 5   0  0.1370688E-07  0.3768977E+04  0.7818609E-02  0.8052845E-01
       -2   -1    0    0    0  501  0.00000000000E+00  0.00000000000E+00  0.12700812657E+04  0.12700812657E+04  0.25500000920E-02 0.  1.
        2   -1    0    0  501    0  0.00000000000E+00  0.00000000000E+00 -0.27961185518E+04  0.27961185518E+04  0.25500000920E-02 0. -1.
    10030    2    1    2    0    0  0.00000000000E+00  0.00000000000E+00 -0.15260372861E+04  0.40661998175E+04  0.37689774684E+04 0.  0.
        5    1    3    3  502    0  0.58510068372E+03  0.17289324435E+04 -0.12687331376E+04  0.22228936251E+04  0.46999998093E+01 0. -1.
       -5    1    3    3    0  502 -0.58510068372E+03 -0.17289324435E+04 -0.25730414849E+03  0.18433061924E+04  0.46999998093E+01 0.  1.
</event>
<event>
 5   0  0.6661000E-08  0.3819125E+04  0.7818609E-02  0.8042063E-01
       -1   -1    0    0    0  501  0.00000000000E+00  0.00000000000E+00  0.19889438528E+04  0.19889438528E+04  0.50400001928E-02 0.  1.
        1   -1    0    0  501    0  0.00000000000E+00  0.00000000000E+00 -0.18333495334E+04  0.18333495334E+04  0.50400001928E-02 0. -1.
    10030    2    1    2    0    0  0.00000000000E+00  0.00000000000E+00  0.15559431941E+03  0.38222933862E+04  0.38191251796E+04 0.  0.
        2    1    3    3  502    0 -0.16464329864E+04  0.88828693407E+03 -0.30544873264E+03  0.18955458802E+04  0.25500000920E-02 0. -1.
       -2    1    3    3    0  502  0.16464329864E+04 -0.88828693407E+03  0.46104305205E+03  0.19267475059E+04  0.25500000920E-02 0.  1.
</event>
<event>
 5   0  0.6661000E-08  0.3797753E+04  0.7818609E-02  0.8046637E-01
       -1   -1    0    0    0  501  0.00000000000E+00  0.00000000000E+00  0.17442970081E+04  0.17442970081E+04  0.50400001928E-02 0. -1.
        1   -1    0    0  501    0  0.00000000000E+00  0.00000000000E+00 -0.20671543826E+04  0.20671543826E+04  0.50400001928E-02 0.  1.
    10030    2    1    2    0    0  0.00000000000E+00  0.00000000000E+00 -0.32285737458E+03  0.38114513907E+04  0.37977526011E+04 0.  0.
        2    1    3    3  502    0  0.70026745830E+03 -0.18821268273E+03 -0.19227327113E+04  0.20549208273E+04  0.25500000920E-02 0.  1.
       -2    1    3    3    0  502 -0.70026745830E+03  0.18821268273E+03  0.15998753368E+04  0.17565305634E+04  0.25500000920E-02 0. -1.
</event>
<event>
 5   0  0.6661000E-08  0.3865393E+04  0.7818609E-02  0.8032266E-01
        1   -1    0    0  501    0  0.00000000000E+00  0.00000000000E+00  0.23937101249E+04  0.23937101249E+04  0.50400001928E-02 0. -1.
       -1   -1    0    0    0  501  0.00000000000E+00  0.00000000000E+00 -0.15604708944E+04  0.15604708945E+04  0.50400001928E-02 0.  1.
    10030    2    1    2    0    0  0.00000000000E+00  0.00000000000E+00  0.83323923044E+03  0.39541810193E+04  0.38653925957E+04 0.  0.
        4    1    3    3  502    0 -0.42985630942E+03 -0.16409722285E+04  0.13640396342E+04  0.21767342598E+04  0.12699999809E+01 0.  1.
       -4    1    3    3    0  502  0.42985630942E+03  0.16409722285E+04 -0.53080040377E+03  0.17774467595E+04  0.12699999809E+01 0. -1.
</event>
<event>
 5   0  0.6725199E-08  0.3784949E+04  0.7818609E-02  0.8049393E-01
       -1   -1    0    0    0  501  0.00000000000E+00  0.00000000000E+00  0.11602507523E+04  0.11602507523E+04  0.50400001928E-02 0. -1.
        1   -1    0    0  501    0  0.00000000000E+00  0.00000000000E+00 -0.30867977299E+04  0.30867977299E+04  0.50400001928E-02 0.  1.
    10030    2    1    2    0    0  0.00000000000E+00  0.00000000000E+00 -0.19265469777E+04  0.42470484822E+04  0.37849488177E+04 0.  0.
        5    1    3    3  502    0  0.27552840240E+03  0.17172597495E+04 -0.18003700083E+04  0.25032481308E+04  0.46999998093E+01 0.  1.
       -5    1    3    3    0  502 -0.27552840240E+03 -0.17172597495E+04 -0.12617696938E+03  0.17438003514E+04  0.46999998093E+01 0. -1.
</event>
<event>
 5   0  0.6661000E-08  0.3796279E+04  0.7818609E-02  0.8046954E-01
        1   -1    0    0  501    0  0.00000000000E+00  0.00000000000E+00  0.19480991936E+04  0.19480991936E+04  0.50400001928E-02 0.  1.
       -1   -1    0    0    0  501  0.00000000000E+00  0.00000000000E+00 -0.18494609274E+04  0.18494609274E+04  0.50400001928E-02 0. -1.
    10030    2    1    2    0    0  0.00000000000E+00  0.00000000000E+00  0.98638266214E+02  0.37975601210E+04  0.37962788840E+04 0.  0.
        3    1    3    3  502    0 -0.79001743396E+03  0.15179017148E+04  0.87104641165E+03  0.19201237000E+04  0.10100000352E+00 0.  1.
       -3    1    3    3    0  502  0.79001743396E+03 -0.15179017148E+04 -0.77240814544E+03  0.18774364210E+04  0.10100000352E+00 0. -1.
</event>
<event>
 5   0  0.1370688E-07  0.3833893E+04  0.7818609E-02  0.8038920E-01
        2   -1    0    0  501    0  0.00000000000E+00  0.00000000000E+00  0.14472305621E+04  0.14472305621E+04  0.25500000920E-02 0.  1.
       -2   -1    0    0    0  501  0.00000000000E+00  0.00000000000E+00 -0.25391139333E+04  0.25391139333E+04  0.25500000920E-02 0. -1.
    10030    2    1    2    0    0  0.00000000000E+00  0.00000000000E+00 -0.10918833712E+04  0.39863444955E+04  0.38338926876E+04 0.  0.
        5    1    3    3  502    0  0.11456286125E+04  0.32973694435E+03  0.10149068028E+04  0.15656466008E+04  0.46999998093E+01 0.  1.
       -5    1    3    3    0  502 -0.11456286125E+04 -0.32973694435E+03 -0.21067901740E+04  0.24206978947E+04  0.46999998093E+01 0. -1.
</event>
<event>
 5   0  0.6725199E-08  0.3871565E+04  0.7818609E-02  0.8030969E-01
        1   -1    0    0  501    0  0.00000000000E+00  0.00000000000E+00  0.29438787983E+04  0.29438787983E+04  0.50400001928E-02 0. -1.
       -1   -1    0    0    0  501  0.00000000000E+00  0.00000000000E+00 -0.12728968160E+04  0.12728968160E+04  0.50400001928E-02 0.  1.
    10030    2    1    2    0    0  0.00000000000E+00  0.00000000000E+00  0.16709819823E+04  0.42167756143E+04  0.38715650319E+04 0.  0.
        5    1    3    3  502    0  0.16584847489E+04 -0.66801353525E+03  0.16435448188E+04  0.24285953568E+04  0.46999998093E+01 0. -1.
       -5    1    3    3    0  502 -0.16584847489E+04  0.66801353525E+03  0.27437163456E+02  0.17881802575E+04  0.46999998093E+01 0.  1.
</event>
<event>
 5   0  0.2081337E-07  0.3807093E+04  0.7818609E-02  0.8044634E-01
        2   -1    0    0  501    0  0.00000000000E+00  0.00000000000E+00  0.11481420548E+04  0.11481420548E+04  0.25500000920E-02 0. -1.
       -2   -1    0    0    0  501  0.00000000000E+00  0.00000000000E+00 -0.31559594808E+04  0.31559594808E+04  0.25500000920E-02 0.  1.
    10030    2    1    2    0    0  0.00000000000E+00  0.00000000000E+00 -0.20078174260E+04  0.43041015356E+04  0.38070932761E+04 0.  0.
        1    1    3    3  502    0  0.39587267762E+03  0.16939240784E+04 -0.13009251978E+03  0.17444248404E+04  0.50400001928E-02 0. -1.
       -1    1    3    3    0  502 -0.39587267762E+03 -0.16939240784E+04 -0.18777249062E+04  0.25596766952E+04  0.50400001928E-02 0.  1.
</event>
<event>
 5   0  0.6661000E-08  0.3804490E+04  0.7818609E-02  0.8045192E-01
       -1   -1    0    0    0  501  0.00000000000E+00  0.00000000000E+00  0.32255921616E+04  0.32255921616E+04  0.50400001928E-02 0.  1.
        1   -1    0    0  501    0  0.00000000000E+00  0.00000000000E+00 -0.11218204474E+04  0.11218204475E+04  0.50400001928E-02 0. -1.
    10030    2    1    2    0    0  0.00000000000E+00  0.00000000000E+00  0.21037717142E+04  0.43474126091E+04  0.38044895805E+04 0.  0.
        3    1    3    3  502    0  0.22289063801E+03  0.34973338789E+03 -0.10695320042E+04  0.11471235318E+04  0.10100000352E+00 0. -1.
       -3    1    3    3    0  502 -0.22289063801E+03 -0.34973338789E+03  0.31733037183E+04  0.32002890773E+04  0.10100000352E+00 0.  1.
</event>
<event>
 5   0  0.6661000E-08  0.3490024E+04  0.7818609E-02  0.8116158E-01
        1   -1    0    0  501    0  0.00000000000E+00  0.00000000000E+00  0.14644321884E+04  0.14644321884E+04  0.50400001928E-02 0. -1.
       -1   -1    0    0    0  501  0.00000000000E+00  0.00000000000E+00 -0.20793502155E+04  0.20793502155E+04  0.50400001928E-02 0.  1.
    10030    2    1    2    0    0  0.00000000000E+00  0.00000000000E+00 -0.61491802710E+03  0.35437824039E+04  0.34900242901E+04 0.  0.
        2    1    3    3  502    0  0.17425760163E+04 -0.82832221149E+02 -0.26640057999E+03  0.17647667321E+04  0.25500000920E-02 0. -1.
       -2    1    3    3    0  502 -0.17425760163E+04  0.82832221149E+02 -0.34851744711E+03  0.17790156718E+04  0.25500000920E-02 0.  1.
</event>
<event>
 5   0  0.6661000E-08  0.3794550E+04  0.7818609E-02  0.8047326E-01
       -3   -1    0    0    0  501  0.00000000000E+00  0.00000000000E+00  0.24543140509E+04  0.24543140530E+04  0.10100000352E+00 0. -1.
        3   -1    0    0  501    0  0.00000000000E+00  0.00000000000E+00 -0.14666630691E+04  0.14666630726E+04  0.10100000352E+00 0.  1.
    10030    2    1    2    0    0  0.00000000000E+00  0.00000000000E+00  0.98765098185E+03  0.39209771256E+04  0.37945496647E+04 0.  0.
        4    1    3    3  502    0 -0.22713267280E+03 -0.57609006517E+03  0.23469488019E+04  0.24272699285E+04  0.12699999809E+01 0. -1.
       -4    1    3    3    0  502  0.22713267280E+03  0.57609006517E+03 -0.13592978200E+04  0.14937071971E+04  0.12699999809E+01 0.  1.
</event>
<event>
 5   0  0.2081337E-07  0.3793502E+04  0.7818609E-02  0.8047551E-01
        2   -1    0    0  501    0  0.00000000000E+00  0.00000000000E+00  0.30153992011E+04  0.30153992011E+04  0.25500000920E-02 0. -1.
       -2   -1    0    0    0  501  0.00000000000E+00  0.00000000000E+00 -0.11930974961E+04  0.11930974961E+04  0.25500000920E-02 0.  1.
    10030    2    1    2    0    0  0.00000000000E+00  0.00000000000E+00  0.18223017050E+04  0.42084966972E+04  0.37935024643E+04 0.  0.
        1    1    3    3  502    0 -0.15497052978E+04  0.54112250680E+02  0.21229600670E+04  0.26289682561E+04  0.50400001928E-02 0. -1.
       -1    1    3    3    0  502  0.15497052978E+04 -0.54112250680E+02 -0.30065836199E+03  0.15795284411E+04  0.50400001928E-02 0.  1.
</event>
<event>
 5   0  0.2203998E-07  0.3809449E+04  0.7818609E-02  0.8044130E-01
       -2   -1    0    0    0  501  0.00000000000E+00  0.00000000000E+00  0.21697170002E+04  0.21697170002E+04  0.25500000920E-02 0.  1.
        2   -1    0    0  501    0  0.00000000000E+00  0.00000000000E+00 -0.16720963380E+04  0.16720963381E+04  0.25500000920E-02 0. -1.
    10030    2    1    2    0    0  0.00000000000E+00  0.00000000000E+00  0.49762066217E+03  0.38418133383E+04  0.38094492256E+04 0.  0.
        3    1    3    3  502    0 -0.72424438089E+03  0.16958317831E+04  0.72993835997E+03  0.19832260031E+04  0.10100000352E+00 0.  1.
       -3    1    3    3    0  502  0.72424438089E+03 -0.16958317831E+04 -0.23231769780E+03  0.18585873352E+04  0.10100000352E+00 0. -1.
</event>
<event>
 5   0  0.2081337E-07  0.3873674E+04  0.7818609E-02  0.8030527E-01
        2   -1    0    0  501    0  0.00000000000E+00  0.00000000000E+00  0.24561790521E+04  0.24561790521E+04  0.25500000920E-02 0. -1.
       -2   -1    0    0    0  501  0.00000000000E+00  0.00000000000E+00 -0.15273058645E+04  0.15273058645E+04  0.25500000920E-02 0.  1.
    10030    2    1    2    0    0  0.00000000000E+00  0.00000000000E+00  0.92887318758E+03  0.39834849166E+04  0.38736735385E+04 0.  0.
        1    1    3    3  502    0 -0.39622128545E+03 -0.87534734063E+03 -0.12649356842E+04  0.15884856181E+04  0.50400001928E-02 0.  1.
       -1    1    3    3    0  502  0.39622128545E+03  0.87534734063E+03  0.21938088718E+04  0.23949992985E+04  0.50400001928E-02 0. -1.
</event>
<event>
 5   0  0.2203998E-07  0.3799108E+04  0.7818609E-02  0.8046346E-01
        2   -1    0    0  501    0  0.00000000000E+00  0.00000000000E+00  0.16014445299E+04  0.16014445299E+04  0.25500000920E-02 0.  1.
       -2   -1    0    0    0  501  0.00000000000E+00  0.00000000000E+00 -0.22531570822E+04  0.22531570822E+04  0.25500000920E-02 0. -1.
    10030    2    1    2    0    0  0.00000000000E+00  0.00000000000E+00 -0.65171255237E+03  0.38546016121E+04  0.37991083608E+04 0.  0.
        3    1    3    3  502    0  0.14848518892E+04  0.80612508296E+03 -0.12066866084E+04  0.20762262312E+04  0.10100000352E+00 0. -1.
       -3    1    3    3    0  502 -0.14848518892E+04 -0.80612508296E+03  0.55497405604E+03  0.17783753809E+04  0.10100000352E+00 0.  1.
</event>
<event>
 5   0  0.2205204E-07  0.3698520E+04  0.7818609E-02  0.8068290E-01
        2   -1    0    0  501    0  0.00000000000E+00  0.00000000000E+00  0.23482681373E+04  0.23482681373E+04  0.25500000920E-02 0. -1.
       -2   -1    0    0    0  501  0.00000000000E+00  0.00000000000E+00 -0.14562912100E+04  0.14562912100E+04  0.25500000920E-02 0.  1.
    10030    2    1    2    0    0  0.00000000000E+00  0.00000000000E+00  0.89197692726E+03  0.38045593474E+04  0.36985198376E+04 0.  0.
        2    1    3    3  502    0 -0.79456649030E+03 -0.32672099110E+03  0.21305227915E+04  0.22972178561E+04  0.25500000920E-02 0. -1.
       -2    1    3    3    0  502  0.79456649030E+03  0.32672099110E+03 -0.12385458642E+04  0.15073414912E+04  0.25500000920E-02 0.  1.
</event>
<event>
 5   0  0.2081337E-07  0.3798857E+04  0.7818609E-02  0.8046400E-01
       -2   -1    0    0    0  501  0.00000000000E+00  0.00000000000E+00  0.12064424970E+04  0.12064424970E+04  0.25500000920E-02 0. -1.
        2   -1    0    0  501    0  0.00000000000E+00  0.00000000000E+00 -0.29904687172E+04  0.29904687172E+04  0.25500000920E-02 0.  1.
    10030    2    1    2    0    0  0.00000000000E+00  0.00000000000E+00 -0.17840262202E+04  0.41969112141E+04  0.37988569577E+04 0.  0.
        1    1    3    3  502    0  0.10338229809E+04  0.15928132648E+04 -0.94122859008E+03  0.21193761608E+04  0.50400001928E-02 0.  1.
       -1    1    3    3    0  502 -0.10338229809E+04 -0.15928132648E+04 -0.84279763010E+03  0.20775350533E+04  0.50400001928E-02 0. -1.
</event>
<event>
 5   0  0.6725199E-08  0.3804161E+04  0.7818609E-02  0.8045263E-01
        1   -1    0    0  501    0  0.00000000000E+00  0.00000000000E+00  0.19720887798E+04  0.19720887798E+04  0.50400001928E-02 0.  1.
       -1   -1    0    0    0  501  0.00000000000E+00  0.00000000000E+00 -0.18345573356E+04  0.18345573356E+04  0.50400001928E-02 0. -1.
    10030    2    1    2    0    0  0.00000000000E+00  0.00000000000E+00  0.13753144417E+03  0.38066461154E+04  0.38041608470E+04 0.  0.
        5    1    3    3  502    0  0.68247445708E+03 -0.13208463223E+04  0.12559140191E+04  0.19462138899E+04  0.46999998093E+01 0. -1.
       -5    1    3    3    0  502 -0.68247445708E+03  0.13208463223E+04 -0.11183825749E+04  0.18604322255E+04  0.46999998093E+01 0.  1.
</event>
<event>
 5   0  0.6661000E-08  0.3772830E+04  0.7818609E-02  0.8052011E-01
       -1   -1    0    0    0  501  0.00000000000E+00  0.00000000000E+00  0.17926236701E+04  0.17926236701E+04  0.50400001928E-02 0. -1.
        1   -1    0    0  501    0  0.00000000000E+00  0.00000000000E+00 -0.19851135322E+04  0.19851135322E+04  0.50400001928E-02 0.  1.
    10030    2    1    2    0    0  0.00000000000E+00  0.00000000000E+00 -0.19248986208E+03  0.37777372023E+04  0.37728299753E+04 0.  0.
        3    1    3    3  502    0  0.95160434279E+03 -0.89474878659E+03 -0.14590571877E+04  0.19583089908E+04  0.10100000352E+00 0.  1.
       -3    1    3    3    0  502 -0.95160434279E+03  0.89474878659E+03  0.12665673256E+04  0.18194282115E+04  0.10100000352E+00 0. -1.
</event>
<event>
 5   0  0.2205204E-07  0.3808964E+04  0.7818609E-02  0.8044234E-01
        2   -1    0    0  501    0  0.00000000000E+00  0.00000000000E+00  0.16170419623E+04  0.16170419623E+04  0.25500000920E-02 0.  1.
       -2   -1    0    0    0  501  0.00000000000E+00  0.00000000000E+00 -0.22430166800E+04  0.22430166800E+04  0.25500000920E-02 0. -1.
    10030    2    1    2    0    0  0.00000000000E+00  0.00000000000E+00 -0.62597471774E+03  0.38600586423E+04  0.38089642128E+04 0.  0.
        2    1    3    3  502    0 -0.90801284517E+03  0.20803115942E+03  0.13704056179E+04  0.16570382759E+04  0.25500000920E-02 0.  1.
       -2    1    3    3    0  502  0.90801284517E+03 -0.20803115942E+03 -0.19963803356E+04  0.22030203664E+04  0.25500000920E-02 0. -1.
</event>
<event>
 5   0  0.6661000E-08  0.3765825E+04  0.7818609E-02  0.8053529E-01
       -1   -1    0    0    0  501  0.00000000000E+00  0.00000000000E+00  0.25657459181E+04  0.25657459181E+04  0.50400001928E-02 0.  1.
        1   -1    0    0  501    0  0.00000000000E+00  0.00000000000E+00 -0.13818045622E+04  0.13818045622E+04  0.50400001928E-02 0. -1.
    10030    2    1    2    0    0  0.00000000000E+00  0.00000000000E+00  0.11839413559E+04  0.39475504803E+04  0.37658249641E+04 0.  0.
        3    1    3    3  502    0  0.21903453772E+03 -0.18509805582E+04  0.87178693722E+03  0.20576971667E+04  0.10100000352E+00 0.  1.
       -3    1    3    3    0  502 -0.21903453772E+03  0.18509805582E+04  0.31215441872E+03  0.18898533136E+04  0.10100000352E+00 0. -1.
</event>
<event>
 5   0  0.6661000E-08  0.3814415E+04  0.7818609E-02  0.8043068E-01
        1   -1    0    0  501    0  0.00000000000E+00  0.00000000000E+00  0.22164458199E+04  0.22164458199E+04  0.50400001928E-02 0. -1.
       -1   -1    0    0    0  501  0.00000000000E+00  0.00000000000E+00 -0.16411142700E+04  0.16411142700E+04  0.50400001928E-02 0.  1.
    10030    2    1    2    0    0  0.00000000000E+00  0.00000000000E+00  0.57533154991E+03  0.38575600898E+04  0.38144152179E+04 0.  0.
        3    1    3    3  502    0 -0.54310499817E+03 -0.18191761802E+04  0.10374102506E+03  0.19013487907E+04  0.10100000352E+00 0. -1.
       -3    1    3    3    0  502  0.54310499817E+03  0.18191761802E+04  0.47159052485E+03  0.19562112991E+04  0.10100000352E+00 0.  1.
</event>
<event>
 5   0  0.1370688E-07  0.3722289E+04  0.7818609E-02  0.8063040E-01
       -2   -1    0    0    0  501  0.00000000000E+00  0.00000000000E+00  0.20370681163E+04  0.20370681163E+04  0.25500000920E-02 0. -1.
        2   -1    0    0  501    0  0.00000000000E+00  0.00000000000E+00 -0.17004139110E+04  0.17004139110E+04  0.25500000920E-02 0.  1.
    10030    2    1    2    0    0  0.00000000000E+00  0.00000000000E+00  0.33665420535E+03  0.37374820273E+04  0.37222890605E+04 0.  0.
        5    1    3    3  502    0 -0.13218802478E+04  0.11897682923E+04  0.71912869660E+03  0.19183545426E+04  0.46999998093E+01 0. -1.
       -5    1    3    3    0  502  0.13218802478E+04 -0.11897682923E+04 -0.38247449125E+03  0.18191274846E+04  0.46999998093E+01 0.  1.
</event>
<event>
 5   0  0.2203998E-07  0.3882885E+04  0.7818609E-02  0.8028598E-01
       -2   -1    0    0    0  501  0.00000000000E+00  0.00000000000E+00  0.14797995568E+04  0.14797995568E+04  0.25500000920E-02 0.  1.
        2   -1    0    0  501    0  0.00000000000E+00  0.00000000000E+00 -0.25471003860E+04  0.25471003860E+04  0.25500000920E-02 0. -1.
    10030    2    1    2    0    0  0.00000000000E+00  0.00000000000E+00 -0.10673008291E+04  0.40268999428E+04  0.38828845063E+04 0.  0.
        3    1    3    3  502    0  0.61620095979E+02 -0.14006414224E+04  0.85914404566E+03  0.16442998303E+04  0.10100000352E+00 0.  1.
       -3    1    3    3    0  502 -0.61620095979E+02  0.14006414224E+04 -0.19264448748E+04  0.23826001125E+04  0.10100000352E+00 0. -1.
</event>
<event>
 5   0  0.6725199E-08  0.3791802E+04  0.7818609E-02  0.8047916E-01
        1   -1    0    0  501    0  0.00000000000E+00  0.00000000000E+00  0.10294367077E+04  0.10294367078E+04  0.50400001928E-02 0.  1.
       -1   -1    0    0    0  501  0.00000000000E+00  0.00000000000E+00 -0.34916573878E+04  0.34916573878E+04  0.50400001928E-02 0. -1.
    10030    2    1    2    0    0  0.00000000000E+00  0.00000000000E+00 -0.24622206800E+04  0.45210940955E+04  0.37918018334E+04 0.  0.
        5    1    3    3  502    0  0.61637078384E+03  0.15786990667E+04 -0.22443939508E+04  0.28123886615E+04  0.46999998093E+01 0.  1.
       -5    1    3    3    0  502 -0.61637078384E+03 -0.15786990667E+04 -0.21782672918E+03  0.17087054341E+04  0.46999998093E+01 0. -1.
</event>
<event>
 5   0  0.2205204E-07  0.3789350E+04  0.7818609E-02  0.8048444E-01
       -2   -1    0    0    0  501  0.00000000000E+00  0.00000000000E+00  0.13665129323E+04  0.13665129323E+04  0.25500000920E-02 0.  1.
        2   -1    0    0  501    0  0.00000000000E+00  0.00000000000E+00 -0.26269736674E+04  0.26269736674E+04  0.25500000920E-02 0. -1.
    10030    2    1    2    0    0  0.00000000000E+00  0.00000000000E+00 -0.12604607352E+04  0.39934865997E+04  0.37893500706E+04 0.  0.
        2    1    3    3  502    0  0.14424853891E+04  0.11864770699E+04 -0.96565546695E+03  0.21026132350E+04  0.25500000920E-02 0. -1.
       -2    1    3    3    0  502 -0.14424853891E+04 -0.11864770699E+04 -0.29480526822E+03  0.18908733647E+04  0.25500000920E-02 0.  1.
</event>
<event>
 5   0  0.6661000E-08  0.3805535E+04  0.7818609E-02  0.8044968E-01
       -1   -1    0    0    0  501  0.00000000000E+00  0.00000000000E+00  0.25184524172E+04  0.25184524172E+04  0.50400001928E-02 0.  1.
        1   -1    0    0  501    0  0.00000000000E+00  0.00000000000E+00 -0.14375990038E+04  0.14375990038E+04  0.50400001928E-02 0. -1.
    10030    2    1    2    0    0  0.00000000000E+00  0.00000000000E+00  0.10808534134E+04  0.39560514210E+04  0.38055352770E+04 0.  0.
        1    1    3    3  502    0  0.15080688128E+04 -0.75979583393E+03  0.14520155885E+04  0.22270856568E+04  0.50400001928E-02 0.  1.
       -1    1    3    3    0  502 -0.15080688128E+04  0.75979583393E+03 -0.37116217508E+03  0.17289657642E+04  0.50400001928E-02 0. -1.
</event>
<event>
 5   0  0.6725199E-08  0.3808615E+04  0.7818609E-02  0.8044309E-01
        1   -1    0    0  501    0  0.00000000000E+00  0.00000000000E+00  0.15282872912E+04  0.15282872912E+04  0.50400001928E-02 0. -1.
       -1   -1    0    0    0  501  0.00000000000E+00  0.00000000000E+00 -0.23728432988E+04  0.23728432988E+04  0.50400001928E-02 0.  1.
    10030    2    1    2    0    0  0.00000000000E+00  0.00000000000E+00 -0.84455600755E+03  0.39011305900E+04  0.38086145815E+04 0.  0.
        5    1    3    3  502    0 -0.13148998438E+04  0.13331178197E+04 -0.67158358995E+02  0.18736854207E+04  0.46999998093E+01 0. -1.
       -5    1    3    3    0  502  0.13148998438E+04 -0.13331178197E+04 -0.77739764856E+03  0.20274451693E+04  0.46999998093E+01 0.  1.
</event>
<event>
 5   0  0.2203998E-07  0.3873264E+04  0.7818609E-02  0.8030613E-01
       -2   -1    0    0    0  501  0.00000000000E+00  0.00000000000E+00  0.13448116619E+04  0.13448116619E+04  0.25500000920E-02 0.  1.
        2   -1    0    0  501    0  0.00000000000E+00  0.00000000000E+00 -0.27888989726E+04  0.27888989726E+04  0.25500000920E-02 0. -1.
    10030    2    1    2    0    0  0.00000000000E+00  0.00000000000E+00 -0.14440873108E+04  0.41337106345E+04  0.38732641853E+04 0.  0.
        3    1    3    3  502    0 -0.75929572778E+03  0.70852250534E+03 -0.24665878181E+04  0.26763014811E+04  0.10100000352E+00 0. -1.
       -3    1    3    3    0  502  0.75929572778E+03 -0.70852250534E+03  0.10225005074E+04  0.14574091535E+04  0.10100000352E+00 0.  1.
</event>
<event>
 5   0  0.1370688E-07  0.3670086E+04  0.7818609E-02  0.8074624E-01
       -2   -1    0    0    0  501  0.00000000000E+00  0.00000000000E+00  0.15387231835E+04  0.15387231835E+04  0.25500000920E-02 0. -1.
        2   -1    0    0  501    0  0.00000000000E+00  0.00000000000E+00 -0.21884271403E+04  0.21884271403E+04  0.25500000920E-02 0.  1.
    10030    2    1    2    0    0  0.00000000000E+00  0.00000000000E+00 -0.64970395678E+03  0.37271503237E+04  0.36700864165E+04 0.  0.
        5    1    3    3  502    0  0.16808586734E+04  0.56024310069E+02 -0.10703896137E+04  0.19935347046E+04  0.46999998093E+01 0. -1.
       -5    1    3    3    0  502 -0.16808586734E+04 -0.56024310069E+02  0.42068565693E+03  0.17336156192E+04  0.46999998093E+01 0.  1.
</event>
<event>
 5   0  0.6661000E-08  0.3826160E+04  0.7818609E-02  0.8040564E-01
        1   -1    0    0  501    0  0.00000000000E+00  0.00000000000E+00  0.19675296196E+04  0.19675296196E+04  0.50400001928E-02 0. -1.
       -1   -1    0    0    0  501  0.00000000000E+00  0.00000000000E+00 -0.18601367559E+04  0.18601367559E+04  0.50400001928E-02 0.  1.
    10030    2    1    2    0    0  0.00000000000E+00  0.00000000000E+00  0.10739286369E+03  0.38276663755E+04  0.38261595177E+04 0.  0.
        3    1    3    3  502    0 -0.13326557440E+04 -0.83621120400E+03  0.11425430384E+04  0.19443829650E+04  0.10100000352E+00 0.  1.
       -3    1    3    3    0  502  0.13326557440E+04  0.83621120400E+03 -0.10351501748E+04  0.18832834105E+04  0.10100000352E+00 0. -1.
</event>
<event>
 5   0  0.6725199E-08  0.3837236E+04  0.7818609E-02  0.8038211E-01
       -1   -1    0    0    0  501  0.00000000000E+00  0.00000000000E+00  0.15890910242E+04  0.15890910242E+04  0.50400001928E-02 0.  1.
        1   -1    0    0  501    0  0.00000000000E+00  0.00000000000E+00 -0.23164784431E+04  0.23164784431E+04  0.50400001928E-02 0. -1.
    10030    2    1    2    0    0  0.00000000000E+00  0.00000000000E+00 -0.72738741889E+03  0.39055694674E+04  0.38372360375E+04 0.  0.
        5    1    3    3  502    0  0.14919406438E+04  0.11042753342E+04  0.13050642628E+03  0.18607431085E+04  0.46999998093E+01 0.  1.
       -5    1    3    3    0  502 -0.14919406438E+04 -0.11042753342E+04 -0.85789384518E+03  0.20448263589E+04  0.46999998093E+01 0. -1.
</event>
<event>
 5   0  0.6661000E-08  0.3753663E+04  0.7818609E-02  0.8056173E-01
       -1   -1    0    0    0  501  0.00000000000E+00  0.00000000000E+00  0.14988708831E+04  0.14988708831E+04  0.50400001928E-02 0. -1.
        1   -1    0    0  501    0  0.00000000000E+00  0.00000000000E+00 -0.23500995051E+04  0.23500995051E+04  0.50400001928E-02 0.  1.
    10030    2    1    2    0    0  0.00000000000E+00  0.00000000000E+00 -0.85122862208E+03  0.38489703882E+04  0.37536625957E+04 0.  0.
        2    1    3    3  502    0 -0.16460380932E+04 -0.67950101844E+03 -0.10333974010E+04  0.20589009755E+04  0.25500000920E-02 0.  1.
       -2    1    3    3    0  502  0.16460380932E+04  0.67950101844E+03  0.18216877895E+03  0.17900694127E+04  0.25500000920E-02 0. -1.
</event>
<event>
 5   0  0.2135314E-07  0.3387125E+04  0.7818609E-02  0.8141074E-01
        2   -1    0    0  501    0  0.00000000000E+00  0.00000000000E+00  0.22807447346E+04  0.22807447346E+04  0.25500000920E-02 0. -1.
       -2   -1    0    0    0  501  0.00000000000E+00  0.00000000000E+00 -0.12575511747E+04  0.12575511747E+04  0.25500000920E-02 0.  1.
    10030    2    1    2    0    0  0.00000000000E+00  0.00000000000E+00  0.10231935599E+04  0.35382959093E+04  0.33871245741E+04 0.  0.
        4    1    3    3  502    0 -0.15583586285E+04  0.87250816590E+02  0.11982439711E+04  0.19677104836E+04  0.12699999809E+01 0.  1.
       -4    1    3    3    0  502  0.15583586285E+04 -0.87250816590E+02 -0.17505041115E+03  0.15705854257E+04  0.12699999809E+01 0. -1.
</event>
<event>
 5   0  0.6661000E-08  0.3789065E+04  0.7818609E-02  0.8048505E-01
       -1   -1    0    0    0  501  0.00000000000E+00  0.00000000000E+00  0.22312806138E+04  0.22312806138E+04  0.50400001928E-02 0. -1.
        1   -1    0    0  501    0  0.00000000000E+00  0.00000000000E+00 -0.16086072683E+04  0.16086072683E+04  0.50400001928E-02 0.  1.
    10030    2    1    2    0    0  0.00000000000E+00  0.00000000000E+00  0.62267334550E+03  0.38398878821E+04  0.37890654326E+04 0.  0.
        4    1    3    3  502    0  0.11089966687E+04  0.13139481968E+04 -0.49489628647E+03  0.17892058077E+04  0.12699999809E+01 0. -1.
       -4    1    3    3    0  502 -0.11089966687E+04 -0.13139481968E+04  0.11175696320E+04  0.20506820744E+04  0.12699999809E+01 0.  1.
</event>
<event>
 5   0  0.6661000E-08  0.3798897E+04  0.7818609E-02  0.8046392E-01
        1   -1    0    0  501    0  0.00000000000E+00  0.00000000000E+00  0.18519207703E+04  0.18519207703E+04  0.50400001928E-02 0. -1.
       -1   -1    0    0    0  501  0.00000000000E+00  0.00000000000E+00 -0.19481958381E+04  0.19481958381E+04  0.50400001928E-02 0.  1.
    10030    2    1    2    0    0  0.00000000000E+00  0.00000000000E+00 -0.96275067728E+02  0.38001166084E+04  0.37988968594E+04 0.  0.
        3    1    3    3  502    0  0.17965067686E+04 -0.78258945370E+02 -0.66016998516E+03  0.19155640036E+04  0.10100000352E+00 0.  1.
       -3    1    3    3    0  502 -0.17965067686E+04  0.78258945370E+02  0.56389491744E+03  0.18845526048E+04  0.10100000352E+00 0. -1.
</event>
<event>
 5   0  0.1370688E-07  0.3789686E+04  0.7818609E-02  0.8048372E-01
        2   -1    0    0  501    0  0.00000000000E+00  0.00000000000E+00  0.21269000635E+04  0.21269000635E+04  0.25500000920E-02 0. -1.
       -2   -1    0    0    0  501  0.00000000000E+00  0.00000000000E+00 -0.16881044290E+04  0.16881044290E+04  0.25500000920E-02 0.  1.
    10030    2    1    2    0    0  0.00000000000E+00  0.00000000000E+00  0.43879563442E+03  0.38150044925E+04  0.37896856953E+04 0.  0.
        5    1    3    3  502    0 -0.13963119331E-01  0.18150201944E+04 -0.32839669928E+03  0.18444958087E+04  0.46999998093E+01 0. -1.
       -5    1    3    3    0  502  0.13963119331E-01 -0.18150201944E+04  0.76719233370E+03  0.19705086838E+04  0.46999998093E+01 0.  1.
</event>
<event>
 5   0  0.2081337E-07  0.3801800E+04  0.7818609E-02  0.8045769E-01
        2   -1    0    0  501    0  0.00000000000E+00  0.00000000000E+00  0.21172833312E+04  0.21172833312E+04  0.25500000920E-02 0. -1.
       -2   -1    0    0    0  501  0.00000000000E+00  0.00000000000E+00 -0.17066309379E+04  0.17066309379E+04  0.25500000920E-02 0.  1.
    10030    2    1    2    0    0  0.00000000000E+00  0.00000000000E+00  0.41065239322E+03  0.38239142691E+04  0.38018002248E+04 0.  0.
        1    1    3    3  502    0 -0.18515362802E+04 -0.39571311930E+03  0.35091105260E+02  0.18936754884E+04  0.50400001928E-02 0.  1.
       -1    1    3    3    0  502  0.18515362802E+04  0.39571311930E+03  0.37556128796E+03  0.19302387807E+04  0.50400001928E-02 0. -1.
</event>
<event>
 5   0  0.2203998E-07  0.3789138E+04  0.7818609E-02  0.8048490E-01
       -2   -1    0    0    0  501  0.00000000000E+00  0.00000000000E+00  0.17259814577E+04  0.17259814577E+04  0.25500000920E-02 0.  1.
        2   -1    0    0  501    0  0.00000000000E+00  0.00000000000E+00 -0.20796238658E+04  0.20796238658E+04  0.25500000920E-02 0. -1.
    10030    2    1    2    0    0  0.00000000000E+00  0.00000000000E+00 -0.35364240809E+03  0.38056053235E+04  0.37891382827E+04 0.  0.
        3    1    3    3  502    0  0.67940264304E+03  0.15943093450E+04 -0.94564253134E+03  0.19742467035E+04  0.10100000352E+00 0. -1.
       -3    1    3    3    0  502 -0.67940264304E+03 -0.15943093450E+04  0.59200012325E+03  0.18313586200E+04  0.10100000352E+00 0.  1.
</event>
<event>
 5   0  0.2203998E-07  0.3818697E+04  0.7818609E-02  0.8042154E-01
        2   -1    0    0  501    0  0.00000000000E+00  0.00000000000E+00  0.15244402309E+04  0.15244402309E+04  0.25500000920E-02 0.  1.
       -2   -1    0    0    0  501  0.00000000000E+00  0.00000000000E+00 -0.23914427432E+04  0.23914427432E+04  0.25500000920E-02 0. -1.
    10030    2    1    2    0    0  0.00000000000E+00  0.00000000000E+00 -0.86700251230E+03  0.39158829741E+04  0.38186969126E+04 0.  0.
        3    1    3    3  502    0  0.16865574267E+04  0.50134958674E+03  0.32684362115E+03  0.17895960786E+04  0.10100000352E+00 0. -1.
       -3    1    3    3    0  502 -0.16865574267E+04 -0.50134958674E+03 -0.11938461335E+04  0.21262868955E+04  0.10100000352E+00 0.  1.
</event>
<event>
 5   0  0.6661000E-08  0.3727490E+04  0.7818609E-02  0.8061897E-01
       -1   -1    0    0    0  501  0.00000000000E+00  0.00000000000E+00  0.15725604866E+04  0.15725604866E+04  0.50400001928E-02 0.  1.
        1   -1    0    0  501    0  0.00000000000E+00  0.00000000000E+00 -0.22088469208E+04  0.22088469208E+04  0.50400001928E-02 0. -1.
    10030    2    1    2    0    0  0.00000000000E+00  0.00000000000E+00 -0.63628643423E+03  0.37814074073E+04  0.37274899804E+04 0.  0.
        4    1    3    3  502    0  0.83172658469E+03 -0.16095075049E+04 -0.76180227400E+03  0.19653569237E+04  0.12699999809E+01 0. -1.
       -4    1    3    3    0  502 -0.83172658469E+03  0.16095075049E+04  0.12551583977E+03  0.18160504836E+04  0.12699999809E+01 0.  1.
</event>
<event>
 5   0  0.2081337E-07  0.3765227E+04  0.7818609E-02  0.8053659E-01
        2   -1    0    0  501    0  0.00000000000E+00  0.00000000000E+00  0.15293429097E+04  0.15293429097E+04  0.25500000920E-02 0.  1.
       -2   -1    0    0    0  501  0.00000000000E+00  0.00000000000E+00 -0.23174875474E+04  0.23174875474E+04  0.25500000920E-02 0. -1.
    10030    2    1    2    0    0  0.00000000000E+00  0.00000000000E+00 -0.78814463771E+03  0.38468304571E+04  0.37652267655E+04 0.  0.
        1    1    3    3  502    0  0.69270070731E+03 -0.17263665487E+04 -0.97862171054E+02  0.18627272304E+04  0.50400001928E-02 0.  1.
       -1    1    3    3    0  502 -0.69270070731E+03  0.17263665487E+04 -0.69028246666E+03  0.19841032267E+04  0.50400001928E-02 0. -1.
</event>
<event>
 5   0  0.6661000E-08  0.3798154E+04  0.7818609E-02  0.8046551E-01
       -1   -1    0    0    0  501  0.00000000000E+00  0.00000000000E+00  0.28789701086E+04  0.28789701086E+04  0.50400001928E-02 0. -1.
        1   -1    0    0  501    0  0.00000000000E+00  0.00000000000E+00 -0.12527024977E+04  0.12527024977E+04  0.50400001928E-02 0.  1.
    10030    2    1    2    0    0  0.00000000000E+00  0.00000000000E+00  0.16262676109E+04  0.41316726064E+04  0.37981537862E+04 0.  0.
        2    1    3    3  502    0  0.15740680561E+04 -0.65672901565E+03  0.17216412966E+04  0.24234339272E+04  0.25500000920E-02 0. -1.
       -2    1    3    3    0  502 -0.15740680561E+04  0.65672901565E+03 -0.95373685678E+02  0.17082386792E+04  0.25500000920E-02 0.  1.
</event>
<event>
 5   0  0.6661000E-08  0.3798118E+04  0.7818609E-02  0.8046559E-01
        1   -1    0    0  501    0  0.00000000000E+00  0.00000000000E+00  0.14435971292E+04  0.14435971292E+04  0.50400001928E-02 0.  1.
       -1   -1    0    0    0  501  0.00000000000E+00  0.00000000000E+00 -0.24982206599E+04  0.24982206599E+04  0.50400001928E-02 0. -1.
    10030    2    1    2    0    0  0.00000000000E+00  0.00000000000E+00 -0.10546235307E+04  0.39418177891E+04  0.37981175194E+04 0.  0.
        1    1    3    3  502    0 -0.29369829191E+03 -0.35972433219E+03  0.13837596718E+04  0.14596064919E+04  0.50400001928E-02 0.  1.
       -1    1    3    3    0  502  0.29369829191E+03  0.35972433219E+03 -0.24383832025E+04  0.24822112973E+04  0.50400001928E-02 0. -1.
</event>
<event>
 5   0  0.6725199E-08  0.3774330E+04  0.7818609E-02  0.8051686E-01
        1   -1    0    0  501    0  0.00000000000E+00  0.00000000000E+00  0.30195084803E+04  0.30195084803E+04  0.50400001928E-02 0.  1.
       -1   -1    0    0    0  501  0.00000000000E+00  0.00000000000E+00 -0.11794609017E+04  0.11794609017E+04  0.50400001928E-02 0. -1.
    10030    2    1    2    0    0  0.00000000000E+00  0.00000000000E+00  0.18400475786E+04  0.41989693820E+04  0.37743302426E+04 0.  0.
        5    1    3    3  502    0  0.27912088614E+03 -0.12708454864E+04 -0.60066132912E+03  0.14330990341E+04  0.46999998093E+01 0. -1.
       -5    1    3    3    0  502 -0.27912088614E+03  0.12708454864E+04  0.24407089077E+04  0.27658703479E+04  0.46999998093E+01 0.  1.
</event>
<event>
 5   0  0.2205204E-07  0.3331966E+04  0.7818609E-02  0.8154809E-01
        2   -1    0    0  501    0  0.00000000000E+00  0.00000000000E+00  0.24657140788E+04  0.24657140788E+04  0.25500000920E-02 0. -1.
       -2   -1    0    0    0  501  0.00000000000E+00  0.00000000000E+00 -0.11256371451E+04  0.11256371451E+04  0.25500000920E-02 0.  1.
    10030    2    1    2    0    0  0.00000000000E+00  0.00000000000E+00  0.13400769337E+04  0.35913512239E+04  0.33319660000E+04 0.  0.
        2    1    3    3  502    0 -0.79657844502E+03 -0.97104018606E+03 -0.50972118454E+03  0.13554600503E+04  0.25500000920E-02 0.  1.
       -2    1    3    3    0  502  0.79657844502E+03  0.97104018606E+03  0.18497981182E+04  0.22358911736E+04  0.25500000920E-02 0. -1.
</event>
<event>
 5   0  0.2081337E-07  0.3800664E+04  0.7818609E-02  0.8046012E-01
        2   -1    0    0  501    0  0.00000000000E+00  0.00000000000E+00  0.22934858441E+04  0.22934858441E+04  0.25500000920E-02 0.  1.
       -2   -1    0    0    0  501  0.00000000000E+00  0.00000000000E+00 -0.15745731426E+04  0.15745731426E+04  0.25500000920E-02 0. -1.
    10030    2    1    2    0    0  0.00000000000E+00  0.00000000000E+00  0.71891270146E+03  0.38680589867E+04  0.38006637384E+04 0.  0.
        1    1    3    3  502    0  0.55468993376E+03 -0.16034739052E+04 -0.51155365563E+03  0.17721446413E+04  0.50400001928E-02 0. -1.
       -1    1    3    3    0  502 -0.55468993376E+03  0.16034739052E+04  0.12304663571E+04  0.20959143454E+04  0.50400001928E-02 0.  1.
</event>
<event>
 5   0  0.1370688E-07  0.3794952E+04  0.7818609E-02  0.8047239E-01
        2   -1    0    0  501    0  0.00000000000E+00  0.00000000000E+00  0.30093525834E+04  0.30093525834E+04  0.25500000920E-02 0. -1.
       -2   -1    0    0    0  501  0.00000000000E+00  0.00000000000E+00 -0.11964084476E+04  0.11964084476E+04  0.25500000920E-02 0.  1.
    10030    2    1    2    0    0  0.00000000000E+00  0.00000000000E+00  0.18129441357E+04  0.42057610310E+04  0.37949518324E+04 0.  0.
        5    1    3    3  502    0  0.82023743494E+03  0.90586201188E+02 -0.98711350958E+03  0.12866275608E+04  0.46999998093E+01 0.  1.
       -5    1    3    3    0  502 -0.82023743494E+03 -0.90586201188E+02  0.28000576453E+04  0.29191334701E+04  0.46999998093E+01 0. -1.
</event>
<event>
 5   0  0.6725199E-08  0.3781978E+04  0.7818609E-02  0.8050033E-01
       -1   -1    0    0    0  501  0.00000000000E+00  0.00000000000E+00  0.13539965197E+04  0.13539965197E+04  0.50400001928E-02 0.  1.
        1   -1    0    0  501    0  0.00000000000E+00  0.00000000000E+00 -0.26409514599E+04  0.26409514599E+04  0.50400001928E-02 0. -1.
    10030    2    1    2    0    0  0.00000000000E+00  0.00000000000E+00 -0.12869549402E+04  0.39949479797E+04  0.37819778347E+04 0.  0.
        5    1    3    3  502    0  0.16766700131E+04 -0.15330211143E+03  0.26586723344E+03  0.17045325887E+04  0.46999998093E+01 0.  1.
       -5    1    3    3    0  502 -0.16766700131E+04  0.15330211143E+03 -0.15528221736E+04  0.22904153909E+04  0.46999998093E+01 0. -1.
</event>
<event>
 5   0  0.1370688E-07  0.3809387E+04  0.7818609E-02  0.8044144E-01
       -2   -1    0    0    0  501  0.00000000000E+00  0.00000000000E+00  0.16676752414E+04  0.16676752414E+04  0.25500000920E-02 0. -1.
        2   -1    0    0  501    0  0.00000000000E+00  0.00000000000E+00 -0.21753976893E+04  0.21753976893E+04  0.25500000920E-02 0.  1.
    10030    2    1    2    0    0  0.00000000000E+00  0.00000000000E+00 -0.50772244794E+03  0.38430729307E+04  0.38093867572E+04 0.  0.
        5    1    3    3  502    0  0.20338165423E+03 -0.17122998662E+04  0.56230446499E+03  0.18137098253E+04  0.46999998093E+01 0.  1.
       -5    1    3    3    0  502 -0.20338165423E+03  0.17122998662E+04 -0.10700269129E+04  0.20293631054E+04  0.46999998093E+01 0. -1.
</event>
<event>
 5   0  0.2135314E-07  0.3793084E+04  0.7818609E-02  0.8047641E-01
        2   -1    0    0  501    0  0.00000000000E+00  0.00000000000E+00  0.14817002332E+04  0.14817002332E+04  0.25500000920E-02 0. -1.
       -2   -1    0    0    0  501  0.00000000000E+00  0.00000000000E+00 -0.24275295206E+04  0.24275295206E+04  0.25500000920E-02 0.  1.
    10030    2    1    2    0    0  0.00000000000E+00  0.00000000000E+00 -0.94582928743E+03  0.39092297538E+04  0.37930837358E+04 0.  0.
        4    1    3    3  502    0 -0.53475629893E+03 -0.17594399403E+04 -0.95110059866E+03  0.20703108859E+04  0.12699999809E+01 0.  1.
       -4    1    3    3    0  502  0.53475629893E+03  0.17594399403E+04  0.52713112218E+01  0.18389188678E+04  0.12699999809E+01 0. -1.
</event>
<event>
 5   0  0.2081337E-07  0.3796587E+04  0.7818609E-02  0.8046888E-01
       -2   -1    0    0    0  501  0.00000000000E+00  0.00000000000E+00  0.17041190873E+04  0.17041190873E+04  0.25500000920E-02 0. -1.
        2   -1    0    0  501    0  0.00000000000E+00  0.00000000000E+00 -0.21145927510E+04  0.21145927510E+04  0.25500000920E-02 0.  1.
    10030    2    1    2    0    0  0.00000000000E+00  0.00000000000E+00 -0.41047366372E+03  0.38187118384E+04  0.37965868192E+04 0.  0.
        1    1    3    3  502    0 -0.37536206890E+03 -0.26128561489E+02 -0.20767083639E+04  0.21105205550E+04  0.50400001928E-02 0.  1.
       -1    1    3    3    0  502  0.37536206890E+03  0.26128561489E+02  0.16662347002E+04  0.17081912834E+04  0.50400001928E-02 0. -1.
</event>
<event>
 5   0  0.6661000E-08  0.3818515E+04  0.7818609E-02  0.8042193E-01
       -1   -1    0    0    0  501  0.00000000000E+00  0.00000000000E+00  0.15069794469E+04  0.15069794469E+04  0.50400001928E-02 0.  1.
        1   -1    0    0  501    0  0.00000000000E+00  0.00000000000E+00 -0.24189214701E+04  0.24189214701E+04  0.50400001928E-02 0. -1.
    10030    2    1    2    0    0  0.00000000000E+00  0.00000000000E+00 -0.91194202323E+03  0.39259009170E+04  0.38185153864E+04 0.  0.
        4    1    3    3  502    0 -0.47868797401E+03 -0.80437928967E+03  0.12548860467E+04  0.15655378696E+04  0.12699999809E+01 0.  1.
       -4    1    3    3    0  502  0.47868797401E+03  0.80437928967E+03 -0.21668280699E+04  0.23603630474E+04  0.12699999809E+01 0. -1.
</event>
<event>
 5   0  0.6725199E-08  0.3816986E+04  0.7818609E-02  0.8042520E-01
       -1   -1    0    0    0  501  0.00000000000E+00  0.00000000000E+00  0.21038678746E+04  0.21038678746E+04  0.50400001928E-02 0.  1.
        1   -1    0    0  501    0  0.00000000000E+00  0.00000000000E+00 -0.17312614878E+04  0.17312614878E+04  0.50400001928E-02 0. -1.
    10030    2    1    2    0    0  0.00000000000E+00  0.00000000000E+00  0.37260638676E+03  0.38351293624E+04  0.38169859453E+04 0.  0.
        5    1    3    3  502    0 -0.10579349683E+04  0.15879139405E+04  0.22682176122E+03  0.19215013091E+04  0.46999998093E+01 0. -1.
       -5    1    3    3    0  502  0.10579349683E+04 -0.15879139405E+04  0.14578462554E+03  0.19136280533E+04  0.46999998093E+01 0.  1.
</event>
<event>
 5   0  0.1370688E-07  0.3767885E+04  0.7818609E-02  0.8053082E-01
        2   -1    0    0  501    0  0.00000000000E+00  0.00000000000E+00  0.15986238481E+04  0.15986238481E+04  0.25500000920E-02 0.  1.
       -2   -1    0    0    0  501  0.00000000000E+00  0.00000000000E+00 -0.22201841054E+04  0.22201841054E+04  0.25500000920E-02 0. -1.
    10030    2    1    2    0    0  0.00000000000E+00  0.00000000000E+00 -0.62156025728E+03  0.38188079535E+04  0.37678849548E+04 0.  0.
        5    1    3    3  502    0 -0.12864474737E+04  0.13444116069E+04 -0.12132669278E+02  0.18607952502E+04  0.46999998093E+01 0.  1.
       -5    1    3    3    0  502  0.12864474737E+04 -0.13444116069E+04 -0.60942758800E+03  0.19580127033E+04  0.46999998093E+01 0. -1.
</event>
<event>
 5   0  0.1370688E-07  0.3877547E+04  0.7818609E-02  0.8029715E-01
       -2   -1    0    0    0  501  0.00000000000E+00  0.00000000000E+00  0.19598305677E+04  0.19598305677E+04  0.25500000920E-02 0. -1.
        2   -1    0    0  501    0  0.00000000000E+00  0.00000000000E+00 -0.19179428879E+04  0.19179428879E+04  0.25500000920E-02 0.  1.
    10030    2    1    2    0    0  0.00000000000E+00  0.00000000000E+00  0.41887679718E+02  0.38777734556E+04  0.38775472138E+04 0.  0.
        5    1    3    3  502    0  0.15372837510E+04 -0.25733317247E+03  0.11739895666E+04  0.19513419191E+04  0.46999998093E+01 0. -1.
       -5    1    3    3    0  502 -0.15372837510E+04  0.25733317247E+03 -0.11321018869E+04  0.19264315365E+04  0.46999998093E+01 0.  1.
</event>
<event>
 5   0  0.1370688E-07  0.3782937E+04  0.7818609E-02  0.8049826E-01
        2   -1    0    0  501    0  0.00000000000E+00  0.00000000000E+00  0.18023156392E+04  0.18023156392E+04  0.25500000920E-02 0. -1.
       -2   -1    0    0    0  501  0.00000000000E+00  0.00000000000E+00 -0.19850315704E+04  0.19850315704E+04  0.25500000920E-02 0.  1.
    10030    2    1    2    0    0  0.00000000000E+00  0.00000000000E+00 -0.18271593121E+03  0.37873472096E+04  0.37829371888E+04 0.  0.
        5    1    3    3  502    0  0.10549462031E+04  0.12383941524E+04  0.87470204314E+03  0.18470672219E+04  0.46999998093E+01 0.  1.
       -5    1    3    3    0  502 -0.10549462031E+04 -0.12383941524E+04 -0.10574179743E+04  0.19402799877E+04  0.46999998093E+01 0. -1.
</event>
<event>
 5   0  0.2135314E-07  0.3871112E+04  0.7818609E-02  0.8031064E-01
       -2   -1    0    0    0  501  0.00000000000E+00  0.00000000000E+00  0.29156816846E+04  0.29156816846E+04  0.25500000920E-02 0. -1.
        2   -1    0    0  501    0  0.00000000000E+00  0.00000000000E+00 -0.12849059767E+04  0.12849059767E+04  0.25500000920E-02 0.  1.
    10030    2    1    2    0    0  0.00000000000E+00  0.00000000000E+00  0.16307757079E+04  0.42005876613E+04  0.38711118933E+04 0.  0.
        4    1    3    3  502    0  0.27369974676E+03  0.33391134076E+02 -0.12634852968E+04  0.12932220332E+04  0.12699999809E+01 0.  1.
       -4    1    3    3    0  502 -0.27369974676E+03 -0.33391134076E+02  0.28942610046E+04  0.29073656280E+04  0.12699999809E+01 0. -1.
</event>
<event>
 5   0  0.2135314E-07  0.3790792E+04  0.7818609E-02  0.8048134E-01
       -2   -1    0    0    0  501  0.00000000000E+00  0.00000000000E+00  0.25655529668E+04  0.25655529668E+04  0.25500000920E-02 0.  1.
        2   -1    0    0  501    0  0.00000000000E+00  0.00000000000E+00 -0.14002932660E+04  0.14002932660E+04  0.25500000920E-02 0. -1.
    10030    2    1    2    0    0  0.00000000000E+00  0.00000000000E+00  0.11652597008E+04  0.39658462328E+04  0.37907922881E+04 0.  0.
        4    1    3    3  502    0 -0.92845546188E+03  0.16523786859E+04  0.57024847593E+03  0.19792851749E+04  0.12699999809E+01 0.  1.
       -4    1    3    3    0  502  0.92845546188E+03 -0.16523786859E+04  0.59501122491E+03  0.19865610579E+04  0.12699999809E+01 0. -1.
</event>
<event>
 5   0  0.6725199E-08  0.3772088E+04  0.7818609E-02  0.8052171E-01
        1   -1    0    0  501    0  0.00000000000E+00  0.00000000000E+00  0.11655616716E+04  0.11655616716E+04  0.50400001928E-02 0. -1.
       -1   -1    0    0    0  501  0.00000000000E+00  0.00000000000E+00 -0.30518869298E+04  0.30518869298E+04  0.50400001928E-02 0.  1.
    10030    2    1    2    0    0  0.00000000000E+00  0.00000000000E+00 -0.18863252582E+04  0.42174486014E+04  0.37720882447E+04 0.  0.
        5    1    3    3  502    0 -0.77471987867E+03 -0.15058477639E+04 -0.18714763351E+04  0.25239283154E+04  0.46999998093E+01 0.  1.
       -5    1    3    3    0  502  0.77471987867E+03  0.15058477639E+04 -0.14848923119E+02  0.16935202860E+04  0.46999998093E+01 0. -1.
</event>
<event>
 5   0  0.2203998E-07  0.3795170E+04  0.7818609E-02  0.8047192E-01
       -2   -1    0    0    0  501  0.00000000000E+00  0.00000000000E+00  0.16165776646E+04  0.16165776646E+04  0.25500000920E-02 0.  1.
        2   -1    0    0  501    0  0.00000000000E+00  0.00000000000E+00 -0.22274397743E+04  0.22274397743E+04  0.25500000920E-02 0. -1.
    10030    2    1    2    0    0  0.00000000000E+00  0.00000000000E+00 -0.61086210970E+03  0.38440174388E+04  0.37951702930E+04 0.  0.
        3    1    3    3  502    0  0.38701330130E+03 -0.47431514326E+03 -0.21246766267E+04  0.22111094339E+04  0.10100000352E+00 0. -1.
       -3    1    3    3    0  502 -0.38701330130E+03  0.47431514326E+03  0.15138145170E+04  0.16329080049E+04  0.10100000352E+00 0.  1.
</event>
<event>
 5   0  0.2135314E-07  0.3738790E+04  0.7818609E-02  0.8059420E-01
       -2   -1    0    0    0  501  0.00000000000E+00  0.00000000000E+00  0.14693441589E+04  0.14693441589E+04  0.25500000920E-02 0.  1.
        2   -1    0    0  501    0  0.00000000000E+00  0.00000000000E+00 -0.23783653667E+04  0.23783653667E+04  0.25500000920E-02 0. -1.
    10030    2    1    2    0    0  0.00000000000E+00  0.00000000000E+00 -0.90902120786E+03  0.38477095256E+04  0.37387897824E+04 0.  0.
        4    1    3    3  502    0  0.82961202760E+03  0.73433629183E+03 -0.20040742480E+04  0.22899391062E+04  0.12699999809E+01 0. -1.
       -4    1    3    3    0  502 -0.82961202760E+03 -0.73433629183E+03  0.10950530401E+04  0.15577704194E+04  0.12699999809E+01 0.  1.
</event>
<event>
 5   0  0.6661000E-08  0.3766071E+04  0.7818609E-02  0.8053475E-01
        1   -1    0    0  501    0  0.00000000000E+00  0.00000000000E+00  0.30812041788E+04  0.30812041788E+04  0.50400001928E-02 0. -1.
       -1   -1    0    0    0  501  0.00000000000E+00  0.00000000000E+00 -0.11507914093E+04  0.11507914093E+04  0.50400001928E-02 0.  1.
    10030    2    1    2    0    0  0.00000000000E+00  0.00000000000E+00  0.19304127695E+04  0.42319955882E+04  0.37660713214E+04 0.  0.
        1    1    3    3  502    0 -0.26718157509E+03 -0.11264655371E+04 -0.70362111350E+03  0.13547668699E+04  0.50400001928E-02 0.  1.
       -1    1    3    3    0  502  0.26718157509E+03  0.11264655371E+04  0.26340338830E+04  0.28772287183E+04  0.50400001928E-02 0. -1.
</event>
<event>
 5   0  0.1370688E-07  0.3759624E+04  0.7818609E-02  0.8054875E-01
        2   -1    0    0  501    0  0.00000000000E+00  0.00000000000E+00  0.26975167209E+04  0.26975167209E+04  0.25500000920E-02 0. -1.
       -2   -1    0    0    0  501  0.00000000000E+00  0.00000000000E+00 -0.13099801626E+04  0.13099801626E+04  0.25500000920E-02 0.  1.
    10030    2    1    2    0    0  0.00000000000E+00  0.00000000000E+00  0.13875365582E+04  0.40074968835E+04  0.37596241263E+04 0.  0.
        5    1    3    3  502    0 -0.75472216669E+03 -0.44631656893E+03  0.24661852896E+04  0.26174216323E+04  0.46999998093E+01 0. -1.
       -5    1    3    3    0  502  0.75472216669E+03  0.44631656893E+03 -0.10786487313E+04  0.13900752513E+04  0.46999998093E+01 0.  1.
</event>
<event>
 5   0  0.2205204E-07  0.3821713E+04  0.7818609E-02  0.8041511E-01
       -2   -1    0    0    0  501  0.00000000000E+00  0.00000000000E+00  0.15278634428E+04  0.15278634428E+04  0.25500000920E-02 0.  1.
        2   -1    0    0  501    0  0.00000000000E+00  0.00000000000E+00 -0.23898555222E+04  0.23898555222E+04  0.25500000920E-02 0. -1.
    10030    2    1    2    0    0  0.00000000000E+00  0.00000000000E+00 -0.86199207942E+03  0.39177189650E+04  0.38217131687E+04 0.  0.
        2    1    3    3  502    0  0.12589515251E+04  0.67440953752E+03 -0.17323693490E+04  0.22451928043E+04  0.25500000920E-02 0. -1.
       -2    1    3    3    0  502 -0.12589515251E+04 -0.67440953752E+03  0.87037726962E+03  0.16725261607E+04  0.25500000920E-02 0.  1.
</event>
<event>
 5   0  0.6661000E-08  0.3805331E+04  0.7818609E-02  0.8045012E-01
       -1   -1    0    0    0  501  0.00000000000E+00  0.00000000000E+00  0.12554381403E+04  0.12554381403E+04  0.50400001928E-02 0. -1.
        1   -1    0    0  501    0  0.00000000000E+00  0.00000000000E+00 -0.28835644547E+04  0.28835644547E+04  0.50400001928E-02 0.  1.
    10030    2    1    2    0    0  0.00000000000E+00  0.00000000000E+00 -0.16281263144E+04  0.41390025950E+04  0.38053314161E+04 0.  0.
        1    1    3    3  502    0  0.13444731442E+04 -0.77053873589E+03 -0.20148591342E+04  0.25418487976E+04  0.50400001928E-02 0.  1.
       -1    1    3    3    0  502 -0.13444731442E+04  0.77053873589E+03  0.38673281984E+03  0.15971537975E+04  0.50400001928E-02 0. -1.
</event>
<event>
 5   0  0.1370688E-07  0.3797867E+04  0.7818609E-02  0.8046613E-01
        2   -1    0    0  501    0  0.00000000000E+00  0.00000000000E+00  0.19934677359E+04  0.19934677359E+04  0.25500000920E-02 0.  1.
       -2   -1    0    0    0  501  0.00000000000E+00  0.00000000000E+00 -0.18088825516E+04  0.18088825516E+04  0.25500000920E-02 0. -1.
    10030    2    1    2    0    0  0.00000000000E+00  0.00000000000E+00  0.18458518437E+03  0.38023502875E+04  0.37978672987E+04 0.  0.
        5    1    3    3  502    0  0.12382277583E+04  0.14393063648E+04  0.12574042918E+03  0.19027988698E+04  0.46999998093E+01 0.  1.
       -5    1    3    3    0  502 -0.12382277583E+04 -0.14393063648E+04  0.58844755188E+02  0.18995514177E+04  0.46999998093E+01 0. -1.
</event>
<event>
 5   0  0.1370688E-07  0.3818957E+04  0.7818609E-02  0.8042099E-01
        2   -1    0    0  501    0  0.00000000000E+00  0.00000000000E+00  0.18558990635E+04  0.18558990635E+04  0.25500000920E-02 0.  1.
       -2   -1    0    0    0  501  0.00000000000E+00  0.00000000000E+00 -0.19646049914E+04  0.19646049914E+04  0.25500000920E-02 0. -1.
    10030    2    1    2    0    0  0.00000000000E+00  0.00000000000E+00 -0.10870592787E+03  0.38205040548E+04  0.38189572208E+04 0.  0.
        5    1    3    3  502    0 -0.95720508466E+03  0.15408294378E+04 -0.65099166466E+03  0.19272283642E+04  0.46999998093E+01 0.  1.
       -5    1    3    3    0  502  0.95720508466E+03 -0.15408294378E+04  0.54228573679E+03  0.18932756906E+04  0.46999998093E+01 0. -1.
</event>
<event>
 5   0  0.2203998E-07  0.3801811E+04  0.7818609E-02  0.8045766E-01
        2   -1    0    0  501    0  0.00000000000E+00  0.00000000000E+00  0.12508876658E+04  0.12508876658E+04  0.25500000920E-02 0. -1.
       -2   -1    0    0    0  501  0.00000000000E+00  0.00000000000E+00 -0.28887018618E+04  0.28887018618E+04  0.25500000920E-02 0.  1.
    10030    2    1    2    0    0  0.00000000000E+00  0.00000000000E+00 -0.16378141960E+04  0.41395895276E+04  0.38018108996E+04 0.  0.
        3    1    3    3  502    0  0.13611539233E+04  0.13156935075E+04 -0.63140999077E+03  0.19956121856E+04  0.10100000352E+00 0.  1.
       -3    1    3    3    0  502 -0.13611539233E+04 -0.13156935075E+04 -0.10064042052E+04  0.21439773420E+04  0.10100000352E+00 0. -1.
</event>
<event>
 5   0  0.1370688E-07  0.3617594E+04  0.7818609E-02  0.8086473E-01
       -2   -1    0    0    0  501  0.00000000000E+00  0.00000000000E+00  0.14629448669E+04  0.14629448669E+04  0.25500000920E-02 0.  1.
        2   -1    0    0  501    0  0.00000000000E+00  0.00000000000E+00 -0.22364112095E+04  0.22364112095E+04  0.25500000920E-02 0. -1.
    10030    2    1    2    0    0  0.00000000000E+00  0.00000000000E+00 -0.77346634259E+03  0.36993560763E+04  0.36175938407E+04 0.  0.
        5    1    3    3  502    0  0.58823257522E+01  0.17812286417E+04 -0.70834758556E+03  0.19169216124E+04  0.46999998093E+01 0. -1.
       -5    1    3    3    0  502 -0.58823257522E+01 -0.17812286417E+04 -0.65118757033E+02  0.17824344640E+04  0.46999998093E+01 0.  1.
</event>
<event>
 5   0  0.6725199E-08  0.3807886E+04  0.7818609E-02  0.8044465E-01
       -1   -1    0    0    0  501  0.00000000000E+00  0.00000000000E+00  0.23405254802E+04  0.23405254802E+04  0.50400001928E-02 0. -1.
        1   -1    0    0  501    0  0.00000000000E+00  0.00000000000E+00 -0.15487967341E+04  0.15487967341E+04  0.50400001928E-02 0.  1.
    10030    2    1    2    0    0  0.00000000000E+00  0.00000000000E+00  0.79172874610E+03  0.38893222144E+04  0.38078856180E+04 0.  0.
        5    1    3    3  502    0  0.36361458521E+03  0.59743556234E+03 -0.14128349492E+04  0.15764737554E+04  0.46999998093E+01 0.  1.
       -5    1    3    3    0  502 -0.36361458521E+03 -0.59743556234E+03  0.22045636953E+04  0.23128484590E+04  0.46999998093E+01 0. -1.
</event>
<event>
 5   0  0.2205204E-07  0.3799436E+04  0.7818609E-02  0.8046276E-01
       -2   -1    0    0    0  501  0.00000000000E+00  0.00000000000E+00  0.18322206545E+04  0.18322206545E+04  0.25500000920E-02 0. -1.
        2   -1    0    0  501    0  0.00000000000E+00  0.00000000000E+00 -0.19697023962E+04  0.19697023962E+04  0.25500000920E-02 0.  1.
    10030    2    1    2    0    0  0.00000000000E+00  0.00000000000E+00 -0.13748174171E+03  0.38019230507E+04  0.37994364917E+04 0.  0.
        2    1    3    3  502    0 -0.61239523019E+03  0.17861877249E+04 -0.27728769520E+03  0.19085028091E+04  0.25500000920E-02 0.  1.
       -2    1    3    3    0  502  0.61239523019E+03 -0.17861877249E+04  0.13980595349E+03  0.18934202416E+04  0.25500000920E-02 0. -1.
</event>
<event>
 5   0  0.2081337E-07  0.3797262E+04  0.7818609E-02  0.8046743E-01
        2   -1    0    0  501    0  0.00000000000E+00  0.00000000000E+00  0.22962535694E+04  0.22962535694E+04  0.25500000920E-02 0. -1.
       -2   -1    0    0    0  501  0.00000000000E+00  0.00000000000E+00 -0.15698610862E+04  0.15698610862E+04  0.25500000920E-02 0.  1.
    10030    2    1    2    0    0  0.00000000000E+00  0.00000000000E+00  0.72639248327E+03  0.38661146556E+04  0.37972617095E+04 0.  0.
        1    1    3    3  502    0 -0.17188285021E+04 -0.37687061447E+03  0.10891439955E+04  0.20694534357E+04  0.50400001928E-02 0.  1.
       -1    1    3    3    0  502  0.17188285021E+04  0.37687061447E+03 -0.36275151220E+03  0.17966612199E+04  0.50400001928E-02 0. -1.
</event>
<event>
 5   0  0.6661000E-08  0.3795642E+04  0.7818609E-02  0.8047091E-01
       -1   -1    0    0    0  501  0.00000000000E+00  0.00000000000E+00  0.10989831868E+04  0.10989831868E+04  0.50400001928E-02 0. -1.
        1   -1    0    0  501    0  0.00000000000E+00  0.00000000000E+00 -0.32773240654E+04  0.32773240654E+04  0.50400001928E-02 0.  1.
    10030    2    1    2    0    0  0.00000000000E+00  0.00000000000E+00 -0.21783408786E+04  0.43763072521E+04  0.37956417352E+04 0.  0.
        2    1    3    3  502    0  0.11114620810E+04 -0.25325355812E+03  0.66026439276E+03  0.13173588693E+04  0.25500000920E-02 0. -1.
       -2    1    3    3    0  502 -0.11114620810E+04  0.25325355812E+03 -0.28386052714E+04  0.30589483828E+04  0.25500000920E-02 0.  1.
</event>
<event>
 5   0  0.6661000E-08  0.3782033E+04  0.7818609E-02  0.8050021E-01
       -1   -1    0    0    0  501  0.00000000000E+00  0.00000000000E+00  0.28908936871E+04  0.28908936871E+04  0.50400001928E-02 0. -1.
        1   -1    0    0  501    0  0.00000000000E+00  0.00000000000E+00 -0.12369683892E+04  0.12369683892E+04  0.50400001928E-02 0.  1.
    10030    2    1    2    0    0  0.00000000000E+00  0.00000000000E+00  0.16539252979E+04  0.41278620763E+04  0.37820333724E+04 0.  0.
        1    1    3    3  502    0 -0.56205198649E+03  0.17444755509E+04  0.31871397533E+03  0.18602892198E+04  0.50400001928E-02 0.  1.
       -1    1    3    3    0  502  0.56205198649E+03 -0.17444755509E+04  0.13352113225E+04  0.22675728564E+04  0.50400001928E-02 0. -1.
</event>
<event>
 5   0  0.2205204E-07  0.3789398E+04  0.7818609E-02  0.8048434E-01
       -2   -1    0    0    0  501  0.00000000000E+00  0.00000000000E+00  0.18775736872E+04  0.18775736872E+04  0.25500000920E-02 0. -1.
        2   -1    0    0  501    0  0.00000000000E+00  0.00000000000E+00 -0.19119808864E+04  0.19119808864E+04  0.25500000920E-02 0.  1.
    10030    2    1    2    0    0  0.00000000000E+00  0.00000000000E+00 -0.34407199243E+02  0.37895545736E+04  0.37893983706E+04 0.  0.
        2    1    3    3  502    0  0.82592385211E+03  0.16940328374E+04  0.17770835726E+03  0.18930075868E+04  0.25500000920E-02 0.  1.
       -2    1    3    3    0  502 -0.82592385211E+03 -0.16940328374E+04 -0.21211555650E+03  0.18965469867E+04  0.25500000920E-02 0. -1.
</event>
<event>
 5   0  0.6661000E-08  0.3799874E+04  0.7818609E-02  0.8046182E-01
       -1   -1    0    0    0  501  0.00000000000E+00  0.00000000000E+00  0.32871286479E+04  0.32871286479E+04  0.50400001928E-02 0. -1.
        1   -1    0    0  501    0  0.00000000000E+00  0.00000000000E+00 -0.10981500052E+04  0.10981500052E+04  0.50400001928E-02 0.  1.
    10030    2    1    2    0    0  0.00000000000E+00  0.00000000000E+00  0.21889786427E+04  0.43852786531E+04  0.37998738620E+04 0.  0.
        1    1    3    3  502    0  0.36512169386E+03  0.39074174181E+03  0.31984776450E+04  0.32428771494E+04  0.50400001928E-02 0. -1.
       -1    1    3    3    0  502 -0.36512169386E+03 -0.39074174181E+03 -0.10094990023E+04  0.11424015038E+04  0.50400001928E-02 0.  1.
</event>
<event>
 5   0  0.6661000E-08  0.3787732E+04  0.7818609E-02  0.8048793E-01
        1   -1    0    0  501    0  0.00000000000E+00  0.00000000000E+00  0.14091245331E+04  0.14091245331E+04  0.50400001928E-02 0. -1.
       -1   -1    0    0    0  501  0.00000000000E+00  0.00000000000E+00 -0.25453588412E+04  0.25453588412E+04  0.50400001928E-02 0.  1.
    10030    2    1    2    0    0  0.00000000000E+00  0.00000000000E+00 -0.11362343082E+04  0.39544833743E+04  0.37877315579E+04 0.  0.
        4    1    3    3  502    0 -0.38995049808E+03 -0.77133616730E+03  0.11912123362E+04  0.14717368368E+04  0.12699999809E+01 0. -1.
       -4    1    3    3    0  502  0.38995049808E+03  0.77133616730E+03 -0.23274466444E+04  0.24827465375E+04  0.12699999809E+01 0.  1.
</event>
<event>
 5   0  0.6661000E-08  0.3769926E+04  0.7818609E-02  0.8052640E-01
       -1   -1    0    0    0  501  0.00000000000E+00  0.00000000000E+00  0.12328900365E+04  0.12328900366E+04  0.50400001928E-02 0.  1.
        1   -1    0    0  501    0  0.00000000000E+00  0.00000000000E+00 -0.28819153354E+04  0.28819153354E+04  0.50400001928E-02 0. -1.
    10030    2    1    2    0    0  0.00000000000E+00  0.00000000000E+00 -0.16490252988E+04  0.41148053719E+04  0.37699255713E+04 0.  0.
        2    1    3    3  502    0 -0.15160213767E+04 -0.80617767431E+03  0.24349743670E+02  0.17172175654E+04  0.25500000920E-02 0.  1.
       -2    1    3    3    0  502  0.15160213767E+04  0.80617767431E+03 -0.16733750425E+04  0.23975878065E+04  0.25500000920E-02 0. -1.
</event>
<event>
 5   0  0.2135314E-07  0.3765196E+04  0.7818609E-02  0.8053665E-01
       -2   -1    0    0    0  501  0.00000000000E+00  0.00000000000E+00  0.15465285658E+04  0.15465285658E+04  0.25500000920E-02 0.  1.
        2   -1    0    0  501    0  0.00000000000E+00  0.00000000000E+00 -0.22916970147E+04  0.22916970147E+04  0.25500000920E-02 0. -1.
    10030    2    1    2    0    0  0.00000000000E+00  0.00000000000E+00 -0.74516844895E+03  0.38382255805E+04  0.37651958235E+04 0.  0.
        4    1    3    3  502    0  0.14405067716E+04 -0.94580365828E+03 -0.11452897351E+04  0.20691289252E+04  0.12699999809E+01 0. -1.
       -4    1    3    3    0  502 -0.14405067716E+04  0.94580365828E+03  0.40012128616E+03  0.17690966552E+04  0.12699999809E+01 0.  1.
</event>
<event>
 5   0  0.1370688E-07  0.3639003E+04  0.7818609E-02  0.8081616E-01
        2   -1    0    0  501    0  0.00000000000E+00  0.00000000000E+00  0.13906450510E+04  0.13906450510E+04  0.25500000920E-02 0. -1.
       -2   -1    0    0    0  501  0.00000000000E+00  0.00000000000E+00 -0.23806114055E+04  0.23806114055E+04  0.25500000920E-02 0.  1.
    10030    2    1    2    0    0  0.00000000000E+00  0.00000000000E+00 -0.98996635457E+03  0.37712564565E+04  0.36390028686E+04 0.  0.
        5    1    3    3  502    0  0.13588581148E+03 -0.94367343265E+03 -0.21010074193E+04  0.23072145040E+04  0.46999998093E+01 0.  1.
       -5    1    3    3    0  502 -0.13588581148E+03  0.94367343265E+03  0.11110410648E+04  0.14640419526E+04  0.46999998093E+01 0. -1.
</event>
<event>
 5   0  0.2135314E-07  0.3798207E+04  0.7818609E-02  0.8046540E-01
        2   -1    0    0  501    0  0.00000000000E+00  0.00000000000E+00  0.14865818302E+04  0.14865818302E+04  0.25500000920E-02 0.  1.
       -2   -1    0    0    0  501  0.00000000000E+00  0.00000000000E+00 -0.24260981873E+04  0.24260981873E+04  0.25500000920E-02 0. -1.
    10030    2    1    2    0    0  0.00000000000E+00  0.00000000000E+00 -0.93951635715E+03  0.39126800175E+04  0.37982066734E+04 0.  0.
        4    1    3    3  502    0  0.23492410587E+03  0.47154137208E+03 -0.23493172598E+04  0.24076614797E+04  0.12699999809E+01 0. -1.
       -4    1    3    3    0  502 -0.23492410587E+03 -0.47154137208E+03  0.14098009026E+04  0.15050185378E+04  0.12699999809E+01 0.  1.
</event>
<event>
 5   0  0.2081337E-07  0.3781308E+04  0.7818609E-02  0.8050178E-01
       -2   -1    0    0    0  501  0.00000000000E+00  0.00000000000E+00  0.15791308904E+04  0.15791308904E+04  0.25500000920E-02 0. -1.
        2   -1    0    0  501    0  0.00000000000E+00  0.00000000000E+00 -0.22636323331E+04  0.22636323331E+04  0.25500000920E-02 0.  1.
    10030    2    1    2    0    0  0.00000000000E+00  0.00000000000E+00 -0.68450144271E+03  0.38427632234E+04  0.37813075736E+04 0.  0.
        1    1    3    3  502    0 -0.11175635704E+04  0.10993484795E+04 -0.14163369734E+04  0.21127058090E+04  0.50400001928E-02 0.  1.
       -1    1    3    3    0  502  0.11175635704E+04 -0.10993484795E+04  0.73183553067E+03  0.17300574144E+04  0.50400001928E-02 0. -1.
</event>
<event>
 5   0  0.1370688E-07  0.3809874E+04  0.7818609E-02  0.8044039E-01
        2   -1    0    0  501    0  0.00000000000E+00  0.00000000000E+00  0.25799927788E+04  0.25799927788E+04  0.25500000920E-02 0. -1.
       -2   -1    0    0    0  501  0.00000000000E+00  0.00000000000E+00 -0.14065098560E+04  0.14065098560E+04  0.25500000920E-02 0.  1.
    10030    2    1    2    0    0  0.00000000000E+00  0.00000000000E+00  0.11734829229E+04  0.39865026348E+04  0.38098741563E+04 0.  0.
        5    1    3    3  502    0 -0.49613923297E+02  0.58856917112E+03 -0.13082660237E+04  0.14354293049E+04  0.46999998093E+01 0.  1.
       -5    1    3    3    0  502  0.49613923297E+02 -0.58856917112E+03  0.24817489466E+04  0.25510733299E+04  0.46999998093E+01 0. -1.
</event>
<event>
 5   0  0.2203998E-07  0.3719855E+04  0.7818609E-02  0.8063576E-01
        2   -1    0    0  501    0  0.00000000000E+00  0.00000000000E+00  0.12697506646E+04  0.12697506646E+04  0.25500000920E-02 0. -1.
       -2   -1    0    0    0  501  0.00000000000E+00  0.00000000000E+00 -0.27244173634E+04  0.27244173634E+04  0.25500000920E-02 0.  1.
    10030    2    1    2    0    0  0.00000000000E+00  0.00000000000E+00 -0.14546666988E+04  0.39941680280E+04  0.37198552434E+04 0.  0.
        3    1    3    3  502    0 -0.64079265605E+03 -0.16956524270E+04 -0.28011156204E+03  0.18342068800E+04  0.10100000352E+00 0. -1.
       -3    1    3    3    0  502  0.64079265605E+03  0.16956524270E+04 -0.11745551367E+04  0.21599611480E+04  0.10100000352E+00 0.  1.
</event>
<event>
 5   0  0.2135314E-07  0.3777990E+04  0.7818609E-02  0.8050895E-01
       -2   -1    0    0    0  501  0.00000000000E+00  0.00000000000E+00  0.26742428543E+04  0.26742428543E+04  0.25500000920E-02 0.  1.
        2   -1    0    0  501    0  0.00000000000E+00  0.00000000000E+00 -0.13343223123E+04  0.13343223123E+04  0.25500000920E-02 0. -1.
    10030    2    1    2    0    0  0.00000000000E+00  0.00000000000E+00  0.13399205420E+04  0.40085651665E+04  0.37779898935E+04 0.  0.
        4    1    3    3  502    0 -0.11115465066E+04  0.14820737643E+04  0.27835204162E+03  0.18733819021E+04  0.12699999809E+01 0. -1.
       -4    1    3    3    0  502  0.11115465066E+04 -0.14820737643E+04  0.10615685003E+04  0.21351832645E+04  0.12699999809E+01 0.  1.
</event>
<event>
 5   0  0.6661000E-08  0.3863320E+04  0.7818609E-02  0.8032702E-01
       -1   -1    0    0    0  501  0.00000000000E+00  0.00000000000E+00  0.28191820689E+04  0.28191820689E+04  0.50400001928E-02 0. -1.
        1   -1    0    0  501    0  0.00000000000E+00  0.00000000000E+00 -0.13235434282E+04  0.13235434282E+04  0.50400001928E-02 0.  1.
    10030    2    1    2    0    0  0.00000000000E+00  0.00000000000E+00  0.14956386407E+04  0.41427254971E+04  0.38633197642E+04 0.  0.
        3    1    3    3  502    0  0.55657725466E+03 -0.10638435509E+04 -0.87481737925E+03  0.14855459597E+04  0.10100000352E+00 0.  1.
       -3    1    3    3    0  502 -0.55657725466E+03  0.10638435509E+04  0.23704560200E+04  0.26571795374E+04  0.10100000352E+00 0. -1.
</event>
<event>
 5   0  0.6661000E-08  0.3775872E+04  0.7818609E-02  0.8051353E-01
       -1   -1    0    0    0  501  0.00000000000E+00  0.00000000000E+00  0.22316732349E+04  0.22316732349E+04  0.50400001928E-02 0. -1.
        1   -1    0    0  501    0  0.00000000000E+00  0.00000000000E+00 -0.15971432802E+04  0.15971432802E+04  0.50400001928E-02 0.  1.
    10030    2    1    2    0    0  0.00000000000E+00  0.00000000000E+00  0.63452995476E+03  0.38288165151E+04  0.37758717726E+04 0.  0.
        2    1    3    3  502    0  0.17730037662E+04  0.11919854848E+03  0.96381923190E+03  0.20215583496E+04  0.25500000920E-02 0.  1.
       -2    1    3    3    0  502 -0.17730037662E+04 -0.11919854848E+03 -0.32928927714E+03  0.18072581656E+04  0.25500000920E-02 0. -1.
</event>
<event>
 5   0  0.6661000E-08  0.3766557E+04  0.7818609E-02  0.8053370E-01
       -1   -1    0    0    0  501  0.00000000000E+00  0.00000000000E+00  0.17178146987E+04  0.17178146987E+04  0.50400001928E-02 0. -1.
        1   -1    0    0  501    0  0.00000000000E+00  0.00000000000E+00 -0.20646806828E+04  0.20646806828E+04  0.50400001928E-02 0.  1.
    10030    2    1    2    0    0  0.00000000000E+00  0.00000000000E+00 -0.34686598414E+03  0.37824953815E+04  0.37665574866E+04 0.  0.
        3    1    3    3  502    0 -0.16979119783E+04  0.33674741934E+03 -0.91848534234E+03  0.19595711890E+04  0.10100000352E+00 0.  1.
       -3    1    3    3    0  502  0.16979119783E+04 -0.33674741934E+03  0.57161935820E+03  0.18229241924E+04  0.10100000352E+00 0. -1.
</event>
<event>
 5   0  0.2135314E-07  0.3749370E+04  0.7818609E-02  0.8057108E-01
        2   -1    0    0  501    0  0.00000000000E+00  0.00000000000E+00  0.20288412382E+04  0.20288412382E+04  0.25500000920E-02 0.  1.
       -2   -1    0    0    0  501  0.00000000000E+00  0.00000000000E+00 -0.17322419276E+04  0.17322419276E+04  0.25500000920E-02 0. -1.
    10030    2    1    2    0    0  0.00000000000E+00  0.00000000000E+00  0.29659931067E+03  0.37610831658E+04  0.37493700043E+04 0.  0.
        4    1    3    3  502    0 -0.13476157852E+04  0.11637830107E+04  0.73663258053E+03  0.19269375631E+04  0.12699999809E+01 0. -1.
       -4    1    3    3    0  502  0.13476157852E+04 -0.11637830107E+04 -0.44003326986E+03  0.18341456027E+04  0.12699999809E+01 0.  1.
</event>
<event>
 5   0  0.6661000E-08  0.3582484E+04  0.7818609E-02  0.8094516E-01
        1   -1    0    0  501    0  0.00000000000E+00  0.00000000000E+00  0.19847880411E+04  0.19847880411E+04  0.50400001928E-02 0.  1.
       -1   -1    0    0    0  501  0.00000000000E+00  0.00000000000E+00 -0.16165697044E+04  0.16165697044E+04  0.50400001928E-02 0. -1.
    10030    2    1    2    0    0  0.00000000000E+00  0.00000000000E+00  0.36821833668E+03  0.36013577456E+04  0.35824841756E+04 0.  0.
        4    1    3    3  502    0  0.54682095963E+03  0.16975511099E+04  0.35188260766E+03  0.18178327523E+04  0.12699999809E+01 0.  1.
       -4    1    3    3    0  502 -0.54682095963E+03 -0.16975511099E+04  0.16335729015E+02  0.17835249933E+04  0.12699999809E+01 0. -1.
</event>
<event>
 5   0  0.6725199E-08  0.3784722E+04  0.7818609E-02  0.8049441E-01
       -1   -1    0    0    0  501  0.00000000000E+00  0.00000000000E+00  0.19133080031E+04  0.19133080031E+04  0.50400001928E-02 0. -1.
        1   -1    0    0  501    0  0.00000000000E+00  0.00000000000E+00 -0.18716432994E+04  0.18716432994E+04  0.50400001928E-02 0.  1.
    10030    2    1    2    0    0  0.00000000000E+00  0.00000000000E+00  0.41664703664E+02  0.37849513025E+04  0.37847219733E+04 0.  0.
        5    1    3    3  502    0  0.18616821212E+04  0.41541565831E+02  0.35763457488E+03  0.18961831665E+04  0.46999998093E+01 0.  1.
       -5    1    3    3    0  502 -0.18616821212E+04 -0.41541565831E+02 -0.31596987121E+03  0.18887681360E+04  0.46999998093E+01 0. -1.
</event>
<event>
 5   0  0.6661000E-08  0.3798243E+04  0.7818609E-02  0.8046532E-01
        1   -1    0    0  501    0  0.00000000000E+00  0.00000000000E+00  0.18649689422E+04  0.18649689423E+04  0.50400001928E-02 0. -1.
       -1   -1    0    0    0  501  0.00000000000E+00  0.00000000000E+00 -0.19338991750E+04  0.19338991750E+04  0.50400001928E-02 0.  1.
    10030    2    1    2    0    0  0.00000000000E+00  0.00000000000E+00 -0.68930232786E+02  0.37988681173E+04  0.37982426984E+04 0.  0.
        4    1    3    3  502    0  0.11518053483E+04  0.73003267085E+03  0.12875153728E+04  0.18754468024E+04  0.12699999809E+01 0. -1.
       -4    1    3    3    0  502 -0.11518053483E+04 -0.73003267085E+03 -0.13564456055E+04  0.19234213149E+04  0.12699999809E+01 0.  1.
</event>
<event>
 5   0  0.6661000E-08  0.3795683E+04  0.7818609E-02  0.8047082E-01
        1   -1    0    0  501    0  0.00000000000E+00  0.00000000000E+00  0.22070138592E+04  0.22070138592E+04  0.50400001928E-02 0. -1.
       -1   -1    0    0    0  501  0.00000000000E+00  0.00000000000E+00 -0.16319802324E+04  0.16319802324E+04  0.50400001928E-02 0.  1.
    10030    2    1    2    0    0  0.00000000000E+00  0.00000000000E+00  0.57503362683E+03  0.38389940916E+04  0.37956833329E+04 0.  0.
        2    1    3    3  502    0  0.72964675124E+03  0.13283143702E+04 -0.86788395146E+03  0.17464323637E+04  0.25500000920E-02 0.  1.
       -2    1    3    3    0  502 -0.72964675124E+03 -0.13283143702E+04  0.14429175783E+04  0.20925617280E+04  0.25500000920E-02 0. -1.
</event>
<event>
 5   0  0.1370688E-07  0.3839846E+04  0.7818609E-02  0.8037658E-01
       -2   -1    0    0    0  501  0.00000000000E+00  0.00000000000E+00  0.19204766211E+04  0.19204766211E+04  0.25500000920E-02 0.  1.
        2   -1    0    0  501    0  0.00000000000E+00  0.00000000000E+00 -0.19193696579E+04  0.19193696579E+04  0.25500000920E-02 0. -1.
    10030    2    1    2    0    0  0.00000000000E+00  0.00000000000E+00  0.11069631830E+01  0.38398462789E+04  0.38398461194E+04 0.  0.
        5    1    3    3  502    0  0.10588889792E+04 -0.16014861480E+04 -0.83185305708E+01  0.19199205818E+04  0.46999998093E+01 0.  1.
       -5    1    3    3    0  502 -0.10588889792E+04  0.16014861480E+04  0.94254937538E+01  0.19199256971E+04  0.46999998093E+01 0. -1.
</event>
<event>
 5   0  0.2135314E-07  0.3822588E+04  0.7818609E-02  0.8041325E-01
       -2   -1    0    0    0  501  0.00000000000E+00  0.00000000000E+00  0.14339228340E+04  0.14339228340E+04  0.25500000920E-02 0.  1.
        2   -1    0    0  501    0  0.00000000000E+00  0.00000000000E+00 -0.25475879750E+04  0.25475879750E+04  0.25500000920E-02 0. -1.
    10030    2    1    2    0    0  0.00000000000E+00  0.00000000000E+00 -0.11136651410E+04  0.39815108090E+04  0.38225879030E+04 0.  0.
        4    1    3    3  502    0 -0.59311495448E+03  0.41878694128E+03  0.12846865344E+04  0.14756655976E+04  0.12699999809E+01 0.  1.
       -4    1    3    3    0  502  0.59311495448E+03 -0.41878694128E+03 -0.23983516754E+04  0.25058452114E+04  0.12699999809E+01 0. -1.
</event>
<event>
 5   0  0.6661000E-08  0.3780766E+04  0.7818609E-02  0.8050295E-01
        1   -1    0    0  501    0  0.00000000000E+00  0.00000000000E+00  0.18688811902E+04  0.18688811902E+04  0.50400001928E-02 0. -1.
       -1   -1    0    0    0  501  0.00000000000E+00  0.00000000000E+00 -0.19121325368E+04  0.19121325368E+04  0.50400001928E-02 0.  1.
    10030    2    1    2    0    0  0.00000000000E+00  0.00000000000E+00 -0.43251346606E+02  0.37810137269E+04  0.37807663409E+04 0.  0.
        3    1    3    3  502    0 -0.86496785758E+03 -0.10699831930E+04  0.12748059762E+04  0.18756768685E+04  0.10100000352E+00 0. -1.
       -3    1    3    3    0  502  0.86496785758E+03  0.10699831930E+04 -0.13180573228E+04  0.19053368584E+04  0.10100000352E+00 0.  1.
</event>
<event>
 5   0  0.1370688E-07  0.3839053E+04  0.7818609E-02  0.8037826E-01
       -2   -1    0    0    0  501  0.00000000000E+00  0.00000000000E+00  0.19270794595E+04  0.19270794595E+04  0.25500000920E-02 0.  1.
        2   -1    0    0  501    0  0.00000000000E+00  0.00000000000E+00 -0.19120029279E+04  0.19120029279E+04  0.25500000920E-02 0. -1.
    10030    2    1    2    0    0  0.00000000000E+00  0.00000000000E+00  0.15076531578E+02  0.38390823874E+04  0.38390527836E+04 0.  0.
        5    1    3    3  502    0  0.17448263099E+04  0.51907086662E+03  0.61639931717E+03  0.19219322632E+04  0.46999998093E+01 0. -1.
       -5    1    3    3    0  502 -0.17448263099E+04 -0.51907086662E+03 -0.60132278559E+03  0.19171501242E+04  0.46999998093E+01 0.  1.
</event>
<event>
 5   0  0.2135314E-07  0.3803353E+04  0.7818609E-02  0.8045436E-01
       -2   -1    0    0    0  501  0.00000000000E+00  0.00000000000E+00  0.12673830082E+04  0.12673830082E+04  0.25500000920E-02 0.  1.
        2   -1    0    0  501    0  0.00000000000E+00  0.00000000000E+00 -0.28534173818E+04  0.28534173818E+04  0.25500000920E-02 0. -1.
    10030    2    1    2    0    0  0.00000000000E+00  0.00000000000E+00 -0.15860343736E+04  0.41208003901E+04  0.38033525764E+04 0.  0.
        4    1    3    3  502    0  0.15593919121E+04  0.98998343232E+03 -0.12830990300E+04  0.22490253590E+04  0.12699999809E+01 0.  1.
       -4    1    3    3    0  502 -0.15593919121E+04 -0.98998343232E+03 -0.30293534365E+03  0.18717750311E+04  0.12699999809E+01 0. -1.
</event>
<event>
 5   0  0.6661000E-08  0.3821019E+04  0.7818609E-02  0.8041659E-01
        1   -1    0    0  501    0  0.00000000000E+00  0.00000000000E+00  0.24111463830E+04  0.24111463830E+04  0.50400001928E-02 0.  1.
       -1   -1    0    0    0  501  0.00000000000E+00  0.00000000000E+00 -0.15138222806E+04  0.15138222806E+04  0.50400001928E-02 0. -1.
    10030    2    1    2    0    0  0.00000000000E+00  0.00000000000E+00  0.89732410242E+03  0.39249686635E+04  0.38210192966E+04 0.  0.
        4    1    3    3  502    0 -0.86646274785E+03  0.16735222654E+04  0.77122889605E+03  0.20362293803E+04  0.12699999809E+01 0.  1.
       -4    1    3    3    0  502  0.86646274785E+03 -0.16735222654E+04  0.12609520636E+03  0.18887392832E+04  0.12699999809E+01 0. -1.
</event>
<event>
 5   0  0.2081337E-07  0.3811202E+04  0.7818609E-02  0.8043755E-01
        2   -1    0    0  501    0  0.00000000000E+00  0.00000000000E+00  0.20162733019E+04  0.20162733019E+04  0.25500000920E-02 0.  1.
       -2   -1    0    0    0  501  0.00000000000E+00  0.00000000000E+00 -0.18010037942E+04  0.18010037942E+04  0.25500000920E-02 0. -1.
    10030    2    1    2    0    0  0.00000000000E+00  0.00000000000E+00  0.21526950770E+03  0.38172770960E+04  0.38112023650E+04 0.  0.
        1    1    3    3  502    0 -0.31624674167E+03  0.21251511500E+03  0.19777318824E+04  0.20140998174E+04  0.50400001928E-02 0.  1.
       -1    1    3    3    0  502  0.31624674167E+03 -0.21251511500E+03 -0.17624623747E+04  0.18031772786E+04  0.50400001928E-02 0. -1.
</event>
<event>
 5   0  0.6661000E-08  0.3800636E+04  0.7818609E-02  0.8046018E-01
       -1   -1    0    0    0  501  0.00000000000E+00  0.00000000000E+00  0.17596893188E+04  0.17596893188E+04  0.50400001928E-02 0. -1.
        1   -1    0    0  501    0  0.00000000000E+00  0.00000000000E+00 -0.20521851150E+04  0.20521851151E+04  0.50400001928E-02 0.  1.
    10030    2    1    2    0    0  0.00000000000E+00  0.00000000000E+00 -0.29249579627E+03  0.38118744338E+04  0.38006358558E+04 0.  0.
        4    1    3    3  502    0 -0.98966464816E+02  0.18882191494E+04 -0.33665314627E+03  0.19205475446E+04  0.12699999809E+01 0. -1.
       -4    1    3    3    0  502  0.98966464816E+02 -0.18882191494E+04  0.44157349997E+02  0.18913268892E+04  0.12699999809E+01 0.  1.
</event>
<event>
 5   0  0.6661000E-08  0.3848592E+04  0.7818609E-02  0.8035807E-01
       -1   -1    0    0    0  501  0.00000000000E+00  0.00000000000E+00  0.17716636220E+04  0.17716636220E+04  0.50400001928E-02 0.  1.
        1   -1    0    0  501    0  0.00000000000E+00  0.00000000000E+00 -0.20900776460E+04  0.20900776460E+04  0.50400001928E-02 0. -1.
    10030    2    1    2    0    0  0.00000000000E+00  0.00000000000E+00 -0.31841402401E+03  0.38617412680E+04  0.38485917074E+04 0.  0.
        1    1    3    3  502    0 -0.47233483323E+03  0.11768486532E+04  0.12930949591E+04  0.18111232758E+04  0.50400001928E-02 0.  1.
       -1    1    3    3    0  502  0.47233483323E+03 -0.11768486532E+04 -0.16115089831E+04  0.20506179921E+04  0.50400001928E-02 0. -1.
</event>
<event>
 5   0  0.1370688E-07  0.3772288E+04  0.7818609E-02  0.8052128E-01
        2   -1    0    0  501    0  0.00000000000E+00  0.00000000000E+00  0.17223028667E+04  0.17223028667E+04  0.25500000920E-02 0. -1.
       -2   -1    0    0    0  501  0.00000000000E+00  0.00000000000E+00 -0.20655715184E+04  0.20655715184E+04  0.25500000920E-02 0.  1.
    10030    2    1    2    0    0  0.00000000000E+00  0.00000000000E+00 -0.34326865168E+03  0.37878743852E+04  0.37722882963E+04 0.  0.
        5    1    3    3  502    0  0.25212127511E+03  0.11346968188E+04 -0.16631724438E+04  0.20291048953E+04  0.46999998093E+01 0.  1.
       -5    1    3    3    0  502 -0.25212127511E+03 -0.11346968188E+04  0.13199037922E+04  0.17587694899E+04  0.46999998093E+01 0. -1.
</event>
<event>
 5   0  0.6725199E-08  0.3820649E+04  0.7818609E-02  0.8041738E-01
       -1   -1    0    0    0  501  0.00000000000E+00  0.00000000000E+00  0.22356846627E+04  0.22356846627E+04  0.50400001928E-02 0.  1.
        1   -1    0    0  501    0  0.00000000000E+00  0.00000000000E+00 -0.16323144759E+04  0.16323144759E+04  0.50400001928E-02 0. -1.
    10030    2    1    2    0    0  0.00000000000E+00  0.00000000000E+00  0.60337018673E+03  0.38679991386E+04  0.38206493891E+04 0.  0.
        5    1    3    3  502    0 -0.18162130949E+04 -0.32107254086E+03  0.80544682715E+03  0.20125814925E+04  0.46999998093E+01 0.  1.
       -5    1    3    3    0  502  0.18162130949E+04  0.32107254086E+03 -0.20207664042E+03  0.18554176461E+04  0.46999998093E+01 0. -1.
</event>
<event>
 5   0  0.2203998E-07  0.3802675E+04  0.7818609E-02  0.8045581E-01
        2   -1    0    0  501    0  0.00000000000E+00  0.00000000000E+00  0.26806380427E+04  0.26806380427E+04  0.25500000920E-02 0.  1.
       -2   -1    0    0    0  501  0.00000000000E+00  0.00000000000E+00 -0.13485909458E+04  0.13485909458E+04  0.25500000920E-02 0. -1.
    10030    2    1    2    0    0  0.00000000000E+00  0.00000000000E+00  0.13320470969E+04  0.40292289885E+04  0.38026749498E+04 0.  0.
        3    1    3    3  502    0 -0.10359475995E+04 -0.59227131114E+03 -0.90240587168E+03  0.14960979588E+04  0.10100000352E+00 0. -1.
       -3    1    3    3    0  502  0.10359475995E+04  0.59227131114E+03  0.22344529685E+04  0.25331310297E+04  0.10100000352E+00 0.  1.
</event>
<event>
 5   0  0.2135314E-07  0.3544319E+04  0.7818609E-02  0.8103367E-01
        2   -1    0    0  501    0  0.00000000000E+00  0.00000000000E+00  0.14935302367E+04  0.14935302367E+04  0.25500000920E-02 0.  1.
       -2   -1    0    0    0  501  0.00000000000E+00  0.00000000000E+00 -0.21027691457E+04  0.21027691457E+04  0.25500000920E-02 0. -1.
    10030    2    1    2    0    0  0.00000000000E+00  0.00000000000E+00 -0.60923890901E+03  0.35962993825E+04  0.35443190037E+04 0.  0.
        4    1    3    3  502    0  0.11012312883E+04  0.36243173731E+02 -0.17129682314E+04  0.20367340751E+04  0.12699999809E+01 0. -1.
       -4    1    3    3    0  502 -0.11012312883E+04 -0.36243173731E+02  0.11037293224E+04  0.15595653074E+04  0.12699999809E+01 0.  1.
</event>
<event>
 5   0  0.2203998E-07  0.3822878E+04  0.7818609E-02  0.8041263E-01
        2   -1    0    0  501    0  0.00000000000E+00  0.00000000000E+00  0.18442397296E+04  0.18442397297E+04  0.25500000920E-02 0.  1.
       -2   -1    0    0    0  501  0.00000000000E+00  0.00000000000E+00 -0.19810871790E+04  0.19810871790E+04  0.25500000920E-02 0. -1.
    10030    2    1    2    0    0  0.00000000000E+00  0.00000000000E+00 -0.13684744939E+03  0.38253269087E+04  0.38228783310E+04 0.  0.
        3    1    3    3  502    0 -0.57971828934E+03  0.14548953694E+04  0.10280910187E+04  0.18734366773E+04  0.10100000352E+00 0.  1.
       -3    1    3    3    0  502  0.57971828934E+03 -0.14548953694E+04 -0.11649384681E+04  0.19518902314E+04  0.10100000352E+00 0. -1.
</event>
<event>
 5   0  0.2081337E-07  0.3783039E+04  0.7818609E-02  0.8049804E-01
       -2   -1    0    0    0  501  0.00000000000E+00  0.00000000000E+00  0.17620817876E+04  0.17620817876E+04  0.25500000920E-02 0.  1.
        2   -1    0    0  501    0  0.00000000000E+00  0.00000000000E+00 -0.20304657975E+04  0.20304657975E+04  0.25500000920E-02 0. -1.
    10030    2    1    2    0    0  0.00000000000E+00  0.00000000000E+00 -0.26838400990E+03  0.37925475850E+04  0.37830394140E+04 0.  0.
        1    1    3    3  502    0 -0.18757476557E+04  0.24043763950E+03 -0.17438360816E+03  0.18991179977E+04  0.50400001928E-02 0.  1.
       -1    1    3    3    0  502  0.18757476557E+04 -0.24043763950E+03 -0.94000401743E+02  0.18934295873E+04  0.50400001928E-02 0. -1.
</event>
<event>
 5   0  0.1370688E-07  0.3854561E+04  0.7818609E-02  0.8034547E-01
       -2   -1    0    0    0  501  0.00000000000E+00  0.00000000000E+00  0.16114500856E+04  0.16114500856E+04  0.25500000920E-02 0. -1.
        2   -1    0    0  501    0  0.00000000000E+00  0.00000000000E+00 -0.23050109062E+04  0.23050109062E+04  0.25500000920E-02 0.  1.
    10030    2    1    2    0    0  0.00000000000E+00  0.00000000000E+00 -0.69356082068E+03  0.39164609918E+04  0.38545609463E+04 0.  0.
        5    1    3    3  502    0 -0.15353368600E+04 -0.11224670557E+04 -0.30010511816E+02  0.19021341397E+04  0.46999998093E+01 0.  1.
       -5    1    3    3    0  502  0.15353368600E+04  0.11224670557E+04 -0.66355030886E+03  0.20143268521E+04  0.46999998093E+01 0. -1.
</event>
<event>
 5   0  0.6661000E-08  0.3791704E+04  0.7818609E-02  0.8047938E-01
        1   -1    0    0  501    0  0.00000000000E+00  0.00000000000E+00  0.17197383010E+04  0.17197383010E+04  0.50400001928E-02 0.  1.
       -1   -1    0    0    0  501  0.00000000000E+00  0.00000000000E+00 -0.20900005950E+04  0.20900005950E+04  0.50400001928E-02 0. -1.
    10030    2    1    2    0    0  0.00000000000E+00  0.00000000000E+00 -0.37026229403E+03  0.38097388960E+04  0.37917036130E+04 0.  0.
        2    1    3    3  502    0 -0.46556820357E+03  0.83846549624E+01  0.16613888235E+04  0.17254091913E+04  0.25500000920E-02 0.  1.
       -2    1    3    3    0  502  0.46556820357E+03 -0.83846549624E+01 -0.20316511175E+04  0.20843297047E+04  0.25500000920E-02 0. -1.
</event>
<event>
 5   0  0.1370688E-07  0.3773125E+04  0.7818609E-02  0.8051947E-01
       -2   -1    0    0    0  501  0.00000000000E+00  0.00000000000E+00  0.16439187277E+04  0.16439187278E+04  0.25500000920E-02 0.  1.
        2   -1    0    0  501    0  0.00000000000E+00  0.00000000000E+00 -0.21650212179E+04  0.21650212179E+04  0.25500000920E-02 0. -1.
    10030    2    1    2    0    0  0.00000000000E+00  0.00000000000E+00 -0.52110249018E+03  0.38089399457E+04  0.37731254557E+04 0.  0.
        5    1    3    3  502    0 -0.18436219282E+04 -0.37333586446E+03 -0.11504651949E+03  0.18845634172E+04  0.46999998093E+01 0. -1.
       -5    1    3    3    0  502  0.18436219282E+04  0.37333586446E+03 -0.40605597068E+03  0.19243765284E+04  0.46999998093E+01 0.  1.
</event>
<event>
 5   0  0.6661000E-08  0.3813800E+04  0.7818609E-02  0.8043200E-01
        1   -1    0    0  501    0  0.00000000000E+00  0.00000000000E+00  0.17600297542E+04  0.17600297542E+04  0.50400001928E-02 0.  1.
       -1   -1    0    0    0  501  0.00000000000E+00  0.00000000000E+00 -0.20660256851E+04  0.20660256851E+04  0.50400001928E-02 0. -1.
    10030    2    1    2    0    0  0.00000000000E+00  0.00000000000E+00 -0.30599593093E+03  0.38260554393E+04  0.38137995116E+04 0.  0.
        1    1    3    3  502    0  0.36409696452E+03 -0.18009752162E+04  0.35872784577E+03  0.18721014920E+04  0.50400001928E-02 0. -1.
       -1    1    3    3    0  502 -0.36409696452E+03  0.18009752162E+04 -0.66472377670E+03  0.19539539473E+04  0.50400001928E-02 0.  1.
</event>
<event>
 5   0  0.6661000E-08  0.3832582E+04  0.7818609E-02  0.8039199E-01
       -1   -1    0    0    0  501  0.00000000000E+00  0.00000000000E+00  0.18511589369E+04  0.18511589369E+04  0.50400001928E-02 0.  1.
        1   -1    0    0  501    0  0.00000000000E+00  0.00000000000E+00 -0.19837144630E+04  0.19837144630E+04  0.50400001928E-02 0. -1.
    10030    2    1    2    0    0  0.00000000000E+00  0.00000000000E+00 -0.13255552609E+03  0.38348733999E+04  0.38325817702E+04 0.  0.
        4    1    3    3  502    0  0.17651279337E+04  0.74530083435E+03 -0.34333960730E+02  0.19163325364E+04  0.12699999809E+01 0. -1.
       -4    1    3    3    0  502 -0.17651279337E+04 -0.74530083435E+03 -0.98221565356E+02  0.19185408635E+04  0.12699999809E+01 0.  1.
</event>
<event>
 5   0  0.6725199E-08  0.3912550E+04  0.7818609E-02  0.8022424E-01
        1   -1    0    0  501    0  0.00000000000E+00  0.00000000000E+00  0.13659736830E+04  0.13659736830E+04  0.50400001928E-02 0.  1.
       -1   -1    0    0    0  501  0.00000000000E+00  0.00000000000E+00 -0.28016728005E+04  0.28016728005E+04  0.50400001928E-02 0. -1.
    10030    2    1    2    0    0  0.00000000000E+00  0.00000000000E+00 -0.14356991175E+04  0.41676464835E+04  0.39125497129E+04 0.  0.
        5    1    3    3  502    0  0.19313130623E+04  0.32346060382E+02 -0.10478428523E+04  0.21975015689E+04  0.46999998093E+01 0. -1.
       -5    1    3    3    0  502 -0.19313130623E+04 -0.32346060382E+02 -0.38785626519E+03  0.19701449146E+04  0.46999998093E+01 0.  1.
</event>
<event>
 5   0  0.2135314E-07  0.3762279E+04  0.7818609E-02  0.8054298E-01
        2   -1    0    0  501    0  0.00000000000E+00  0.00000000000E+00  0.14475225092E+04  0.14475225092E+04  0.25500000920E-02 0.  1.
       -2   -1    0    0    0  501  0.00000000000E+00  0.00000000000E+00 -0.24446498882E+04  0.24446498882E+04  0.25500000920E-02 0. -1.
    10030    2    1    2    0    0  0.00000000000E+00  0.00000000000E+00 -0.99712737903E+03  0.38921723974E+04  0.37622789584E+04 0.  0.
        4    1    3    3  502    0 -0.13529470756E+04 -0.11250089521E+04 -0.11867937352E+04  0.21224023922E+04  0.12699999809E+01 0. -1.
       -4    1    3    3    0  502  0.13529470756E+04  0.11250089521E+04  0.18966635614E+03  0.17697700052E+04  0.12699999809E+01 0.  1.
</event>
<event>
 5   0  0.6661000E-08  0.3841908E+04  0.7818609E-02  0.8037221E-01
       -1   -1    0    0    0  501  0.00000000000E+00  0.00000000000E+00  0.27608845629E+04  0.27608845629E+04  0.50400001928E-02 0.  1.
        1   -1    0    0  501    0  0.00000000000E+00  0.00000000000E+00 -0.13365517074E+04  0.13365517074E+04  0.50400001928E-02 0. -1.
    10030    2    1    2    0    0  0.00000000000E+00  0.00000000000E+00  0.14243328555E+04  0.40974362703E+04  0.38419083677E+04 0.  0.
        1    1    3    3  502    0 -0.16198109834E+04 -0.66800309981E+03  0.15519710978E+04  0.23406473574E+04  0.50400001928E-02 0. -1.
       -1    1    3    3    0  502  0.16198109834E+04  0.66800309981E+03 -0.12763824230E+03  0.17567889128E+04  0.50400001928E-02 0.  1.
</event>
<event>
 5   0  0.2205204E-07  0.3777887E+04  0.7818609E-02  0.8050917E-01
        2   -1    0    0  501    0  0.00000000000E+00  0.00000000000E+00  0.18561164418E+04  0.18561164418E+04  0.25500000920E-02 0.  1.
       -2   -1    0    0    0  501  0.00000000000E+00  0.00000000000E+00 -0.19223510998E+04  0.19223510998E+04  0.25500000920E-02 0. -1.
    10030    2    1    2    0    0  0.00000000000E+00  0.00000000000E+00 -0.66234657930E+02  0.37784675416E+04  0.37778869667E+04 0.  0.
        2    1    3    3  502    0  0.10455493977E+04 -0.73826418035E+03  0.13563045468E+04  0.18648778959E+04  0.25500000920E-02 0.  1.
       -2    1    3    3    0  502 -0.10455493977E+04  0.73826418035E+03 -0.14225392048E+04  0.19135896457E+04  0.25500000920E-02 0. -1.
</event>
<event>
 5   0  0.1370688E-07  0.3768992E+04  0.7818609E-02  0.8052842E-01
       -2   -1    0    0    0  501  0.00000000000E+00  0.00000000000E+00  0.13980255744E+04  0.13980255744E+04  0.25500000920E-02 0.  1.
        2   -1    0    0  501    0  0.00000000000E+00  0.00000000000E+00 -0.25402429793E+04  0.25402429793E+04  0.25500000920E-02 0. -1.
    10030    2    1    2    0    0  0.00000000000E+00  0.00000000000E+00 -0.11422174049E+04  0.39382685537E+04  0.37689917220E+04 0.  0.
        5    1    3    3  502    0  0.99480241073E+02 -0.27897160657E+03  0.13735474578E+04  0.14051249711E+04  0.46999998093E+01 0.  1.
       -5    1    3    3    0  502 -0.99480241073E+02  0.27897160657E+03 -0.25157648627E+04  0.25331435826E+04  0.46999998093E+01 0. -1.
</event>
<event>
 5   0  0.6661000E-08  0.3834765E+04  0.7818609E-02  0.8038735E-01
        1   -1    0    0  501    0  0.00000000000E+00  0.00000000000E+00  0.20126982842E+04  0.20126982842E+04  0.50400001928E-02 0. -1.
       -1   -1    0    0    0  501  0.00000000000E+00  0.00000000000E+00 -0.18265805906E+04  0.18265805906E+04  0.50400001928E-02 0.  1.
    10030    2    1    2    0    0  0.00000000000E+00  0.00000000000E+00  0.18611769359E+03  0.38392788747E+04  0.38347649839E+04 0.  0.
        3    1    3    3  502    0 -0.90071598070E+03 -0.15397892838E+04 -0.61070192356E+03  0.18855230484E+04  0.10100000352E+00 0. -1.
       -3    1    3    3    0  502  0.90071598070E+03  0.15397892838E+04  0.79681961715E+03  0.19537558263E+04  0.10100000352E+00 0.  1.
</event>
<event>
 5   0  0.6661000E-08  0.3774676E+04  0.7818609E-02  0.8051611E-01
       -3   -1    0    0    0  501  0.00000000000E+00  0.00000000000E+00  0.23691796362E+04  0.23691796384E+04  0.10100000352E+00 0.  1.
        3   -1    0    0  501    0  0.00000000000E+00  0.00000000000E+00 -0.15034926452E+04  0.15034926486E+04  0.10100000352E+00 0. -1.
    10030    2    1    2    0    0  0.00000000000E+00  0.00000000000E+00  0.86568699103E+03  0.38726722870E+04  0.37746757048E+04 0.  0.
        1    1    3    3  502    0  0.11439962381E+03  0.10201561398E+04  0.20577018335E+04  0.22995527085E+04  0.50400001928E-02 0.  1.
       -1    1    3    3    0  502 -0.11439962381E+03 -0.10201561398E+04 -0.11920148425E+04  0.15731195785E+04  0.50400001928E-02 0. -1.
</event>
<event>
 5   0  0.6661000E-08  0.3818478E+04  0.7818609E-02  0.8042201E-01
        1   -1    0    0  501    0  0.00000000000E+00  0.00000000000E+00  0.13076921934E+04  0.13076921934E+04  0.50400001928E-02 0.  1.
       -1   -1    0    0    0  501  0.00000000000E+00  0.00000000000E+00 -0.27875009048E+04  0.27875009048E+04  0.50400001928E-02 0. -1.
    10030    2    1    2    0    0  0.00000000000E+00  0.00000000000E+00 -0.14798087114E+04  0.40951930982E+04  0.38184777974E+04 0.  0.
        3    1    3    3  502    0 -0.10372732939E+03  0.18101962870E+04 -0.98551606432E+02  0.18158420597E+04  0.10100000352E+00 0. -1.
       -3    1    3    3    0  502  0.10372732939E+03 -0.18101962870E+04 -0.13812571050E+04  0.22793510385E+04  0.10100000352E+00 0.  1.
</event>
<event>
 5   0  0.2205204E-07  0.3809931E+04  0.7818609E-02  0.8044027E-01
       -2   -1    0    0    0  501  0.00000000000E+00  0.00000000000E+00  0.15939214593E+04  0.15939214593E+04  0.25500000920E-02 0. -1.
        2   -1    0    0  501    0  0.00000000000E+00  0.00000000000E+00 -0.22767077896E+04  0.22767077896E+04  0.25500000920E-02 0.  1.
    10030    2    1    2    0    0  0.00000000000E+00  0.00000000000E+00 -0.68278633029E+03  0.38706292489E+04  0.38099309193E+04 0.  0.
        2    1    3    3  502    0  0.11005289722E+04  0.71810014348E+03 -0.17425177649E+04  0.21824756575E+04  0.25500000920E-02 0.  1.
       -2    1    3    3    0  502 -0.11005289722E+04 -0.71810014348E+03  0.10597314346E+04  0.16881535914E+04  0.25500000920E-02 0. -1.
</event>
<event>
 5   0  0.6661000E-08  0.3799656E+04  0.7818609E-02  0.8046229E-01
        1   -1    0    0  501    0  0.00000000000E+00  0.00000000000E+00  0.15752932713E+04  0.15752932713E+04  0.50400001928E-02 0. -1.
       -1   -1    0    0    0  501  0.00000000000E+00  0.00000000000E+00 -0.22912213801E+04  0.22912213801E+04  0.50400001928E-02 0.  1.
    10030    2    1    2    0    0  0.00000000000E+00  0.00000000000E+00 -0.71592810882E+03  0.38665146514E+04  0.37996555755E+04 0.  0.
        4    1    3    3  502    0 -0.15963160017E+04 -0.10099012986E+04 -0.15136798889E+03  0.18950037708E+04  0.12699999809E+01 0. -1.
       -4    1    3    3    0  502  0.15963160017E+04  0.10099012986E+04 -0.56456011993E+03  0.19715108806E+04  0.12699999809E+01 0.  1.
</event>
<event>
 5   0  0.2203998E-07  0.3780870E+04  0.7818609E-02  0.8050273E-01
       -2   -1    0    0    0  501  0.00000000000E+00  0.00000000000E+00  0.16424941280E+04  0.16424941280E+04  0.25500000920E-02 0.  1.
        2   -1    0    0  501    0  0.00000000000E+00  0.00000000000E+00 -0.21758036783E+04  0.21758036783E+04  0.25500000920E-02 0. -1.
    10030    2    1    2    0    0  0.00000000000E+00  0.00000000000E+00 -0.53330955028E+03  0.38182978062E+04  0.37808701460E+04 0.  0.
        3    1    3    3  502    0 -0.12356903554E+04  0.14289546965E+04 -0.33736629955E+03  0.19190253280E+04  0.10100000352E+00 0. -1.
       -3    1    3    3    0  502  0.12356903554E+04 -0.14289546965E+04 -0.19594325073E+03  0.18992724783E+04  0.10100000352E+00 0.  1.
</event>
<event>
 5   0  0.1370688E-07  0.3779330E+04  0.7818609E-02  0.8050605E-01
       -2   -1    0    0    0  501  0.00000000000E+00  0.00000000000E+00  0.12828607027E+04  0.12828607027E+04  0.25500000920E-02 0. -1.
        2   -1    0    0  501    0  0.00000000000E+00  0.00000000000E+00 -0.27834924990E+04  0.27834924990E+04  0.25500000920E-02 0.  1.
    10030    2    1    2    0    0  0.00000000000E+00  0.00000000000E+00 -0.15006317963E+04  0.40663532017E+04  0.37793296460E+04 0.  0.
        5    1    3    3  502    0 -0.13227147490E+04  0.66615363774E+03  0.51247765743E+03  0.15671599841E+04  0.46999998093E+01 0. -1.
       -5    1    3    3    0  502  0.13227147490E+04 -0.66615363774E+03 -0.20131094538E+04  0.24991932177E+04  0.46999998093E+01 0.  1.
</event>
<event>
 5   0  0.2081337E-07  0.3761909E+04  0.7818609E-02  0.8054379E-01
       -2   -1    0    0    0  501  0.00000000000E+00  0.00000000000E+00  0.16484079816E+04  0.16484079816E+04  0.25500000920E-02 0. -1.
        2   -1    0    0  501    0  0.00000000000E+00  0.00000000000E+00 -0.21463068196E+04  0.21463068196E+04  0.25500000920E-02 0.  1.
    10030    2    1    2    0    0  0.00000000000E+00  0.00000000000E+00 -0.49789883802E+03  0.37947148012E+04  0.37619087136E+04 0.  0.
        1    1    3    3  502    0 -0.14028801361E+04 -0.99596340583E+03  0.51792606769E+03  0.17967368181E+04  0.50400001928E-02 0. -1.
       -1    1    3    3    0  502  0.14028801361E+04  0.99596340583E+03 -0.10158249057E+04  0.19979779831E+04  0.50400001928E-02 0.  1.
</event>
<event>
 5   0  0.6661000E-08  0.3320084E+04  0.7818609E-02  0.8157804E-01
        1   -1    0    0  501    0  0.00000000000E+00  0.00000000000E+00  0.14732985066E+04  0.14732985066E+04  0.50400001928E-02 0.  1.
       -1   -1    0    0    0  501  0.00000000000E+00  0.00000000000E+00 -0.18704560258E+04  0.18704560258E+04  0.50400001928E-02 0. -1.
    10030    2    1    2    0    0  0.00000000000E+00  0.00000000000E+00 -0.39715751925E+03  0.33437545324E+04  0.33200843781E+04 0.  0.
        4    1    3    3  502    0  0.92626592534E+03 -0.44544341506E+03  0.11143062570E+04  0.15159381411E+04  0.12699999809E+01 0.  1.
       -4    1    3    3    0  502 -0.92626592534E+03  0.44544341506E+03 -0.15114637762E+04  0.18278163913E+04  0.12699999809E+01 0. -1.
</event>
<event>
 5   0  0.2081337E-07  0.3771785E+04  0.7818609E-02  0.8052237E-01
       -2   -1    0    0    0  501  0.00000000000E+00  0.00000000000E+00  0.14780870743E+04  0.14780870743E+04  0.25500000920E-02 0.  1.
        2   -1    0    0  501    0  0.00000000000E+00  0.00000000000E+00 -0.24062122974E+04  0.24062122974E+04  0.25500000920E-02 0. -1.
    10030    2    1    2    0    0  0.00000000000E+00  0.00000000000E+00 -0.92812522311E+03  0.38842993716E+04  0.37717854099E+04 0.  0.
        1    1    3    3  502    0  0.11328967368E+04  0.12767732817E+04 -0.12898468064E+04  0.21394648428E+04  0.50400001928E-02 0.  1.
       -1    1    3    3    0  502 -0.11328967368E+04 -0.12767732817E+04  0.36172158333E+03  0.17448345289E+04  0.50400001928E-02 0. -1.
</event>
<event>
 5   0  0.6661000E-08  0.3810182E+04  0.7818609E-02  0.8043973E-01
       -1   -1    0    0    0  501  0.00000000000E+00  0.00000000000E+00  0.15153849730E+04  0.15153849730E+04  0.50400001928E-02 0.  1.
        1   -1    0    0  501    0  0.00000000000E+00  0.00000000000E+00 -0.23950165674E+04  0.23950165674E+04  0.50400001928E-02 0. -1.
    10030    2    1    2    0    0  0.00000000000E+00  0.00000000000E+00 -0.87963159438E+03  0.39104015404E+04  0.38101822089E+04 0.  0.
        4    1    3    3  502    0 -0.36660737552E+03 -0.82437749785E+03 -0.21618566421E+04  0.23425680312E+04  0.12699999809E+01 0. -1.
       -4    1    3    3    0  502  0.36660737552E+03  0.82437749785E+03  0.12822250477E+04  0.15678335092E+04  0.12699999809E+01 0.  1.
</event>
<event>
 5   0  0.2135314E-07  0.3789990E+04  0.7818609E-02  0.8048306E-01
       -2   -1    0    0    0  501  0.00000000000E+00  0.00000000000E+00  0.17572119505E+04  0.17572119505E+04  0.25500000920E-02 0. -1.
        2   -1    0    0  501    0  0.00000000000E+00  0.00000000000E+00 -0.20435815461E+04  0.20435815461E+04  0.25500000920E-02 0.  1.
    10030    2    1    2    0    0  0.00000000000E+00  0.00000000000E+00 -0.28636959563E+03  0.38007934967E+04  0.37899899286E+04 0.  0.
        4    1    3    3  502    0  0.42831924959E+03 -0.68273429996E+03  0.15767611467E+04  0.17708079598E+04  0.12699999809E+01 0. -1.
       -4    1    3    3    0  502 -0.42831924959E+03  0.68273429996E+03 -0.18631307423E+04  0.20299855368E+04  0.12699999809E+01 0.  1.
</event>
<event>
 5   0  0.6661000E-08  0.3856363E+04  0.7818609E-02  0.8034167E-01
       -1   -1    0    0    0  501  0.00000000000E+00  0.00000000000E+00  0.15979099293E+04  0.15979099293E+04  0.50400001928E-02 0. -1.
        1   -1    0    0  501    0  0.00000000000E+00  0.00000000000E+00 -0.23267169426E+04  0.23267169426E+04  0.50400001928E-02 0.  1.
    10030    2    1    2    0    0  0.00000000000E+00  0.00000000000E+00 -0.72880701333E+03  0.39246268719E+04  0.38563631080E+04 0.  0.
        1    1    3    3  502    0 -0.99103988279E+03  0.16508203134E+04 -0.26003897083E+03  0.19429328405E+04  0.50400001928E-02 0. -1.
       -1    1    3    3    0  502  0.99103988279E+03 -0.16508203134E+04 -0.46876804250E+03  0.19816940314E+04  0.50400001928E-02 0.  1.
</event>
<event>
 5   0  0.1370688E-07  0.3804781E+04  0.7818609E-02  0.8045130E-01
       -2   -1    0    0    0  501  0.00000000000E+00  0.00000000000E+00  0.17057639419E+04  0.17057639419E+04  0.25500000920E-02 0. -1.
        2   -1    0    0  501    0  0.00000000000E+00  0.00000000000E+00 -0.21216821611E+04  0.21216821611E+04  0.25500000920E-02 0.  1.
    10030    2    1    2    0    0  0.00000000000E+00  0.00000000000E+00 -0.41591821928E+03  0.38274461030E+04  0.38047806384E+04 0.  0.
        5    1    3    3  502    0  0.15254027824E+04  0.10921972581E+04  0.10906637941E+03  0.18792727488E+04  0.46999998093E+01 0. -1.
       -5    1    3    3    0  502 -0.15254027824E+04 -0.10921972581E+04 -0.52498459869E+03  0.19481733542E+04  0.46999998093E+01 0.  1.
</event>
<event>
 5   0  0.1370688E-07  0.3435860E+04  0.7818609E-02  0.8129161E-01
       -2   -1    0    0    0  501  0.00000000000E+00  0.00000000000E+00  0.14460290991E+04  0.14460290991E+04  0.25500000920E-02 0. -1.
        2   -1    0    0  501    0  0.00000000000E+00  0.00000000000E+00 -0.20409572454E+04  0.20409572454E+04  0.25500000920E-02 0.  1.
    10030    2    1    2    0    0  0.00000000000E+00  0.00000000000E+00 -0.59492814622E+03  0.34869863445E+04  0.34358600477E+04 0.  0.
        5    1    3    3  502    0  0.13947964267E+04  0.62772088350E+03 -0.10912605879E+04  0.18789258475E+04  0.46999998093E+01 0.  1.
       -5    1    3    3    0  502 -0.13947964267E+04 -0.62772088350E+03  0.49633244168E+03  0.16080604971E+04  0.46999998093E+01 0. -1.
</event>
<event>
 5   0  0.2205204E-07  0.3857033E+04  0.7818609E-02  0.8034025E-01
       -2   -1    0    0    0  501  0.00000000000E+00  0.00000000000E+00  0.13278006903E+04  0.13278006903E+04  0.25500000920E-02 0.  1.
        2   -1    0    0  501    0  0.00000000000E+00  0.00000000000E+00 -0.28010050187E+04  0.28010050187E+04  0.25500000920E-02 0. -1.
    10030    2    1    2    0    0  0.00000000000E+00  0.00000000000E+00 -0.14732043284E+04  0.41288057089E+04  0.38570332626E+04 0.  0.
        2    1    3    3  502    0  0.25609616749E+03 -0.12599184273E+04 -0.22753125845E+04  0.26134320438E+04  0.25500000920E-02 0. -1.
       -2    1    3    3    0  502 -0.25609616749E+03  0.12599184273E+04  0.80210825608E+03  0.15153736651E+04  0.25500000920E-02 0.  1.
</event>
<event>
 5   0  0.2205204E-07  0.3818656E+04  0.7818609E-02  0.8042163E-01
        2   -1    0    0  501    0  0.00000000000E+00  0.00000000000E+00  0.26719279830E+04  0.26719279830E+04  0.25500000920E-02 0.  1.
       -2   -1    0    0    0  501  0.00000000000E+00  0.00000000000E+00 -0.13643829983E+04  0.13643829983E+04  0.25500000920E-02 0. -1.
    10030    2    1    2    0    0  0.00000000000E+00  0.00000000000E+00  0.13075449847E+04  0.40363109814E+04  0.38186558435E+04 0.  0.
        2    1    3    3  502    0 -0.91977017951E+03  0.14249249676E+04  0.15807690998E+04  0.23184519174E+04  0.25500000920E-02 0.  1.
       -2    1    3    3    0  502  0.91977017951E+03 -0.14249249676E+04 -0.27322411506E+03  0.17178590639E+04  0.25500000920E-02 0. -1.
</event>
<event>
 5   0  0.2081337E-07  0.3802808E+04  0.7818609E-02  0.8045553E-01
        2   -1    0    0  501    0  0.00000000000E+00  0.00000000000E+00  0.23958736212E+04  0.23958736212E+04  0.25500000920E-02 0.  1.
       -2   -1    0    0    0  501  0.00000000000E+00  0.00000000000E+00 -0.15089846889E+04  0.15089846889E+04  0.25500000920E-02 0. -1.
    10030    2    1    2    0    0  0.00000000000E+00  0.00000000000E+00  0.88688893223E+03  0.39048583101E+04  0.38028077053E+04 0.  0.
        1    1    3    3  502    0 -0.13386164614E+04  0.56384041233E+03  0.17033707233E+04  0.22385892572E+04  0.50400001928E-02 0.  1.
       -1    1    3    3    0  502  0.13386164614E+04 -0.56384041233E+03 -0.81648179108E+03  0.16662690529E+04  0.50400001928E-02 0. -1.
</event>
<event>
 5   0  0.6661000E-08  0.3792246E+04  0.7818609E-02  0.8047821E-01
       -1   -1    0    0    0  501  0.00000000000E+00  0.00000000000E+00  0.18847002048E+04  0.18847002048E+04  0.50400001928E-02 0.  1.
        1   -1    0    0  501    0  0.00000000000E+00  0.00000000000E+00 -0.19076149236E+04  0.19076149236E+04  0.50400001928E-02 0. -1.
    10030    2    1    2    0    0  0.00000000000E+00  0.00000000000E+00 -0.22914718849E+02  0.37923151284E+04  0.37922458977E+04 0.  0.
        3    1    3    3  502    0 -0.12255845166E+04  0.76533171272E+03 -0.12392795089E+04  0.19035765677E+04  0.10100000352E+00 0. -1.
       -3    1    3    3    0  502  0.12255845166E+04 -0.76533171272E+03  0.12163647900E+04  0.18887385607E+04  0.10100000352E+00 0.  1.
</event>
<event>
 5   0  0.6661000E-08  0.3730088E+04  0.7818609E-02  0.8061327E-01
       -1   -1    0    0    0  501  0.00000000000E+00  0.00000000000E+00  0.14054349591E+04  0.14054349591E+04  0.50400001928E-02 0.  1.
        1   -1    0    0  501    0  0.00000000000E+00  0.00000000000E+00 -0.24749551887E+04  0.24749551887E+04  0.50400001928E-02 0. -1.
    10030    2    1    2    0    0  0.00000000000E+00  0.00000000000E+00 -0.10695202296E+04  0.38803901478E+04  0.37300876903E+04 0.  0.
        3    1    3    3  502    0 -0.10274051083E+04  0.48618362118E+03 -0.20730082639E+04  0.23641698421E+04  0.10100000352E+00 0. -1.
       -3    1    3    3    0  502  0.10274051083E+04 -0.48618362118E+03  0.10034880343E+04  0.15162203057E+04  0.10100000352E+00 0.  1.
</event>
<event>
 5   0  0.6725199E-08  0.3773613E+04  0.7818609E-02  0.8051841E-01
       -1   -1    0    0    0  501  0.00000000000E+00  0.00000000000E+00  0.23542695951E+04  0.23542695951E+04  0.50400001928E-02 0.  1.
        1   -1    0    0  501    0  0.00000000000E+00  0.00000000000E+00 -0.15121627489E+04  0.15121627489E+04  0.50400001928E-02 0. -1.
    10030    2    1    2    0    0  0.00000000000E+00  0.00000000000E+00  0.84210684618E+03  0.38664323440E+04  0.37736130075E+04 0.  0.
        5    1    3    3  502    0  0.15349700322E+03 -0.23593722562E+03 -0.14905240463E+04  0.15168756465E+04  0.46999998093E+01 0. -1.
       -5    1    3    3    0  502 -0.15349700322E+03  0.23593722562E+03  0.23326308925E+04  0.23495566975E+04  0.46999998093E+01 0.  1.
</event>
<event>
 5   0  0.2203998E-07  0.3720176E+04  0.7818609E-02  0.8063505E-01
       -2   -1    0    0    0  501  0.00000000000E+00  0.00000000000E+00  0.17135848081E+04  0.17135848081E+04  0.25500000920E-02 0.  1.
        2   -1    0    0  501    0  0.00000000000E+00  0.00000000000E+00 -0.20191168610E+04  0.20191168610E+04  0.25500000920E-02 0. -1.
    10030    2    1    2    0    0  0.00000000000E+00  0.00000000000E+00 -0.30553205285E+03  0.37327016691E+04  0.37201763285E+04 0.  0.
        3    1    3    3  502    0 -0.43087121343E+03  0.15580757054E+04  0.77048310877E+03  0.17907803153E+04  0.10100000352E+00 0.  1.
       -3    1    3    3    0  502  0.43087121343E+03 -0.15580757054E+04 -0.10760151616E+04  0.19419213539E+04  0.10100000352E+00 0. -1.
</event>
<event>
 5   0  0.6661000E-08  0.3852222E+04  0.7818609E-02  0.8035040E-01
       -1   -1    0    0    0  501  0.00000000000E+00  0.00000000000E+00  0.17149947571E+04  0.17149947571E+04  0.50400001928E-02 0. -1.
        1   -1    0    0  501    0  0.00000000000E+00  0.00000000000E+00 -0.21632152083E+04  0.21632152083E+04  0.50400001928E-02 0.  1.
    10030    2    1    2    0    0  0.00000000000E+00  0.00000000000E+00 -0.44822045122E+03  0.38782099654E+04  0.38522215620E+04 0.  0.
        4    1    3    3  502    0 -0.14783592458E+04 -0.21142502109E+03  0.10005066053E+04  0.17975710499E+04  0.12699999809E+01 0. -1.
       -4    1    3    3    0  502  0.14783592458E+04  0.21142502109E+03 -0.14487270566E+04  0.20806389155E+04  0.12699999809E+01 0.  1.
</event>
<event>
 5   0  0.2205204E-07  0.3798659E+04  0.7818609E-02  0.8046443E-01
       -2   -1    0    0    0  501  0.00000000000E+00  0.00000000000E+00  0.12541486926E+04  0.12541486926E+04  0.25500000920E-02 0.  1.
        2   -1    0    0  501    0  0.00000000000E+00  0.00000000000E+00 -0.28764160445E+04  0.28764160445E+04  0.25500000920E-02 0. -1.
    10030    2    1    2    0    0  0.00000000000E+00  0.00000000000E+00 -0.16222673519E+04  0.41305647371E+04  0.37986594592E+04 0.  0.
        2    1    3    3  502    0  0.10858071683E+02 -0.15789740141E+04  0.33663953820E+03  0.16144977589E+04  0.25500000920E-02 0. -1.
       -2    1    3    3    0  502 -0.10858071683E+02  0.15789740141E+04 -0.19589068901E+04  0.25160669782E+04  0.25500000920E-02 0.  1.
</event>
<event>
 5   0  0.6661000E-08  0.3731719E+04  0.7818609E-02  0.8060969E-01
       -1   -1    0    0    0  501  0.00000000000E+00  0.00000000000E+00  0.11146638292E+04  0.11146638292E+04  0.50400001928E-02 0. -1.
        1   -1    0    0  501    0  0.00000000000E+00  0.00000000000E+00 -0.31233015833E+04  0.31233015833E+04  0.50400001928E-02 0.  1.
    10030    2    1    2    0    0  0.00000000000E+00  0.00000000000E+00 -0.20086377541E+04  0.42379654126E+04  0.37317188011E+04 0.  0.
        4    1    3    3  502    0  0.38922033509E+03 -0.16996119793E+04 -0.24993225768E+03  0.17614315473E+04  0.12699999809E+01 0. -1.
       -4    1    3    3    0  502 -0.38922033509E+03  0.16996119793E+04 -0.17587054964E+04  0.24765338652E+04  0.12699999809E+01 0.  1.
</event>
<event>
 5   0  0.6661000E-08  0.3812703E+04  0.7818609E-02  0.8043434E-01
        1   -1    0    0  501    0  0.00000000000E+00  0.00000000000E+00  0.20070480503E+04  0.20070480503E+04  0.50400001928E-02 0. -1.
       -1   -1    0    0    0  501  0.00000000000E+00  0.00000000000E+00 -0.18107073763E+04  0.18107073763E+04  0.50400001928E-02 0.  1.
    10030    2    1    2    0    0  0.00000000000E+00  0.00000000000E+00  0.19634067406E+03  0.38177554266E+04  0.38127033503E+04 0.  0.
        4    1    3    3  502    0 -0.17939008355E+04  0.61561288128E+03  0.29107989038E+03  0.19187987238E+04  0.12699999809E+01 0. -1.
       -4    1    3    3    0  502  0.17939008355E+04 -0.61561288128E+03 -0.94739216323E+02  0.18989567028E+04  0.12699999809E+01 0.  1.
</event>
<event>
 5   0  0.6661000E-08  0.3838544E+04  0.7818609E-02  0.8037934E-01
       -4   -1    0    0    0  501  0.00000000000E+00  0.00000000000E+00  0.14435996560E+04  0.14436002146E+04  0.12699999809E+01 0.  1.
        4   -1    0    0  501    0  0.00000000000E+00  0.00000000000E+00 -0.25516786948E+04  0.25516790109E+04  0.12699999809E+01 0. -1.
    10030    2    1    2    0    0  0.00000000000E+00  0.00000000000E+00 -0.11080790388E+04  0.39952792255E+04  0.38385435953E+04 0.  0.
        3    1    3    3  502    0 -0.11446199847E+04  0.93250971700E+03  0.72235967413E+03  0.16436340197E+04  0.10100000352E+00 0.  1.
       -3    1    3    3    0  502  0.11446199847E+04 -0.93250971700E+03 -0.18304387130E+04  0.23516452058E+04  0.10100000352E+00 0. -1.
</event>
<event>
 5   0  0.6661000E-08  0.3808524E+04  0.7818609E-02  0.8044328E-01
       -1   -1    0    0    0  501  0.00000000000E+00  0.00000000000E+00  0.25459402238E+04  0.25459402238E+04  0.50400001928E-02 0.  1.
        1   -1    0    0  501    0  0.00000000000E+00  0.00000000000E+00 -0.14243120783E+04  0.14243120783E+04  0.50400001928E-02 0. -1.
    10030    2    1    2    0    0  0.00000000000E+00  0.00000000000E+00  0.11216281454E+04  0.39702523021E+04  0.38085238145E+04 0.  0.
        3    1    3    3  502    0  0.69341216823E+03 -0.61946425080E+03  0.22932065942E+04  0.24745409447E+04  0.10100000352E+00 0.  1.
       -3    1    3    3    0  502 -0.69341216823E+03  0.61946425080E+03 -0.11715784487E+04  0.14957113574E+04  0.10100000352E+00 0. -1.
</event>
<event>
 5   0  0.2135314E-07  0.3901914E+04  0.7818609E-02  0.8024631E-01
       -2   -1    0    0    0  501  0.00000000000E+00  0.00000000000E+00  0.14724878081E+04  0.14724878081E+04  0.25500000920E-02 0. -1.
        2   -1    0    0  501    0  0.00000000000E+00  0.00000000000E+00 -0.25849000684E+04  0.25849000684E+04  0.25500000920E-02 0.  1.
    10030    2    1    2    0    0  0.00000000000E+00  0.00000000000E+00 -0.11124122603E+04  0.40573878765E+04  0.39019143178E+04 0.  0.
        4    1    3    3  502    0  0.18565971351E+04  0.55496429412E+03 -0.32070022617E+03  0.19641253875E+04  0.12699999809E+01 0.  1.
       -4    1    3    3    0  502 -0.18565971351E+04 -0.55496429412E+03 -0.79171203412E+03  0.20932624890E+04  0.12699999809E+01 0. -1.
</event>
<event>
 5   0  0.2135314E-07  0.3799285E+04  0.7818609E-02  0.8046308E-01
       -2   -1    0    0    0  501  0.00000000000E+00  0.00000000000E+00  0.33880228300E+04  0.33880228300E+04  0.25500000920E-02 0. -1.
        2   -1    0    0  501    0  0.00000000000E+00  0.00000000000E+00 -0.10651173779E+04  0.10651173779E+04  0.25500000920E-02 0.  1.
    10030    2    1    2    0    0  0.00000000000E+00  0.00000000000E+00  0.23229054520E+04  0.44531402079E+04  0.37992851922E+04 0.  0.
        4    1    3    3  502    0  0.13429091261E+04  0.11951541241E+04  0.44193057325E+03  0.18512435134E+04  0.12699999809E+01 0.  1.
       -4    1    3    3    0  502 -0.13429091261E+04 -0.11951541241E+04  0.18809748788E+04  0.26018966945E+04  0.12699999809E+01 0. -1.
</event>
<event>
 5   0  0.6661000E-08  0.3753641E+04  0.7818609E-02  0.8056177E-01
       -1   -1    0    0    0  501  0.00000000000E+00  0.00000000000E+00  0.12260608600E+04  0.12260608600E+04  0.50400001928E-02 0. -1.
        1   -1    0    0  501    0  0.00000000000E+00  0.00000000000E+00 -0.28729862854E+04  0.28729862854E+04  0.50400001928E-02 0.  1.
    10030    2    1    2    0    0  0.00000000000E+00  0.00000000000E+00 -0.16469254254E+04  0.40990471454E+04  0.37536414511E+04 0.  0.
        2    1    3    3  502    0 -0.51146486011E+03 -0.34024850951E+02 -0.27950639379E+04  0.28416784495E+04  0.25500000920E-02 0.  1.
       -2    1    3    3    0  502  0.51146486011E+03  0.34024850951E+02  0.11481385125E+04  0.12573686959E+04  0.25500000920E-02 0. -1.
</event>
<event>
 5   0  0.2135314E-07  0.3797330E+04  0.7818609E-02  0.8046728E-01
        2   -1    0    0  501    0  0.00000000000E+00  0.00000000000E+00  0.14740044367E+04  0.14740044367E+04  0.25500000920E-02 0. -1.
       -2   -1    0    0    0  501  0.00000000000E+00  0.00000000000E+00 -0.24456704864E+04  0.24456704864E+04  0.25500000920E-02 0.  1.
    10030    2    1    2    0    0  0.00000000000E+00  0.00000000000E+00 -0.97166604978E+03  0.39196749231E+04  0.37973301924E+04 0.  0.
        4    1    3    3  502    0 -0.79530303841E+03  0.71351055205E+03 -0.21058978616E+04  0.23614427046E+04  0.12699999809E+01 0.  1.
       -4    1    3    3    0  502  0.79530303841E+03 -0.71351055205E+03  0.11342318118E+04  0.15582322185E+04  0.12699999809E+01 0. -1.
</event>
<event>
 5   0  0.2081337E-07  0.3574190E+04  0.7818609E-02  0.8096429E-01
        2   -1    0    0  501    0  0.00000000000E+00  0.00000000000E+00  0.10993235073E+04  0.10993235073E+04  0.25500000920E-02 0. -1.
       -2   -1    0    0    0  501  0.00000000000E+00  0.00000000000E+00 -0.29051580566E+04  0.29051580566E+04  0.25500000920E-02 0.  1.
    10030    2    1    2    0    0  0.00000000000E+00  0.00000000000E+00 -0.18058345493E+04  0.40044815639E+04  0.35741900028E+04 0.  0.
        1    1    3    3  502    0 -0.11741291134E+04  0.12854589198E+04 -0.45096201087E+03  0.17984300222E+04  0.50400001928E-02 0.  1.
       -1    1    3    3    0  502  0.11741291134E+04 -0.12854589198E+04 -0.13548725385E+04  0.22060515418E+04  0.50400001928E-02 0. -1.
</event>
<event>
 5   0  0.2135314E-07  0.3807027E+04  0.7818609E-02  0.8044649E-01
       -2   -1    0    0    0  501  0.00000000000E+00  0.00000000000E+00  0.17195846500E+04  0.17195846500E+04  0.25500000920E-02 0. -1.
        2   -1    0    0  501    0  0.00000000000E+00  0.00000000000E+00 -0.21071150808E+04  0.21071150808E+04  0.25500000920E-02 0.  1.
    10030    2    1    2    0    0  0.00000000000E+00  0.00000000000E+00 -0.38753043081E+03  0.38266997308E+04  0.38070265293E+04 0.  0.
        4    1    3    3  502    0 -0.41828002494E+02  0.19000087448E+04 -0.30192388343E+03  0.19243031092E+04  0.12699999809E+01 0. -1.
       -4    1    3    3    0  502  0.41828002494E+02 -0.19000087448E+04 -0.85606547378E+02  0.19023966216E+04  0.12699999809E+01 0.  1.
</event>
<event>
 5   0  0.6661000E-08  0.3831410E+04  0.7818609E-02  0.8039448E-01
        1   -1    0    0  501    0  0.00000000000E+00  0.00000000000E+00  0.20870583543E+04  0.20870583543E+04  0.50400001928E-02 0.  1.
       -1   -1    0    0    0  501  0.00000000000E+00  0.00000000000E+00 -0.17584205952E+04  0.17584205952E+04  0.50400001928E-02 0. -1.
    10030    2    1    2    0    0  0.00000000000E+00  0.00000000000E+00  0.32863775911E+03  0.38454789496E+04  0.38314103898E+04 0.  0.
        3    1    3    3  502    0  0.27997331151E+03  0.69695146216E+03  0.19331179759E+04  0.20739024844E+04  0.10100000352E+00 0.  1.
       -3    1    3    3    0  502 -0.27997331151E+03 -0.69695146216E+03 -0.16044802168E+04  0.17715764652E+04  0.10100000352E+00 0. -1.
</event>
<event>
 5   0  0.1370688E-07  0.3813064E+04  0.7818609E-02  0.8043357E-01
        2   -1    0    0  501    0  0.00000000000E+00  0.00000000000E+00  0.16118240163E+04  0.16118240163E+04  0.25500000920E-02 0. -1.
       -2   -1    0    0    0  501  0.00000000000E+00  0.00000000000E+00 -0.22551241943E+04  0.22551241943E+04  0.25500000920E-02 0.  1.
    10030    2    1    2    0    0  0.00000000000E+00  0.00000000000E+00 -0.64330017804E+03  0.38669482106E+04  0.38130635118E+04 0.  0.
        5    1    3    3  502    0 -0.13848891970E+04 -0.12273087895E+04  0.14378692587E+03  0.18560446446E+04  0.46999998093E+01 0. -1.
       -5    1    3    3    0  502  0.13848891970E+04  0.12273087895E+04 -0.78708710391E+03  0.20109035660E+04  0.46999998093E+01 0.  1.
</event>
<event>
 5   0  0.6661000E-08  0.3799695E+04  0.7818609E-02  0.8046220E-01
        1   -1    0    0  501    0  0.00000000000E+00  0.00000000000E+00  0.20799460926E+04  0.20799460926E+04  0.50400001928E-02 0.  1.
       -1   -1    0    0    0  501  0.00000000000E+00  0.00000000000E+00 -0.17353436743E+04  0.17353436743E+04  0.50400001928E-02 0. -1.
    10030    2    1    2    0    0  0.00000000000E+00  0.00000000000E+00  0.34460241832E+03  0.38152897669E+04  0.37996954060E+04 0.  0.
        3    1    3    3  502    0 -0.11812589619E+04  0.37305911535E+03  0.16186557372E+04  0.20382816892E+04  0.10100000352E+00 0.  1.
       -3    1    3    3    0  502  0.11812589619E+04 -0.37305911535E+03 -0.12740533189E+04  0.17770080777E+04  0.10100000352E+00 0. -1.
</event>
<event>
 5   0  0.6661000E-08  0.3804034E+04  0.7818609E-02  0.8045290E-01
       -1   -1    0    0    0  501  0.00000000000E+00  0.00000000000E+00  0.17801170189E+04  0.17801170189E+04  0.50400001928E-02 0. -1.
        1   -1    0    0  501    0  0.00000000000E+00  0.00000000000E+00 -0.20322647986E+04  0.20322647986E+04  0.50400001928E-02 0.  1.
    10030    2    1    2    0    0  0.00000000000E+00  0.00000000000E+00 -0.25214777967E+03  0.38123818175E+04  0.38040342558E+04 0.  0.
        3    1    3    3  502    0 -0.47435951239E+03  0.18289217007E+04 -0.34495096694E+03  0.19206672576E+04  0.10100000352E+00 0.  1.
       -3    1    3    3    0  502  0.47435951239E+03 -0.18289217007E+04  0.92803187271E+02  0.18917145599E+04  0.10100000352E+00 0. -1.
</event>
<event>
 5   0  0.1370688E-07  0.3789369E+04  0.7818609E-02  0.8048440E-01
        2   -1    0    0  501    0  0.00000000000E+00  0.00000000000E+00  0.20563158322E+04  0.20563158322E+04  0.25500000920E-02 0.  1.
       -2   -1    0    0    0  501  0.00000000000E+00  0.00000000000E+00 -0.17457581314E+04  0.17457581314E+04  0.25500000920E-02 0. -1.
    10030    2    1    2    0    0  0.00000000000E+00  0.00000000000E+00  0.31055770074E+03  0.38020739636E+04  0.37893693854E+04 0.  0.
        5    1    3    3  502    0 -0.36969279770E+03 -0.14786758546E+04  0.12845089300E+04  0.19932737716E+04  0.46999998093E+01 0.  1.
       -5    1    3    3    0  502  0.36969279770E+03  0.14786758546E+04 -0.97395122922E+03  0.18088001920E+04  0.46999998093E+01 0. -1.
</event>
<event>
 5   0  0.6661000E-08  0.3759964E+04  0.7818609E-02  0.8054801E-01
       -1   -1    0    0    0  501  0.00000000000E+00  0.00000000000E+00  0.21304669483E+04  0.21304669483E+04  0.50400001928E-02 0. -1.
        1   -1    0    0  501    0  0.00000000000E+00  0.00000000000E+00 -0.16589472759E+04  0.16589472759E+04  0.50400001928E-02 0.  1.
    10030    2    1    2    0    0  0.00000000000E+00  0.00000000000E+00  0.47151967247E+03  0.37894142242E+04  0.37599640106E+04 0.  0.
        1    1    3    3  502    0  0.22220494337E+03 -0.96647339218E+03 -0.13738994502E+04  0.16944159920E+04  0.50400001928E-02 0.  1.
       -1    1    3    3    0  502 -0.22220494337E+03  0.96647339218E+03  0.18454191227E+04  0.20949982322E+04  0.50400001928E-02 0. -1.
</event>
<event>
 5   0  0.6661000E-08  0.3922347E+04  0.7818609E-02  0.8020398E-01
        1   -1    0    0  501    0  0.00000000000E+00  0.00000000000E+00  0.19017596377E+04  0.19017596377E+04  0.50400001928E-02 0.  1.
       -1   -1    0    0    0  501  0.00000000000E+00  0.00000000000E+00 -0.20224430927E+04  0.20224430927E+04  0.50400001928E-02 0. -1.
    10030    2    1    2    0    0  0.00000000000E+00  0.00000000000E+00 -0.12068345500E+03  0.39242027305E+04  0.39223465647E+04 0.  0.
        4    1    3    3  502    0  0.14348189781E+04 -0.47712409677E+03 -0.13098707601E+04  0.20005289112E+04  0.12699999809E+01 0. -1.
       -4    1    3    3    0  502 -0.14348189781E+04  0.47712409677E+03  0.11891873051E+04  0.19236738193E+04  0.12699999809E+01 0.  1.
</event>
<event>
 5   0  0.6725199E-08  0.3788685E+04  0.7818609E-02  0.8048587E-01
        1   -1    0    0  501    0  0.00000000000E+00  0.00000000000E+00  0.13986645845E+04  0.13986645845E+04  0.50400001928E-02 0. -1.
       -1   -1    0    0    0  501  0.00000000000E+00  0.00000000000E+00 -0.25656851796E+04  0.25656851796E+04  0.50400001928E-02 0.  1.
    10030    2    1    2    0    0  0.00000000000E+00  0.00000000000E+00 -0.11670205951E+04  0.39643497642E+04  0.37886847300E+04 0.  0.
        5    1    3    3  502    0 -0.41899518577E+03  0.12343934859E+04 -0.20217309790E+04  0.24055565854E+04  0.46999998093E+01 0.  1.
       -5    1    3    3    0  502  0.41899518577E+03 -0.12343934859E+04  0.85471038394E+03  0.15587931788E+04  0.46999998093E+01 0. -1.
</event>
<event>
 5   0  0.6661000E-08  0.3758012E+04  0.7818609E-02  0.8055226E-01
        1   -1    0    0  501    0  0.00000000000E+00  0.00000000000E+00  0.15147034941E+04  0.15147034941E+04  0.50400001928E-02 0. -1.
       -1   -1    0    0    0  501  0.00000000000E+00  0.00000000000E+00 -0.23309268666E+04  0.23309268666E+04  0.50400001928E-02 0.  1.
    10030    2    1    2    0    0  0.00000000000E+00  0.00000000000E+00 -0.81622337251E+03  0.38456303607E+04  0.37580117453E+04 0.  0.
        4    1    3    3  502    0 -0.33287918593E+03 -0.83303011360E+03 -0.20976399391E+04  0.22814124243E+04  0.12699999809E+01 0.  1.
       -4    1    3    3    0  502  0.33287918593E+03  0.83303011360E+03  0.12814165666E+04  0.15642179364E+04  0.12699999809E+01 0. -1.
</event>
<event>
 5   0  0.6661000E-08  0.3798734E+04  0.7818609E-02  0.8046427E-01
       -1   -1    0    0    0  501  0.00000000000E+00  0.00000000000E+00  0.20191874115E+04  0.20191874115E+04  0.50400001928E-02 0. -1.
        1   -1    0    0  501    0  0.00000000000E+00  0.00000000000E+00 -0.17866567406E+04  0.17866567406E+04  0.50400001928E-02 0.  1.
    10030    2    1    2    0    0  0.00000000000E+00  0.00000000000E+00  0.23253067095E+03  0.38058441521E+04  0.37987338940E+04 0.  0.
        1    1    3    3  502    0  0.10700881103E+04 -0.14080648285E+04  0.81028097254E+03  0.19453252632E+04  0.50400001928E-02 0. -1.
       -1    1    3    3    0  502 -0.10700881103E+04  0.14080648285E+04 -0.57775030158E+03  0.18605188889E+04  0.50400001928E-02 0.  1.
</event>
<event>
 5   0  0.2135314E-07  0.3786499E+04  0.7818609E-02  0.8049058E-01
        2   -1    0    0  501    0  0.00000000000E+00  0.00000000000E+00  0.18102516932E+04  0.18102516932E+04  0.25500000920E-02 0.  1.
       -2   -1    0    0    0  501  0.00000000000E+00  0.00000000000E+00 -0.19800529915E+04  0.19800529915E+04  0.25500000920E-02 0. -1.
    10030    2    1    2    0    0  0.00000000000E+00  0.00000000000E+00 -0.16980129829E+03  0.37903046848E+04  0.37864993229E+04 0.  0.
        4    1    3    3  502    0  0.18457428837E+04 -0.27228554848E+03  0.23711575357E+03  0.18807263772E+04  0.12699999809E+01 0.  1.
       -4    1    3    3    0  502 -0.18457428837E+04  0.27228554848E+03 -0.40691705187E+03  0.19095783075E+04  0.12699999809E+01 0. -1.
</event>
<event>
 5   0  0.6661000E-08  0.3791224E+04  0.7818609E-02  0.8048041E-01
        1   -1    0    0  501    0  0.00000000000E+00  0.00000000000E+00  0.16316839903E+04  0.16316839903E+04  0.50400001928E-02 0. -1.
       -1   -1    0    0    0  501  0.00000000000E+00  0.00000000000E+00 -0.22022312539E+04  0.22022312539E+04  0.50400001928E-02 0.  1.
    10030    2    1    2    0    0  0.00000000000E+00  0.00000000000E+00 -0.57054726358E+03  0.38339152442E+04  0.37912243299E+04 0.  0.
        4    1    3    3  502    0 -0.10767935705E+04 -0.13907822214E+04 -0.10000454316E+04  0.20233269778E+04  0.12699999809E+01 0.  1.
       -4    1    3    3    0  502  0.10767935705E+04  0.13907822214E+04  0.42949816799E+03  0.18105882663E+04  0.12699999809E+01 0. -1.
</event>
<event>
 5   0  0.6661000E-08  0.3808603E+04  0.7818609E-02  0.8044311E-01
       -1   -1    0    0    0  501  0.00000000000E+00  0.00000000000E+00  0.13844099470E+04  0.13844099470E+04  0.50400001928E-02 0. -1.
        1   -1    0    0  501    0  0.00000000000E+00  0.00000000000E+00 -0.26194299514E+04  0.26194299515E+04  0.50400001928E-02 0.  1.
    10030    2    1    2    0    0  0.00000000000E+00  0.00000000000E+00 -0.12350200045E+04  0.40038398984E+04  0.38086033557E+04 0.  0.
        4    1    3    3  502    0  0.28936615799E+03  0.83475659946E+03 -0.23909400145E+04  0.25489501995E+04  0.12699999809E+01 0.  1.
       -4    1    3    3    0  502 -0.28936615799E+03 -0.83475659946E+03  0.11559200100E+04  0.14548896990E+04  0.12699999809E+01 0. -1.
</event>
<event>
 5   0  0.6661000E-08  0.3795135E+04  0.7818609E-02  0.8047200E-01
        1   -1    0    0  501    0  0.00000000000E+00  0.00000000000E+00  0.14235409198E+04  0.14235409198E+04  0.50400001928E-02 0.  1.
       -1   -1    0    0    0  501  0.00000000000E+00  0.00000000000E+00 -0.25294404223E+04  0.25294404223E+04  0.50400001928E-02 0. -1.
    10030    2    1    2    0    0  0.00000000000E+00  0.00000000000E+00 -0.11058995025E+04  0.39529813421E+04  0.37951347514E+04 0.  0.
        3    1    3    3  502    0 -0.47046404163E+03  0.76274773416E+03  0.11892325120E+04  0.14890918367E+04  0.10100000352E+00 0.  1.
       -3    1    3    3    0  502  0.47046404163E+03 -0.76274773416E+03 -0.22951320145E+04  0.24638895054E+04  0.10100000352E+00 0. -1.
</event>
<event>
 5   0  0.6661000E-08  0.3773254E+04  0.7818609E-02  0.8051919E-01
       -1   -1    0    0    0  501  0.00000000000E+00  0.00000000000E+00  0.13698277036E+04  0.13698277036E+04  0.50400001928E-02 0. -1.
        1   -1    0    0  501    0  0.00000000000E+00  0.00000000000E+00 -0.25984014710E+04  0.25984014710E+04  0.50400001928E-02 0.  1.
    10030    2    1    2    0    0  0.00000000000E+00  0.00000000000E+00 -0.12285737674E+04  0.39682291746E+04  0.37732544680E+04 0.  0.
        3    1    3    3  502    0 -0.68277540992E+03  0.51136542681E+02 -0.24631280349E+04  0.25565204738E+04  0.10100000352E+00 0.  1.
       -3    1    3    3    0  502  0.68277540992E+03 -0.51136542681E+02  0.12345542675E+04  0.14117087008E+04  0.10100000352E+00 0. -1.
</event>
<event>
 5   0  0.2135314E-07  0.3676647E+04  0.7818609E-02  0.8073157E-01
       -2   -1    0    0    0  501  0.00000000000E+00  0.00000000000E+00  0.17819109636E+04  0.17819109636E+04  0.25500000920E-02 0. -1.
        2   -1    0    0  501    0  0.00000000000E+00  0.00000000000E+00 -0.18965221099E+04  0.18965221099E+04  0.25500000920E-02 0.  1.
    10030    2    1    2    0    0  0.00000000000E+00  0.00000000000E+00 -0.11461114634E+03  0.36784330735E+04  0.36766471358E+04 0.  0.
        4    1    3    3  502    0 -0.82557781494E+03  0.13987615510E+04 -0.91872283065E+03  0.18660562311E+04  0.12699999809E+01 0.  1.
       -4    1    3    3    0  502  0.82557781494E+03 -0.13987615510E+04  0.80411168431E+03  0.18123768424E+04  0.12699999809E+01 0. -1.
</event>
<event>
 5   0  0.6661000E-08  0.3900517E+04  0.7818609E-02  0.8024922E-01
       -1   -1    0    0    0  501  0.00000000000E+00  0.00000000000E+00  0.14300042568E+04  0.14300042568E+04  0.50400001928E-02 0. -1.
        1   -1    0    0  501    0  0.00000000000E+00  0.00000000000E+00 -0.26597881861E+04  0.26597881861E+04  0.50400001928E-02 0.  1.
    10030    2    1    2    0    0  0.00000000000E+00  0.00000000000E+00 -0.12297839293E+04  0.40897924429E+04  0.39005171084E+04 0.  0.
        2    1    3    3  502    0  0.15776001027E+04  0.78883796591E+02  0.58449664139E+03  0.16842449529E+04  0.25500000920E-02 0. -1.
       -2    1    3    3    0  502 -0.15776001027E+04 -0.78883796591E+02 -0.18142805707E+04  0.24055474900E+04  0.25500000920E-02 0.  1.
</event>
<event>
 5   0  0.6661000E-08  0.3805471E+04  0.7818609E-02  0.8044982E-01
        1   -1    0    0  501    0  0.00000000000E+00  0.00000000000E+00  0.21820651100E+04  0.21820651100E+04  0.50400001928E-02 0. -1.
       -1   -1    0    0    0  501  0.00000000000E+00  0.00000000000E+00 -0.16591632893E+04  0.16591632893E+04  0.50400001928E-02 0.  1.
    10030    2    1    2    0    0  0.00000000000E+00  0.00000000000E+00  0.52290182072E+03  0.38412283993E+04  0.38054709697E+04 0.  0.
        4    1    3    3  502    0 -0.44315064252E+03 -0.82766770503E+03 -0.14090876181E+04  0.16932057909E+04  0.12699999809E+01 0.  1.
       -4    1    3    3    0  502  0.44315064252E+03  0.82766770503E+03  0.19319894388E+04  0.21480226084E+04  0.12699999809E+01 0. -1.
</event>
<event>
 5   0  0.2135314E-07  0.3798256E+04  0.7818609E-02  0.8046529E-01
       -2   -1    0    0    0  501  0.00000000000E+00  0.00000000000E+00  0.20489972700E+04  0.20489972700E+04  0.25500000920E-02 0. -1.
        2   -1    0    0  501    0  0.00000000000E+00  0.00000000000E+00 -0.17602202913E+04  0.17602202913E+04  0.25500000920E-02 0.  1.
    10030    2    1    2    0    0  0.00000000000E+00  0.00000000000E+00  0.28877697866E+03  0.38092175613E+04  0.37982556899E+04 0.  0.
        4    1    3    3  502    0 -0.38999422959E+03  0.15609918840E+04  0.11562074530E+04  0.19813148282E+04  0.12699999809E+01 0. -1.
       -4    1    3    3    0  502  0.38999422959E+03 -0.15609918840E+04 -0.86743047438E+03  0.18279027331E+04  0.12699999809E+01 0.  1.
</event>
<event>
 5   0  0.1370688E-07  0.3809688E+04  0.7818609E-02  0.8044079E-01
       -2   -1    0    0    0  501  0.00000000000E+00  0.00000000000E+00  0.31324006390E+04  0.31324006390E+04  0.25500000920E-02 0. -1.
        2   -1    0    0  501    0  0.00000000000E+00  0.00000000000E+00 -0.11583548852E+04  0.11583548852E+04  0.25500000920E-02 0.  1.
    10030    2    1    2    0    0  0.00000000000E+00  0.00000000000E+00  0.19740457539E+04  0.42907555242E+04  0.38096884820E+04 0.  0.
        5    1    3    3  502    0  0.91650960769E+02 -0.57551111015E+03  0.30295263792E+04  0.30850713296E+04  0.46999998093E+01 0. -1.
       -5    1    3    3    0  502 -0.91650960769E+02  0.57551111015E+03 -0.10554806254E+04  0.12056841946E+04  0.46999998093E+01 0.  1.
</event>
<event>
 5   0  0.6661000E-08  0.3801755E+04  0.7818609E-02  0.8045778E-01
       -1   -1    0    0    0  501  0.00000000000E+00  0.00000000000E+00  0.19182786848E+04  0.19182786849E+04  0.50400001928E-02 0. -1.
        1   -1    0    0  501    0  0.00000000000E+00  0.00000000000E+00 -0.18836339979E+04  0.18836339979E+04  0.50400001928E-02 0.  1.
    10030    2    1    2    0    0  0.00000000000E+00  0.00000000000E+00  0.34644686933E+02  0.38019126828E+04  0.38017548308E+04 0.  0.
        2    1    3    3  502    0 -0.15074651180E+04  0.99165969305E+03  0.61525595782E+03  0.19064049733E+04  0.25500000920E-02 0. -1.
       -2    1    3    3    0  502  0.15074651180E+04 -0.99165969305E+03 -0.58061127089E+03  0.18955077094E+04  0.25500000920E-02 0.  1.
</event>
<event>
 5   0  0.2135314E-07  0.3723867E+04  0.7818609E-02  0.8062693E-01
       -2   -1    0    0    0  501  0.00000000000E+00  0.00000000000E+00  0.13812560999E+04  0.13812560999E+04  0.25500000920E-02 0.  1.
        2   -1    0    0  501    0  0.00000000000E+00  0.00000000000E+00 -0.25098868261E+04  0.25098868261E+04  0.25500000920E-02 0. -1.
    10030    2    1    2    0    0  0.00000000000E+00  0.00000000000E+00 -0.11286307262E+04  0.38911429261E+04  0.37238670700E+04 0.  0.
        4    1    3    3  502    0 -0.17324695869E+04 -0.53219904211E+03 -0.11840481300E+03  0.18162345670E+04  0.12699999809E+01 0. -1.
       -4    1    3    3    0  502  0.17324695869E+04  0.53219904211E+03 -0.10102259132E+04  0.20749083590E+04  0.12699999809E+01 0.  1.
</event>
<event>
 5   0  0.2203998E-07  0.3870036E+04  0.7818609E-02  0.8031290E-01
       -2   -1    0    0    0  501  0.00000000000E+00  0.00000000000E+00  0.17065161841E+04  0.17065161841E+04  0.25500000920E-02 0.  1.
        2   -1    0    0  501    0  0.00000000000E+00  0.00000000000E+00 -0.21941156484E+04  0.21941156484E+04  0.25500000920E-02 0. -1.
    10030    2    1    2    0    0  0.00000000000E+00  0.00000000000E+00 -0.48759946426E+03  0.39006318325E+04  0.38700355884E+04 0.  0.
        3    1    3    3  502    0  0.76724553509E+03 -0.17673019167E+04 -0.42486429733E+03  0.19729499378E+04  0.10100000352E+00 0.  1.
       -3    1    3    3    0  502 -0.76724553509E+03  0.17673019167E+04 -0.62735166929E+02  0.19276818947E+04  0.10100000352E+00 0. -1.
</event>
<event>
 5   0  0.6725199E-08  0.3818284E+04  0.7818609E-02  0.8042243E-01
        1   -1    0    0  501    0  0.00000000000E+00  0.00000000000E+00  0.23729147476E+04  0.23729147476E+04  0.50400001928E-02 0.  1.
       -1   -1    0    0    0  501  0.00000000000E+00  0.00000000000E+00 -0.15360107261E+04  0.15360107262E+04  0.50400001928E-02 0. -1.
    10030    2    1    2    0    0  0.00000000000E+00  0.00000000000E+00  0.83690402142E+03  0.39089254737E+04  0.38182836482E+04 0.  0.
        5    1    3    3  502    0 -0.12723826883E+04  0.85552073805E+03  0.15829643275E+04  0.22037857407E+04  0.46999998093E+01 0.  1.
       -5    1    3    3    0  502  0.12723826883E+04 -0.85552073805E+03 -0.74606030611E+03  0.17051397330E+04  0.46999998093E+01 0. -1.
</event>
<event>
 5   0  0.2205204E-07  0.3803512E+04  0.7818609E-02  0.8045402E-01
       -2   -1    0    0    0  501  0.00000000000E+00  0.00000000000E+00  0.13899173821E+04  0.13899173821E+04  0.25500000920E-02 0.  1.
        2   -1    0    0  501    0  0.00000000000E+00  0.00000000000E+00 -0.26020796097E+04  0.26020796097E+04  0.25500000920E-02 0. -1.
    10030    2    1    2    0    0  0.00000000000E+00  0.00000000000E+00 -0.12121622276E+04  0.39919969917E+04  0.38035118925E+04 0.  0.
        2    1    3    3  502    0 -0.96482290334E+03  0.13345010385E+04  0.39232120809E+03  0.16928355463E+04  0.25500000920E-02 0.  1.
       -2    1    3    3    0  502  0.96482290334E+03 -0.13345010385E+04 -0.16044834357E+04  0.22991614454E+04  0.25500000920E-02 0. -1.
</event>
<event>
 5   0  0.6725199E-08  0.3803554E+04  0.7818609E-02  0.8045393E-01
       -1   -1    0    0    0  501  0.00000000000E+00  0.00000000000E+00  0.16297445917E+04  0.16297445917E+04  0.50400001928E-02 0. -1.
        1   -1    0    0  501    0  0.00000000000E+00  0.00000000000E+00 -0.22192159747E+04  0.22192159747E+04  0.50400001928E-02 0.  1.
    10030    2    1    2    0    0  0.00000000000E+00  0.00000000000E+00 -0.58947138302E+03  0.38489605663E+04  0.38035537238E+04 0.  0.
        5    1    3    3  502    0  0.39363564640E+03  0.47663497266E+03  0.15252350839E+04  0.16457503062E+04  0.46999998093E+01 0. -1.
       -5    1    3    3    0  502 -0.39363564640E+03 -0.47663497266E+03 -0.21147064669E+04  0.22032102601E+04  0.46999998093E+01 0.  1.
</event>
<event>
 5   0  0.2205204E-07  0.3660845E+04  0.7818609E-02  0.8076695E-01
        2   -1    0    0  501    0  0.00000000000E+00  0.00000000000E+00  0.22260422712E+04  0.22260422712E+04  0.25500000920E-02 0.  1.
       -2   -1    0    0    0  501  0.00000000000E+00  0.00000000000E+00 -0.15051136820E+04  0.15051136820E+04  0.25500000920E-02 0. -1.
    10030    2    1    2    0    0  0.00000000000E+00  0.00000000000E+00  0.72092858921E+03  0.37311559533E+04  0.36608450824E+04 0.  0.
        2    1    3    3  502    0 -0.76987362876E+02 -0.16610980343E+04 -0.41926037571E+03  0.17149206968E+04  0.25500000920E-02 0. -1.
       -2    1    3    3    0  502  0.76987362876E+02  0.16610980343E+04  0.11401889649E+04  0.20162352565E+04  0.25500000920E-02 0.  1.
</event>
<event>
 5   0  0.6661000E-08  0.3821559E+04  0.7818609E-02  0.8041544E-01
        1   -1    0    0  501    0  0.00000000000E+00  0.00000000000E+00  0.12596020789E+04  0.12596020789E+04  0.50400001928E-02 0. -1.
       -1   -1    0    0    0  501  0.00000000000E+00  0.00000000000E+00 -0.28985963104E+04  0.28985963104E+04  0.50400001928E-02 0.  1.
    10030    2    1    2    0    0  0.00000000000E+00  0.00000000000E+00 -0.16389942315E+04  0.41581983893E+04  0.38215588120E+04 0.  0.
        3    1    3    3  502    0 -0.17338783421E+04 -0.42028731806E+03 -0.15639463526E+04  0.23725310829E+04  0.10100000352E+00 0.  1.
       -3    1    3    3    0  502  0.17338783421E+04  0.42028731806E+03 -0.75047878847E+02  0.17856673064E+04  0.10100000352E+00 0. -1.
</event>
<event>
 5   0  0.2203998E-07  0.3677929E+04  0.7818609E-02  0.8072871E-01
        2   -1    0    0  501    0  0.00000000000E+00  0.00000000000E+00  0.17482253334E+04  0.17482253334E+04  0.25500000920E-02 0. -1.
       -2   -1    0    0    0  501  0.00000000000E+00  0.00000000000E+00 -0.19344137055E+04  0.19344137055E+04  0.25500000920E-02 0.  1.
    10030    2    1    2    0    0  0.00000000000E+00  0.00000000000E+00 -0.18618837211E+03  0.36826390389E+04  0.36779293334E+04 0.  0.
        3    1    3    3  502    0 -0.87639827726E+02  0.89574520943E+02  0.17439450032E+04  0.17484417401E+04  0.10100000352E+00 0. -1.
       -3    1    3    3    0  502  0.87639827726E+02 -0.89574520943E+02 -0.19301333753E+04  0.19341972988E+04  0.10100000352E+00 0.  1.
</event>
<event>
 5   0  0.6661000E-08  0.3929771E+04  0.7818609E-02  0.8018866E-01
        1   -1    0    0  501    0  0.00000000000E+00  0.00000000000E+00  0.22414100852E+04  0.22414100852E+04  0.50400001928E-02 0. -1.
       -1   -1    0    0    0  501  0.00000000000E+00  0.00000000000E+00 -0.17224763245E+04  0.17224763246E+04  0.50400001928E-02 0.  1.
    10030    2    1    2    0    0  0.00000000000E+00  0.00000000000E+00  0.51893376063E+03  0.39638864097E+04  0.39297713956E+04 0.  0.
        2    1    3    3  502    0  0.19323045734E+04  0.11246763583E+03  0.60052325752E+03  0.20265927357E+04  0.25500000920E-02 0. -1.
       -2    1    3    3    0  502 -0.19323045734E+04 -0.11246763583E+03 -0.81589496892E+02  0.19372936741E+04  0.25500000920E-02 0.  1.
</event>
<event>
 5   0  0.6661000E-08  0.3781132E+04  0.7818609E-02  0.8050216E-01
       -1   -1    0    0    0  501  0.00000000000E+00  0.00000000000E+00  0.15723866574E+04  0.15723866574E+04  0.50400001928E-02 0. -1.
        1   -1    0    0  501    0  0.00000000000E+00  0.00000000000E+00 -0.22731304828E+04  0.22731304828E+04  0.50400001928E-02 0.  1.
    10030    2    1    2    0    0  0.00000000000E+00  0.00000000000E+00 -0.70074382537E+03  0.38455171402E+04  0.37811321277E+04 0.  0.
        1    1    3    3  502    0 -0.63389025492E+03 -0.63293928874E+03  0.13428532281E+04  0.16142130562E+04  0.50400001928E-02 0. -1.
       -1    1    3    3    0  502  0.63389025492E+03  0.63293928874E+03 -0.20435970535E+04  0.22313040840E+04  0.50400001928E-02 0.  1.
</event>
<event>
 5   0  0.2205204E-07  0.3815806E+04  0.7818609E-02  0.8042771E-01
        2   -1    0    0  501    0  0.00000000000E+00  0.00000000000E+00  0.27916561933E+04  0.27916561933E+04  0.25500000920E-02 0.  1.
       -2   -1    0    0    0  501  0.00000000000E+00  0.00000000000E+00 -0.13039190409E+04  0.13039190409E+04  0.25500000920E-02 0. -1.
    10030    2    1    2    0    0  0.00000000000E+00  0.00000000000E+00  0.14877371524E+04  0.40955752342E+04  0.38158058998E+04 0.  0.
        2    1    3    3  502    0  0.67765778657E+01  0.14129768030E+04  0.21198714473E+04  0.25476271942E+04  0.25500000920E-02 0.  1.
       -2    1    3    3    0  502 -0.67765778657E+01 -0.14129768030E+04 -0.63213429489E+03  0.15479480400E+04  0.25500000920E-02 0. -1.
</event>
<event>
 5   0  0.6661000E-08  0.3786378E+04  0.7818609E-02  0.8049084E-01
       -1   -1    0    0    0  501  0.00000000000E+00  0.00000000000E+00  0.12598392929E+04  0.12598392929E+04  0.50400001928E-02 0. -1.
        1   -1    0    0  501    0  0.00000000000E+00  0.00000000000E+00 -0.28449377643E+04  0.28449377643E+04  0.50400001928E-02 0.  1.
    10030    2    1    2    0    0  0.00000000000E+00  0.00000000000E+00 -0.15850984714E+04  0.41047770572E+04  0.37863778900E+04 0.  0.
        3    1    3    3  502    0  0.95909852189E+03 -0.11570181697E+03  0.97252471087E+03  0.13707885353E+04  0.10100000352E+00 0. -1.
       -3    1    3    3    0  502 -0.95909852189E+03  0.11570181697E+03 -0.25576231823E+04  0.27339885219E+04  0.10100000352E+00 0.  1.
</event>
<event>
 5   0  0.2135314E-07  0.3773795E+04  0.7818609E-02  0.8051802E-01
        2   -1    0    0  501    0  0.00000000000E+00  0.00000000000E+00  0.15404605334E+04  0.15404605334E+04  0.25500000920E-02 0. -1.
       -2   -1    0    0    0  501  0.00000000000E+00  0.00000000000E+00 -0.23112448865E+04  0.23112448865E+04  0.25500000920E-02 0.  1.
    10030    2    1    2    0    0  0.00000000000E+00  0.00000000000E+00 -0.77078435313E+03  0.38517054200E+04  0.37737946583E+04 0.  0.
        4    1    3    3  502    0 -0.32507671204E+03 -0.12016593831E+04 -0.18326655562E+04  0.22154739437E+04  0.12699999809E+01 0.  1.
       -4    1    3    3    0  502  0.32507671204E+03  0.12016593831E+04  0.10618812030E+04  0.16362314763E+04  0.12699999809E+01 0. -1.
</event>
<event>
 5   0  0.2203998E-07  0.3788308E+04  0.7818609E-02  0.8048669E-01
        2   -1    0    0  501    0  0.00000000000E+00  0.00000000000E+00  0.17840716952E+04  0.17840716952E+04  0.25500000920E-02 0.  1.
       -2   -1    0    0    0  501  0.00000000000E+00  0.00000000000E+00 -0.20110290285E+04  0.20110290285E+04  0.25500000920E-02 0. -1.
    10030    2    1    2    0    0  0.00000000000E+00  0.00000000000E+00 -0.22695733336E+03  0.37951007237E+04  0.37883083127E+04 0.  0.
        3    1    3    3  502    0 -0.51227132074E+03  0.12246867665E+04  0.12400694882E+04  0.18166045050E+04  0.10100000352E+00 0.  1.
       -3    1    3    3    0  502  0.51227132074E+03 -0.12246867665E+04 -0.14670268215E+04  0.19784962187E+04  0.10100000352E+00 0. -1.
</event>
<event>
 5   0  0.1370688E-07  0.3786632E+04  0.7818609E-02  0.8049030E-01
        2   -1    0    0  501    0  0.00000000000E+00  0.00000000000E+00  0.22885769222E+04  0.22885769222E+04  0.25500000920E-02 0. -1.
       -2   -1    0    0    0  501  0.00000000000E+00  0.00000000000E+00 -0.15663210742E+04  0.15663210742E+04  0.25500000920E-02 0.  1.
    10030    2    1    2    0    0  0.00000000000E+00  0.00000000000E+00  0.72225584795E+03  0.38548979964E+04  0.37866324158E+04 0.  0.
        5    1    3    3  502    0  0.20772060477E+03  0.29868362191E+03 -0.15303956941E+04  0.15730520736E+04  0.46999998093E+01 0.  1.
       -5    1    3    3    0  502 -0.20772060477E+03 -0.29868362191E+03  0.22526515420E+04  0.22818459228E+04  0.46999998093E+01 0. -1.
</event>
<event>
 5   0  0.6661000E-08  0.3792603E+04  0.7818609E-02  0.8047744E-01
       -1   -1    0    0    0  501  0.00000000000E+00  0.00000000000E+00  0.18903396990E+04  0.18903396990E+04  0.50400001928E-02 0.  1.
        1   -1    0    0  501    0  0.00000000000E+00  0.00000000000E+00 -0.19022823390E+04  0.19022823390E+04  0.50400001928E-02 0. -1.
    10030    2    1    2    0    0  0.00000000000E+00  0.00000000000E+00 -0.11942640010E+02  0.37926220380E+04  0.37926032348E+04 0.  0.
        4    1    3    3  502    0  0.90222413853E+02  0.31010498274E+03  0.18626344836E+04  0.18904269403E+04  0.12699999809E+01 0.  1.
       -4    1    3    3    0  502 -0.90222413853E+02 -0.31010498274E+03 -0.18745771236E+04  0.19021950977E+04  0.12699999809E+01 0. -1.
</event>
<event>
 5   0  0.6661000E-08  0.3771508E+04  0.7818609E-02  0.8052297E-01
       -1   -1    0    0    0  501  0.00000000000E+00  0.00000000000E+00  0.21946774763E+04  0.21946774763E+04  0.50400001928E-02 0.  1.
        1   -1    0    0  501    0  0.00000000000E+00  0.00000000000E+00 -0.16203150804E+04  0.16203150804E+04  0.50400001928E-02 0. -1.
    10030    2    1    2    0    0  0.00000000000E+00  0.00000000000E+00  0.57436239593E+03  0.38149925568E+04  0.37715084577E+04 0.  0.
        1    1    3    3  502    0  0.12046660620E+04 -0.27532544756E+03  0.17280498884E+04  0.21244248257E+04  0.50400001928E-02 0.  1.
       -1    1    3    3    0  502 -0.12046660620E+04  0.27532544756E+03 -0.11536874925E+04  0.16905677311E+04  0.50400001928E-02 0. -1.
</event>
<event>
 5   0  0.6725199E-08  0.3816670E+04  0.7818609E-02  0.8042587E-01
        1   -1    0    0  501    0  0.00000000000E+00  0.00000000000E+00  0.17911322065E+04  0.17911322065E+04  0.50400001928E-02 0. -1.
       -1   -1    0    0    0  501  0.00000000000E+00  0.00000000000E+00 -0.20332073217E+04  0.20332073217E+04  0.50400001928E-02 0.  1.
    10030    2    1    2    0    0  0.00000000000E+00  0.00000000000E+00 -0.24207511526E+03  0.38243395282E+04  0.38166703375E+04 0.  0.
        5    1    3    3  502    0  0.13147381691E+04 -0.24948462422E+02  0.12646954785E+04  0.18244548837E+04  0.46999998093E+01 0. -1.
       -5    1    3    3    0  502 -0.13147381691E+04  0.24948462422E+02 -0.15067705938E+04  0.19998846445E+04  0.46999998093E+01 0.  1.
</event>
<event>
 5   0  0.2135314E-07  0.3849965E+04  0.7818609E-02  0.8035517E-01
        2   -1    0    0  501    0  0.00000000000E+00  0.00000000000E+00  0.24714901850E+04  0.24714901850E+04  0.25500000920E-02 0. -1.
       -2   -1    0    0    0  501  0.00000000000E+00  0.00000000000E+00 -0.14993209349E+04  0.14993209349E+04  0.25500000920E-02 0.  1.
    10030    2    1    2    0    0  0.00000000000E+00  0.00000000000E+00  0.97216925005E+03  0.39708111199E+04  0.38499646621E+04 0.  0.
        4    1    3    3  502    0  0.11860935684E+04 -0.14436165215E+04  0.96399598689E+03  0.21024120647E+04  0.12699999809E+01 0.  1.
       -4    1    3    3    0  502 -0.11860935684E+04  0.14436165215E+04  0.81732631623E+01  0.18683990552E+04  0.12699999809E+01 0. -1.
</event>
<event>
 5   0  0.2081337E-07  0.3726736E+04  0.7818609E-02  0.8062063E-01
       -2   -1    0    0    0  501  0.00000000000E+00  0.00000000000E+00  0.11833946549E+04  0.11833946549E+04  0.25500000920E-02 0. -1.
        2   -1    0    0  501    0  0.00000000000E+00  0.00000000000E+00 -0.29340508049E+04  0.29340508049E+04  0.25500000920E-02 0.  1.
    10030    2    1    2    0    0  0.00000000000E+00  0.00000000000E+00 -0.17506561500E+04  0.41174454598E+04  0.37267358584E+04 0.  0.
        1    1    3    3  502    0  0.12495527556E+04  0.13591939886E+04 -0.59724704761E+03  0.19404881921E+04  0.50400001928E-02 0.  1.
       -1    1    3    3    0  502 -0.12495527556E+04 -0.13591939886E+04 -0.11534091024E+04  0.21769572677E+04  0.50400001928E-02 0. -1.
</event>
<event>
 5   0  0.1370688E-07  0.3765653E+04  0.7818609E-02  0.8053566E-01
        2   -1    0    0  501    0  0.00000000000E+00  0.00000000000E+00  0.18191769181E+04  0.18191769181E+04  0.25500000920E-02 0. -1.
       -2   -1    0    0    0  501  0.00000000000E+00  0.00000000000E+00 -0.19487029873E+04  0.19487029873E+04  0.25500000920E-02 0.  1.
    10030    2    1    2    0    0  0.00000000000E+00  0.00000000000E+00 -0.12952606915E+03  0.37678799054E+04  0.37656529286E+04 0.  0.
        5    1    3    3  502    0  0.55200314882E+03  0.12634032015E+04  0.12182270241E+04  0.18398353997E+04  0.46999998093E+01 0. -1.
       -5    1    3    3    0  502 -0.55200314882E+03 -0.12634032015E+04 -0.13477530932E+04  0.19280445057E+04  0.46999998093E+01 0.  1.
</event>
<event>
 5   0  0.2135314E-07  0.3812200E+04  0.7818609E-02  0.8043542E-01
        2   -1    0    0  501    0  0.00000000000E+00  0.00000000000E+00  0.12107536893E+04  0.12107536893E+04  0.25500000920E-02 0.  1.
       -2   -1    0    0    0  501  0.00000000000E+00  0.00000000000E+00 -0.30007892556E+04  0.30007892556E+04  0.25500000920E-02 0. -1.
    10030    2    1    2    0    0  0.00000000000E+00  0.00000000000E+00 -0.17900355663E+04  0.42115429449E+04  0.38121997125E+04 0.  0.
        4    1    3    3  502    0  0.36328209459E+03 -0.57007325942E+03 -0.28639168409E+04  0.29426142604E+04  0.12699999809E+01 0. -1.
       -4    1    3    3    0  502 -0.36328209459E+03  0.57007325942E+03  0.10738812746E+04  0.12689286845E+04  0.12699999809E+01 0.  1.
</event>
<event>
 5   0  0.2205204E-07  0.3775687E+04  0.7818609E-02  0.8051393E-01
       -2   -1    0    0    0  501  0.00000000000E+00  0.00000000000E+00  0.24132104797E+04  0.24132104797E+04  0.25500000920E-02 0. -1.
        2   -1    0    0  501    0  0.00000000000E+00  0.00000000000E+00 -0.14768510953E+04  0.14768510953E+04  0.25500000920E-02 0.  1.
    10030    2    1    2    0    0  0.00000000000E+00  0.00000000000E+00  0.93635938448E+03  0.38900615750E+04  0.37756867137E+04 0.  0.
        2    1    3    3  502    0  0.11038470217E+04 -0.15271134795E+04  0.34892044219E+03  0.19163244249E+04  0.25500000920E-02 0. -1.
       -2    1    3    3    0  502 -0.11038470217E+04  0.15271134795E+04  0.58743894229E+03  0.19737371501E+04  0.25500000920E-02 0.  1.
</event>
<event>
 5   0  0.1370688E-07  0.3768510E+04  0.7818609E-02  0.8052946E-01
       -2   -1    0    0    0  501  0.00000000000E+00  0.00000000000E+00  0.19251432153E+04  0.19251432153E+04  0.25500000920E-02 0.  1.
        2   -1    0    0  501    0  0.00000000000E+00  0.00000000000E+00 -0.18442355498E+04  0.18442355498E+04  0.25500000920E-02 0. -1.
    10030    2    1    2    0    0  0.00000000000E+00  0.00000000000E+00  0.80907665541E+02  0.37693787651E+04  0.37685103456E+04 0.  0.
        5    1    3    3  502    0 -0.93127867774E+02  0.11698855606E+03  0.19191934476E+04  0.19250155068E+04  0.46999998093E+01 0.  1.
       -5    1    3    3    0  502  0.93127867774E+02 -0.11698855606E+03 -0.18382857821E+04  0.18443632583E+04  0.46999998093E+01 0. -1.
</event>
<event>
 5   0  0.1370688E-07  0.3848715E+04  0.7818609E-02  0.8035781E-01
       -2   -1    0    0    0  501  0.00000000000E+00  0.00000000000E+00  0.16383634960E+04  0.16383634960E+04  0.25500000920E-02 0.  1.
        2   -1    0    0  501    0  0.00000000000E+00  0.00000000000E+00 -0.22602752600E+04  0.22602752600E+04  0.25500000920E-02 0. -1.
    10030    2    1    2    0    0  0.00000000000E+00  0.00000000000E+00 -0.62191176405E+03  0.38986387560E+04  0.38487153580E+04 0.  0.
        5    1    3    3  502    0  0.36289402801E+03  0.92171121988E+03 -0.19821705075E+04  0.22159119250E+04  0.46999998093E+01 0. -1.
       -5    1    3    3    0  502 -0.36289402801E+03 -0.92171121988E+03  0.13602587435E+04  0.16827268310E+04  0.46999998093E+01 0.  1.
</event>
<event>
 5   0  0.1370688E-07  0.3775212E+04  0.7818609E-02  0.8051495E-01
        2   -1    0    0  501    0  0.00000000000E+00  0.00000000000E+00  0.24357921189E+04  0.24357921189E+04  0.25500000920E-02 0. -1.
       -2   -1    0    0    0  501  0.00000000000E+00  0.00000000000E+00 -0.14627918321E+04  0.14627918321E+04  0.25500000920E-02 0.  1.
    10030    2    1    2    0    0  0.00000000000E+00  0.00000000000E+00  0.97300028680E+03  0.38985839509E+04  0.37752122145E+04 0.  0.
        5    1    3    3  502    0 -0.55035804555E+03  0.14732462467E+04  0.15644939247E+04  0.22183353696E+04  0.46999998093E+01 0. -1.
       -5    1    3    3    0  502  0.55035804555E+03 -0.14732462467E+04 -0.59149363785E+03  0.16802485814E+04  0.46999998093E+01 0.  1.
</event>
<event>
 5   0  0.1370688E-07  0.3765649E+04  0.7818609E-02  0.8053567E-01
       -2   -1    0    0    0  501  0.00000000000E+00  0.00000000000E+00  0.18775076506E+04  0.18775076506E+04  0.25500000920E-02 0.  1.
        2   -1    0    0  501    0  0.00000000000E+00  0.00000000000E+00 -0.18881569012E+04  0.18881569012E+04  0.25500000920E-02 0. -1.
    10030    2    1    2    0    0  0.00000000000E+00  0.00000000000E+00 -0.10649250586E+02  0.37656645518E+04  0.37656494938E+04 0.  0.
        5    1    3    3  502    0 -0.38193482121E+03  0.10543267249E+04  0.15071389881E+04  0.18785550484E+04  0.46999998093E+01 0.  1.
       -5    1    3    3    0  502  0.38193482121E+03 -0.10543267249E+04 -0.15177882387E+04  0.18871095034E+04  0.46999998093E+01 0. -1.
</event>
<event>
 5   0  0.1370688E-07  0.3790770E+04  0.7818609E-02  0.8048139E-01
        2   -1    0    0  501    0  0.00000000000E+00  0.00000000000E+00  0.26696915571E+04  0.26696915571E+04  0.25500000920E-02 0. -1.
       -2   -1    0    0    0  501  0.00000000000E+00  0.00000000000E+00 -0.13456551630E+04  0.13456551630E+04  0.25500000920E-02 0.  1.
    10030    2    1    2    0    0  0.00000000000E+00  0.00000000000E+00  0.13240363940E+04  0.40153467201E+04  0.37907699627E+04 0.  0.
        5    1    3    3  502    0 -0.45885019045E+03 -0.18252847424E+04  0.89947357828E+03  0.20859728417E+04  0.46999998093E+01 0. -1.
       -5    1    3    3    0  502  0.45885019045E+03  0.18252847424E+04  0.42456281575E+03  0.19293738784E+04  0.46999998093E+01 0.  1.
</event>
<event>
 5   0  0.6661000E-08  0.3758014E+04  0.7818609E-02  0.8055226E-01
       -1   -1    0    0    0  501  0.00000000000E+00  0.00000000000E+00  0.30786402211E+04  0.30786402211E+04  0.50400001928E-02 0.  1.
        1   -1    0    0  501    0  0.00000000000E+00  0.00000000000E+00 -0.11468266935E+04  0.11468266935E+04  0.50400001928E-02 0. -1.
    10030    2    1    2    0    0  0.00000000000E+00  0.00000000000E+00  0.19318135276E+04  0.42254669147E+04  0.37580137229E+04 0.  0.
        3    1    3    3  502    0 -0.14732726245E+03  0.18732221981E+04  0.96565705358E+03  0.21126192939E+04  0.10100000352E+00 0.  1.
       -3    1    3    3    0  502  0.14732726245E+03 -0.18732221981E+04  0.96615647404E+03  0.21128476207E+04  0.10100000352E+00 0. -1.
</event>
<event>
 5   0  0.2203998E-07  0.3798999E+04  0.7818609E-02  0.8046370E-01
        2   -1    0    0  501    0  0.00000000000E+00  0.00000000000E+00  0.24339236731E+04  0.24339236731E+04  0.25500000920E-02 0.  1.
       -2   -1    0    0    0  501  0.00000000000E+00  0.00000000000E+00 -0.14824205493E+04  0.14824205493E+04  0.25500000920E-02 0. -1.
    10030    2    1    2    0    0  0.00000000000E+00  0.00000000000E+00  0.95150312379E+03  0.39163442223E+04  0.37989990620E+04 0.  0.
        3    1    3    3  502    0 -0.15534048421E+04 -0.52240356180E+02  0.16014056480E+04  0.22316576166E+04  0.10100000352E+00 0.  1.
       -3    1    3    3    0  502  0.15534048421E+04  0.52240356180E+02 -0.64990252416E+03  0.16846866057E+04  0.10100000352E+00 0. -1.
</event>
<event>
 5   0  0.6661000E-08  0.3794276E+04  0.7818609E-02  0.8047384E-01
       -1   -1    0    0    0  501  0.00000000000E+00  0.00000000000E+00  0.17837613874E+04  0.17837613874E+04  0.50400001928E-02 0.  1.
        1   -1    0    0  501    0  0.00000000000E+00  0.00000000000E+00 -0.20177208673E+04  0.20177208673E+04  0.50400001928E-02 0. -1.
    10030    2    1    2    0    0  0.00000000000E+00  0.00000000000E+00 -0.23395947990E+03  0.38014822546E+04  0.37942759907E+04 0.  0.
        1    1    3    3  502    0 -0.13432859553E+04  0.11980725343E+04  0.48360651986E+03  0.18637784797E+04  0.50400001928E-02 0.  1.
       -1    1    3    3    0  502  0.13432859553E+04 -0.11980725343E+04 -0.71756599975E+03  0.19377037749E+04  0.50400001928E-02 0. -1.
</event>
<event>
 5   0  0.6661000E-08  0.3826872E+04  0.7818609E-02  0.8040413E-01
       -4   -1    0    0    0  501  0.00000000000E+00  0.00000000000E+00  0.18770297558E+04  0.18770301854E+04  0.12699999809E+01 0. -1.
        4   -1    0    0  501    0  0.00000000000E+00  0.00000000000E+00 -0.19505478774E+04  0.19505482909E+04  0.12699999809E+01 0.  1.
    10030    2    1    2    0    0  0.00000000000E+00  0.00000000000E+00 -0.73518121618E+02  0.38275784763E+04  0.38268723624E+04 0.  0.
        4    1    3    3  502    0 -0.11985985130E+03 -0.17604215457E+04 -0.77702129255E+03  0.19280078072E+04  0.12699999809E+01 0.  1.
       -4    1    3    3    0  502  0.11985985130E+03  0.17604215457E+04  0.70350317093E+03  0.18995706691E+04  0.12699999809E+01 0. -1.
</event>
<event>
 5   0  0.6725199E-08  0.3775760E+04  0.7818609E-02  0.8051377E-01
        1   -1    0    0  501    0  0.00000000000E+00  0.00000000000E+00  0.22432992449E+04  0.22432992449E+04  0.50400001928E-02 0.  1.
       -1   -1    0    0    0  501  0.00000000000E+00  0.00000000000E+00 -0.15887719781E+04  0.15887719781E+04  0.50400001928E-02 0. -1.
    10030    2    1    2    0    0  0.00000000000E+00  0.00000000000E+00  0.65452726685E+03  0.38320712230E+04  0.37757600447E+04 0.  0.
        5    1    3    3  502    0  0.11841172446E+02 -0.49716386534E+03  0.21756212343E+04  0.22317396729E+04  0.46999998093E+01 0.  1.
       -5    1    3    3    0  502 -0.11841172446E+02  0.49716386534E+03 -0.15210939675E+04  0.16003315501E+04  0.46999998093E+01 0. -1.
</event>
<event>
 5   0  0.2205204E-07  0.3862257E+04  0.7818609E-02  0.8032925E-01
        2   -1    0    0  501    0  0.00000000000E+00  0.00000000000E+00  0.16362048684E+04  0.16362048684E+04  0.25500000920E-02 0. -1.
       -2   -1    0    0    0  501  0.00000000000E+00  0.00000000000E+00 -0.22792119720E+04  0.22792119720E+04  0.25500000920E-02 0.  1.
    10030    2    1    2    0    0  0.00000000000E+00  0.00000000000E+00 -0.64300710369E+03  0.39154168404E+04  0.38622572284E+04 0.  0.
        2    1    3    3  502    0 -0.36422578801E+02  0.16444921684E+03  0.16287440654E+04  0.16374301145E+04  0.25500000920E-02 0. -1.
       -2    1    3    3    0  502  0.36422578801E+02 -0.16444921684E+03 -0.22717511691E+04  0.22779867259E+04  0.25500000920E-02 0.  1.
</event>
<event>
 5   0  0.2135314E-07  0.3743029E+04  0.7818609E-02  0.8058492E-01
       -2   -1    0    0    0  501  0.00000000000E+00  0.00000000000E+00  0.17526176053E+04  0.17526176053E+04  0.25500000920E-02 0. -1.
        2   -1    0    0  501    0  0.00000000000E+00  0.00000000000E+00 -0.19984775808E+04  0.19984775808E+04  0.25500000920E-02 0.  1.
    10030    2    1    2    0    0  0.00000000000E+00  0.00000000000E+00 -0.24585997547E+03  0.37510951861E+04  0.37430292502E+04 0.  0.
        4    1    3    3  502    0 -0.39766869777E+03 -0.48637369510E+03  0.16437829098E+04  0.17597510142E+04  0.12699999809E+01 0. -1.
       -4    1    3    3    0  502  0.39766869777E+03  0.48637369510E+03 -0.18896428852E+04  0.19913441719E+04  0.12699999809E+01 0.  1.
</event>
<event>
 5   0  0.6661000E-08  0.3771227E+04  0.7818609E-02  0.8052358E-01
        1   -1    0    0  501    0  0.00000000000E+00  0.00000000000E+00  0.25518257121E+04  0.25518257121E+04  0.50400001928E-02 0. -1.
       -1   -1    0    0    0  501  0.00000000000E+00  0.00000000000E+00 -0.13933308379E+04  0.13933308380E+04  0.50400001928E-02 0.  1.
    10030    2    1    2    0    0  0.00000000000E+00  0.00000000000E+00  0.11584948741E+04  0.39451565500E+04  0.37712265685E+04 0.  0.
        3    1    3    3  502    0 -0.69555409607E+03 -0.12728408434E+04 -0.68115086383E+03  0.16024624247E+04  0.10100000352E+00 0.  1.
       -3    1    3    3    0  502  0.69555409607E+03  0.12728408434E+04  0.18396457380E+04  0.23426941253E+04  0.10100000352E+00 0. -1.
</event>
<event>
 5   0  0.2205204E-07  0.3806522E+04  0.7818609E-02  0.8044757E-01
       -2   -1    0    0    0  501  0.00000000000E+00  0.00000000000E+00  0.14719144763E+04  0.14719144763E+04  0.25500000920E-02 0. -1.
        2   -1    0    0  501    0  0.00000000000E+00  0.00000000000E+00 -0.24610137608E+04  0.24610137608E+04  0.25500000920E-02 0.  1.
    10030    2    1    2    0    0  0.00000000000E+00  0.00000000000E+00 -0.98909928445E+03  0.39329282371E+04  0.38065216568E+04 0.  0.
        2    1    3    3  502    0  0.26813607386E+03  0.11986464412E+04  0.10076051413E+04  0.15886844765E+04  0.25500000920E-02 0. -1.
       -2    1    3    3    0  502 -0.26813607386E+03 -0.11986464412E+04 -0.19967044258E+04  0.23442437606E+04  0.25500000920E-02 0.  1.
</event>
<event>
 5   0  0.6725199E-08  0.3779011E+04  0.7818609E-02  0.8050674E-01
       -1   -1    0    0    0  501  0.00000000000E+00  0.00000000000E+00  0.24962525665E+04  0.24962525665E+04  0.50400001928E-02 0.  1.
        1   -1    0    0  501    0  0.00000000000E+00  0.00000000000E+00 -0.14302364760E+04  0.14302364760E+04  0.50400001928E-02 0. -1.
    10030    2    1    2    0    0  0.00000000000E+00  0.00000000000E+00  0.10660160905E+04  0.39264890424E+04  0.37790112325E+04 0.  0.
        5    1    3    3  502    0 -0.61966193243E+03 -0.47085381146E+03  0.23219810097E+04  0.24489389788E+04  0.46999998093E+01 0.  1.
       -5    1    3    3    0  502  0.61966193243E+03  0.47085381146E+03 -0.12559649192E+04  0.14775500637E+04  0.46999998093E+01 0. -1.
</event>
<event>
 5   0  0.6661000E-08  0.3821680E+04  0.7818609E-02  0.8041518E-01
        3   -1    0    0  501    0  0.00000000000E+00  0.00000000000E+00  0.17601625058E+04  0.17601625087E+04  0.10100000352E+00 0.  1.
       -3   -1    0    0    0  501  0.00000000000E+00  0.00000000000E+00 -0.20744162636E+04  0.20744162661E+04  0.10100000352E+00 0. -1.
    10030    2    1    2    0    0  0.00000000000E+00  0.00000000000E+00 -0.31425375785E+03  0.38345787747E+04  0.38216801220E+04 0.  0.
        2    1    3    3  502    0 -0.10611240447E+04 -0.11731169547E+03 -0.17472670502E+04  0.20476055325E+04  0.25500000920E-02 0. -1.
       -2    1    3    3    0  502  0.10611240447E+04  0.11731169547E+03  0.14330132924E+04  0.17869732422E+04  0.25500000920E-02 0.  1.
</event>
<event>
 5   0  0.6661000E-08  0.3809070E+04  0.7818609E-02  0.8044211E-01
       -1   -1    0    0    0  501  0.00000000000E+00  0.00000000000E+00  0.21409413275E+04  0.21409413275E+04  0.50400001928E-02 0.  1.
        1   -1    0    0  501    0  0.00000000000E+00  0.00000000000E+00 -0.16942331876E+04  0.16942331876E+04  0.50400001928E-02 0. -1.
    10030    2    1    2    0    0  0.00000000000E+00  0.00000000000E+00  0.44670813995E+03  0.38351745151E+04  0.38090701489E+04 0.  0.
        4    1    3    3  502    0 -0.12962263554E+04  0.91559193310E+03 -0.83682979679E+03  0.17941006310E+04  0.12699999809E+01 0. -1.
       -4    1    3    3    0  502  0.12962263554E+04 -0.91559193310E+03  0.12835379367E+04  0.20410738841E+04  0.12699999809E+01 0.  1.
</event>
<event>
 5   0  0.6661000E-08  0.3805627E+04  0.7818609E-02  0.8044949E-01
       -1   -1    0    0    0  501  0.00000000000E+00  0.00000000000E+00  0.28726171511E+04  0.28726171511E+04  0.50400001928E-02 0. -1.
        1   -1    0    0  501    0  0.00000000000E+00  0.00000000000E+00 -0.12604180002E+04  0.12604180002E+04  0.50400001928E-02 0.  1.
    10030    2    1    2    0    0  0.00000000000E+00  0.00000000000E+00  0.16121991509E+04  0.41330351513E+04  0.38056265528E+04 0.  0.
        2    1    3    3  502    0  0.10146963391E+04 -0.27758158928E+03  0.25280825910E+04  0.27382223771E+04  0.25500000920E-02 0. -1.
       -2    1    3    3    0  502 -0.10146963391E+04  0.27758158928E+03 -0.91588344009E+03  0.13948127742E+04  0.25500000920E-02 0.  1.
</event>
<event>
 5   0  0.6725199E-08  0.3813823E+04  0.7818609E-02  0.8043195E-01
        1   -1    0    0  501    0  0.00000000000E+00  0.00000000000E+00  0.19408761913E+04  0.19408761913E+04  0.50400001928E-02 0.  1.
       -1   -1    0    0    0  501  0.00000000000E+00  0.00000000000E+00 -0.18735410551E+04  0.18735410551E+04  0.50400001928E-02 0. -1.
    10030    2    1    2    0    0  0.00000000000E+00  0.00000000000E+00  0.67335136243E+02  0.38144172464E+04  0.38138228733E+04 0.  0.
        5    1    3    3  502    0  0.54220583511E+03 -0.15165711355E+04 -0.98742932697E+03  0.18891834062E+04  0.46999998093E+01 0. -1.
       -5    1    3    3    0  502 -0.54220583511E+03  0.15165711355E+04  0.10547644632E+04  0.19252338402E+04  0.46999998093E+01 0.  1.
</event>
<event>
 5   0  0.6661000E-08  0.3848284E+04  0.7818609E-02  0.8035872E-01
        1   -1    0    0  501    0  0.00000000000E+00  0.00000000000E+00  0.18218629988E+04  0.18218629988E+04  0.50400001928E-02 0. -1.
       -1   -1    0    0    0  501  0.00000000000E+00  0.00000000000E+00 -0.20321629576E+04  0.20321629576E+04  0.50400001928E-02 0.  1.
    10030    2    1    2    0    0  0.00000000000E+00  0.00000000000E+00 -0.21029995882E+03  0.38540259565E+04  0.38482840332E+04 0.  0.
        1    1    3    3  502    0 -0.72668153979E+03  0.11008129732E+04  0.12978211173E+04  0.18504580284E+04  0.50400001928E-02 0. -1.
       -1    1    3    3    0  502  0.72668153979E+03 -0.11008129732E+04 -0.15081210761E+04  0.20035679281E+04  0.50400001928E-02 0.  1.
</event>
<event>
 5   0  0.2203998E-07  0.3825887E+04  0.7818609E-02  0.8040622E-01
       -2   -1    0    0    0  501  0.00000000000E+00  0.00000000000E+00  0.20514248495E+04  0.20514248495E+04  0.25500000920E-02 0.  1.
        2   -1    0    0  501    0  0.00000000000E+00  0.00000000000E+00 -0.17838100411E+04  0.17838100411E+04  0.25500000920E-02 0. -1.
    10030    2    1    2    0    0  0.00000000000E+00  0.00000000000E+00  0.26761480847E+03  0.38352348906E+04  0.38258866920E+04 0.  0.
        3    1    3    3  502    0  0.45178674415E+03 -0.27508521082E+02 -0.17293582622E+04  0.17876095743E+04  0.10100000352E+00 0. -1.
       -3    1    3    3    0  502 -0.45178674415E+03  0.27508521082E+02  0.19969730706E+04  0.20476253163E+04  0.10100000352E+00 0.  1.
</event>
<event>
 5   0  0.2203998E-07  0.3833567E+04  0.7818609E-02  0.8038990E-01
       -2   -1    0    0    0  501  0.00000000000E+00  0.00000000000E+00  0.24902195767E+04  0.24902195767E+04  0.25500000920E-02 0.  1.
        2   -1    0    0  501    0  0.00000000000E+00  0.00000000000E+00 -0.14753958553E+04  0.14753958553E+04  0.25500000920E-02 0. -1.
    10030    2    1    2    0    0  0.00000000000E+00  0.00000000000E+00  0.10148237214E+04  0.39656154320E+04  0.38335673425E+04 0.  0.
        3    1    3    3  502    0 -0.17018706159E+04  0.55359585450E+02  0.14178596281E+04  0.22157965187E+04  0.10100000352E+00 0.  1.
       -3    1    3    3    0  502  0.17018706159E+04 -0.55359585450E+02 -0.40303590667E+03  0.17498189133E+04  0.10100000352E+00 0. -1.
</event>
<event>
 5   0  0.6725199E-08  0.3800649E+04  0.7818609E-02  0.8046016E-01
       -1   -1    0    0    0  501  0.00000000000E+00  0.00000000000E+00  0.23587511068E+04  0.23587511068E+04  0.50400001928E-02 0.  1.
        1   -1    0    0  501    0  0.00000000000E+00  0.00000000000E+00 -0.15309934594E+04  0.15309934594E+04  0.50400001928E-02 0. -1.
    10030    2    1    2    0    0  0.00000000000E+00  0.00000000000E+00  0.82775764736E+03  0.38897445662E+04  0.38006486377E+04 0.  0.
        5    1    3    3  502    0 -0.13042593571E+04 -0.70363235103E+03 -0.80355277255E+03  0.16857965785E+04  0.46999998093E+01 0.  1.
       -5    1    3    3    0  502  0.13042593571E+04  0.70363235103E+03  0.16313104199E+04  0.22039479876E+04  0.46999998093E+01 0. -1.
</event>
<event>
 5   0  0.6661000E-08  0.3802055E+04  0.7818609E-02  0.8045714E-01
        1   -1    0    0  501    0  0.00000000000E+00  0.00000000000E+00  0.20573541210E+04  0.20573541210E+04  0.50400001928E-02 0.  1.
       -1   -1    0    0    0  501  0.00000000000E+00  0.00000000000E+00 -0.17565789407E+04  0.17565789407E+04  0.50400001928E-02 0. -1.
    10030    2    1    2    0    0  0.00000000000E+00  0.00000000000E+00  0.30077518030E+03  0.38139330616E+04  0.38020546668E+04 0.  0.
        1    1    3    3  502    0  0.38303601110E+03  0.10864173138E+04  0.16673574231E+04  0.20265981205E+04  0.50400001928E-02 0.  1.
       -1    1    3    3    0  502 -0.38303601110E+03 -0.10864173138E+04 -0.13665822428E+04  0.17873349412E+04  0.50400001928E-02 0. -1.
</event>
<event>
 5   0  0.6661000E-08  0.3766549E+04  0.7818609E-02  0.8053372E-01
        1   -1    0    0  501    0  0.00000000000E+00  0.00000000000E+00  0.19498284386E+04  0.19498284386E+04  0.50400001928E-02 0. -1.
       -1   -1    0    0    0  501  0.00000000000E+00  0.00000000000E+00 -0.18189919370E+04  0.18189919370E+04  0.50400001928E-02 0.  1.
    10030    2    1    2    0    0  0.00000000000E+00  0.00000000000E+00  0.13083650162E+03  0.37688203757E+04  0.37665486634E+04 0.  0.
        3    1    3    3  502    0 -0.93825726829E+03  0.15577777371E+04  0.55532974747E+03  0.19014177127E+04  0.10100000352E+00 0.  1.
       -3    1    3    3    0  502  0.93825726829E+03 -0.15577777371E+04 -0.42449324586E+03  0.18674026630E+04  0.10100000352E+00 0. -1.
</event>
<event>
 5   0  0.2205204E-07  0.3779781E+04  0.7818609E-02  0.8050508E-01
        2   -1    0    0  501    0  0.00000000000E+00  0.00000000000E+00  0.17845799783E+04  0.17845799783E+04  0.25500000920E-02 0. -1.
       -2   -1    0    0    0  501  0.00000000000E+00  0.00000000000E+00 -0.20014160353E+04  0.20014160353E+04  0.25500000920E-02 0.  1.
    10030    2    1    2    0    0  0.00000000000E+00  0.00000000000E+00 -0.21683605695E+03  0.37859960136E+04  0.37797814672E+04 0.  0.
        2    1    3    3  502    0  0.82172848327E+03 -0.16797713852E+04 -0.38239540570E+03  0.19086895643E+04  0.25500000920E-02 0. -1.
       -2    1    3    3    0  502 -0.82172848327E+03  0.16797713852E+04  0.16555934875E+03  0.18773064493E+04  0.25500000920E-02 0.  1.
</event>
<event>
 5   0  0.2205204E-07  0.3773190E+04  0.7818609E-02  0.8051933E-01
       -2   -1    0    0    0  501  0.00000000000E+00  0.00000000000E+00  0.15985917521E+04  0.15985917521E+04  0.25500000920E-02 0.  1.
        2   -1    0    0  501    0  0.00000000000E+00  0.00000000000E+00 -0.22264849294E+04  0.22264849294E+04  0.25500000920E-02 0. -1.
    10030    2    1    2    0    0  0.00000000000E+00  0.00000000000E+00 -0.62789317735E+03  0.38250766815E+04  0.37731898677E+04 0.  0.
        2    1    3    3  502    0 -0.87860250482E+03  0.12339891795E+04  0.82604780493E+03  0.17254062225E+04  0.25500000920E-02 0.  1.
       -2    1    3    3    0  502  0.87860250482E+03 -0.12339891795E+04 -0.14539409823E+04  0.20996704590E+04  0.25500000920E-02 0. -1.
</event>
<event>
 5   0  0.6661000E-08  0.3794519E+04  0.7818609E-02  0.8047332E-01
        1   -1    0    0  501    0  0.00000000000E+00  0.00000000000E+00  0.19840432390E+04  0.19840432391E+04  0.50400001928E-02 0. -1.
       -1   -1    0    0    0  501  0.00000000000E+00  0.00000000000E+00 -0.18142717092E+04  0.18142717092E+04  0.50400001928E-02 0.  1.
    10030    2    1    2    0    0  0.00000000000E+00  0.00000000000E+00  0.16977152985E+03  0.37983149483E+04  0.37945189516E+04 0.  0.
        4    1    3    3  502    0  0.70969783376E+03 -0.17137584782E+04  0.48397342078E+03  0.19169953109E+04  0.12699999809E+01 0.  1.
       -4    1    3    3    0  502 -0.70969783376E+03  0.17137584782E+04 -0.31420189093E+03  0.18813196374E+04  0.12699999809E+01 0. -1.
</event>
<event>
 5   0  0.2081337E-07  0.3808914E+04  0.7818609E-02  0.8044245E-01
        2   -1    0    0  501    0  0.00000000000E+00  0.00000000000E+00  0.25458145469E+04  0.25458145469E+04  0.25500000920E-02 0. -1.
       -2   -1    0    0    0  501  0.00000000000E+00  0.00000000000E+00 -0.14246740838E+04  0.14246740838E+04  0.25500000920E-02 0.  1.
    10030    2    1    2    0    0  0.00000000000E+00  0.00000000000E+00  0.11211404631E+04  0.39704886306E+04  0.38089137596E+04 0.  0.
        1    1    3    3  502    0 -0.16572030782E+04 -0.27658709866E+03 -0.37420437453E+03  0.17212935193E+04  0.50400001928E-02 0.  1.
       -1    1    3    3    0  502  0.16572030782E+04  0.27658709866E+03  0.14953448376E+04  0.22491951114E+04  0.50400001928E-02 0. -1.
</event>
<event>
 5   0  0.6725199E-08  0.3837309E+04  0.7818609E-02  0.8038196E-01
        1   -1    0    0  501    0  0.00000000000E+00  0.00000000000E+00  0.24766641154E+04  0.24766641154E+04  0.50400001928E-02 0.  1.
       -1   -1    0    0    0  501  0.00000000000E+00  0.00000000000E+00 -0.14863681212E+04  0.14863681212E+04  0.50400001928E-02 0. -1.
    10030    2    1    2    0    0  0.00000000000E+00  0.00000000000E+00  0.99029599424E+03  0.39630322366E+04  0.38373087382E+04 0.  0.
        5    1    3    3  502    0 -0.71897659214E+03  0.13726051563E+04 -0.67340011937E+03  0.16895153346E+04  0.46999998093E+01 0. -1.
       -5    1    3    3    0  502  0.71897659214E+03 -0.13726051563E+04  0.16636961136E+04  0.22735169020E+04  0.46999998093E+01 0.  1.
</event>
<event>
 5   0  0.1370688E-07  0.3802639E+04  0.7818609E-02  0.8045589E-01
       -2   -1    0    0    0  501  0.00000000000E+00  0.00000000000E+00  0.17267521220E+04  0.17267521220E+04  0.25500000920E-02 0.  1.
        2   -1    0    0  501    0  0.00000000000E+00  0.00000000000E+00 -0.20935351263E+04  0.20935351263E+04  0.25500000920E-02 0. -1.
    10030    2    1    2    0    0  0.00000000000E+00  0.00000000000E+00 -0.36678300437E+03  0.38202872483E+04  0.38026392003E+04 0.  0.
        5    1    3    3  502    0  0.11225558717E+04  0.58747169233E+03 -0.16076236272E+04  0.20468831162E+04  0.46999998093E+01 0. -1.
       -5    1    3    3    0  502 -0.11225558717E+04 -0.58747169233E+03  0.12408406229E+04  0.17734041321E+04  0.46999998093E+01 0.  1.
</event>
<event>
 5   0  0.1370688E-07  0.3840723E+04  0.7818609E-02  0.8037472E-01
        2   -1    0    0  501    0  0.00000000000E+00  0.00000000000E+00  0.18642389605E+04  0.18642389605E+04  0.25500000920E-02 0. -1.
       -2   -1    0    0    0  501  0.00000000000E+00  0.00000000000E+00 -0.19781732300E+04  0.19781732300E+04  0.25500000920E-02 0.  1.
    10030    2    1    2    0    0  0.00000000000E+00  0.00000000000E+00 -0.11393426949E+03  0.38424121904E+04  0.38407226434E+04 0.  0.
        5    1    3    3  502    0 -0.57156669492E+03  0.14250982180E+04  0.10968710906E+04  0.18869927655E+04  0.46999998093E+01 0. -1.
       -5    1    3    3    0  502  0.57156669492E+03 -0.14250982180E+04 -0.12108053601E+04  0.19554194250E+04  0.46999998093E+01 0.  1.
</event>
<event>
 5   0  0.2205204E-07  0.3799360E+04  0.7818609E-02  0.8046292E-01
       -2   -1    0    0    0  501  0.00000000000E+00  0.00000000000E+00  0.24691942479E+04  0.24691942479E+04  0.25500000920E-02 0.  1.
        2   -1    0    0  501    0  0.00000000000E+00  0.00000000000E+00 -0.14615231523E+04  0.14615231523E+04  0.25500000920E-02 0. -1.
    10030    2    1    2    0    0  0.00000000000E+00  0.00000000000E+00  0.10076710956E+04  0.39307174002E+04  0.37993602413E+04 0.  0.
        2    1    3    3  502    0  0.37044974607E+03 -0.14268551453E+04  0.17434410882E+04  0.22831415743E+04  0.25500000920E-02 0.  1.
       -2    1    3    3    0  502 -0.37044974607E+03  0.14268551453E+04 -0.73576999260E+03  0.16475758259E+04  0.25500000920E-02 0. -1.
</event>
<event>
 5   0  0.6725199E-08  0.3824840E+04  0.7818609E-02  0.8040845E-01
       -1   -1    0    0    0  501  0.00000000000E+00  0.00000000000E+00  0.19777406875E+04  0.19777406875E+04  0.50400001928E-02 0. -1.
        1   -1    0    0  501    0  0.00000000000E+00  0.00000000000E+00 -0.18492567187E+04  0.18492567187E+04  0.50400001928E-02 0.  1.
    10030    2    1    2    0    0  0.00000000000E+00  0.00000000000E+00  0.12848396881E+03  0.38269974062E+04  0.38248399989E+04 0.  0.
        5    1    3    3  502    0 -0.88771905506E+03  0.73978921703E+03  0.15889108491E+04  0.19646864846E+04  0.46999998093E+01 0. -1.
       -5    1    3    3    0  502  0.88771905506E+03 -0.73978921703E+03 -0.14604268803E+04  0.18623109217E+04  0.46999998093E+01 0.  1.
</event>
<event>
 5   0  0.2203998E-07  0.3798729E+04  0.7818609E-02  0.8046428E-01
       -2   -1    0    0    0  501  0.00000000000E+00  0.00000000000E+00  0.26394635588E+04  0.26394635588E+04  0.25500000920E-02 0. -1.
        2   -1    0    0  501    0  0.00000000000E+00  0.00000000000E+00 -0.13667871319E+04  0.13667871319E+04  0.25500000920E-02 0.  1.
    10030    2    1    2    0    0  0.00000000000E+00  0.00000000000E+00  0.12726764270E+04  0.40062506907E+04  0.37987286437E+04 0.  0.
        3    1    3    3  502    0 -0.15486952244E+04  0.90073916251E+02  0.17921150736E+04  0.23702840876E+04  0.10100000352E+00 0. -1.
       -3    1    3    3    0  502  0.15486952244E+04 -0.90073916251E+02 -0.51943864666E+03  0.16359666031E+04  0.10100000352E+00 0.  1.
</event>
<event>
 5   0  0.6661000E-08  0.3769569E+04  0.7818609E-02  0.8052717E-01
        1   -1    0    0  501    0  0.00000000000E+00  0.00000000000E+00  0.14687916718E+04  0.14687916719E+04  0.50400001928E-02 0. -1.
       -1   -1    0    0    0  501  0.00000000000E+00  0.00000000000E+00 -0.24185946886E+04  0.24185946886E+04  0.50400001928E-02 0.  1.
    10030    2    1    2    0    0  0.00000000000E+00  0.00000000000E+00 -0.94980301672E+03  0.38873863604E+04  0.37695685356E+04 0.  0.
        3    1    3    3  502    0 -0.46509068258E+03 -0.80098827433E+03 -0.21677059193E+04  0.23572951706E+04  0.10100000352E+00 0.  1.
       -3    1    3    3    0  502  0.46509068258E+03  0.80098827433E+03  0.12179029026E+04  0.15300911898E+04  0.10100000352E+00 0. -1.
</event>
<event>
 5   0  0.2135314E-07  0.3804365E+04  0.7818609E-02  0.8045219E-01
        2   -1    0    0  501    0  0.00000000000E+00  0.00000000000E+00  0.14548080851E+04  0.14548080851E+04  0.25500000920E-02 0. -1.
       -2   -1    0    0    0  501  0.00000000000E+00  0.00000000000E+00 -0.24871303447E+04  0.24871303447E+04  0.25500000920E-02 0.  1.
    10030    2    1    2    0    0  0.00000000000E+00  0.00000000000E+00 -0.10323222597E+04  0.39419384298E+04  0.38043645115E+04 0.  0.
        4    1    3    3  502    0  0.85789809426E+03 -0.81617887353E+03  0.10263493963E+04  0.15670136534E+04  0.12699999809E+01 0. -1.
       -4    1    3    3    0  502 -0.85789809426E+03  0.81617887353E+03 -0.20586716559E+04  0.23749247764E+04  0.12699999809E+01 0.  1.
</event>
<event>
 5   0  0.6661000E-08  0.3797556E+04  0.7818609E-02  0.8046680E-01
        1   -1    0    0  501    0  0.00000000000E+00  0.00000000000E+00  0.16199126886E+04  0.16199126886E+04  0.50400001928E-02 0.  1.
       -1   -1    0    0    0  501  0.00000000000E+00  0.00000000000E+00 -0.22256498346E+04  0.22256498346E+04  0.50400001928E-02 0. -1.
    10030    2    1    2    0    0  0.00000000000E+00  0.00000000000E+00 -0.60573714600E+03  0.38455625232E+04  0.37975562707E+04 0.  0.
        2    1    3    3  502    0 -0.17218741423E+04 -0.29907899874E+03  0.44884941794E+03  0.18043737444E+04  0.25500000920E-02 0.  1.
       -2    1    3    3    0  502  0.17218741423E+04  0.29907899874E+03 -0.10545865639E+04  0.20411887787E+04  0.25500000920E-02 0. -1.
</event>
<event>
 5   0  0.6661000E-08  0.3748007E+04  0.7818609E-02  0.8057405E-01
        1   -1    0    0  501    0  0.00000000000E+00  0.00000000000E+00  0.11096121272E+04  0.11096121273E+04  0.50400001928E-02 0. -1.
       -1   -1    0    0    0  501  0.00000000000E+00  0.00000000000E+00 -0.31649705307E+04  0.31649705307E+04  0.50400001928E-02 0.  1.
    10030    2    1    2    0    0  0.00000000000E+00  0.00000000000E+00 -0.20553584034E+04  0.42745826579E+04  0.37480073016E+04 0.  0.
        1    1    3    3  502    0  0.14265818281E+04 -0.55529800593E+03 -0.22604680905E+04  0.27300563320E+04  0.50400001928E-02 0.  1.
       -1    1    3    3    0  502 -0.14265818281E+04  0.55529800593E+03  0.20510968708E+03  0.15445263259E+04  0.50400001928E-02 0. -1.
</event>
<event>
 5   0  0.1370688E-07  0.3778687E+04  0.7818609E-02  0.8050744E-01
       -2   -1    0    0    0  501  0.00000000000E+00  0.00000000000E+00  0.26731750525E+04  0.26731750525E+04  0.25500000920E-02 0. -1.
        2   -1    0    0  501    0  0.00000000000E+00  0.00000000000E+00 -0.13353483077E+04  0.13353483077E+04  0.25500000920E-02 0.  1.
    10030    2    1    2    0    0  0.00000000000E+00  0.00000000000E+00  0.13378267448E+04  0.40085233602E+04  0.37786874878E+04 0.  0.
        5    1    3    3  502    0 -0.11306121275E+04 -0.29376985734E+03  0.22441617399E+04  0.25299937780E+04  0.46999998093E+01 0. -1.
       -5    1    3    3    0  502  0.11306121275E+04  0.29376985734E+03 -0.90633499516E+03  0.14785295822E+04  0.46999998093E+01 0.  1.
</event>
<event>
 5   0  0.6661000E-08  0.3820517E+04  0.7818609E-02  0.8041766E-01
        1   -1    0    0  501    0  0.00000000000E+00  0.00000000000E+00  0.23013967011E+04  0.23013967011E+04  0.50400001928E-02 0.  1.
       -1   -1    0    0    0  501  0.00000000000E+00  0.00000000000E+00 -0.15855972858E+04  0.15855972858E+04  0.50400001928E-02 0. -1.
    10030    2    1    2    0    0  0.00000000000E+00  0.00000000000E+00  0.71579941530E+03  0.38869939869E+04  0.38205174324E+04 0.  0.
        3    1    3    3  502    0 -0.94929078328E+03  0.46397236112E+03  0.19770253779E+04  0.22416629314E+04  0.10100000352E+00 0.  1.
       -3    1    3    3    0  502  0.94929078328E+03 -0.46397236112E+03 -0.12612259626E+04  0.16453310555E+04  0.10100000352E+00 0. -1.
</event>
<event>
 5   0  0.2203998E-07  0.3808291E+04  0.7818609E-02  0.8044378E-01
       -2   -1    0    0    0  501  0.00000000000E+00  0.00000000000E+00  0.17857513432E+04  0.17857513432E+04  0.25500000920E-02 0.  1.
        2   -1    0    0  501    0  0.00000000000E+00  0.00000000000E+00 -0.20303890514E+04  0.20303890514E+04  0.25500000920E-02 0. -1.
    10030    2    1    2    0    0  0.00000000000E+00  0.00000000000E+00 -0.24463770814E+03  0.38161403946E+04  0.38082909425E+04 0.  0.
        3    1    3    3  502    0 -0.15076716843E+04  0.10361746139E+04  0.40701061916E+03  0.18741369727E+04  0.10100000352E+00 0. -1.
       -3    1    3    3    0  502  0.15076716843E+04 -0.10361746139E+04 -0.65164832730E+03  0.19420034219E+04  0.10100000352E+00 0.  1.
</event>
<event>
 5   0  0.2081337E-07  0.3808602E+04  0.7818609E-02  0.8044311E-01
        2   -1    0    0  501    0  0.00000000000E+00  0.00000000000E+00  0.30042113348E+04  0.30042113348E+04  0.25500000920E-02 0.  1.
       -2   -1    0    0    0  501  0.00000000000E+00  0.00000000000E+00 -0.12070930223E+04  0.12070930223E+04  0.25500000920E-02 0. -1.
    10030    2    1    2    0    0  0.00000000000E+00  0.00000000000E+00  0.17971183125E+04  0.42113043571E+04  0.38086021266E+04 0.  0.
        1    1    3    3  502    0  0.71449533360E+03 -0.10310439673E+04  0.24828142615E+04  0.27817120450E+04  0.50400001928E-02 0.  1.
       -1    1    3    3    0  502 -0.71449533360E+03  0.10310439673E+04 -0.68569594898E+03  0.14295923121E+04  0.50400001928E-02 0. -1.
</event>
<event>
 5   0  0.1370688E-07  0.3825215E+04  0.7818609E-02  0.8040765E-01
        2   -1    0    0  501    0  0.00000000000E+00  0.00000000000E+00  0.18258971297E+04  0.18258971297E+04  0.25500000920E-02 0.  1.
       -2   -1    0    0    0  501  0.00000000000E+00  0.00000000000E+00 -0.20034361168E+04  0.20034361168E+04  0.25500000920E-02 0. -1.
    10030    2    1    2    0    0  0.00000000000E+00  0.00000000000E+00 -0.17753898705E+03  0.38293332465E+04  0.38252154215E+04 0.  0.
        5    1    3    3  502    0  0.18680476670E+04  0.21763116440E+03  0.25957169183E+03  0.18985165164E+04  0.46999998093E+01 0.  1.
       -5    1    3    3    0  502 -0.18680476670E+04 -0.21763116440E+03 -0.43711067888E+03  0.19308167301E+04  0.46999998093E+01 0. -1.
</event>
<event>
 5   0  0.1370688E-07  0.3817731E+04  0.7818609E-02  0.8042361E-01
       -2   -1    0    0    0  501  0.00000000000E+00  0.00000000000E+00  0.20762228868E+04  0.20762228868E+04  0.25500000920E-02 0. -1.
        2   -1    0    0  501    0  0.00000000000E+00  0.00000000000E+00 -0.17549981653E+04  0.17549981653E+04  0.25500000920E-02 0.  1.
    10030    2    1    2    0    0  0.00000000000E+00  0.00000000000E+00  0.32122472148E+03  0.38312210522E+04  0.38177309267E+04 0.  0.
        5    1    3    3  502    0  0.12087474723E+04 -0.14415655795E+04 -0.16389304838E+03  0.18884027095E+04  0.46999998093E+01 0.  1.
       -5    1    3    3    0  502 -0.12087474723E+04  0.14415655795E+04  0.48511776987E+03  0.19428183427E+04  0.46999998093E+01 0. -1.
</event>
<event>
 5   0  0.2203998E-07  0.3836384E+04  0.7818609E-02  0.8038392E-01
        2   -1    0    0  501    0  0.00000000000E+00  0.00000000000E+00  0.22176431117E+04  0.22176431117E+04  0.25500000920E-02 0.  1.
       -2   -1    0    0    0  501  0.00000000000E+00  0.00000000000E+00 -0.16591762602E+04  0.16591762602E+04  0.25500000920E-02 0. -1.
    10030    2    1    2    0    0  0.00000000000E+00  0.00000000000E+00  0.55846685144E+03  0.38768193719E+04  0.38363841333E+04 0.  0.
        3    1    3    3  502    0 -0.84526370878E+03  0.14920369601E+04 -0.58937004070E+03  0.18132848874E+04  0.10100000352E+00 0. -1.
       -3    1    3    3    0  502  0.84526370878E+03 -0.14920369601E+04  0.11478368921E+04  0.20635344845E+04  0.10100000352E+00 0.  1.
</event>
<event>
 5   0  0.1370688E-07  0.3803933E+04  0.7818609E-02  0.8045311E-01
        2   -1    0    0  501    0  0.00000000000E+00  0.00000000000E+00  0.25862456395E+04  0.25862456395E+04  0.25500000920E-02 0. -1.
       -2   -1    0    0    0  501  0.00000000000E+00  0.00000000000E+00 -0.13987368927E+04  0.13987368927E+04  0.25500000920E-02 0.  1.
    10030    2    1    2    0    0  0.00000000000E+00  0.00000000000E+00  0.11875087467E+04  0.39849825322E+04  0.38039333273E+04 0.  0.
        5    1    3    3  502    0  0.18312837820E+04  0.51366688162E+03  0.59487494855E+03  0.19928251930E+04  0.46999998093E+01 0. -1.
       -5    1    3    3    0  502 -0.18312837820E+04 -0.51366688162E+03  0.59263379819E+03  0.19921573392E+04  0.46999998093E+01 0.  1.
</event>
<event>
 5   0  0.6661000E-08  0.3812895E+04  0.7818609E-02  0.8043393E-01
       -1   -1    0    0    0  501  0.00000000000E+00  0.00000000000E+00  0.15905128759E+04  0.15905128759E+04  0.50400001928E-02 0. -1.
        1   -1    0    0  501    0  0.00000000000E+00  0.00000000000E+00 -0.22851380879E+04  0.22851380879E+04  0.50400001928E-02 0.  1.
    10030    2    1    2    0    0  0.00000000000E+00  0.00000000000E+00 -0.69462521205E+03  0.38756509639E+04  0.38128947282E+04 0.  0.
        2    1    3    3  502    0  0.12043232196E+04  0.90162373471E+03  0.84295247843E+03  0.17244966387E+04  0.25500000920E-02 0. -1.
       -2    1    3    3    0  502 -0.12043232196E+04 -0.90162373471E+03 -0.15375776905E+04  0.21511543251E+04  0.25500000920E-02 0.  1.
</event>
<event>
 5   0  0.6661000E-08  0.3791535E+04  0.7818609E-02  0.8047974E-01
       -1   -1    0    0    0  501  0.00000000000E+00  0.00000000000E+00  0.13352421195E+04  0.13352421196E+04  0.50400001928E-02 0.  1.
        1   -1    0    0  501    0  0.00000000000E+00  0.00000000000E+00 -0.26915969514E+04  0.26915969514E+04  0.50400001928E-02 0. -1.
    10030    2    1    2    0    0  0.00000000000E+00  0.00000000000E+00 -0.13563548318E+04  0.40268390709E+04  0.37915345803E+04 0.  0.
        4    1    3    3  502    0 -0.12299514860E+04  0.38194389812E+03  0.79929730095E+03  0.15157636978E+04  0.12699999809E+01 0.  1.
       -4    1    3    3    0  502  0.12299514860E+04 -0.38194389812E+03 -0.21556521328E+04  0.25110753732E+04  0.12699999809E+01 0. -1.
</event>
<event>
 5   0  0.6661000E-08  0.3719497E+04  0.7818609E-02  0.8063655E-01
       -1   -1    0    0    0  501  0.00000000000E+00  0.00000000000E+00  0.16869475563E+04  0.16869475563E+04  0.50400001928E-02 0. -1.
        1   -1    0    0  501    0  0.00000000000E+00  0.00000000000E+00 -0.20502506336E+04  0.20502506336E+04  0.50400001928E-02 0.  1.
    10030    2    1    2    0    0  0.00000000000E+00  0.00000000000E+00 -0.36330307735E+03  0.37371981899E+04  0.37194974371E+04 0.  0.
        1    1    3    3  502    0  0.30274313840E+02 -0.17325629636E+04 -0.86012375430E+03  0.19345552020E+04  0.50400001928E-02 0.  1.
       -1    1    3    3    0  502 -0.30274313840E+02  0.17325629636E+04  0.49682067695E+03  0.18026429879E+04  0.50400001928E-02 0. -1.
</event>
<event>
 5   0  0.6661000E-08  0.3644016E+04  0.7818609E-02  0.8080483E-01
       -1   -1    0    0    0  501  0.00000000000E+00  0.00000000000E+00  0.18767296491E+04  0.18767296491E+04  0.50400001928E-02 0.  1.
        1   -1    0    0  501    0  0.00000000000E+00  0.00000000000E+00 -0.17688823652E+04  0.17688823652E+04  0.50400001928E-02 0. -1.
    10030    2    1    2    0    0  0.00000000000E+00  0.00000000000E+00  0.10784728385E+03  0.36456120143E+04  0.36440164548E+04 0.  0.
        1    1    3    3  502    0  0.59196204593E+03  0.15361014347E+04 -0.72724300362E+03  0.17996969378E+04  0.50400001928E-02 0. -1.
       -1    1    3    3    0  502 -0.59196204593E+03 -0.15361014347E+04  0.83509028747E+03  0.18459150765E+04  0.50400001928E-02 0.  1.
</event>
<event>
 5   0  0.6661000E-08  0.3788802E+04  0.7818609E-02  0.8048562E-01
       -1   -1    0    0    0  501  0.00000000000E+00  0.00000000000E+00  0.14593853995E+04  0.14593853995E+04  0.50400001928E-02 0. -1.
        1   -1    0    0  501    0  0.00000000000E+00  0.00000000000E+00 -0.24590870459E+04  0.24590870459E+04  0.50400001928E-02 0.  1.
    10030    2    1    2    0    0  0.00000000000E+00  0.00000000000E+00 -0.99970164642E+03  0.39184724454E+04  0.37888023073E+04 0.  0.
        2    1    3    3  502    0  0.19089395695E+03  0.18243111285E+04 -0.98955821624E+03  0.20841729918E+04  0.25500000920E-02 0.  1.
       -2    1    3    3    0  502 -0.19089395695E+03 -0.18243111285E+04 -0.10143430188E+02  0.18342994536E+04  0.25500000920E-02 0. -1.
</event>
<event>
 5   0  0.6725199E-08  0.3800811E+04  0.7818609E-02  0.8045981E-01
        1   -1    0    0  501    0  0.00000000000E+00  0.00000000000E+00  0.20875652752E+04  0.20875652752E+04  0.50400001928E-02 0.  1.
       -1   -1    0    0    0  501  0.00000000000E+00  0.00000000000E+00 -0.17300255963E+04  0.17300255963E+04  0.50400001928E-02 0. -1.
    10030    2    1    2    0    0  0.00000000000E+00  0.00000000000E+00  0.35753967891E+03  0.38175908716E+04  0.38008111556E+04 0.  0.
        5    1    3    3  502    0 -0.12275625158E+04  0.14499186199E+04  0.22741438067E+03  0.19133512812E+04  0.46999998093E+01 0. -1.
       -5    1    3    3    0  502  0.12275625158E+04 -0.14499186199E+04  0.13012529824E+03  0.19042395904E+04  0.46999998093E+01 0.  1.
</event>
<event>
 5   0  0.1370688E-07  0.3823747E+04  0.7818609E-02  0.8041078E-01
        2   -1    0    0  501    0  0.00000000000E+00  0.00000000000E+00  0.21769606199E+04  0.21769606199E+04  0.25500000920E-02 0. -1.
       -2   -1    0    0    0  501  0.00000000000E+00  0.00000000000E+00 -0.16790658047E+04  0.16790658047E+04  0.25500000920E-02 0.  1.
    10030    2    1    2    0    0  0.00000000000E+00  0.00000000000E+00  0.49789481523E+03  0.38560264247E+04  0.38237469243E+04 0.  0.
        5    1    3    3  502    0  0.82574553834E+03  0.17002509534E+04 -0.40756447378E+02  0.18906062987E+04  0.46999998093E+01 0.  1.
       -5    1    3    3    0  502 -0.82574553834E+03 -0.17002509534E+04  0.53865126261E+03  0.19654201259E+04  0.46999998093E+01 0. -1.
</event>
<event>
 5   0  0.2081337E-07  0.3791371E+04  0.7818609E-02  0.8048009E-01
       -2   -1    0    0    0  501  0.00000000000E+00  0.00000000000E+00  0.12546093473E+04  0.12546093473E+04  0.25500000920E-02 0. -1.
        2   -1    0    0  501    0  0.00000000000E+00  0.00000000000E+00 -0.28643364456E+04  0.28643364456E+04  0.25500000920E-02 0.  1.
    10030    2    1    2    0    0  0.00000000000E+00  0.00000000000E+00 -0.16097270983E+04  0.41189457930E+04  0.37913708753E+04 0.  0.
        1    1    3    3  502    0 -0.34485398637E+03  0.18257727428E+04 -0.12131721146E+04  0.22190441546E+04  0.50400001928E-02 0. -1.
       -1    1    3    3    0  502  0.34485398637E+03 -0.18257727428E+04 -0.39655498373E+03  0.18999016384E+04  0.50400001928E-02 0.  1.
</event>
<event>
 5   0  0.2081337E-07  0.3763993E+04  0.7818609E-02  0.8053926E-01
       -2   -1    0    0    0  501  0.00000000000E+00  0.00000000000E+00  0.18024232801E+04  0.18024232801E+04  0.25500000920E-02 0.  1.
        2   -1    0    0  501    0  0.00000000000E+00  0.00000000000E+00 -0.19650829109E+04  0.19650829109E+04  0.25500000920E-02 0. -1.
    10030    2    1    2    0    0  0.00000000000E+00  0.00000000000E+00 -0.16265963083E+03  0.37675061911E+04  0.37639931913E+04 0.  0.
        1    1    3    3  502    0  0.38228510269E+03 -0.10069194625E+04 -0.16261050939E+04  0.19504477640E+04  0.50400001928E-02 0. -1.
       -1    1    3    3    0  502 -0.38228510269E+03  0.10069194625E+04  0.14634454631E+04  0.18170584270E+04  0.50400001928E-02 0.  1.
</event>
<event>
 5   0  0.2205204E-07  0.3743974E+04  0.7818609E-02  0.8058286E-01
       -2   -1    0    0    0  501  0.00000000000E+00  0.00000000000E+00  0.27612724305E+04  0.27612724305E+04  0.25500000920E-02 0. -1.
        2   -1    0    0  501    0  0.00000000000E+00  0.00000000000E+00 -0.12691013806E+04  0.12691013806E+04  0.25500000920E-02 0.  1.
    10030    2    1    2    0    0  0.00000000000E+00  0.00000000000E+00  0.14921710500E+04  0.40303738111E+04  0.37439736397E+04 0.  0.
        2    1    3    3  502    0 -0.53469469490E+03  0.12949578881E+04  0.20826415583E+04  0.25100219539E+04  0.25500000920E-02 0. -1.
       -2    1    3    3    0  502  0.53469469490E+03 -0.12949578881E+04 -0.59047050833E+03  0.15203518573E+04  0.25500000920E-02 0.  1.
</event>
<event>
 5   0  0.6661000E-08  0.3792237E+04  0.7818609E-02  0.8047823E-01
       -1   -1    0    0    0  501  0.00000000000E+00  0.00000000000E+00  0.22657392580E+04  0.22657392580E+04  0.50400001928E-02 0. -1.
        1   -1    0    0  501    0  0.00000000000E+00  0.00000000000E+00 -0.15867960984E+04  0.15867960984E+04  0.50400001928E-02 0.  1.
    10030    2    1    2    0    0  0.00000000000E+00  0.00000000000E+00  0.67894315965E+03  0.38525353564E+04  0.37922374475E+04 0.  0.
        2    1    3    3  502    0 -0.91696870505E+02 -0.63074662999E+03 -0.14747047645E+04  0.16065502699E+04  0.25500000920E-02 0.  1.
       -2    1    3    3    0  502  0.91696870505E+02  0.63074662999E+03  0.21536479242E+04  0.22459850865E+04  0.25500000920E-02 0. -1.
</event>
<event>
 5   0  0.6661000E-08  0.3798042E+04  0.7818609E-02  0.8046575E-01
       -1   -1    0    0    0  501  0.00000000000E+00  0.00000000000E+00  0.29825078713E+04  0.29825078713E+04  0.50400001928E-02 0.  1.
        1   -1    0    0  501    0  0.00000000000E+00  0.00000000000E+00 -0.12091435502E+04  0.12091435502E+04  0.50400001928E-02 0. -1.
    10030    2    1    2    0    0  0.00000000000E+00  0.00000000000E+00  0.17733643211E+04  0.41916514216E+04  0.37980416828E+04 0.  0.
        2    1    3    3  502    0  0.52311643102E+03 -0.15191723510E+04 -0.23052388769E+03  0.16231687205E+04  0.25500000920E-02 0. -1.
       -2    1    3    3    0  502 -0.52311643102E+03  0.15191723510E+04  0.20038882088E+04  0.25684827011E+04  0.25500000920E-02 0.  1.
</event>
<event>
 5   0  0.6661000E-08  0.3937350E+04  0.7818609E-02  0.8017306E-01
        1   -1    0    0  501    0  0.00000000000E+00  0.00000000000E+00  0.20418172588E+04  0.20418172588E+04  0.50400001928E-02 0.  1.
       -1   -1    0    0    0  501  0.00000000000E+00  0.00000000000E+00 -0.18981526824E+04  0.18981526824E+04  0.50400001928E-02 0. -1.
    10030    2    1    2    0    0  0.00000000000E+00  0.00000000000E+00  0.14366457639E+03  0.39399699412E+04  0.39373498228E+04 0.  0.
        4    1    3    3  502    0  0.12941102983E+04 -0.30736929629E+03 -0.13805059660E+04  0.19170278254E+04  0.12699999809E+01 0. -1.
       -4    1    3    3    0  502 -0.12941102983E+04  0.30736929629E+03  0.15241705424E+04  0.20229421158E+04  0.12699999809E+01 0.  1.
</event>
<event>
 5   0  0.6661000E-08  0.3794706E+04  0.7818609E-02  0.8047292E-01
       -1   -1    0    0    0  501  0.00000000000E+00  0.00000000000E+00  0.34496772574E+04  0.34496772574E+04  0.50400001928E-02 0. -1.
        1   -1    0    0  501    0  0.00000000000E+00  0.00000000000E+00 -0.10435608104E+04  0.10435608104E+04  0.50400001928E-02 0.  1.
    10030    2    1    2    0    0  0.00000000000E+00  0.00000000000E+00  0.24061164471E+04  0.44932380678E+04  0.37947057827E+04 0.  0.
        2    1    3    3  502    0  0.17333651262E+04  0.30958717839E+03  0.36616429626E+03  0.17984646712E+04  0.25500000920E-02 0.  1.
       -2    1    3    3    0  502 -0.17333651262E+04 -0.30958717839E+03  0.20399521508E+04  0.26947733966E+04  0.25500000920E-02 0. -1.
</event>
<event>
 5   0  0.1370688E-07  0.3797302E+04  0.7818609E-02  0.8046734E-01
       -2   -1    0    0    0  501  0.00000000000E+00  0.00000000000E+00  0.16455050024E+04  0.16455050024E+04  0.25500000920E-02 0. -1.
        2   -1    0    0  501    0  0.00000000000E+00  0.00000000000E+00 -0.21907408787E+04  0.21907408787E+04  0.25500000920E-02 0.  1.
    10030    2    1    2    0    0  0.00000000000E+00  0.00000000000E+00 -0.54523587626E+03  0.38362458811E+04  0.37973017130E+04 0.  0.
        5    1    3    3  502    0 -0.13033648690E+04  0.12628802296E+04  0.29098031006E+03  0.18380201541E+04  0.46999998093E+01 0. -1.
       -5    1    3    3    0  502  0.13033648690E+04 -0.12628802296E+04 -0.83621618631E+03  0.19982257271E+04  0.46999998093E+01 0.  1.
</event>
<event>
 5   0  0.2203998E-07  0.3763557E+04  0.7818609E-02  0.8054021E-01
       -2   -1    0    0    0  501  0.00000000000E+00  0.00000000000E+00  0.26150195069E+04  0.26150195069E+04  0.25500000920E-02 0.  1.
        2   -1    0    0  501    0  0.00000000000E+00  0.00000000000E+00 -0.13541349977E+04  0.13541349977E+04  0.25500000920E-02 0. -1.
    10030    2    1    2    0    0  0.00000000000E+00  0.00000000000E+00  0.12608845092E+04  0.39691545046E+04  0.37635565275E+04 0.  0.
        3    1    3    3  502    0  0.82288598633E+03  0.69733639676E+03 -0.99576297323E+03  0.14679793274E+04  0.10100000352E+00 0. -1.
       -3    1    3    3    0  502 -0.82288598633E+03 -0.69733639676E+03  0.22566474824E+04  0.25011751772E+04  0.10100000352E+00 0.  1.
</event>
<event>
 5   0  0.2081337E-07  0.3857297E+04  0.7818609E-02  0.8033970E-01
        2   -1    0    0  501    0  0.00000000000E+00  0.00000000000E+00  0.19974099536E+04  0.19974099536E+04  0.25500000920E-02 0.  1.
       -2   -1    0    0    0  501  0.00000000000E+00  0.00000000000E+00 -0.18622545738E+04  0.18622545738E+04  0.25500000920E-02 0. -1.
    10030    2    1    2    0    0  0.00000000000E+00  0.00000000000E+00  0.13515537987E+03  0.38596645274E+04  0.38572974072E+04 0.  0.
        1    1    3    3  502    0 -0.64078334002E+03  0.54017866028E+03 -0.16705229815E+04  0.18689685138E+04  0.50400001928E-02 0. -1.
       -1    1    3    3    0  502  0.64078334002E+03 -0.54017866028E+03  0.18056783614E+04  0.19906960136E+04  0.50400001928E-02 0.  1.
</event>
<event>
 5   0  0.2203998E-07  0.3799062E+04  0.7818609E-02  0.8046356E-01
        2   -1    0    0  501    0  0.00000000000E+00  0.00000000000E+00  0.26040714569E+04  0.26040714569E+04  0.25500000920E-02 0.  1.
       -2   -1    0    0    0  501  0.00000000000E+00  0.00000000000E+00 -0.13856066739E+04  0.13856066739E+04  0.25500000920E-02 0. -1.
    10030    2    1    2    0    0  0.00000000000E+00  0.00000000000E+00  0.12184647830E+04  0.39896781308E+04  0.37990624054E+04 0.  0.
        3    1    3    3  502    0  0.91608651729E+03  0.17577700158E+03 -0.11285148911E+04  0.14641236051E+04  0.10100000352E+00 0. -1.
       -3    1    3    3    0  502 -0.91608651729E+03 -0.17577700158E+03  0.23469796741E+04  0.25255545257E+04  0.10100000352E+00 0.  1.
</event>
<event>
 5   0  0.6661000E-08  0.3828178E+04  0.7818609E-02  0.8040135E-01
        1   -1    0    0  501    0  0.00000000000E+00  0.00000000000E+00  0.27385008997E+04  0.27385008997E+04  0.50400001928E-02 0.  1.
       -1   -1    0    0    0  501  0.00000000000E+00  0.00000000000E+00 -0.13378619351E+04  0.13378619351E+04  0.50400001928E-02 0. -1.
    10030    2    1    2    0    0  0.00000000000E+00  0.00000000000E+00  0.14006389646E+04  0.40763628349E+04  0.38281776934E+04 0.  0.
        4    1    3    3  502    0 -0.99021980361E+03  0.69297861824E+03 -0.88014962009E+03  0.14951319646E+04  0.12699999809E+01 0. -1.
       -4    1    3    3    0  502  0.99021980361E+03 -0.69297861824E+03  0.22807885847E+04  0.25812308703E+04  0.12699999809E+01 0.  1.
</event>
<event>
 5   0  0.2205204E-07  0.3418885E+04  0.7818609E-02  0.8133287E-01
       -2   -1    0    0    0  501  0.00000000000E+00  0.00000000000E+00  0.12296164044E+04  0.12296164044E+04  0.25500000920E-02 0. -1.
        2   -1    0    0  501    0  0.00000000000E+00  0.00000000000E+00 -0.23765089606E+04  0.23765089606E+04  0.25500000920E-02 0.  1.
    10030    2    1    2    0    0  0.00000000000E+00  0.00000000000E+00 -0.11468925561E+04  0.36061253650E+04  0.34188854343E+04 0.  0.
        2    1    3    3  502    0  0.41271752333E+03  0.11290478739E+04  0.70847874593E+03  0.13953590897E+04  0.25500000920E-02 0. -1.
       -2    1    3    3    0  502 -0.41271752333E+03 -0.11290478739E+04 -0.18553713021E+04  0.22107662754E+04  0.25500000920E-02 0.  1.
</event>
<event>
 5   0  0.2205204E-07  0.3853466E+04  0.7818609E-02  0.8034777E-01
       -2   -1    0    0    0  501  0.00000000000E+00  0.00000000000E+00  0.13789068486E+04  0.13789068486E+04  0.25500000920E-02 0. -1.
        2   -1    0    0  501    0  0.00000000000E+00  0.00000000000E+00 -0.26922057901E+04  0.26922057901E+04  0.25500000920E-02 0.  1.
    10030    2    1    2    0    0  0.00000000000E+00  0.00000000000E+00 -0.13132989415E+04  0.40711126387E+04  0.38534664923E+04 0.  0.
        2    1    3    3  502    0 -0.77873077598E+03  0.48462495514E+03  0.11334595940E+04  0.14580856010E+04  0.25500000920E-02 0. -1.
       -2    1    3    3    0  502  0.77873077598E+03 -0.48462495514E+03 -0.24467585355E+04  0.26130270377E+04  0.25500000920E-02 0.  1.
</event>
<event>
 5   0  0.6661000E-08  0.3807031E+04  0.7818609E-02  0.8044648E-01
       -1   -1    0    0    0  501  0.00000000000E+00  0.00000000000E+00  0.18479436897E+04  0.18479436897E+04  0.50400001928E-02 0. -1.
        1   -1    0    0  501    0  0.00000000000E+00  0.00000000000E+00 -0.19607586613E+04  0.19607586613E+04  0.50400001928E-02 0.  1.
    10030    2    1    2    0    0  0.00000000000E+00  0.00000000000E+00 -0.11281497159E+03  0.38087023510E+04  0.38070311768E+04 0.  0.
        4    1    3    3  502    0  0.68489899041E+02  0.16609233800E+04 -0.98418323876E+03  0.19318321876E+04  0.12699999809E+01 0.  1.
       -4    1    3    3    0  502 -0.68489899041E+02 -0.16609233800E+04  0.87136826717E+03  0.18768701635E+04  0.12699999809E+01 0. -1.
</event>
<event>
 5   0  0.6661000E-08  0.3804526E+04  0.7818609E-02  0.8045184E-01
        1   -1    0    0  501    0  0.00000000000E+00  0.00000000000E+00  0.22320013265E+04  0.22320013265E+04  0.50400001928E-02 0. -1.
       -1   -1    0    0    0  501  0.00000000000E+00  0.00000000000E+00 -0.16212377358E+04  0.16212377358E+04  0.50400001928E-02 0.  1.
    10030    2    1    2    0    0  0.00000000000E+00  0.00000000000E+00  0.61076359074E+03  0.38532390623E+04  0.38045261344E+04 0.  0.
        2    1    3    3  502    0 -0.45489836042E+03 -0.49807806831E+03  0.21068040085E+04  0.22121567328E+04  0.25500000920E-02 0. -1.
       -2    1    3    3    0  502  0.45489836042E+03  0.49807806831E+03 -0.14960404178E+04  0.16410823294E+04  0.25500000920E-02 0.  1.
</event>
<event>
 5   0  0.6725199E-08  0.3852524E+04  0.7818609E-02  0.8034976E-01
        1   -1    0    0  501    0  0.00000000000E+00  0.00000000000E+00  0.11692791030E+04  0.11692791030E+04  0.50400001928E-02 0. -1.
       -1   -1    0    0    0  501  0.00000000000E+00  0.00000000000E+00 -0.31733100511E+04  0.31733100511E+04  0.50400001928E-02 0.  1.
    10030    2    1    2    0    0  0.00000000000E+00  0.00000000000E+00 -0.20040309481E+04  0.43425891541E+04  0.38525239156E+04 0.  0.
        5    1    3    3  502    0  0.35075133541E+03  0.13851060759E+04 -0.24582149157E+04  0.28433058229E+04  0.46999998093E+01 0.  1.
       -5    1    3    3    0  502 -0.35075133541E+03 -0.13851060759E+04  0.45418396756E+03  0.14992833312E+04  0.46999998093E+01 0. -1.
</event>
<event>
 5   0  0.2135314E-07  0.3805596E+04  0.7818609E-02  0.8044955E-01
        2   -1    0    0  501    0  0.00000000000E+00  0.00000000000E+00  0.24384950876E+04  0.24384950876E+04  0.25500000920E-02 0.  1.
       -2   -1    0    0    0  501  0.00000000000E+00  0.00000000000E+00 -0.14847849824E+04  0.14847849824E+04  0.25500000920E-02 0. -1.
    10030    2    1    2    0    0  0.00000000000E+00  0.00000000000E+00  0.95371010519E+03  0.39232800700E+04  0.38055963452E+04 0.  0.
        4    1    3    3  502    0  0.12192308910E+04 -0.82075867049E+03 -0.76901568972E+03  0.16587813312E+04  0.12699999809E+01 0. -1.
       -4    1    3    3    0  502 -0.12192308910E+04  0.82075867049E+03  0.17227257949E+04  0.22644987388E+04  0.12699999809E+01 0.  1.
</event>
<event>
 5   0  0.6725199E-08  0.3802187E+04  0.7818609E-02  0.8045686E-01
        1   -1    0    0  501    0  0.00000000000E+00  0.00000000000E+00  0.23398841341E+04  0.23398841341E+04  0.50400001928E-02 0. -1.
       -1   -1    0    0    0  501  0.00000000000E+00  0.00000000000E+00 -0.15445874423E+04  0.15445874423E+04  0.50400001928E-02 0.  1.
    10030    2    1    2    0    0  0.00000000000E+00  0.00000000000E+00  0.79529669176E+03  0.38844715764E+04  0.38021865552E+04 0.  0.
        5    1    3    3  502    0 -0.21029243561E+03 -0.15180255682E+03 -0.15264220418E+04  0.15483065796E+04  0.46999998093E+01 0.  1.
       -5    1    3    3    0  502  0.21029243561E+03  0.15180255682E+03  0.23217187336E+04  0.23361649968E+04  0.46999998093E+01 0. -1.
</event>
<event>
 5   0  0.2081337E-07  0.3808728E+04  0.7818609E-02  0.8044285E-01
       -2   -1    0    0    0  501  0.00000000000E+00  0.00000000000E+00  0.15232890679E+04  0.15232890679E+04  0.25500000920E-02 0.  1.
        2   -1    0    0  501    0  0.00000000000E+00  0.00000000000E+00 -0.23807704756E+04  0.23807704756E+04  0.25500000920E-02 0. -1.
    10030    2    1    2    0    0  0.00000000000E+00  0.00000000000E+00 -0.85748140766E+03  0.39040595435E+04  0.38087276819E+04 0.  0.
        1    1    3    3  502    0 -0.22464469937E+02 -0.47726474451E+03 -0.23183340412E+04  0.23670570368E+04  0.50400001928E-02 0. -1.
       -1    1    3    3    0  502  0.22464469937E+02  0.47726474451E+03  0.14608526335E+04  0.15370025067E+04  0.50400001928E-02 0.  1.
</event>
<event>
 5   0  0.6725199E-08  0.3852947E+04  0.7818609E-02  0.8034887E-01
        1   -1    0    0  501    0  0.00000000000E+00  0.00000000000E+00  0.16543228738E+04  0.16543228738E+04  0.50400001928E-02 0. -1.
       -1   -1    0    0    0  501  0.00000000000E+00  0.00000000000E+00 -0.22433949583E+04  0.22433949583E+04  0.50400001928E-02 0.  1.
    10030    2    1    2    0    0  0.00000000000E+00  0.00000000000E+00 -0.58907208449E+03  0.38977178322E+04  0.38529467137E+04 0.  0.
        5    1    3    3  502    0  0.15423803103E+04  0.34804435562E+03  0.81880015695E+03  0.17805975632E+04  0.46999998093E+01 0.  1.
       -5    1    3    3    0  502 -0.15423803103E+04 -0.34804435562E+03 -0.14078722414E+04  0.21171202690E+04  0.46999998093E+01 0. -1.
</event>
<event>
 5   0  0.6661000E-08  0.3810000E+04  0.7818609E-02  0.8044012E-01
        1   -1    0    0  501    0  0.00000000000E+00  0.00000000000E+00  0.27778381710E+04  0.27778381710E+04  0.50400001928E-02 0. -1.
       -1   -1    0    0    0  501  0.00000000000E+00  0.00000000000E+00 -0.13064203489E+04  0.13064203489E+04  0.50400001928E-02 0.  1.
    10030    2    1    2    0    0  0.00000000000E+00  0.00000000000E+00  0.14714178221E+04  0.40842585200E+04  0.38099996392E+04 0.  0.
        1    1    3    3  502    0 -0.27737948718E+03  0.73323686325E+03  0.25969054368E+04  0.27126543320E+04  0.50400001928E-02 0. -1.
       -1    1    3    3    0  502  0.27737948718E+03 -0.73323686325E+03 -0.11254876147E+04  0.13716041879E+04  0.50400001928E-02 0.  1.
</event>
<event>
 5   0  0.6661000E-08  0.3774657E+04  0.7818609E-02  0.8051615E-01
       -1   -1    0    0    0  501  0.00000000000E+00  0.00000000000E+00  0.15658644100E+04  0.15658644100E+04  0.50400001928E-02 0.  1.
        1   -1    0    0  501    0  0.00000000000E+00  0.00000000000E+00 -0.22747875918E+04  0.22747875918E+04  0.50400001928E-02 0. -1.
    10030    2    1    2    0    0  0.00000000000E+00  0.00000000000E+00 -0.70892318181E+03  0.38406520019E+04  0.37746570337E+04 0.  0.
        1    1    3    3  502    0  0.29608496294E+03 -0.30021222105E+02 -0.22507633390E+04  0.22703530974E+04  0.50400001928E-02 0. -1.
       -1    1    3    3    0  502 -0.29608496294E+03  0.30021222105E+02  0.15418401571E+04  0.15702989044E+04  0.50400001928E-02 0.  1.
</event>
<event>
 5   0  0.6725199E-08  0.3804733E+04  0.7818609E-02  0.8045140E-01
       -1   -1    0    0    0  501  0.00000000000E+00  0.00000000000E+00  0.16650334979E+04  0.16650334979E+04  0.50400001928E-02 0.  1.
        1   -1    0    0  501    0  0.00000000000E+00  0.00000000000E+00 -0.21735288121E+04  0.21735288121E+04  0.50400001928E-02 0. -1.
    10030    2    1    2    0    0  0.00000000000E+00  0.00000000000E+00 -0.50849531411E+03  0.38385623100E+04  0.38047329898E+04 0.  0.
        5    1    3    3  502    0 -0.40947915575E+03 -0.18497905476E+04 -0.42775920564E+03  0.19422662735E+04  0.46999998093E+01 0.  1.
       -5    1    3    3    0  502  0.40947915575E+03  0.18497905476E+04 -0.80736108474E+02  0.18962960365E+04  0.46999998093E+01 0. -1.
</event>
<event>
 5   0  0.2135314E-07  0.3680317E+04  0.7818609E-02  0.8072338E-01
        2   -1    0    0  501    0  0.00000000000E+00  0.00000000000E+00  0.17259494724E+04  0.17259494724E+04  0.25500000920E-02 0. -1.
       -2   -1    0    0    0  501  0.00000000000E+00  0.00000000000E+00 -0.19619252521E+04  0.19619252521E+04  0.25500000920E-02 0.  1.
    10030    2    1    2    0    0  0.00000000000E+00  0.00000000000E+00 -0.23597577971E+03  0.36878747244E+04  0.36803172981E+04 0.  0.
        4    1    3    3  502    0 -0.16437821063E+04 -0.82657632157E+03 -0.14861553981E+03  0.18458971315E+04  0.12699999809E+01 0. -1.
       -4    1    3    3    0  502  0.16437821063E+04  0.82657632157E+03 -0.87360239901E+02  0.18419775929E+04  0.12699999809E+01 0.  1.
</event>
<event>
 5   0  0.2203998E-07  0.3745305E+04  0.7818609E-02  0.8057995E-01
       -2   -1    0    0    0  501  0.00000000000E+00  0.00000000000E+00  0.12130899892E+04  0.12130899892E+04  0.25500000920E-02 0. -1.
        2   -1    0    0  501    0  0.00000000000E+00  0.00000000000E+00 -0.28908218410E+04  0.28908218410E+04  0.25500000920E-02 0.  1.
    10030    2    1    2    0    0  0.00000000000E+00  0.00000000000E+00 -0.16777318518E+04  0.41039118302E+04  0.37453048131E+04 0.  0.
        3    1    3    3  502    0 -0.93718810784E+02 -0.17413487459E+04 -0.91064105805E+02  0.17462449290E+04  0.10100000352E+00 0.  1.
       -3    1    3    3    0  502  0.93718810784E+02  0.17413487459E+04 -0.15866677460E+04  0.23576669012E+04  0.10100000352E+00 0. -1.
</event>
<event>
 5   0  0.2205204E-07  0.3794525E+04  0.7818609E-02  0.8047331E-01
        2   -1    0    0  501    0  0.00000000000E+00  0.00000000000E+00  0.24130058854E+04  0.24130058854E+04  0.25500000920E-02 0.  1.
       -2   -1    0    0    0  501  0.00000000000E+00  0.00000000000E+00 -0.14917517909E+04  0.14917517909E+04  0.25500000920E-02 0. -1.
    10030    2    1    2    0    0  0.00000000000E+00  0.00000000000E+00  0.92125409444E+03  0.39047576763E+04  0.37945254517E+04 0.  0.
        2    1    3    3  502    0 -0.49534853246E+03  0.51821391599E+03  0.22682704690E+04  0.23788582875E+04  0.25500000920E-02 0.  1.
       -2    1    3    3    0  502  0.49534853246E+03 -0.51821391599E+03 -0.13470163746E+04  0.15258993888E+04  0.25500000920E-02 0. -1.
</event>
<event>
 5   0  0.2081337E-07  0.3806231E+04  0.7818609E-02  0.8044819E-01
       -2   -1    0    0    0  501  0.00000000000E+00  0.00000000000E+00  0.13941046725E+04  0.13941046725E+04  0.25500000920E-02 0. -1.
        2   -1    0    0  501    0  0.00000000000E+00  0.00000000000E+00 -0.25979747421E+04  0.25979747421E+04  0.25500000920E-02 0.  1.
    10030    2    1    2    0    0  0.00000000000E+00  0.00000000000E+00 -0.12038700695E+04  0.39920794146E+04  0.38062310634E+04 0.  0.
        1    1    3    3  502    0  0.13184212329E+04 -0.10746110676E+04 -0.14973322161E+04  0.22660598535E+04  0.50400001928E-02 0.  1.
       -1    1    3    3    0  502 -0.13184212329E+04  0.10746110676E+04  0.29346214658E+03  0.17260195612E+04  0.50400001928E-02 0. -1.
</event>
<event>
 5   0  0.1370688E-07  0.3800806E+04  0.7818609E-02  0.8045982E-01
        2   -1    0    0  501    0  0.00000000000E+00  0.00000000000E+00  0.25256550042E+04  0.25256550042E+04  0.25500000920E-02 0.  1.
       -2   -1    0    0    0  501  0.00000000000E+00  0.00000000000E+00 -0.14299386717E+04  0.14299386717E+04  0.25500000920E-02 0. -1.
    10030    2    1    2    0    0  0.00000000000E+00  0.00000000000E+00  0.10957163325E+04  0.39555936759E+04  0.38008061050E+04 0.  0.
        5    1    3    3  502    0  0.81424700713E+02  0.16084585385E+04  0.15977741701E+04  0.22686280525E+04  0.46999998093E+01 0.  1.
       -5    1    3    3    0  502 -0.81424700713E+02 -0.16084585385E+04 -0.50205783764E+03  0.16869656234E+04  0.46999998093E+01 0. -1.
</event>
<event>
 5   0  0.2203998E-07  0.3772366E+04  0.7818609E-02  0.8052111E-01
       -2   -1    0    0    0  501  0.00000000000E+00  0.00000000000E+00  0.16916990065E+04  0.16916990065E+04  0.25500000920E-02 0.  1.
        2   -1    0    0  501    0  0.00000000000E+00  0.00000000000E+00 -0.21030253224E+04  0.21030253224E+04  0.25500000920E-02 0. -1.
    10030    2    1    2    0    0  0.00000000000E+00  0.00000000000E+00 -0.41132631585E+03  0.37947243289E+04  0.37723657556E+04 0.  0.
        3    1    3    3  502    0 -0.98011402793E+03  0.46516503254E+03 -0.17577545786E+04  0.20655999574E+04  0.10100000352E+00 0. -1.
       -3    1    3    3    0  502  0.98011402793E+03 -0.46516503254E+03  0.13464282627E+04  0.17291243715E+04  0.10100000352E+00 0.  1.
</event>
<event>
 5   0  0.6661000E-08  0.3770076E+04  0.7818609E-02  0.8052607E-01
        1   -1    0    0  501    0  0.00000000000E+00  0.00000000000E+00  0.11900268129E+04  0.11900268129E+04  0.50400001928E-02 0. -1.
       -1   -1    0    0    0  501  0.00000000000E+00  0.00000000000E+00 -0.29859558805E+04  0.29859558805E+04  0.50400001928E-02 0.  1.
    10030    2    1    2    0    0  0.00000000000E+00  0.00000000000E+00 -0.17959290676E+04  0.41759826934E+04  0.37700756279E+04 0.  0.
        1    1    3    3  502    0  0.11847502452E+04  0.14650421387E+04 -0.83351069368E+03  0.20602722364E+04  0.50400001928E-02 0. -1.
       -1    1    3    3    0  502 -0.11847502452E+04 -0.14650421387E+04 -0.96241837389E+03  0.21157104570E+04  0.50400001928E-02 0.  1.
</event>
<event>
 5   0  0.6661000E-08  0.3802731E+04  0.7818609E-02  0.8045569E-01
        1   -1    0    0  501    0  0.00000000000E+00  0.00000000000E+00  0.16607499308E+04  0.16607499308E+04  0.50400001928E-02 0. -1.
       -1   -1    0    0    0  501  0.00000000000E+00  0.00000000000E+00 -0.21768424149E+04  0.21768424149E+04  0.50400001928E-02 0.  1.
    10030    2    1    2    0    0  0.00000000000E+00  0.00000000000E+00 -0.51609248407E+03  0.38375923457E+04  0.38027310659E+04 0.  0.
        3    1    3    3  502    0 -0.13127012862E+04 -0.12459472705E+04 -0.84615938663E+03  0.19978876308E+04  0.10100000352E+00 0.  1.
       -3    1    3    3    0  502  0.13127012862E+04  0.12459472705E+04  0.33006690256E+03  0.18397047149E+04  0.10100000352E+00 0. -1.
</event>
<event>
 5   0  0.6725199E-08  0.3753982E+04  0.7818609E-02  0.8056103E-01
       -1   -1    0    0    0  501  0.00000000000E+00  0.00000000000E+00  0.22105949777E+04  0.22105949777E+04  0.50400001928E-02 0. -1.
        1   -1    0    0  501    0  0.00000000000E+00  0.00000000000E+00 -0.15937317649E+04  0.15937317649E+04  0.50400001928E-02 0.  1.
    10030    2    1    2    0    0  0.00000000000E+00  0.00000000000E+00  0.61686321276E+03  0.38043267426E+04  0.37539821179E+04 0.  0.
        5    1    3    3  502    0  0.20987513435E+02  0.18711648744E+04  0.16026938622E+03  0.18781391932E+04  0.46999998093E+01 0.  1.
       -5    1    3    3    0  502 -0.20987513435E+02 -0.18711648744E+04  0.45659382654E+03  0.19261875494E+04  0.46999998093E+01 0. -1.
</event>
<event>
 5   0  0.6661000E-08  0.3801679E+04  0.7818609E-02  0.8045795E-01
        1   -1    0    0  501    0  0.00000000000E+00  0.00000000000E+00  0.22072152309E+04  0.22072152309E+04  0.50400001928E-02 0. -1.
       -1   -1    0    0    0  501  0.00000000000E+00  0.00000000000E+00 -0.16369904542E+04  0.16369904542E+04  0.50400001928E-02 0.  1.
    10030    2    1    2    0    0  0.00000000000E+00  0.00000000000E+00  0.57022477668E+03  0.38442056851E+04  0.38016787151E+04 0.  0.
        3    1    3    3  502    0  0.14050041294E+04  0.10701027801E+04  0.99585031029E+03  0.20275291402E+04  0.10100000352E+00 0. -1.
       -3    1    3    3    0  502 -0.14050041294E+04 -0.10701027801E+04 -0.42562553361E+03  0.18166765449E+04  0.10100000352E+00 0.  1.
</event>
<event>
 5   0  0.2205204E-07  0.3793938E+04  0.7818609E-02  0.8047457E-01
        2   -1    0    0  501    0  0.00000000000E+00  0.00000000000E+00  0.17133676514E+04  0.17133676514E+04  0.25500000920E-02 0.  1.
       -2   -1    0    0    0  501  0.00000000000E+00  0.00000000000E+00 -0.21002448403E+04  0.21002448403E+04  0.25500000920E-02 0. -1.
    10030    2    1    2    0    0  0.00000000000E+00  0.00000000000E+00 -0.38687718889E+03  0.38136124918E+04  0.37939380962E+04 0.  0.
        2    1    3    3  502    0  0.12496932545E+03 -0.58336624434E+03  0.16166098633E+04  0.17231833790E+04  0.25500000920E-02 0.  1.
       -2    1    3    3    0  502 -0.12496932545E+03  0.58336624434E+03 -0.20034870522E+04  0.20904291128E+04  0.25500000920E-02 0. -1.
</event>
<event>
 5   0  0.2203998E-07  0.3782962E+04  0.7818609E-02  0.8049821E-01
        2   -1    0    0  501    0  0.00000000000E+00  0.00000000000E+00  0.22846032672E+04  0.22846032672E+04  0.25500000920E-02 0.  1.
       -2   -1    0    0    0  501  0.00000000000E+00  0.00000000000E+00 -0.15660053192E+04  0.15660053192E+04  0.25500000920E-02 0. -1.
    10030    2    1    2    0    0  0.00000000000E+00  0.00000000000E+00  0.71859794803E+03  0.38506085864E+04  0.37829622619E+04 0.  0.
        3    1    3    3  502    0  0.71764324902E+03  0.13895961113E+04 -0.72354345347E+03  0.17232249780E+04  0.10100000352E+00 0. -1.
       -3    1    3    3    0  502 -0.71764324902E+03 -0.13895961113E+04  0.14421414015E+04  0.21273836085E+04  0.10100000352E+00 0.  1.
</event>
<event>
 5   0  0.6661000E-08  0.3810937E+04  0.7818609E-02  0.8043812E-01
        1   -1    0    0  501    0  0.00000000000E+00  0.00000000000E+00  0.14907737419E+04  0.14907737419E+04  0.50400001928E-02 0. -1.
       -1   -1    0    0    0  501  0.00000000000E+00  0.00000000000E+00 -0.24355202837E+04  0.24355202838E+04  0.50400001928E-02 0.  1.
    10030    2    1    2    0    0  0.00000000000E+00  0.00000000000E+00 -0.94474654187E+03  0.39262940256E+04  0.38109367283E+04 0.  0.
        3    1    3    3  502    0 -0.90064786228E+02 -0.99096673059E+03 -0.21465804947E+04  0.23659954686E+04  0.10100000352E+00 0.  1.
       -3    1    3    3    0  502  0.90064786228E+02  0.99096673059E+03  0.12018339528E+04  0.15602985571E+04  0.10100000352E+00 0. -1.
</event>
<event>
 5   0  0.6661000E-08  0.3859116E+04  0.7818609E-02  0.8033586E-01
        1   -1    0    0  501    0  0.00000000000E+00  0.00000000000E+00  0.11233084314E+04  0.11233084314E+04  0.50400001928E-02 0. -1.
       -1   -1    0    0    0  501  0.00000000000E+00  0.00000000000E+00 -0.33144898303E+04  0.33144898303E+04  0.50400001928E-02 0.  1.
    10030    2    1    2    0    0  0.00000000000E+00  0.00000000000E+00 -0.21911813988E+04  0.44377982617E+04  0.38591161538E+04 0.  0.
        2    1    3    3  502    0  0.10465322665E+04  0.48856685130E+03  0.68191928724E+03  0.13412461621E+04  0.25500000920E-02 0. -1.
       -2    1    3    3    0  502 -0.10465322665E+04 -0.48856685130E+03 -0.28731006861E+04  0.30965520996E+04  0.25500000920E-02 0.  1.
</event>
<event>
 5   0  0.2205204E-07  0.3802637E+04  0.7818609E-02  0.8045589E-01
       -2   -1    0    0    0  501  0.00000000000E+00  0.00000000000E+00  0.16948994091E+04  0.16948994091E+04  0.25500000920E-02 0. -1.
        2   -1    0    0  501    0  0.00000000000E+00  0.00000000000E+00 -0.21328769664E+04  0.21328769664E+04  0.25500000920E-02 0.  1.
    10030    2    1    2    0    0  0.00000000000E+00  0.00000000000E+00 -0.43797755725E+03  0.38277763755E+04  0.38026369325E+04 0.  0.
        2    1    3    3  502    0 -0.13383628852E+04 -0.11013324301E+04  0.56775589430E+03  0.18238681667E+04  0.25500000920E-02 0. -1.
       -2    1    3    3    0  502  0.13383628852E+04  0.11013324301E+04 -0.10057334515E+04  0.20039082088E+04  0.25500000920E-02 0.  1.
</event>
<event>
 5   0  0.6661000E-08  0.3820154E+04  0.7818609E-02  0.8041844E-01
        1   -1    0    0  501    0  0.00000000000E+00  0.00000000000E+00  0.24654648393E+04  0.24654648393E+04  0.50400001928E-02 0. -1.
       -1   -1    0    0    0  501  0.00000000000E+00  0.00000000000E+00 -0.14797994075E+04  0.14797994075E+04  0.50400001928E-02 0.  1.
    10030    2    1    2    0    0  0.00000000000E+00  0.00000000000E+00  0.98566543186E+03  0.39452642468E+04  0.38201536139E+04 0.  0.
        2    1    3    3  502    0 -0.65876493265E+03 -0.10298765628E+04 -0.10228056166E+04  0.15939724905E+04  0.25500000920E-02 0.  1.
       -2    1    3    3    0  502  0.65876493265E+03  0.10298765628E+04  0.20084710484E+04  0.23512917563E+04  0.25500000920E-02 0. -1.
</event>
<event>
 5   0  0.6661000E-08  0.3826295E+04  0.7818609E-02  0.8040535E-01
        3   -1    0    0  501    0  0.00000000000E+00  0.00000000000E+00  0.21987114990E+04  0.21987115013E+04  0.10100000352E+00 0. -1.
       -3   -1    0    0    0  501  0.00000000000E+00  0.00000000000E+00 -0.16646723326E+04  0.16646723357E+04  0.10100000352E+00 0.  1.
    10030    2    1    2    0    0  0.00000000000E+00  0.00000000000E+00  0.53403916634E+03  0.38633838370E+04  0.38262954461E+04 0.  0.
        2    1    3    3  502    0  0.13794163161E+04 -0.13110494769E+04  0.46512049702E+03  0.19590755934E+04  0.25500000920E-02 0. -1.
       -2    1    3    3    0  502 -0.13794163161E+04  0.13110494769E+04  0.68918669318E+02  0.19043082436E+04  0.25500000920E-02 0.  1.
</event>
<event>
 5   0  0.2081337E-07  0.3806159E+04  0.7818609E-02  0.8044835E-01
        2   -1    0    0  501    0  0.00000000000E+00  0.00000000000E+00  0.19268125680E+04  0.19268125680E+04  0.25500000920E-02 0. -1.
       -2   -1    0    0    0  501  0.00000000000E+00  0.00000000000E+00 -0.18796384100E+04  0.18796384100E+04  0.25500000920E-02 0.  1.
    10030    2    1    2    0    0  0.00000000000E+00  0.00000000000E+00  0.47174157958E+02  0.38064509780E+04  0.38061586471E+04 0.  0.
        1    1    3    3  502    0 -0.18175161651E+04  0.38649386490E+03  0.43467630274E+03  0.19083202053E+04  0.50400001928E-02 0.  1.
       -1    1    3    3    0  502  0.18175161651E+04 -0.38649386490E+03 -0.38750214478E+03  0.18981307727E+04  0.50400001928E-02 0. -1.
</event>
<event>
 5   0  0.6661000E-08  0.3347053E+04  0.7818609E-02  0.8151025E-01
       -1   -1    0    0    0  501  0.00000000000E+00  0.00000000000E+00  0.32651627612E+04  0.32651627612E+04  0.50400001928E-02 0. -1.
        1   -1    0    0  501    0  0.00000000000E+00  0.00000000000E+00 -0.85774928662E+03  0.85774928664E+03  0.50400001928E-02 0.  1.
    10030    2    1    2    0    0  0.00000000000E+00  0.00000000000E+00  0.24074134745E+04  0.41229120478E+04  0.33470530496E+04 0.  0.
        2    1    3    3  502    0  0.52772640158E+03 -0.71997701308E+03 -0.53999339512E+03  0.10432904299E+04  0.25500000920E-02 0.  1.
       -2    1    3    3    0  502 -0.52772640158E+03  0.71997701308E+03  0.29474068697E+04  0.30796216179E+04  0.25500000920E-02 0. -1.
</event>
<event>
 5   0  0.6661000E-08  0.3798336E+04  0.7818609E-02  0.8046512E-01
       -1   -1    0    0    0  501  0.00000000000E+00  0.00000000000E+00  0.15202768614E+04  0.15202768614E+04  0.50400001928E-02 0.  1.
        1   -1    0    0  501    0  0.00000000000E+00  0.00000000000E+00 -0.23724877262E+04  0.23724877262E+04  0.50400001928E-02 0. -1.
    10030    2    1    2    0    0  0.00000000000E+00  0.00000000000E+00 -0.85221086476E+03  0.38927645876E+04  0.37983355271E+04 0.  0.
        1    1    3    3  502    0  0.61498447031E+03  0.83623885510E+03 -0.20560324280E+04  0.23032087762E+04  0.50400001928E-02 0. -1.
       -1    1    3    3    0  502 -0.61498447031E+03 -0.83623885510E+03  0.12038215633E+04  0.15895558114E+04  0.50400001928E-02 0.  1.
</event>
<event>
 5   0  0.6661000E-08  0.3805013E+04  0.7818609E-02  0.8045080E-01
       -1   -1    0    0    0  501  0.00000000000E+00  0.00000000000E+00  0.26526661574E+04  0.26526661574E+04  0.50400001928E-02 0.  1.
        1   -1    0    0  501    0  0.00000000000E+00  0.00000000000E+00 -0.13644879975E+04  0.13644879975E+04  0.50400001928E-02 0. -1.
    10030    2    1    2    0    0  0.00000000000E+00  0.00000000000E+00  0.12881781599E+04  0.40171541549E+04  0.38050130791E+04 0.  0.
        2    1    3    3  502    0 -0.51639189772E+03  0.13650299365E+04 -0.64443310527E+03  0.15953875224E+04  0.25500000920E-02 0. -1.
       -2    1    3    3    0  502  0.51639189772E+03 -0.13650299365E+04  0.19326112652E+04  0.24217666324E+04  0.25500000920E-02 0.  1.
</event>
<event>
 5   0  0.2081337E-07  0.3773284E+04  0.7818609E-02  0.8051912E-01
        2   -1    0    0  501    0  0.00000000000E+00  0.00000000000E+00  0.22876322614E+04  0.22876322614E+04  0.25500000920E-02 0.  1.
       -2   -1    0    0    0  501  0.00000000000E+00  0.00000000000E+00 -0.15559401587E+04  0.15559401587E+04  0.25500000920E-02 0. -1.
    10030    2    1    2    0    0  0.00000000000E+00  0.00000000000E+00  0.73169210271E+03  0.38435724200E+04  0.37732844598E+04 0.  0.
        1    1    3    3  502    0  0.59462675594E+03  0.14309055814E+04 -0.73046776451E+03  0.17130834529E+04  0.50400001928E-02 0. -1.
       -1    1    3    3    0  502 -0.59462675594E+03 -0.14309055814E+04  0.14621598672E+04  0.21304889671E+04  0.50400001928E-02 0.  1.
</event>
<event>
 5   0  0.1370688E-07  0.3798629E+04  0.7818609E-02  0.8046449E-01
       -2   -1    0    0    0  501  0.00000000000E+00  0.00000000000E+00  0.21474344448E+04  0.21474344448E+04  0.25500000920E-02 0.  1.
        2   -1    0    0  501    0  0.00000000000E+00  0.00000000000E+00 -0.16798625208E+04  0.16798625208E+04  0.25500000920E-02 0. -1.
    10030    2    1    2    0    0  0.00000000000E+00  0.00000000000E+00  0.46757192395E+03  0.38272969656E+04  0.37986285103E+04 0.  0.
        5    1    3    3  502    0  0.24287643612E+03 -0.29290981408E+03 -0.16410605170E+04  0.16846028709E+04  0.46999998093E+01 0. -1.
       -5    1    3    3    0  502 -0.24287643612E+03  0.29290981408E+03  0.21086324409E+04  0.21426940947E+04  0.46999998093E+01 0.  1.
</event>
<event>
 5   0  0.6661000E-08  0.3772804E+04  0.7818609E-02  0.8052016E-01
       -1   -1    0    0    0  501  0.00000000000E+00  0.00000000000E+00  0.15327873733E+04  0.15327873733E+04  0.50400001928E-02 0.  1.
        1   -1    0    0  501    0  0.00000000000E+00  0.00000000000E+00 -0.23215959910E+04  0.23215959910E+04  0.50400001928E-02 0. -1.
    10030    2    1    2    0    0  0.00000000000E+00  0.00000000000E+00 -0.78880861771E+03  0.38543833643E+04  0.37728042732E+04 0.  0.
        3    1    3    3  502    0  0.46407657308E+03 -0.80640145534E+03  0.12820732072E+04  0.15840966169E+04  0.10100000352E+00 0.  1.
       -3    1    3    3    0  502 -0.46407657308E+03  0.80640145534E+03 -0.20708818249E+04  0.22702867475E+04  0.10100000352E+00 0. -1.
</event>
<event>
 5   0  0.2135314E-07  0.3783192E+04  0.7818609E-02  0.8049771E-01
        2   -1    0    0  501    0  0.00000000000E+00  0.00000000000E+00  0.15160217579E+04  0.15160217579E+04  0.25500000920E-02 0. -1.
       -2   -1    0    0    0  501  0.00000000000E+00  0.00000000000E+00 -0.23602143487E+04  0.23602143487E+04  0.25500000920E-02 0.  1.
    10030    2    1    2    0    0  0.00000000000E+00  0.00000000000E+00 -0.84419259074E+03  0.38762361066E+04  0.37831924645E+04 0.  0.
        4    1    3    3  502    0  0.15613558531E+04 -0.73990662370E+03 -0.12109942355E+04  0.21099295162E+04  0.12699999809E+01 0.  1.
       -4    1    3    3    0  502 -0.15613558531E+04  0.73990662370E+03  0.36680164476E+03  0.17663065904E+04  0.12699999809E+01 0. -1.
</event>
<event>
 5   0  0.6661000E-08  0.3777116E+04  0.7818609E-02  0.8051084E-01
        1   -1    0    0  501    0  0.00000000000E+00  0.00000000000E+00  0.14919075899E+04  0.14919075899E+04  0.50400001928E-02 0.  1.
       -1   -1    0    0    0  501  0.00000000000E+00  0.00000000000E+00 -0.23906650380E+04  0.23906650380E+04  0.50400001928E-02 0. -1.
    10030    2    1    2    0    0  0.00000000000E+00  0.00000000000E+00 -0.89875744808E+03  0.38825726279E+04  0.37771159977E+04 0.  0.
        4    1    3    3  502    0 -0.40294245260E+01 -0.87512510691E+03 -0.21696601560E+04  0.23395057159E+04  0.12699999809E+01 0. -1.
       -4    1    3    3    0  502  0.40294245260E+01  0.87512510691E+03  0.12709027080E+04  0.15430669120E+04  0.12699999809E+01 0.  1.
</event>
<event>
 5   0  0.6725199E-08  0.3773702E+04  0.7818609E-02  0.8051822E-01
       -1   -1    0    0    0  501  0.00000000000E+00  0.00000000000E+00  0.20008195563E+04  0.20008195563E+04  0.50400001928E-02 0.  1.
        1   -1    0    0  501    0  0.00000000000E+00  0.00000000000E+00 -0.17793745293E+04  0.17793745293E+04  0.50400001928E-02 0. -1.
    10030    2    1    2    0    0  0.00000000000E+00  0.00000000000E+00  0.22144502705E+03  0.37801940856E+04  0.37737023498E+04 0.  0.
        5    1    3    3  502    0  0.14468977548E+03 -0.14422963865E+04  0.13207040845E+04  0.19609781657E+04  0.46999998093E+01 0.  1.
       -5    1    3    3    0  502 -0.14468977548E+03  0.14422963865E+04 -0.10992590575E+04  0.18192159199E+04  0.46999998093E+01 0. -1.
</event>
<event>
 5   0  0.6661000E-08  0.3789176E+04  0.7818609E-02  0.8048482E-01
       -1   -1    0    0    0  501  0.00000000000E+00  0.00000000000E+00  0.17848540722E+04  0.17848540722E+04  0.50400001928E-02 0. -1.
        1   -1    0    0  501    0  0.00000000000E+00  0.00000000000E+00 -0.20110680848E+04  0.20110680848E+04  0.50400001928E-02 0.  1.
    10030    2    1    2    0    0  0.00000000000E+00  0.00000000000E+00 -0.22621401263E+03  0.37959221571E+04  0.37891756680E+04 0.  0.
        2    1    3    3  502    0 -0.31761286322E+03  0.54761005873E+03 -0.19019818537E+04  0.20045672049E+04  0.25500000920E-02 0.  1.
       -2    1    3    3    0  502  0.31761286322E+03 -0.54761005873E+03  0.16757678411E+04  0.17913549521E+04  0.25500000920E-02 0. -1.
</event>
<event>
 5   0  0.1370688E-07  0.3744121E+04  0.7818609E-02  0.8058254E-01
       -2   -1    0    0    0  501  0.00000000000E+00  0.00000000000E+00  0.15642489050E+04  0.15642489050E+04  0.25500000920E-02 0.  1.
        2   -1    0    0  501    0  0.00000000000E+00  0.00000000000E+00 -0.22404426151E+04  0.22404426151E+04  0.25500000920E-02 0. -1.
    10030    2    1    2    0    0  0.00000000000E+00  0.00000000000E+00 -0.67619371013E+03  0.38046915202E+04  0.37441206751E+04 0.  0.
        5    1    3    3  502    0  0.15471554394E+04  0.10482863480E+04 -0.44938382819E+03  0.19221243810E+04  0.46999998093E+01 0. -1.
       -5    1    3    3    0  502 -0.15471554394E+04 -0.10482863480E+04 -0.22680988195E+03  0.18825671392E+04  0.46999998093E+01 0.  1.
</event>
<event>
 5   0  0.6725199E-08  0.3783439E+04  0.7818609E-02  0.8049718E-01
       -1   -1    0    0    0  501  0.00000000000E+00  0.00000000000E+00  0.22844566136E+04  0.22844566136E+04  0.50400001928E-02 0.  1.
        1   -1    0    0  501    0  0.00000000000E+00  0.00000000000E+00 -0.15665009968E+04  0.15665009968E+04  0.50400001928E-02 0. -1.
    10030    2    1    2    0    0  0.00000000000E+00  0.00000000000E+00  0.71795561679E+03  0.38509576104E+04  0.37834394734E+04 0.  0.
        5    1    3    3  502    0  0.79242653969E+03 -0.11303436769E+04 -0.95753579871E+03  0.16800337927E+04  0.46999998093E+01 0. -1.
       -5    1    3    3    0  502 -0.79242653969E+03  0.11303436769E+04  0.16754914155E+04  0.21709238177E+04  0.46999998093E+01 0.  1.
</event>
<event>
 5   0  0.6725199E-08  0.3788323E+04  0.7818609E-02  0.8048665E-01
        1   -1    0    0  501    0  0.00000000000E+00  0.00000000000E+00  0.25027832107E+04  0.25027832107E+04  0.50400001928E-02 0.  1.
       -1   -1    0    0    0  501  0.00000000000E+00  0.00000000000E+00 -0.14335434884E+04  0.14335434884E+04  0.50400001928E-02 0. -1.
    10030    2    1    2    0    0  0.00000000000E+00  0.00000000000E+00  0.10692397223E+04  0.39363266991E+04  0.37883234152E+04 0.  0.
        5    1    3    3  502    0 -0.15048357328E+03 -0.18710534600E+04  0.79818322952E+03  0.20397560918E+04  0.46999998093E+01 0.  1.
       -5    1    3    3    0  502  0.15048357328E+03  0.18710534600E+04  0.27105649278E+03  0.18965706073E+04  0.46999998093E+01 0. -1.
</event>
<event>
 5   0  0.6661000E-08  0.3794138E+04  0.7818609E-02  0.8047414E-01
       -1   -1    0    0    0  501  0.00000000000E+00  0.00000000000E+00  0.21848955675E+04  0.21848955675E+04  0.50400001928E-02 0.  1.
        1   -1    0    0  501    0  0.00000000000E+00  0.00000000000E+00 -0.16471587905E+04  0.16471587905E+04  0.50400001928E-02 0. -1.
    10030    2    1    2    0    0  0.00000000000E+00  0.00000000000E+00  0.53773677699E+03  0.38320543580E+04  0.37941375517E+04 0.  0.
        2    1    3    3  502    0  0.31954785890E+03  0.18516020931E+04  0.53287844532E+03  0.19530746485E+04  0.25500000920E-02 0.  1.
       -2    1    3    3    0  502 -0.31954785890E+03 -0.18516020931E+04  0.48583316750E+01  0.18789797094E+04  0.25500000920E-02 0. -1.
</event>
<event>
 5   0  0.1370688E-07  0.3810043E+04  0.7818609E-02  0.8044003E-01
        2   -1    0    0  501    0  0.00000000000E+00  0.00000000000E+00  0.16923105924E+04  0.16923105924E+04  0.25500000920E-02 0.  1.
       -2   -1    0    0    0  501  0.00000000000E+00  0.00000000000E+00 -0.21444688670E+04  0.21444688670E+04  0.25500000920E-02 0. -1.
    10030    2    1    2    0    0  0.00000000000E+00  0.00000000000E+00 -0.45215827461E+03  0.38367794595E+04  0.38100432432E+04 0.  0.
        5    1    3    3  502    0  0.15294453584E+04  0.11341522316E+04 -0.16581859737E+03  0.19112881222E+04  0.46999998093E+01 0. -1.
       -5    1    3    3    0  502 -0.15294453584E+04 -0.11341522316E+04 -0.28633967724E+03  0.19254913372E+04  0.46999998093E+01 0.  1.
</event>
<event>
 5   0  0.1370688E-07  0.3786944E+04  0.7818609E-02  0.8048962E-01
       -2   -1    0    0    0  501  0.00000000000E+00  0.00000000000E+00  0.15165928486E+04  0.15165928486E+04  0.25500000920E-02 0. -1.
        2   -1    0    0  501    0  0.00000000000E+00  0.00000000000E+00 -0.23640076127E+04  0.23640076127E+04  0.25500000920E-02 0.  1.
    10030    2    1    2    0    0  0.00000000000E+00  0.00000000000E+00 -0.84741476406E+03  0.38806004613E+04  0.37869444355E+04 0.  0.
        5    1    3    3  502    0 -0.98331489898E+03  0.14067519919E+04  0.39566483155E+03  0.17613722225E+04  0.46999998093E+01 0. -1.
       -5    1    3    3    0  502  0.98331489898E+03 -0.14067519919E+04 -0.12430795956E+04  0.21192282388E+04  0.46999998093E+01 0.  1.
</event>
<event>
 5   0  0.2081337E-07  0.3805749E+04  0.7818609E-02  0.8044922E-01
        2   -1    0    0  501    0  0.00000000000E+00  0.00000000000E+00  0.15330801276E+04  0.15330801276E+04  0.25500000920E-02 0. -1.
       -2   -1    0    0    0  501  0.00000000000E+00  0.00000000000E+00 -0.23618676129E+04  0.23618676129E+04  0.25500000920E-02 0.  1.
    10030    2    1    2    0    0  0.00000000000E+00  0.00000000000E+00 -0.82878748527E+03  0.38949477405E+04  0.38057494932E+04 0.  0.
        1    1    3    3  502    0  0.88149429772E+03  0.14749250429E+04 -0.12511730180E+04  0.21255281697E+04  0.50400001928E-02 0.  1.
       -1    1    3    3    0  502 -0.88149429772E+03 -0.14749250429E+04  0.42238553270E+03  0.17694195708E+04  0.50400001928E-02 0. -1.
</event>
<event>
 5   0  0.6725199E-08  0.3819337E+04  0.7818609E-02  0.8042018E-01
        1   -1    0    0  501    0  0.00000000000E+00  0.00000000000E+00  0.16151619891E+04  0.16151619891E+04  0.50400001928E-02 0. -1.
       -1   -1    0    0    0  501  0.00000000000E+00  0.00000000000E+00 -0.22578751114E+04  0.22578751115E+04  0.50400001928E-02 0.  1.
    10030    2    1    2    0    0  0.00000000000E+00  0.00000000000E+00 -0.64271312233E+03  0.38730371006E+04  0.38193371447E+04 0.  0.
        5    1    3    3  502    0 -0.51729567313E+03  0.40515883678E+03 -0.21396268241E+04  0.22382523389E+04  0.46999998093E+01 0.  1.
       -5    1    3    3    0  502  0.51729567313E+03 -0.40515883678E+03  0.14969137017E+04  0.16347847616E+04  0.46999998093E+01 0. -1.
</event>
<event>
 5   0  0.6661000E-08  0.3781147E+04  0.7818609E-02  0.8050213E-01
       -1   -1    0    0    0  501  0.00000000000E+00  0.00000000000E+00  0.12932400586E+04  0.12932400587E+04  0.50400001928E-02 0. -1.
        1   -1    0    0  501    0  0.00000000000E+00  0.00000000000E+00 -0.27638091898E+04  0.27638091898E+04  0.50400001928E-02 0.  1.
    10030    2    1    2    0    0  0.00000000000E+00  0.00000000000E+00 -0.14705691312E+04  0.40570492485E+04  0.37811473173E+04 0.  0.
        2    1    3    3  502    0 -0.74330439722E+02 -0.14108972935E+04 -0.20831783516E+04  0.25170991700E+04  0.25500000920E-02 0.  1.
       -2    1    3    3    0  502  0.74330439722E+02  0.14108972935E+04  0.61260922046E+03  0.15399500784E+04  0.25500000920E-02 0. -1.
</event>
<event>
 5   0  0.6661000E-08  0.3762417E+04  0.7818609E-02  0.8054269E-01
        1   -1    0    0  501    0  0.00000000000E+00  0.00000000000E+00  0.20894713267E+04  0.20894713267E+04  0.50400001928E-02 0.  1.
       -1   -1    0    0    0  501  0.00000000000E+00  0.00000000000E+00 -0.16937033483E+04  0.16937033483E+04  0.50400001928E-02 0. -1.
    10030    2    1    2    0    0  0.00000000000E+00  0.00000000000E+00  0.39576797837E+03  0.37831746750E+04  0.37624165544E+04 0.  0.
        1    1    3    3  502    0 -0.20454770857E+02 -0.26516019280E+03  0.20704735673E+04  0.20874839205E+04  0.50400001928E-02 0.  1.
       -1    1    3    3    0  502  0.20454770857E+02  0.26516019280E+03 -0.16747055889E+04  0.16956907545E+04  0.50400001928E-02 0. -1.
</event>
<event>
 5   0  0.1370688E-07  0.3818702E+04  0.7818609E-02  0.8042153E-01
       -2   -1    0    0    0  501  0.00000000000E+00  0.00000000000E+00  0.17195371162E+04  0.17195371162E+04  0.25500000920E-02 0.  1.
        2   -1    0    0  501    0  0.00000000000E+00  0.00000000000E+00 -0.21201174240E+04  0.21201174240E+04  0.25500000920E-02 0. -1.
    10030    2    1    2    0    0  0.00000000000E+00  0.00000000000E+00 -0.40058030779E+03  0.38396545401E+04  0.38187016648E+04 0.  0.
        5    1    3    3  502    0  0.16905168629E+03 -0.13447292302E+04 -0.15525572861E+04  0.20609054786E+04  0.46999998093E+01 0. -1.
       -5    1    3    3    0  502 -0.16905168629E+03  0.13447292302E+04  0.11519769783E+04  0.17787490615E+04  0.46999998093E+01 0.  1.
</event>
<event>
 5   0  0.1370688E-07  0.3798558E+04  0.7818609E-02  0.8046464E-01
        2   -1    0    0  501    0  0.00000000000E+00  0.00000000000E+00  0.22374433620E+04  0.22374433620E+04  0.25500000920E-02 0.  1.
       -2   -1    0    0    0  501  0.00000000000E+00  0.00000000000E+00 -0.16122243488E+04  0.16122243488E+04  0.25500000920E-02 0. -1.
    10030    2    1    2    0    0  0.00000000000E+00  0.00000000000E+00  0.62521901320E+03  0.38496677107E+04  0.37985579722E+04 0.  0.
        5    1    3    3  502    0 -0.10823937176E+04  0.85608435301E+03 -0.10098549564E+04  0.17100542981E+04  0.46999998093E+01 0. -1.
       -5    1    3    3    0  502  0.10823937176E+04 -0.85608435301E+03  0.16350739696E+04  0.21396134126E+04  0.46999998093E+01 0.  1.
</event>
<event>
 5   0  0.2135314E-07  0.3777059E+04  0.7818609E-02  0.8051096E-01
       -2   -1    0    0    0  501  0.00000000000E+00  0.00000000000E+00  0.18191315331E+04  0.18191315331E+04  0.25500000920E-02 0.  1.
        2   -1    0    0  501    0  0.00000000000E+00  0.00000000000E+00 -0.19605749369E+04  0.19605749369E+04  0.25500000920E-02 0. -1.
    10030    2    1    2    0    0  0.00000000000E+00  0.00000000000E+00 -0.14144340382E+03  0.37797064700E+04  0.37770590098E+04 0.  0.
        4    1    3    3  502    0  0.21858312006E+03 -0.15871386114E+04  0.92985639914E+03  0.18524098056E+04  0.12699999809E+01 0.  1.
       -4    1    3    3    0  502 -0.21858312006E+03  0.15871386114E+04 -0.10712998030E+04  0.19272966644E+04  0.12699999809E+01 0. -1.
</event>
<event>
 5   0  0.6725199E-08  0.3817962E+04  0.7818609E-02  0.8042311E-01
       -1   -1    0    0    0  501  0.00000000000E+00  0.00000000000E+00  0.19177679472E+04  0.19177679472E+04  0.50400001928E-02 0. -1.
        1   -1    0    0  501    0  0.00000000000E+00  0.00000000000E+00 -0.19002344671E+04  0.19002344671E+04  0.50400001928E-02 0.  1.
    10030    2    1    2    0    0  0.00000000000E+00  0.00000000000E+00  0.17533480080E+02  0.38180024144E+04  0.38179621545E+04 0.  0.
        5    1    3    3  502    0 -0.16926164562E+04 -0.71513960645E+03  0.52627730703E+03  0.19113777801E+04  0.46999998093E+01 0. -1.
       -5    1    3    3    0  502  0.16926164562E+04  0.71513960645E+03 -0.50874382695E+03  0.19066246342E+04  0.46999998093E+01 0.  1.
</event>
<event>
 5   0  0.2205204E-07  0.3831744E+04  0.7818609E-02  0.8039377E-01
        2   -1    0    0  501    0  0.00000000000E+00  0.00000000000E+00  0.27616058577E+04  0.27616058577E+04  0.25500000920E-02 0.  1.
       -2   -1    0    0    0  501  0.00000000000E+00  0.00000000000E+00 -0.13291414647E+04  0.13291414647E+04  0.25500000920E-02 0. -1.
    10030    2    1    2    0    0  0.00000000000E+00  0.00000000000E+00  0.14324643930E+04  0.40907473224E+04  0.38317436525E+04 0.  0.
        2    1    3    3  502    0 -0.52742014354E+02  0.31849702423E+02 -0.13280835213E+04  0.13295119267E+04  0.25500000920E-02 0. -1.
       -2    1    3    3    0  502  0.52742014354E+02 -0.31849702423E+02  0.27605479143E+04  0.27612353957E+04  0.25500000920E-02 0.  1.
</event>
<event>
 5   0  0.6661000E-08  0.3812360E+04  0.7818609E-02  0.8043508E-01
       -1   -1    0    0    0  501  0.00000000000E+00  0.00000000000E+00  0.20288021732E+04  0.20288021733E+04  0.50400001928E-02 0. -1.
        1   -1    0    0  501    0  0.00000000000E+00  0.00000000000E+00 -0.17909694211E+04  0.17909694211E+04  0.50400001928E-02 0.  1.
    10030    2    1    2    0    0  0.00000000000E+00  0.00000000000E+00  0.23783275215E+03  0.38197715943E+04  0.38123602420E+04 0.  0.
        2    1    3    3  502    0  0.12556147106E+04  0.12576846135E+04 -0.57175945703E+03  0.18668818295E+04  0.25500000920E-02 0.  1.
       -2    1    3    3    0  502 -0.12556147106E+04 -0.12576846135E+04  0.80959220918E+03  0.19528897649E+04  0.25500000920E-02 0. -1.
</event>
<event>
 5   0  0.2205204E-07  0.3815924E+04  0.7818609E-02  0.8042746E-01
        2   -1    0    0  501    0  0.00000000000E+00  0.00000000000E+00  0.12954027597E+04  0.12954027597E+04  0.25500000920E-02 0.  1.
       -2   -1    0    0    0  501  0.00000000000E+00  0.00000000000E+00 -0.28101831963E+04  0.28101831963E+04  0.25500000920E-02 0. -1.
    10030    2    1    2    0    0  0.00000000000E+00  0.00000000000E+00 -0.15147804366E+04  0.41055859560E+04  0.38159240389E+04 0.  0.
        2    1    3    3  502    0  0.68466634607E+03  0.71016880875E+03  0.99974078439E+03  0.14044890097E+04  0.25500000920E-02 0. -1.
       -2    1    3    3    0  502 -0.68466634607E+03 -0.71016880875E+03 -0.25145212210E+04  0.27010969463E+04  0.25500000920E-02 0.  1.
</event>
<event>
 5   0  0.6725199E-08  0.3771954E+04  0.7818609E-02  0.8052200E-01
       -1   -1    0    0    0  501  0.00000000000E+00  0.00000000000E+00  0.23858828972E+04  0.23858828972E+04  0.50400001928E-02 0.  1.
        1   -1    0    0  501    0  0.00000000000E+00  0.00000000000E+00 -0.14908148087E+04  0.14908148087E+04  0.50400001928E-02 0. -1.
    10030    2    1    2    0    0  0.00000000000E+00  0.00000000000E+00  0.89506808845E+03  0.38766977059E+04  0.37719541646E+04 0.  0.
        5    1    3    3  502    0  0.13056832392E+04  0.81242156154E+03 -0.67459488138E+03  0.16792670600E+04  0.46999998093E+01 0. -1.
       -5    1    3    3    0  502 -0.13056832392E+04 -0.81242156154E+03  0.15696629698E+04  0.21974306459E+04  0.46999998093E+01 0.  1.
</event>
<event>
 5   0  0.2135314E-07  0.3794107E+04  0.7818609E-02  0.8047421E-01
       -2   -1    0    0    0  501  0.00000000000E+00  0.00000000000E+00  0.15923892028E+04  0.15923892028E+04  0.25500000920E-02 0.  1.
        2   -1    0    0  501    0  0.00000000000E+00  0.00000000000E+00 -0.22600077511E+04  0.22600077511E+04  0.25500000920E-02 0. -1.
    10030    2    1    2    0    0  0.00000000000E+00  0.00000000000E+00 -0.66761854832E+03  0.38523969539E+04  0.37941069785E+04 0.  0.
        4    1    3    3  502    0  0.19565478253E+03 -0.18791986749E+04 -0.16047669504E+03  0.18961600239E+04  0.12699999809E+01 0.  1.
       -4    1    3    3    0  502 -0.19565478253E+03  0.18791986749E+04 -0.50714185328E+03  0.19562369299E+04  0.12699999809E+01 0. -1.
</event>
<event>
 5   0  0.6661000E-08  0.3768830E+04  0.7818609E-02  0.8052877E-01
        1   -1    0    0  501    0  0.00000000000E+00  0.00000000000E+00  0.17477854232E+04  0.17477854232E+04  0.50400001928E-02 0.  1.
       -1   -1    0    0    0  501  0.00000000000E+00  0.00000000000E+00 -0.20317248384E+04  0.20317248384E+04  0.50400001928E-02 0. -1.
    10030    2    1    2    0    0  0.00000000000E+00  0.00000000000E+00 -0.28393941521E+03  0.37795102616E+04  0.37688295566E+04 0.  0.
        1    1    3    3  502    0  0.34208816001E+03  0.16324261311E+04 -0.10214840608E+04  0.19558295092E+04  0.50400001928E-02 0. -1.
       -1    1    3    3    0  502 -0.34208816001E+03 -0.16324261311E+04  0.73754464554E+03  0.18236807524E+04  0.50400001928E-02 0.  1.
</event>
<event>
 5   0  0.6725199E-08  0.3823752E+04  0.7818609E-02  0.8041077E-01
        1   -1    0    0  501    0  0.00000000000E+00  0.00000000000E+00  0.22123547290E+04  0.22123547290E+04  0.50400001928E-02 0. -1.
       -1   -1    0    0    0  501  0.00000000000E+00  0.00000000000E+00 -0.16522080065E+04  0.16522080065E+04  0.50400001928E-02 0.  1.
    10030    2    1    2    0    0  0.00000000000E+00  0.00000000000E+00  0.56014672245E+03  0.38645627355E+04  0.38237521867E+04 0.  0.
        5    1    3    3  502    0 -0.11735206240E+04  0.90790978086E+03 -0.93853049933E+03  0.17556515637E+04  0.46999998093E+01 0.  1.
       -5    1    3    3    0  502  0.11735206240E+04 -0.90790978086E+03  0.14986772218E+04  0.21089111717E+04  0.46999998093E+01 0. -1.
</event>
<event>
 5   0  0.6661000E-08  0.3797136E+04  0.7818609E-02  0.8046770E-01
       -1   -1    0    0    0  501  0.00000000000E+00  0.00000000000E+00  0.19578044505E+04  0.19578044505E+04  0.50400001928E-02 0. -1.
        1   -1    0    0  501    0  0.00000000000E+00  0.00000000000E+00 -0.18411239662E+04  0.18411239662E+04  0.50400001928E-02 0.  1.
    10030    2    1    2    0    0  0.00000000000E+00  0.00000000000E+00  0.11668048429E+03  0.37989284166E+04  0.37971361286E+04 0.  0.
        4    1    3    3  502    0  0.31451185799E+03 -0.10721869520E+04  0.15940098696E+04  0.19466308448E+04  0.12699999809E+01 0. -1.
       -4    1    3    3    0  502 -0.31451185799E+03  0.10721869520E+04 -0.14773293853E+04  0.18522975718E+04  0.12699999809E+01 0.  1.
</event>
<event>
 5   0  0.2205204E-07  0.3750051E+04  0.7818609E-02  0.8056960E-01
       -2   -1    0    0    0  501  0.00000000000E+00  0.00000000000E+00  0.22990960154E+04  0.22990960154E+04  0.25500000920E-02 0.  1.
        2   -1    0    0  501    0  0.00000000000E+00  0.00000000000E+00 -0.15291753588E+04  0.15291753588E+04  0.25500000920E-02 0. -1.
    10030    2    1    2    0    0  0.00000000000E+00  0.00000000000E+00  0.76992065662E+03  0.38282713743E+04  0.37500511860E+04 0.  0.
        2    1    3    3  502    0  0.17776152974E+04  0.57754743454E+03  0.53721474929E+03  0.19447562499E+04  0.25500000920E-02 0.  1.
       -2    1    3    3    0  502 -0.17776152974E+04 -0.57754743454E+03  0.23270590733E+03  0.18835151244E+04  0.25500000920E-02 0. -1.
</event>
<event>
 5   0  0.2203998E-07  0.3796066E+04  0.7818609E-02  0.8047000E-01
       -2   -1    0    0    0  501  0.00000000000E+00  0.00000000000E+00  0.15959726217E+04  0.15959726217E+04  0.25500000920E-02 0.  1.
        2   -1    0    0  501    0  0.00000000000E+00  0.00000000000E+00 -0.22572626060E+04  0.22572626060E+04  0.25500000920E-02 0. -1.
    10030    2    1    2    0    0  0.00000000000E+00  0.00000000000E+00 -0.66128998437E+03  0.38532352277E+04  0.37960660264E+04 0.  0.
        3    1    3    3  502    0  0.10466678019E+04  0.12295907338E+04  0.68193659567E+03  0.17528389518E+04  0.10100000352E+00 0.  1.
       -3    1    3    3    0  502 -0.10466678019E+04 -0.12295907338E+04 -0.13432265800E+04  0.21003962759E+04  0.10100000352E+00 0. -1.
</event>
<event>
 5   0  0.6661000E-08  0.3812186E+04  0.7818609E-02  0.8043545E-01
        1   -1    0    0  501    0  0.00000000000E+00  0.00000000000E+00  0.18178493238E+04  0.18178493238E+04  0.50400001928E-02 0.  1.
       -1   -1    0    0    0  501  0.00000000000E+00  0.00000000000E+00 -0.19986207574E+04  0.19986207574E+04  0.50400001928E-02 0. -1.
    10030    2    1    2    0    0  0.00000000000E+00  0.00000000000E+00 -0.18077143356E+03  0.38164700812E+04  0.38121864552E+04 0.  0.
        3    1    3    3  502    0 -0.12199102700E+04 -0.35399470137E+03  0.13323720105E+04  0.18408445073E+04  0.10100000352E+00 0.  1.
       -3    1    3    3    0  502  0.12199102700E+04  0.35399470137E+03 -0.15131434441E+04  0.19756255739E+04  0.10100000352E+00 0. -1.
</event>
<event>
 5   0  0.1370688E-07  0.3762542E+04  0.7818609E-02  0.8054241E-01
        2   -1    0    0  501    0  0.00000000000E+00  0.00000000000E+00  0.28073878261E+04  0.28073878261E+04  0.25500000920E-02 0. -1.
       -2   -1    0    0    0  501  0.00000000000E+00  0.00000000000E+00 -0.12606668035E+04  0.12606668035E+04  0.25500000920E-02 0.  1.
    10030    2    1    2    0    0  0.00000000000E+00  0.00000000000E+00  0.15467210226E+04  0.40680546297E+04  0.37625420327E+04 0.  0.
        5    1    3    3  502    0 -0.11283744053E+04  0.34487439057E+03 -0.81087800907E+03  0.14316816613E+04  0.46999998093E+01 0.  1.
       -5    1    3    3    0  502  0.11283744053E+04 -0.34487439057E+03  0.23575990317E+04  0.26363729683E+04  0.46999998093E+01 0. -1.
</event>
<event>
 5   0  0.1370688E-07  0.3841985E+04  0.7818609E-02  0.8037205E-01
       -2   -1    0    0    0  501  0.00000000000E+00  0.00000000000E+00  0.17303058478E+04  0.17303058478E+04  0.25500000920E-02 0.  1.
        2   -1    0    0  501    0  0.00000000000E+00  0.00000000000E+00 -0.21326933011E+04  0.21326933011E+04  0.25500000920E-02 0. -1.
    10030    2    1    2    0    0  0.00000000000E+00  0.00000000000E+00 -0.40238745327E+03  0.38629991490E+04  0.38419847426E+04 0.  0.
        5    1    3    3  502    0 -0.40400022766E+03  0.16668968800E+04 -0.10710430909E+04  0.20221070162E+04  0.46999998093E+01 0. -1.
       -5    1    3    3    0  502  0.40400022766E+03 -0.16668968800E+04  0.66865563767E+03  0.18408921327E+04  0.46999998093E+01 0.  1.
</event>
<event>
 5   0  0.1370688E-07  0.3808983E+04  0.7818609E-02  0.8044230E-01
        2   -1    0    0  501    0  0.00000000000E+00  0.00000000000E+00  0.18950236523E+04  0.18950236523E+04  0.25500000920E-02 0.  1.
       -2   -1    0    0    0  501  0.00000000000E+00  0.00000000000E+00 -0.19140064363E+04  0.19140064363E+04  0.25500000920E-02 0. -1.
    10030    2    1    2    0    0  0.00000000000E+00  0.00000000000E+00 -0.18982783978E+02  0.38090300886E+04  0.38089827868E+04 0.  0.
        5    1    3    3  502    0  0.12358908982E+04 -0.10622157329E+04 -0.99506783616E+03  0.19094267894E+04  0.46999998093E+01 0. -1.
       -5    1    3    3    0  502 -0.12358908982E+04  0.10622157329E+04  0.97608505218E+03  0.18996032992E+04  0.46999998093E+01 0.  1.
</event>
<event>
 5   0  0.6661000E-08  0.3562017E+04  0.7818609E-02  0.8099248E-01
        1   -1    0    0  501    0  0.00000000000E+00  0.00000000000E+00  0.16145632002E+04  0.16145632002E+04  0.50400001928E-02 0.  1.
       -1   -1    0    0    0  501  0.00000000000E+00  0.00000000000E+00 -0.19646128236E+04  0.19646128236E+04  0.50400001928E-02 0. -1.
    10030    2    1    2    0    0  0.00000000000E+00  0.00000000000E+00 -0.35004962340E+03  0.35791760239E+04  0.35620171632E+04 0.  0.
        4    1    3    3  502    0  0.13887285503E+04 -0.53203714406E+03 -0.11597248526E+04  0.18858933839E+04  0.12699999809E+01 0. -1.
       -4    1    3    3    0  502 -0.13887285503E+04  0.53203714406E+03  0.80967522920E+03  0.16932826399E+04  0.12699999809E+01 0.  1.
</event>
<event>
 5   0  0.2135314E-07  0.4210203E+04  0.7818609E-02  0.7963434E-01
        2   -1    0    0  501    0  0.00000000000E+00  0.00000000000E+00  0.14669563391E+04  0.14669563391E+04  0.25500000920E-02 0.  1.
       -2   -1    0    0    0  501  0.00000000000E+00  0.00000000000E+00 -0.30208476848E+04  0.30208476848E+04  0.25500000920E-02 0. -1.
    10030    2    1    2    0    0  0.00000000000E+00  0.00000000000E+00 -0.15538913458E+04  0.44878040239E+04  0.42102026843E+04 0.  0.
        4    1    3    3  502    0 -0.14301633631E+04  0.14857078775E+04 -0.32627441218E+03  0.20878581723E+04  0.12699999809E+01 0. -1.
       -4    1    3    3    0  502  0.14301633631E+04 -0.14857078775E+04 -0.12276169336E+04  0.23999458517E+04  0.12699999809E+01 0.  1.
</event>
<event>
 5   0  0.6661000E-08  0.3771808E+04  0.7818609E-02  0.8052232E-01
       -1   -1    0    0    0  501  0.00000000000E+00  0.00000000000E+00  0.21820740744E+04  0.21820740744E+04  0.50400001928E-02 0.  1.
        1   -1    0    0  501    0  0.00000000000E+00  0.00000000000E+00 -0.16299326517E+04  0.16299326517E+04  0.50400001928E-02 0. -1.
    10030    2    1    2    0    0  0.00000000000E+00  0.00000000000E+00  0.55214142273E+03  0.38120067261E+04  0.37718079391E+04 0.  0.
        4    1    3    3  502    0  0.18092538884E+04  0.19315852093E+03  0.77726148069E+03  0.19785971973E+04  0.12699999809E+01 0.  1.
       -4    1    3    3    0  502 -0.18092538884E+04 -0.19315852093E+03 -0.22512005796E+03  0.18334095288E+04  0.12699999809E+01 0. -1.
</event>
<event>
 5   0  0.6661000E-08  0.3803868E+04  0.7818609E-02  0.8045325E-01
       -3   -1    0    0    0  501  0.00000000000E+00  0.00000000000E+00  0.23737513804E+04  0.23737513825E+04  0.10100000352E+00 0. -1.
        3   -1    0    0  501    0  0.00000000000E+00  0.00000000000E+00 -0.15238972799E+04  0.15238972833E+04  0.10100000352E+00 0.  1.
    10030    2    1    2    0    0  0.00000000000E+00  0.00000000000E+00  0.84985410045E+03  0.38976486658E+04  0.38038681799E+04 0.  0.
        5    1    3    3  502    0 -0.70814449611E+03 -0.47560816966E+03  0.21667361754E+04  0.23286132144E+04  0.46999998093E+01 0. -1.
       -5    1    3    3    0  502  0.70814449611E+03  0.47560816966E+03 -0.13168820750E+04  0.15690354514E+04  0.46999998093E+01 0.  1.
</event>
<event>
 5   0  0.6661000E-08  0.3797291E+04  0.7818609E-02  0.8046737E-01
       -1   -1    0    0    0  501  0.00000000000E+00  0.00000000000E+00  0.13727703268E+04  0.13727703268E+04  0.50400001928E-02 0.  1.
        1   -1    0    0  501    0  0.00000000000E+00  0.00000000000E+00 -0.26259702520E+04  0.26259702520E+04  0.50400001928E-02 0. -1.
    10030    2    1    2    0    0  0.00000000000E+00  0.00000000000E+00 -0.12531999252E+04  0.39987405788E+04  0.37972906347E+04 0.  0.
        1    1    3    3  502    0  0.53338016000E+03 -0.18042996997E+04 -0.89479168047E+03  0.20834212135E+04  0.50400001928E-02 0. -1.
       -1    1    3    3    0  502 -0.53338016000E+03  0.18042996997E+04 -0.35840824474E+03  0.19153193653E+04  0.50400001928E-02 0.  1.
</event>
<event>
 5   0  0.6661000E-08  0.3799732E+04  0.7818609E-02  0.8046212E-01
       -1   -1    0    0    0  501  0.00000000000E+00  0.00000000000E+00  0.12550349354E+04  0.12550349354E+04  0.50400001928E-02 0.  1.
        1   -1    0    0  501    0  0.00000000000E+00  0.00000000000E+00 -0.28760085751E+04  0.28760085751E+04  0.50400001928E-02 0. -1.
    10030    2    1    2    0    0  0.00000000000E+00  0.00000000000E+00 -0.16209736398E+04  0.41310435105E+04  0.37997322201E+04 0.  0.
        2    1    3    3  502    0 -0.94332034692E+03  0.24187297079E+03  0.96305023177E+03  0.13696063521E+04  0.25500000920E-02 0.  1.
       -2    1    3    3    0  502  0.94332034692E+03 -0.24187297079E+03 -0.25840238715E+04  0.27614371584E+04  0.25500000920E-02 0. -1.
</event>
<event>
 5   0  0.2135314E-07  0.3801993E+04  0.7818609E-02  0.8045727E-01
        2   -1    0    0  501    0  0.00000000000E+00  0.00000000000E+00  0.27045390001E+04  0.27045390001E+04  0.25500000920E-02 0. -1.
       -2   -1    0    0    0  501  0.00000000000E+00  0.00000000000E+00 -0.13361933388E+04  0.13361933388E+04  0.25500000920E-02 0.  1.
    10030    2    1    2    0    0  0.00000000000E+00  0.00000000000E+00  0.13683456614E+04  0.40407323389E+04  0.38019926336E+04 0.  0.
        4    1    3    3  502    0  0.12151830011E+04  0.21152063604E+03 -0.85316225906E+03  0.14997660347E+04  0.12699999809E+01 0.  1.
       -4    1    3    3    0  502 -0.12151830011E+04 -0.21152063604E+03  0.22215079204E+04  0.25409663042E+04  0.12699999809E+01 0. -1.
</event>
<event>
 5   0  0.6661000E-08  0.3344141E+04  0.7818609E-02  0.8151754E-01
       -1   -1    0    0    0  501  0.00000000000E+00  0.00000000000E+00  0.22303632348E+04  0.22303632348E+04  0.50400001928E-02 0. -1.
        1   -1    0    0  501    0  0.00000000000E+00  0.00000000000E+00 -0.12535269236E+04  0.12535269236E+04  0.50400001928E-02 0.  1.
    10030    2    1    2    0    0  0.00000000000E+00  0.00000000000E+00  0.97683631117E+03  0.34838901584E+04  0.33441413632E+04 0.  0.
        2    1    3    3  502    0 -0.71541711406E+03 -0.24471614067E+03 -0.10652498555E+04  0.13063173011E+04  0.25500000920E-02 0.  1.
       -2    1    3    3    0  502  0.71541711406E+03  0.24471614067E+03  0.20420861667E+04  0.21775728573E+04  0.25500000920E-02 0. -1.
</event>
<event>
 5   0  0.6661000E-08  0.3794698E+04  0.7818609E-02  0.8047294E-01
       -1   -1    0    0    0  501  0.00000000000E+00  0.00000000000E+00  0.15592691394E+04  0.15592691394E+04  0.50400001928E-02 0. -1.
        1   -1    0    0  501    0  0.00000000000E+00  0.00000000000E+00 -0.23087312272E+04  0.23087312272E+04  0.50400001928E-02 0.  1.
    10030    2    1    2    0    0  0.00000000000E+00  0.00000000000E+00 -0.74946208777E+03  0.38680003666E+04  0.37946980664E+04 0.  0.
        1    1    3    3  502    0 -0.10047692807E+03 -0.18558410573E+04 -0.76380010953E+03  0.20093860381E+04  0.50400001928E-02 0.  1.
       -1    1    3    3    0  502  0.10047692807E+03  0.18558410573E+04  0.14338021755E+02  0.18586143284E+04  0.50400001928E-02 0. -1.
</event>
<event>
 5   0  0.2081337E-07  0.3728265E+04  0.7818609E-02  0.8061727E-01
        2   -1    0    0  501    0  0.00000000000E+00  0.00000000000E+00  0.22034571717E+04  0.22034571717E+04  0.25500000920E-02 0.  1.
       -2   -1    0    0    0  501  0.00000000000E+00  0.00000000000E+00 -0.15770624794E+04  0.15770624794E+04  0.25500000920E-02 0. -1.
    10030    2    1    2    0    0  0.00000000000E+00  0.00000000000E+00  0.62639469224E+03  0.37805196511E+04  0.37282648138E+04 0.  0.
        1    1    3    3  502    0 -0.81053026594E+03 -0.27368138627E+03 -0.13662556326E+04  0.16119910877E+04  0.50400001928E-02 0. -1.
       -1    1    3    3    0  502  0.81053026594E+03  0.27368138627E+03  0.19926503248E+04  0.21685285634E+04  0.50400001928E-02 0.  1.
</event>
<event>
 5   0  0.1370688E-07  0.3797863E+04  0.7818609E-02  0.8046614E-01
       -2   -1    0    0    0  501  0.00000000000E+00  0.00000000000E+00  0.20470859375E+04  0.20470859375E+04  0.25500000920E-02 0. -1.
        2   -1    0    0  501    0  0.00000000000E+00  0.00000000000E+00 -0.17614998757E+04  0.17614998757E+04  0.25500000920E-02 0.  1.
    10030    2    1    2    0    0  0.00000000000E+00  0.00000000000E+00  0.28558606182E+03  0.38085858132E+04  0.37978634122E+04 0.  0.
        5    1    3    3  502    0 -0.35085758194E+02  0.12709640846E+04 -0.12716282518E+04  0.17982328035E+04  0.46999998093E+01 0.  1.
       -5    1    3    3    0  502  0.35085758194E+02 -0.12709640846E+04  0.15572143136E+04  0.20103530097E+04  0.46999998093E+01 0. -1.
</event>
<event>
 5   0  0.6661000E-08  0.3800674E+04  0.7818609E-02  0.8046010E-01
       -1   -1    0    0    0  501  0.00000000000E+00  0.00000000000E+00  0.25695826118E+04  0.25695826118E+04  0.50400001928E-02 0. -1.
        1   -1    0    0  501    0  0.00000000000E+00  0.00000000000E+00 -0.14053955901E+04  0.14053955901E+04  0.50400001928E-02 0.  1.
    10030    2    1    2    0    0  0.00000000000E+00  0.00000000000E+00  0.11641870217E+04  0.39749782019E+04  0.38006736619E+04 0.  0.
        2    1    3    3  502    0  0.61930306443E+03  0.71039586928E+03 -0.11437622221E+04  0.14820224686E+04  0.25500000920E-02 0.  1.
       -2    1    3    3    0  502 -0.61930306443E+03 -0.71039586928E+03  0.23079492437E+04  0.24929557333E+04  0.25500000920E-02 0. -1.
</event>
<event>
 5   0  0.2135314E-07  0.3809065E+04  0.7818609E-02  0.8044212E-01
        2   -1    0    0  501    0  0.00000000000E+00  0.00000000000E+00  0.17850574167E+04  0.17850574167E+04  0.25500000920E-02 0.  1.
       -2   -1    0    0    0  501  0.00000000000E+00  0.00000000000E+00 -0.20320037379E+04  0.20320037379E+04  0.25500000920E-02 0. -1.
    10030    2    1    2    0    0  0.00000000000E+00  0.00000000000E+00 -0.24694632117E+03  0.38170611546E+04  0.38090646323E+04 0.  0.
        4    1    3    3  502    0  0.86404555924E+03 -0.80479268328E+03 -0.16209247062E+04  0.20054088130E+04  0.12699999809E+01 0. -1.
       -4    1    3    3    0  502 -0.86404555924E+03  0.80479268328E+03  0.13739783850E+04  0.18116523416E+04  0.12699999809E+01 0.  1.
</event>
<event>
 5   0  0.2205204E-07  0.3809741E+04  0.7818609E-02  0.8044068E-01
        2   -1    0    0  501    0  0.00000000000E+00  0.00000000000E+00  0.25023255798E+04  0.25023255798E+04  0.25500000920E-02 0. -1.
       -2   -1    0    0    0  501  0.00000000000E+00  0.00000000000E+00 -0.14500641290E+04  0.14500641290E+04  0.25500000920E-02 0.  1.
    10030    2    1    2    0    0  0.00000000000E+00  0.00000000000E+00  0.10522614508E+04  0.39523897088E+04  0.38097414938E+04 0.  0.
        2    1    3    3  502    0  0.73704694296E+01 -0.18864313689E+04  0.80032777636E+03  0.20491954965E+04  0.25500000920E-02 0.  1.
       -2    1    3    3    0  502 -0.73704694296E+01  0.18864313689E+04  0.25193367443E+03  0.19031942123E+04  0.25500000920E-02 0. -1.
</event>
<event>
 5   0  0.6661000E-08  0.3841771E+04  0.7818609E-02  0.8037250E-01
       -1   -1    0    0    0  501  0.00000000000E+00  0.00000000000E+00  0.20195542216E+04  0.20195542217E+04  0.50400001928E-02 0.  1.
        1   -1    0    0  501    0  0.00000000000E+00  0.00000000000E+00 -0.18270374252E+04  0.18270374252E+04  0.50400001928E-02 0. -1.
    10030    2    1    2    0    0  0.00000000000E+00  0.00000000000E+00  0.19251679643E+03  0.38465916469E+04  0.38417710214E+04 0.  0.
        1    1    3    3  502    0  0.50886974346E+03 -0.10673926490E+04 -0.14194196839E+04  0.18474381511E+04  0.50400001928E-02 0. -1.
       -1    1    3    3    0  502 -0.50886974346E+03  0.10673926490E+04  0.16119364804E+04  0.19991534958E+04  0.50400001928E-02 0.  1.
</event>
<event>
 5   0  0.2205204E-07  0.3814274E+04  0.7818609E-02  0.8043099E-01
       -2   -1    0    0    0  501  0.00000000000E+00  0.00000000000E+00  0.18832393273E+04  0.18832393273E+04  0.25500000920E-02 0.  1.
        2   -1    0    0  501    0  0.00000000000E+00  0.00000000000E+00 -0.19313377902E+04  0.19313377902E+04  0.25500000920E-02 0. -1.
    10030    2    1    2    0    0  0.00000000000E+00  0.00000000000E+00 -0.48098462937E+02  0.38145771175E+04  0.38142738657E+04 0.  0.
        2    1    3    3  502    0 -0.47245887751E+03 -0.18475503634E+04 -0.46668382595E+02  0.19075737663E+04  0.25500000920E-02 0.  1.
       -2    1    3    3    0  502  0.47245887751E+03  0.18475503634E+04 -0.14300803420E+01  0.19070033511E+04  0.25500000920E-02 0. -1.
</event>
<event>
 5   0  0.6661000E-08  0.3795739E+04  0.7818609E-02  0.8047070E-01
       -1   -1    0    0    0  501  0.00000000000E+00  0.00000000000E+00  0.16926724865E+04  0.16926724866E+04  0.50400001928E-02 0. -1.
        1   -1    0    0  501    0  0.00000000000E+00  0.00000000000E+00 -0.21279419581E+04  0.21279419581E+04  0.50400001928E-02 0.  1.
    10030    2    1    2    0    0  0.00000000000E+00  0.00000000000E+00 -0.43526947152E+03  0.38206144446E+04  0.37957390877E+04 0.  0.
        2    1    3    3  502    0 -0.85955222760E+03 -0.63118112980E+03  0.13625866617E+04  0.17302780300E+04  0.25500000920E-02 0. -1.
       -2    1    3    3    0  502  0.85955222760E+03  0.63118112980E+03 -0.17978561332E+04  0.20903364146E+04  0.25500000920E-02 0.  1.
</event>
<event>
 5   0  0.6661000E-08  0.3882012E+04  0.7818609E-02  0.8028781E-01
        1   -1    0    0  501    0  0.00000000000E+00  0.00000000000E+00  0.29042986207E+04  0.29042986207E+04  0.50400001928E-02 0.  1.
       -1   -1    0    0    0  501  0.00000000000E+00  0.00000000000E+00 -0.12972163440E+04  0.12972163440E+04  0.50400001928E-02 0. -1.
    10030    2    1    2    0    0  0.00000000000E+00  0.00000000000E+00  0.16070822767E+04  0.42015149647E+04  0.38820116634E+04 0.  0.
        4    1    3    3  502    0  0.44305675110E+03  0.68767457780E+02  0.28474832730E+04  0.28825667123E+04  0.12699999809E+01 0.  1.
       -4    1    3    3    0  502 -0.44305675110E+03 -0.68767457780E+02 -0.12404009963E+04  0.13189482524E+04  0.12699999809E+01 0. -1.
</event>
<event>
 5   0  0.2081337E-07  0.3746989E+04  0.7818609E-02  0.8057628E-01
        2   -1    0    0  501    0  0.00000000000E+00  0.00000000000E+00  0.25670677764E+04  0.25670677764E+04  0.25500000920E-02 0.  1.
       -2   -1    0    0    0  501  0.00000000000E+00  0.00000000000E+00 -0.13673115055E+04  0.13673115055E+04  0.25500000920E-02 0. -1.
    10030    2    1    2    0    0  0.00000000000E+00  0.00000000000E+00  0.11997562709E+04  0.39343792819E+04  0.37469888209E+04 0.  0.
        1    1    3    3  502    0 -0.12092517219E+04 -0.43377628307E+03 -0.83196482425E+03  0.15305610277E+04  0.50400001928E-02 0. -1.
       -1    1    3    3    0  502  0.12092517219E+04  0.43377628307E+03  0.20317210952E+04  0.24038182542E+04  0.50400001928E-02 0.  1.
</event>
<event>
 5   0  0.2205204E-07  0.3733937E+04  0.7818609E-02  0.8060482E-01
       -2   -1    0    0    0  501  0.00000000000E+00  0.00000000000E+00  0.12566544866E+04  0.12566544866E+04  0.25500000920E-02 0. -1.
        2   -1    0    0  501    0  0.00000000000E+00  0.00000000000E+00 -0.27736914324E+04  0.27736914324E+04  0.25500000920E-02 0.  1.
    10030    2    1    2    0    0  0.00000000000E+00  0.00000000000E+00 -0.15170369458E+04  0.40303459190E+04  0.37339372158E+04 0.  0.
        2    1    3    3  502    0 -0.43506333113E+03  0.13718026585E+04 -0.20422345504E+04  0.24983683865E+04  0.25500000920E-02 0.  1.
       -2    1    3    3    0  502  0.43506333113E+03 -0.13718026585E+04  0.52519760467E+03  0.15319775324E+04  0.25500000920E-02 0. -1.
</event>
<event>
 5   0  0.6661000E-08  0.3376842E+04  0.7818609E-02  0.8143614E-01
       -1   -1    0    0    0  501  0.00000000000E+00  0.00000000000E+00  0.13224072953E+04  0.13224072953E+04  0.50400001928E-02 0.  1.
        1   -1    0    0  501    0  0.00000000000E+00  0.00000000000E+00 -0.21557388744E+04  0.21557388744E+04  0.50400001928E-02 0. -1.
    10030    2    1    2    0    0  0.00000000000E+00  0.00000000000E+00 -0.83333157907E+03  0.34781461698E+04  0.33768416098E+04 0.  0.
        1    1    3    3  502    0  0.13892730179E+04 -0.94972377449E+03 -0.27577759817E+03  0.17053175803E+04  0.50400001928E-02 0. -1.
       -1    1    3    3    0  502 -0.13892730179E+04  0.94972377449E+03 -0.55755398090E+03  0.17728285895E+04  0.50400001928E-02 0.  1.
</event>
<event>
 5   0  0.6661000E-08  0.3820260E+04  0.7818609E-02  0.8041821E-01
       -1   -1    0    0    0  501  0.00000000000E+00  0.00000000000E+00  0.23322071712E+04  0.23322071712E+04  0.50400001928E-02 0. -1.
        1   -1    0    0  501    0  0.00000000000E+00  0.00000000000E+00 -0.15644395848E+04  0.15644395848E+04  0.50400001928E-02 0.  1.
    10030    2    1    2    0    0  0.00000000000E+00  0.00000000000E+00  0.76776758642E+03  0.38966467561E+04  0.38202603150E+04 0.  0.
        2    1    3    3  502    0  0.31595766258E+03  0.18750636767E+04  0.56890590495E+03  0.19847788201E+04  0.25500000920E-02 0. -1.
       -2    1    3    3    0  502 -0.31595766258E+03 -0.18750636767E+04  0.19886168148E+03  0.19118679359E+04  0.25500000920E-02 0.  1.
</event>
<event>
 5   0  0.2081337E-07  0.3776597E+04  0.7818609E-02  0.8051196E-01
        2   -1    0    0  501    0  0.00000000000E+00  0.00000000000E+00  0.17896444935E+04  0.17896444935E+04  0.25500000920E-02 0. -1.
       -2   -1    0    0    0  501  0.00000000000E+00  0.00000000000E+00 -0.19923904261E+04  0.19923904261E+04  0.25500000920E-02 0.  1.
    10030    2    1    2    0    0  0.00000000000E+00  0.00000000000E+00 -0.20274593255E+03  0.37820349196E+04  0.37765966452E+04 0.  0.
        1    1    3    3  502    0  0.11809442591E+04  0.14410830098E+04 -0.40893240673E+03  0.19075049928E+04  0.50400001928E-02 0.  1.
       -1    1    3    3    0  502 -0.11809442591E+04 -0.14410830098E+04  0.20618647418E+03  0.18745299268E+04  0.50400001928E-02 0. -1.
</event>
<event>
 5   0  0.1370688E-07  0.3810893E+04  0.7818609E-02  0.8043821E-01
        2   -1    0    0  501    0  0.00000000000E+00  0.00000000000E+00  0.24854128676E+04  0.24854128676E+04  0.25500000920E-02 0.  1.
       -2   -1    0    0    0  501  0.00000000000E+00  0.00000000000E+00 -0.14608142061E+04  0.14608142061E+04  0.25500000920E-02 0. -1.
    10030    2    1    2    0    0  0.00000000000E+00  0.00000000000E+00  0.10245986615E+04  0.39462270737E+04  0.38108930319E+04 0.  0.
        5    1    3    3  502    0  0.14425965443E+04  0.61015950166E+03 -0.61127933124E+03  0.16813874979E+04  0.46999998093E+01 0. -1.
       -5    1    3    3    0  502 -0.14425965443E+04 -0.61015950166E+03  0.16358779927E+04  0.22648395758E+04  0.46999998093E+01 0.  1.
</event>
<event>
 5   0  0.6661000E-08  0.3816096E+04  0.7818609E-02  0.8042709E-01
        1   -1    0    0  501    0  0.00000000000E+00  0.00000000000E+00  0.18377532548E+04  0.18377532548E+04  0.50400001928E-02 0.  1.
       -1   -1    0    0    0  501  0.00000000000E+00  0.00000000000E+00 -0.19810318514E+04  0.19810318514E+04  0.50400001928E-02 0. -1.
    10030    2    1    2    0    0  0.00000000000E+00  0.00000000000E+00 -0.14327859664E+03  0.38187851062E+04  0.38160962948E+04 0.  0.
        1    1    3    3  502    0 -0.94458294864E+03 -0.13606541783E+04 -0.10194238359E+04  0.19449528778E+04  0.50400001928E-02 0. -1.
       -1    1    3    3    0  502  0.94458294864E+03  0.13606541783E+04  0.87614523927E+03  0.18738322284E+04  0.50400001928E-02 0.  1.
</event>
<event>
 5   0  0.2081337E-07  0.3780402E+04  0.7818609E-02  0.8050374E-01
        2   -1    0    0  501    0  0.00000000000E+00  0.00000000000E+00  0.24732390853E+04  0.24732390853E+04  0.25500000920E-02 0.  1.
       -2   -1    0    0    0  501  0.00000000000E+00  0.00000000000E+00 -0.14446076985E+04  0.14446076985E+04  0.25500000920E-02 0. -1.
    10030    2    1    2    0    0  0.00000000000E+00  0.00000000000E+00  0.10286313868E+04  0.39178467838E+04  0.37804022129E+04 0.  0.
        1    1    3    3  502    0 -0.10394681507E+04  0.15678536840E+04  0.70597456059E+03  0.20092434624E+04  0.50400001928E-02 0.  1.
       -1    1    3    3    0  502  0.10394681507E+04 -0.15678536840E+04  0.32265682625E+03  0.19086033214E+04  0.50400001928E-02 0. -1.
</event>
<event>
 5   0  0.2135314E-07  0.3677581E+04  0.7818609E-02  0.8072948E-01
       -2   -1    0    0    0  501  0.00000000000E+00  0.00000000000E+00  0.22513212484E+04  0.22513212484E+04  0.25500000920E-02 0. -1.
        2   -1    0    0  501    0  0.00000000000E+00  0.00000000000E+00 -0.15018520135E+04  0.15018520135E+04  0.25500000920E-02 0.  1.
    10030    2    1    2    0    0  0.00000000000E+00  0.00000000000E+00  0.74946923484E+03  0.37531732619E+04  0.36775814607E+04 0.  0.
        4    1    3    3  502    0  0.17314863687E+04 -0.31884086489E+02  0.10055729377E+04  0.20025584101E+04  0.12699999809E+01 0. -1.
       -4    1    3    3    0  502 -0.17314863687E+04  0.31884086489E+02 -0.25610370289E+03  0.17506148518E+04  0.12699999809E+01 0.  1.
</event>
<event>
 5   0  0.2135314E-07  0.3795845E+04  0.7818609E-02  0.8047047E-01
       -2   -1    0    0    0  501  0.00000000000E+00  0.00000000000E+00  0.21261658782E+04  0.21261658782E+04  0.25500000920E-02 0.  1.
        2   -1    0    0  501    0  0.00000000000E+00  0.00000000000E+00 -0.16941813231E+04  0.16941813231E+04  0.25500000920E-02 0. -1.
    10030    2    1    2    0    0  0.00000000000E+00  0.00000000000E+00  0.43198455508E+03  0.38203472013E+04  0.37958453713E+04 0.  0.
        4    1    3    3  502    0  0.17534055479E+04  0.52850921982E+03  0.71756228607E+03  0.19668884712E+04  0.12699999809E+01 0.  1.
       -4    1    3    3    0  502 -0.17534055479E+04 -0.52850921982E+03 -0.28557773099E+03  0.18534587301E+04  0.12699999809E+01 0. -1.
</event>
<event>
 5   0  0.2203998E-07  0.3782313E+04  0.7818609E-02  0.8049961E-01
        2   -1    0    0  501    0  0.00000000000E+00  0.00000000000E+00  0.18194636462E+04  0.18194636462E+04  0.25500000920E-02 0. -1.
       -2   -1    0    0    0  501  0.00000000000E+00  0.00000000000E+00 -0.19656747624E+04  0.19656747624E+04  0.25500000920E-02 0.  1.
    10030    2    1    2    0    0  0.00000000000E+00  0.00000000000E+00 -0.14621111618E+03  0.37851384086E+04  0.37823134563E+04 0.  0.
        3    1    3    3  502    0 -0.97310983282E+02  0.17064792149E+04 -0.88298931908E+03  0.19238531353E+04  0.10100000352E+00 0.  1.
       -3    1    3    3    0  502  0.97310983282E+02 -0.17064792149E+04  0.73677820289E+03  0.18612852734E+04  0.10100000352E+00 0. -1.
</event>
<event>
 5   0  0.6661000E-08  0.3827393E+04  0.7818609E-02  0.8040302E-01
        1   -1    0    0  501    0  0.00000000000E+00  0.00000000000E+00  0.18988492240E+04  0.18988492240E+04  0.50400001928E-02 0.  1.
       -1   -1    0    0    0  501  0.00000000000E+00  0.00000000000E+00 -0.19286598642E+04  0.19286598642E+04  0.50400001928E-02 0. -1.
    10030    2    1    2    0    0  0.00000000000E+00  0.00000000000E+00 -0.29810640264E+02  0.38275090882E+04  0.38273929960E+04 0.  0.
        1    1    3    3  502    0 -0.14377670979E+04 -0.95399105288E+02 -0.12742921873E+04  0.19235633069E+04  0.50400001928E-02 0. -1.
       -1    1    3    3    0  502  0.14377670979E+04  0.95399105288E+02  0.12444815470E+04  0.19039457813E+04  0.50400001928E-02 0.  1.
</event>
<event>
 5   0  0.2205204E-07  0.3576748E+04  0.7818609E-02  0.8095839E-01
       -2   -1    0    0    0  501  0.00000000000E+00  0.00000000000E+00  0.21417968875E+04  0.21417968875E+04  0.25500000920E-02 0. -1.
        2   -1    0    0  501    0  0.00000000000E+00  0.00000000000E+00 -0.14932701418E+04  0.14932701418E+04  0.25500000920E-02 0.  1.
    10030    2    1    2    0    0  0.00000000000E+00  0.00000000000E+00  0.64852674568E+03  0.36350670293E+04  0.35767478759E+04 0.  0.
        2    1    3    3  502    0  0.11845110313E+04 -0.13286397868E+04  0.14843591000E+03  0.17861644061E+04  0.25500000920E-02 0.  1.
       -2    1    3    3    0  502 -0.11845110313E+04  0.13286397868E+04  0.50009083568E+03  0.18489026232E+04  0.25500000920E-02 0. -1.
</event>
<event>
 5   0  0.2081337E-07  0.3780267E+04  0.7818609E-02  0.8050403E-01
        2   -1    0    0  501    0  0.00000000000E+00  0.00000000000E+00  0.21484229138E+04  0.21484229138E+04  0.25500000920E-02 0.  1.
       -2   -1    0    0    0  501  0.00000000000E+00  0.00000000000E+00 -0.16628966269E+04  0.16628966269E+04  0.25500000920E-02 0. -1.
    10030    2    1    2    0    0  0.00000000000E+00  0.00000000000E+00  0.48552628695E+03  0.38113195407E+04  0.37802673009E+04 0.  0.
        1    1    3    3  502    0  0.94125249474E+03 -0.15556387239E+04  0.76337392215E+03  0.19719806903E+04  0.50400001928E-02 0.  1.
       -1    1    3    3    0  502 -0.94125249474E+03  0.15556387239E+04 -0.27784763521E+03  0.18393388504E+04  0.50400001928E-02 0. -1.
</event>
<event>
 5   0  0.6661000E-08  0.3814021E+04  0.7818609E-02  0.8043153E-01
       -1   -1    0    0    0  501  0.00000000000E+00  0.00000000000E+00  0.23612458246E+04  0.23612458246E+04  0.50400001928E-02 0. -1.
        1   -1    0    0  501    0  0.00000000000E+00  0.00000000000E+00 -0.15401572000E+04  0.15401572000E+04  0.50400001928E-02 0.  1.
    10030    2    1    2    0    0  0.00000000000E+00  0.00000000000E+00  0.82108862455E+03  0.39014030246E+04  0.38140213726E+04 0.  0.
        2    1    3    3  502    0 -0.11539735778E+04 -0.11483267754E+04 -0.60537660270E+03  0.17368909674E+04  0.25500000920E-02 0.  1.
       -2    1    3    3    0  502  0.11539735778E+04  0.11483267754E+04  0.14264652273E+04  0.21645120572E+04  0.25500000920E-02 0. -1.
</event>
<event>
 5   0  0.6661000E-08  0.3794380E+04  0.7818609E-02  0.8047362E-01
       -1   -1    0    0    0  501  0.00000000000E+00  0.00000000000E+00  0.16939341223E+04  0.16939341223E+04  0.50400001928E-02 0. -1.
        1   -1    0    0  501    0  0.00000000000E+00  0.00000000000E+00 -0.21248346255E+04  0.21248346255E+04  0.50400001928E-02 0.  1.
    10030    2    1    2    0    0  0.00000000000E+00  0.00000000000E+00 -0.43090050312E+03  0.38187687478E+04  0.37943799896E+04 0.  0.
        2    1    3    3  502    0 -0.68014648998E+03 -0.14790020686E+04  0.76512404881E+03  0.17987387739E+04  0.25500000920E-02 0. -1.
       -2    1    3    3    0  502  0.68014648998E+03  0.14790020686E+04 -0.11960245519E+04  0.20200299739E+04  0.25500000920E-02 0.  1.
</event>
<event>
 5   0  0.2081337E-07  0.3825115E+04  0.7818609E-02  0.8040787E-01
       -2   -1    0    0    0  501  0.00000000000E+00  0.00000000000E+00  0.13434119318E+04  0.13434119318E+04  0.25500000920E-02 0.  1.
        2   -1    0    0  501    0  0.00000000000E+00  0.00000000000E+00 -0.27228254665E+04  0.27228254665E+04  0.25500000920E-02 0. -1.
    10030    2    1    2    0    0  0.00000000000E+00  0.00000000000E+00 -0.13794135347E+04  0.40662373983E+04  0.38251150153E+04 0.  0.
        1    1    3    3  502    0 -0.11154890262E+04 -0.81493910860E+03 -0.20957449045E+04  0.25100972537E+04  0.50400001928E-02 0. -1.
       -1    1    3    3    0  502  0.11154890262E+04  0.81493910860E+03  0.71633136984E+03  0.15561401446E+04  0.50400001928E-02 0.  1.
</event>
<event>
 5   0  0.2135314E-07  0.3800172E+04  0.7818609E-02  0.8046118E-01
        2   -1    0    0  501    0  0.00000000000E+00  0.00000000000E+00  0.28663284224E+04  0.28663284224E+04  0.25500000920E-02 0. -1.
       -2   -1    0    0    0  501  0.00000000000E+00  0.00000000000E+00 -0.12595651374E+04  0.12595651374E+04  0.25500000920E-02 0.  1.
    10030    2    1    2    0    0  0.00000000000E+00  0.00000000000E+00  0.16067632850E+04  0.41258935598E+04  0.38001722872E+04 0.  0.
        4    1    3    3  502    0  0.14100276483E+04  0.72245335211E+02 -0.57719374146E+03  0.15253037683E+04  0.12699999809E+01 0.  1.
       -4    1    3    3    0  502 -0.14100276483E+04 -0.72245335211E+02  0.21839570264E+04  0.26005897915E+04  0.12699999809E+01 0. -1.
</event>
<event>
 5   0  0.2135314E-07  0.3813609E+04  0.7818609E-02  0.8043241E-01
       -2   -1    0    0    0  501  0.00000000000E+00  0.00000000000E+00  0.11366232936E+04  0.11366232936E+04  0.25500000920E-02 0.  1.
        2   -1    0    0  501    0  0.00000000000E+00  0.00000000000E+00 -0.31988634685E+04  0.31988634685E+04  0.25500000920E-02 0. -1.
    10030    2    1    2    0    0  0.00000000000E+00  0.00000000000E+00 -0.20622401749E+04  0.43354867621E+04  0.38136086487E+04 0.  0.
        4    1    3    3  502    0 -0.15292562172E+04  0.95854846361E+03 -0.33174118542E+03  0.18350731762E+04  0.12699999809E+01 0.  1.
       -4    1    3    3    0  502  0.15292562172E+04 -0.95854846361E+03 -0.17304989894E+04  0.25004135859E+04  0.12699999809E+01 0. -1.
</event>
<event>
 5   0  0.6661000E-08  0.3789513E+04  0.7818609E-02  0.8048409E-01
        1   -1    0    0  501    0  0.00000000000E+00  0.00000000000E+00  0.19836682610E+04  0.19836682610E+04  0.50400001928E-02 0. -1.
       -1   -1    0    0    0  501  0.00000000000E+00  0.00000000000E+00 -0.18098296011E+04  0.18098296011E+04  0.50400001928E-02 0.  1.
    10030    2    1    2    0    0  0.00000000000E+00  0.00000000000E+00  0.17383865991E+03  0.37934978621E+04  0.37895126534E+04 0.  0.
        3    1    3    3  502    0  0.14197982831E+04  0.30683293855E+03 -0.11309651782E+04  0.18409388533E+04  0.10100000352E+00 0.  1.
       -3    1    3    3    0  502 -0.14197982831E+04 -0.30683293855E+03  0.13048038381E+04  0.19525590089E+04  0.10100000352E+00 0. -1.
</event>
<event>
 5   0  0.6661000E-08  0.3723734E+04  0.7818609E-02  0.8062722E-01
       -3   -1    0    0    0  501  0.00000000000E+00  0.00000000000E+00  0.22396473926E+04  0.22396473949E+04  0.10100000352E+00 0. -1.
        3   -1    0    0  501    0  0.00000000000E+00  0.00000000000E+00 -0.15478102847E+04  0.15478102880E+04  0.10100000352E+00 0.  1.
    10030    2    1    2    0    0  0.00000000000E+00  0.00000000000E+00  0.69183710783E+03  0.37874576829E+04  0.37237342972E+04 0.  0.
        3    1    3    3  502    0  0.86619819429E+03 -0.15434919821E+04 -0.24179526924E+03  0.17863739175E+04  0.10100000352E+00 0.  1.
       -3    1    3    3    0  502 -0.86619819429E+03  0.15434919821E+04  0.93363237707E+03  0.20010837654E+04  0.10100000352E+00 0. -1.
</event>
<event>
 5   0  0.6661000E-08  0.3796190E+04  0.7818609E-02  0.8046973E-01
       -1   -1    0    0    0  501  0.00000000000E+00  0.00000000000E+00  0.22938087844E+04  0.22938087844E+04  0.50400001928E-02 0.  1.
        1   -1    0    0  501    0  0.00000000000E+00  0.00000000000E+00 -0.15706474971E+04  0.15706474972E+04  0.50400001928E-02 0. -1.
    10030    2    1    2    0    0  0.00000000000E+00  0.00000000000E+00  0.72316128729E+03  0.38644562816E+04  0.37961902093E+04 0.  0.
        3    1    3    3  502    0 -0.80106497440E+03  0.13017326295E+04  0.15072306469E+04  0.21466152811E+04  0.10100000352E+00 0.  1.
       -3    1    3    3    0  502  0.80106497440E+03 -0.13017326295E+04 -0.78406935965E+03  0.17178410005E+04  0.10100000352E+00 0. -1.
</event>
<event>
 5   0  0.2205204E-07  0.3595110E+04  0.7818609E-02  0.8091613E-01
       -2   -1    0    0    0  501  0.00000000000E+00  0.00000000000E+00  0.12400202212E+04  0.12400202212E+04  0.25500000920E-02 0. -1.
        2   -1    0    0  501    0  0.00000000000E+00  0.00000000000E+00 -0.26057666520E+04  0.26057666520E+04  0.25500000920E-02 0.  1.
    10030    2    1    2    0    0  0.00000000000E+00  0.00000000000E+00 -0.13657464309E+04  0.38457868732E+04  0.35951096451E+04 0.  0.
        2    1    3    3  502    0 -0.14044247856E+04 -0.11214865324E+04 -0.64800733425E+03  0.19105115875E+04  0.25500000920E-02 0. -1.
       -2    1    3    3    0  502  0.14044247856E+04  0.11214865324E+04 -0.71773909661E+03  0.19352752857E+04  0.25500000920E-02 0.  1.
</event>
<event>
 5   0  0.1370688E-07  0.3796379E+04  0.7818609E-02  0.8046932E-01
       -2   -1    0    0    0  501  0.00000000000E+00  0.00000000000E+00  0.14694106847E+04  0.14694106847E+04  0.25500000920E-02 0.  1.
        2   -1    0    0  501    0  0.00000000000E+00  0.00000000000E+00 -0.24520875763E+04  0.24520875763E+04  0.25500000920E-02 0. -1.
    10030    2    1    2    0    0  0.00000000000E+00  0.00000000000E+00 -0.98267689158E+03  0.39214982611E+04  0.37963791615E+04 0.  0.
        5    1    3    3  502    0  0.14989078127E+04 -0.11500530716E+04 -0.68111861638E+03  0.20083055938E+04  0.46999998093E+01 0.  1.
       -5    1    3    3    0  502 -0.14989078127E+04  0.11500530716E+04 -0.30155827521E+03  0.19131926672E+04  0.46999998093E+01 0. -1.
</event>
<event>
 5   0  0.6661000E-08  0.3788670E+04  0.7818609E-02  0.8048591E-01
        1   -1    0    0  501    0  0.00000000000E+00  0.00000000000E+00  0.22978333037E+04  0.22978333037E+04  0.50400001928E-02 0.  1.
       -1   -1    0    0    0  501  0.00000000000E+00  0.00000000000E+00 -0.15616904769E+04  0.15616904769E+04  0.50400001928E-02 0. -1.
    10030    2    1    2    0    0  0.00000000000E+00  0.00000000000E+00  0.73614282674E+03  0.38595237806E+04  0.37886696282E+04 0.  0.
        2    1    3    3  502    0  0.12390742425E+04  0.64975263425E+03  0.16690697789E+04  0.21779066535E+04  0.25500000920E-02 0.  1.
       -2    1    3    3    0  502 -0.12390742425E+04 -0.64975263425E+03 -0.93292695218E+03  0.16816171272E+04  0.25500000920E-02 0. -1.
</event>
<event>
 5   0  0.6661000E-08  0.3829838E+04  0.7818609E-02  0.8039782E-01
        1   -1    0    0  501    0  0.00000000000E+00  0.00000000000E+00  0.26603290929E+04  0.26603290929E+04  0.50400001928E-02 0.  1.
       -1   -1    0    0    0  501  0.00000000000E+00  0.00000000000E+00 -0.13783687220E+04  0.13783687220E+04  0.50400001928E-02 0. -1.
    10030    2    1    2    0    0  0.00000000000E+00  0.00000000000E+00  0.12819603709E+04  0.40386978149E+04  0.38298378095E+04 0.  0.
        1    1    3    3  502    0 -0.95869181688E+03  0.98169063665E+03 -0.76756744036E+03  0.15722487975E+04  0.50400001928E-02 0. -1.
       -1    1    3    3    0  502  0.95869181688E+03 -0.98169063665E+03  0.20495278113E+04  0.24664490173E+04  0.50400001928E-02 0.  1.
</event>
<event>
 5   0  0.2205204E-07  0.3692385E+04  0.7818609E-02  0.8069651E-01
        2   -1    0    0  501    0  0.00000000000E+00  0.00000000000E+00  0.22349849125E+04  0.22349849125E+04  0.25500000920E-02 0. -1.
       -2   -1    0    0    0  501  0.00000000000E+00  0.00000000000E+00 -0.15250336560E+04  0.15250336560E+04  0.25500000920E-02 0.  1.
    10030    2    1    2    0    0  0.00000000000E+00  0.00000000000E+00  0.70995125654E+03  0.37600185685E+04  0.36923852520E+04 0.  0.
        2    1    3    3  502    0 -0.13714549323E+03 -0.14887015675E+04  0.14580465275E+04  0.20882865990E+04  0.25500000920E-02 0. -1.
       -2    1    3    3    0  502  0.13714549323E+03  0.14887015675E+04 -0.74809527098E+03  0.16717319695E+04  0.25500000920E-02 0.  1.
</event>
<event>
 5   0  0.2135314E-07  0.3785125E+04  0.7818609E-02  0.8049355E-01
       -2   -1    0    0    0  501  0.00000000000E+00  0.00000000000E+00  0.13755475098E+04  0.13755475098E+04  0.25500000920E-02 0. -1.
        2   -1    0    0  501    0  0.00000000000E+00  0.00000000000E+00 -0.26039035813E+04  0.26039035813E+04  0.25500000920E-02 0.  1.
    10030    2    1    2    0    0  0.00000000000E+00  0.00000000000E+00 -0.12283560715E+04  0.39794510911E+04  0.37851251429E+04 0.  0.
        4    1    3    3  502    0 -0.73618656253E+03  0.34436917143E+02 -0.24468392592E+04  0.25554217909E+04  0.12699999809E+01 0.  1.
       -4    1    3    3    0  502  0.73618656253E+03 -0.34436917143E+02  0.12184831877E+04  0.14240293001E+04  0.12699999809E+01 0. -1.
</event>
<event>
 5   0  0.6661000E-08  0.3767384E+04  0.7818609E-02  0.8053191E-01
       -1   -1    0    0    0  501  0.00000000000E+00  0.00000000000E+00  0.17256174321E+04  0.17256174321E+04  0.50400001928E-02 0.  1.
        1   -1    0    0  501    0  0.00000000000E+00  0.00000000000E+00 -0.20562473742E+04  0.20562473742E+04  0.50400001928E-02 0. -1.
    10030    2    1    2    0    0  0.00000000000E+00  0.00000000000E+00 -0.33062994215E+03  0.37818648063E+04  0.37673844049E+04 0.  0.
        1    1    3    3  502    0  0.13306381136E+04  0.13179322447E+04  0.37334983151E+02  0.18732157088E+04  0.50400001928E-02 0. -1.
       -1    1    3    3    0  502 -0.13306381136E+04 -0.13179322447E+04 -0.36796492530E+03  0.19086490974E+04  0.50400001928E-02 0.  1.
</event>
<event>
 5   0  0.2081337E-07  0.3824200E+04  0.7818609E-02  0.8040982E-01
       -2   -1    0    0    0  501  0.00000000000E+00  0.00000000000E+00  0.13960083478E+04  0.13960083478E+04  0.25500000920E-02 0. -1.
        2   -1    0    0  501    0  0.00000000000E+00  0.00000000000E+00 -0.26189856577E+04  0.26189856577E+04  0.25500000920E-02 0.  1.
    10030    2    1    2    0    0  0.00000000000E+00  0.00000000000E+00 -0.12229773099E+04  0.40149940055E+04  0.38241997024E+04 0.  0.
        1    1    3    3  502    0 -0.67078136380E+03 -0.80722694871E+03 -0.22895299122E+04  0.25186326059E+04  0.50400001928E-02 0.  1.
       -1    1    3    3    0  502  0.67078136380E+03  0.80722694871E+03  0.10665526022E+04  0.14963613996E+04  0.50400001928E-02 0. -1.
</event>
<event>
 5   0  0.6661000E-08  0.3785292E+04  0.7818609E-02  0.8049319E-01
        1   -1    0    0  501    0  0.00000000000E+00  0.00000000000E+00  0.16925821969E+04  0.16925821969E+04  0.50400001928E-02 0.  1.
       -1   -1    0    0    0  501  0.00000000000E+00  0.00000000000E+00 -0.21163572690E+04  0.21163572690E+04  0.50400001928E-02 0. -1.
    10030    2    1    2    0    0  0.00000000000E+00  0.00000000000E+00 -0.42377507217E+03  0.38089394659E+04  0.37852918703E+04 0.  0.
        2    1    3    3  502    0 -0.17122443943E+04 -0.50872939936E+03  0.41773878809E+03  0.18344187533E+04  0.25500000920E-02 0.  1.
       -2    1    3    3    0  502  0.17122443943E+04  0.50872939936E+03 -0.84151386026E+03  0.19745207126E+04  0.25500000920E-02 0. -1.
</event>
<event>
 5   0  0.6661000E-08  0.3814913E+04  0.7818609E-02  0.8042962E-01
       -1   -1    0    0    0  501  0.00000000000E+00  0.00000000000E+00  0.11845824713E+04  0.11845824713E+04  0.50400001928E-02 0. -1.
        1   -1    0    0  501    0  0.00000000000E+00  0.00000000000E+00 -0.30714534742E+04  0.30714534742E+04  0.50400001928E-02 0.  1.
    10030    2    1    2    0    0  0.00000000000E+00  0.00000000000E+00 -0.18868710029E+04  0.42560359454E+04  0.38149128152E+04 0.  0.
        4    1    3    3  502    0  0.68514109037E+03 -0.94367392472E+03 -0.26274288737E+04  0.28745996050E+04  0.12699999809E+01 0.  1.
       -4    1    3    3    0  502 -0.68514109037E+03  0.94367392472E+03  0.74055787075E+03  0.13814363405E+04  0.12699999809E+01 0. -1.
</event>
<event>
 5   0  0.6661000E-08  0.3780112E+04  0.7818609E-02  0.8050436E-01
       -1   -1    0    0    0  501  0.00000000000E+00  0.00000000000E+00  0.16068429441E+04  0.16068429441E+04  0.50400001928E-02 0. -1.
        1   -1    0    0  501    0  0.00000000000E+00  0.00000000000E+00 -0.22231869739E+04  0.22231869739E+04  0.50400001928E-02 0.  1.
    10030    2    1    2    0    0  0.00000000000E+00  0.00000000000E+00 -0.61634402976E+03  0.38300299180E+04  0.37801123276E+04 0.  0.
        1    1    3    3  502    0 -0.10463610028E+04 -0.43823628435E+03 -0.18398857766E+04  0.21615045824E+04  0.50400001928E-02 0.  1.
       -1    1    3    3    0  502  0.10463610028E+04  0.43823628435E+03  0.12235417468E+04  0.16685253355E+04  0.50400001928E-02 0. -1.
</event>
<event>
 5   0  0.6661000E-08  0.3780316E+04  0.7818609E-02  0.8050392E-01
        1   -1    0    0  501    0  0.00000000000E+00  0.00000000000E+00  0.22839700757E+04  0.22839700757E+04  0.50400001928E-02 0. -1.
       -1   -1    0    0    0  501  0.00000000000E+00  0.00000000000E+00 -0.15642486665E+04  0.15642486665E+04  0.50400001928E-02 0.  1.
    10030    2    1    2    0    0  0.00000000000E+00  0.00000000000E+00  0.71972140926E+03  0.38482187422E+04  0.37803159367E+04 0.  0.
        1    1    3    3  502    0 -0.11557705809E+04  0.14734622462E+04  0.98736992264E+02  0.18752721457E+04  0.50400001928E-02 0.  1.
       -1    1    3    3    0  502  0.11557705809E+04 -0.14734622462E+04  0.62098441700E+03  0.19729465965E+04  0.50400001928E-02 0. -1.
</event>
<event>
 5   0  0.6661000E-08  0.3796375E+04  0.7818609E-02  0.8046933E-01
       -1   -1    0    0    0  501  0.00000000000E+00  0.00000000000E+00  0.18113893993E+04  0.18113893993E+04  0.50400001928E-02 0.  1.
        1   -1    0    0  501    0  0.00000000000E+00  0.00000000000E+00 -0.19891446768E+04  0.19891446768E+04  0.50400001928E-02 0. -1.
    10030    2    1    2    0    0  0.00000000000E+00  0.00000000000E+00 -0.17775527747E+03  0.38005340761E+04  0.37963748925E+04 0.  0.
        1    1    3    3  502    0  0.15507358571E+04  0.94980684984E+03 -0.63371724998E+03  0.19257498029E+04  0.50400001928E-02 0. -1.
       -1    1    3    3    0  502 -0.15507358571E+04 -0.94980684984E+03  0.45596197251E+03  0.18747842732E+04  0.50400001928E-02 0.  1.
</event>
<event>
 5   0  0.6661000E-08  0.3759405E+04  0.7818609E-02  0.8054923E-01
       -1   -1    0    0    0  501  0.00000000000E+00  0.00000000000E+00  0.26810382818E+04  0.26810382818E+04  0.50400001928E-02 0. -1.
        1   -1    0    0  501    0  0.00000000000E+00  0.00000000000E+00 -0.13178779373E+04  0.13178779373E+04  0.50400001928E-02 0.  1.
    10030    2    1    2    0    0  0.00000000000E+00  0.00000000000E+00  0.13631603445E+04  0.39989162191E+04  0.37594048469E+04 0.  0.
        2    1    3    3  502    0 -0.44065998930E+03  0.77794102500E+03 -0.10772144754E+04  0.13999158870E+04  0.25500000920E-02 0.  1.
       -2    1    3    3    0  502  0.44065998930E+03 -0.77794102500E+03  0.24403748199E+04  0.25990003321E+04  0.25500000920E-02 0. -1.
</event>
<event>
 5   0  0.6661000E-08  0.3795108E+04  0.7818609E-02  0.8047205E-01
        1   -1    0    0  501    0  0.00000000000E+00  0.00000000000E+00  0.12250815449E+04  0.12250815449E+04  0.50400001928E-02 0. -1.
       -1   -1    0    0    0  501  0.00000000000E+00  0.00000000000E+00 -0.29391609458E+04  0.29391609458E+04  0.50400001928E-02 0.  1.
    10030    2    1    2    0    0  0.00000000000E+00  0.00000000000E+00 -0.17140794008E+04  0.41642424907E+04  0.37951083422E+04 0.  0.
        4    1    3    3  502    0 -0.61854304933E+03  0.15941409287E+04  0.45676933566E+02  0.17105463453E+04  0.12699999809E+01 0.  1.
       -4    1    3    3    0  502  0.61854304933E+03 -0.15941409287E+04 -0.17597563344E+04  0.24536961454E+04  0.12699999809E+01 0. -1.
</event>
<event>
 5   0  0.2205204E-07  0.3788591E+04  0.7818609E-02  0.8048608E-01
       -2   -1    0    0    0  501  0.00000000000E+00  0.00000000000E+00  0.19084340381E+04  0.19084340381E+04  0.25500000920E-02 0.  1.
        2   -1    0    0  501    0  0.00000000000E+00  0.00000000000E+00 -0.18802617623E+04  0.18802617623E+04  0.25500000920E-02 0. -1.
    10030    2    1    2    0    0  0.00000000000E+00  0.00000000000E+00  0.28172275790E+02  0.37886958005E+04  0.37885910563E+04 0.  0.
        2    1    3    3  502    0  0.83799545711E+03 -0.92373796791E+03 -0.14117258182E+04  0.18837457380E+04  0.25500000920E-02 0. -1.
       -2    1    3    3    0  502 -0.83799545711E+03  0.92373796791E+03  0.14398980940E+04  0.19049500625E+04  0.25500000920E-02 0.  1.
</event>
<event>
 5   0  0.1370688E-07  0.3836037E+04  0.7818609E-02  0.8038465E-01
       -2   -1    0    0    0  501  0.00000000000E+00  0.00000000000E+00  0.13681243653E+04  0.13681243653E+04  0.25500000920E-02 0.  1.
        2   -1    0    0  501    0  0.00000000000E+00  0.00000000000E+00 -0.26889327833E+04  0.26889327833E+04  0.25500000920E-02 0. -1.
    10030    2    1    2    0    0  0.00000000000E+00  0.00000000000E+00 -0.13208084180E+04  0.40570571486E+04  0.38360367347E+04 0.  0.
        5    1    3    3  502    0  0.18875964193E+04  0.69457808134E+02 -0.10126521370E+04  0.21432057927E+04  0.46999998093E+01 0. -1.
       -5    1    3    3    0  502 -0.18875964193E+04 -0.69457808134E+02 -0.30815628109E+03  0.19138513560E+04  0.46999998093E+01 0.  1.
</event>
<event>
 5   0  0.6661000E-08  0.3819789E+04  0.7818609E-02  0.8041921E-01
        1   -1    0    0  501    0  0.00000000000E+00  0.00000000000E+00  0.16746094397E+04  0.16746094397E+04  0.50400001928E-02 0. -1.
       -1   -1    0    0    0  501  0.00000000000E+00  0.00000000000E+00 -0.21782379678E+04  0.21782379678E+04  0.50400001928E-02 0.  1.
    10030    2    1    2    0    0  0.00000000000E+00  0.00000000000E+00 -0.50362852810E+03  0.38528474076E+04  0.38197894512E+04 0.  0.
        3    1    3    3  502    0  0.16562854890E+04  0.92950885982E+03 -0.49003206971E+02  0.18999130680E+04  0.10100000352E+00 0. -1.
       -3    1    3    3    0  502 -0.16562854890E+04 -0.92950885982E+03 -0.45462532113E+03  0.19529343395E+04  0.10100000352E+00 0.  1.
</event>
<event>
 5   0  0.2081337E-07  0.4029495E+04  0.7818609E-02  0.7998623E-01
       -2   -1    0    0    0  501  0.00000000000E+00  0.00000000000E+00  0.22287474669E+04  0.22287474669E+04  0.25500000920E-02 0. -1.
        2   -1    0    0  501    0  0.00000000000E+00  0.00000000000E+00 -0.18212950945E+04  0.18212950945E+04  0.25500000920E-02 0.  1.
    10030    2    1    2    0    0  0.00000000000E+00  0.00000000000E+00  0.40745237241E+03  0.40500425615E+04  0.40294946723E+04 0.  0.
        1    1    3    3  502    0  0.16828306055E+04  0.10613309265E+04 -0.11548528214E+03  0.19929071812E+04  0.50400001928E-02 0.  1.
       -1    1    3    3    0  502 -0.16828306055E+04 -0.10613309265E+04  0.52293765455E+03  0.20571353803E+04  0.50400001928E-02 0. -1.
</event>
<event>
 5   0  0.2081337E-07  0.3809627E+04  0.7818609E-02  0.8044092E-01
       -2   -1    0    0    0  501  0.00000000000E+00  0.00000000000E+00  0.20893103628E+04  0.20893103628E+04  0.25500000920E-02 0. -1.
        2   -1    0    0  501    0  0.00000000000E+00  0.00000000000E+00 -0.17366087140E+04  0.17366087140E+04  0.25500000920E-02 0.  1.
    10030    2    1    2    0    0  0.00000000000E+00  0.00000000000E+00  0.35270164882E+03  0.38259190768E+04  0.38096270591E+04 0.  0.
        1    1    3    3  502    0 -0.11177771081E+04 -0.15057811887E+04  0.51171292753E+03  0.19438757090E+04  0.50400001928E-02 0.  1.
       -1    1    3    3    0  502  0.11177771081E+04  0.15057811887E+04 -0.15901127871E+03  0.18820433678E+04  0.50400001928E-02 0. -1.
</event>
<event>
 5   0  0.2205204E-07  0.3724160E+04  0.7818609E-02  0.8062629E-01
       -2   -1    0    0    0  501  0.00000000000E+00  0.00000000000E+00  0.12001975569E+04  0.12001975569E+04  0.25500000920E-02 0. -1.
        2   -1    0    0  501    0  0.00000000000E+00  0.00000000000E+00 -0.28889757310E+04  0.28889757310E+04  0.25500000920E-02 0.  1.
    10030    2    1    2    0    0  0.00000000000E+00  0.00000000000E+00 -0.16887781742E+04  0.40891732879E+04  0.37241598324E+04 0.  0.
        2    1    3    3  502    0  0.74193358995E+03 -0.10697638119E+04  0.61744493429E+03  0.14408672083E+04  0.25500000920E-02 0. -1.
       -2    1    3    3    0  502 -0.74193358995E+03  0.10697638119E+04 -0.23062231085E+04  0.26483060796E+04  0.25500000920E-02 0.  1.
</event>
<event>
 5   0  0.1370688E-07  0.3791710E+04  0.7818609E-02  0.8047936E-01
        2   -1    0    0  501    0  0.00000000000E+00  0.00000000000E+00  0.21790894149E+04  0.21790894149E+04  0.25500000920E-02 0.  1.
       -2   -1    0    0    0  501  0.00000000000E+00  0.00000000000E+00 -0.16494348492E+04  0.16494348492E+04  0.25500000920E-02 0. -1.
    10030    2    1    2    0    0  0.00000000000E+00  0.00000000000E+00  0.52965456566E+03  0.38285242641E+04  0.37917099153E+04 0.  0.
        5    1    3    3  502    0  0.38111180911E+03 -0.15098900327E+04 -0.82698063379E+03  0.17632167140E+04  0.46999998093E+01 0. -1.
       -5    1    3    3    0  502 -0.38111180911E+03  0.15098900327E+04  0.13566351994E+04  0.20653075501E+04  0.46999998093E+01 0.  1.
</event>
<event>
 5   0  0.6661000E-08  0.3802089E+04  0.7818609E-02  0.8045707E-01
       -1   -1    0    0    0  501  0.00000000000E+00  0.00000000000E+00  0.22130093697E+04  0.22130093697E+04  0.50400001928E-02 0.  1.
        1   -1    0    0  501    0  0.00000000000E+00  0.00000000000E+00 -0.16330572768E+04  0.16330572768E+04  0.50400001928E-02 0. -1.
    10030    2    1    2    0    0  0.00000000000E+00  0.00000000000E+00  0.57995209296E+03  0.38460666465E+04  0.38020894544E+04 0.  0.
        2    1    3    3  502    0 -0.91476729711E+03 -0.16493554045E+04  0.48894883863E+02  0.18866804626E+04  0.25500000920E-02 0. -1.
       -2    1    3    3    0  502  0.91476729711E+03  0.16493554045E+04  0.53105720909E+03  0.19593861839E+04  0.25500000920E-02 0.  1.
</event>
<event>
 5   0  0.2081337E-07  0.3743581E+04  0.7818609E-02  0.8058372E-01
       -2   -1    0    0    0  501  0.00000000000E+00  0.00000000000E+00  0.23269533724E+04  0.23269533724E+04  0.25500000920E-02 0. -1.
        2   -1    0    0  501    0  0.00000000000E+00  0.00000000000E+00 -0.15056599430E+04  0.15056599430E+04  0.25500000920E-02 0.  1.
    10030    2    1    2    0    0  0.00000000000E+00  0.00000000000E+00  0.82129342933E+03  0.38326133154E+04  0.37435814307E+04 0.  0.
        1    1    3    3  502    0  0.97905415872E+03  0.15750812444E+04  0.15129911515E+03  0.18607308764E+04  0.50400001928E-02 0. -1.
       -1    1    3    3    0  502 -0.97905415872E+03 -0.15750812444E+04  0.66999431418E+03  0.19718824390E+04  0.50400001928E-02 0.  1.
</event>
<event>
 5   0  0.6661000E-08  0.3790248E+04  0.7818609E-02  0.8048251E-01
        1   -1    0    0  501    0  0.00000000000E+00  0.00000000000E+00  0.15969997706E+04  0.15969997706E+04  0.50400001928E-02 0. -1.
       -1   -1    0    0    0  501  0.00000000000E+00  0.00000000000E+00 -0.22489016341E+04  0.22489016341E+04  0.50400001928E-02 0.  1.
    10030    2    1    2    0    0  0.00000000000E+00  0.00000000000E+00 -0.65190186355E+03  0.38459014047E+04  0.37902482207E+04 0.  0.
        4    1    3    3  502    0 -0.35945916045E+03 -0.56164549299E+03 -0.21259307418E+04  0.22280573780E+04  0.12699999809E+01 0.  1.
       -4    1    3    3    0  502  0.35945916045E+03  0.56164549299E+03  0.14740288783E+04  0.16178440267E+04  0.12699999809E+01 0. -1.
</event>
<event>
 5   0  0.1370688E-07  0.3817764E+04  0.7818609E-02  0.8042354E-01
       -2   -1    0    0    0  501  0.00000000000E+00  0.00000000000E+00  0.16018353974E+04  0.16018353974E+04  0.25500000920E-02 0. -1.
        2   -1    0    0  501    0  0.00000000000E+00  0.00000000000E+00 -0.22747843012E+04  0.22747843012E+04  0.25500000920E-02 0.  1.
    10030    2    1    2    0    0  0.00000000000E+00  0.00000000000E+00 -0.67294890375E+03  0.38766196986E+04  0.38177637513E+04 0.  0.
        5    1    3    3  502    0  0.93404686283E+02  0.14469260796E+03  0.15939245615E+04  0.16032086527E+04  0.46999998093E+01 0. -1.
       -5    1    3    3    0  502 -0.93404686283E+02 -0.14469260796E+03 -0.22668734653E+04  0.22734110459E+04  0.46999998093E+01 0.  1.
</event>
<event>
 5   0  0.6661000E-08  0.3812233E+04  0.7818609E-02  0.8043535E-01
        1   -1    0    0  501    0  0.00000000000E+00  0.00000000000E+00  0.15148404065E+04  0.15148404065E+04  0.50400001928E-02 0. -1.
       -1   -1    0    0    0  501  0.00000000000E+00  0.00000000000E+00 -0.23984579743E+04  0.23984579743E+04  0.50400001928E-02 0.  1.
    10030    2    1    2    0    0  0.00000000000E+00  0.00000000000E+00 -0.88361756783E+03  0.39132983808E+04  0.38122334938E+04 0.  0.
        1    1    3    3  502    0  0.20974141791E+03  0.18932520200E+04 -0.51356459099E+03  0.19728515562E+04  0.50400001928E-02 0.  1.
       -1    1    3    3    0  502 -0.20974141791E+03 -0.18932520200E+04 -0.37005297685E+03  0.19404468247E+04  0.50400001928E-02 0. -1.
</event>
<event>
 5   0  0.6725199E-08  0.3894719E+04  0.7818609E-02  0.8026128E-01
       -1   -1    0    0    0  501  0.00000000000E+00  0.00000000000E+00  0.21295337956E+04  0.21295337957E+04  0.50400001928E-02 0.  1.
        1   -1    0    0  501    0  0.00000000000E+00  0.00000000000E+00 -0.17807698768E+04  0.17807698768E+04  0.50400001928E-02 0. -1.
    10030    2    1    2    0    0  0.00000000000E+00  0.00000000000E+00  0.34876391884E+03  0.39103036725E+04  0.38947193146E+04 0.  0.
        5    1    3    3  502    0  0.58866487831E+03  0.57411508910E+03  0.19466799470E+04  0.21132248769E+04  0.46999998093E+01 0.  1.
       -5    1    3    3    0  502 -0.58866487831E+03 -0.57411508910E+03 -0.15979160281E+04  0.17970787956E+04  0.46999998093E+01 0. -1.
</event>
<event>
 5   0  0.1370688E-07  0.3792121E+04  0.7818609E-02  0.8047848E-01
       -2   -1    0    0    0  501  0.00000000000E+00  0.00000000000E+00  0.20335999054E+04  0.20335999054E+04  0.25500000920E-02 0.  1.
        2   -1    0    0  501    0  0.00000000000E+00  0.00000000000E+00 -0.17678238050E+04  0.17678238050E+04  0.25500000920E-02 0. -1.
    10030    2    1    2    0    0  0.00000000000E+00  0.00000000000E+00  0.26577610036E+03  0.38014237104E+04  0.37921214762E+04 0.  0.
        5    1    3    3  502    0  0.46733386448E+03  0.17964227690E+04  0.52047394969E+03  0.19278098787E+04  0.46999998093E+01 0.  1.
       -5    1    3    3    0  502 -0.46733386448E+03 -0.17964227690E+04 -0.25469784934E+03  0.18736138317E+04  0.46999998093E+01 0. -1.
</event>
<event>
 5   0  0.2081337E-07  0.3862084E+04  0.7818609E-02  0.8032961E-01
       -2   -1    0    0    0  501  0.00000000000E+00  0.00000000000E+00  0.22806871171E+04  0.22806871171E+04  0.25500000920E-02 0. -1.
        2   -1    0    0  501    0  0.00000000000E+00  0.00000000000E+00 -0.16350000828E+04  0.16350000828E+04  0.25500000920E-02 0.  1.
    10030    2    1    2    0    0  0.00000000000E+00  0.00000000000E+00  0.64568703425E+03  0.39156871999E+04  0.38620842173E+04 0.  0.
        1    1    3    3  502    0  0.17981013778E+04 -0.19350577395E+03 -0.36353896527E+03  0.18446608438E+04  0.50400001928E-02 0.  1.
       -1    1    3    3    0  502 -0.17981013778E+04  0.19350577395E+03  0.10092259995E+04  0.20710263561E+04  0.50400001928E-02 0. -1.
</event>
<event>
 5   0  0.2203998E-07  0.3793528E+04  0.7818609E-02  0.8047545E-01
       -2   -1    0    0    0  501  0.00000000000E+00  0.00000000000E+00  0.17053842885E+04  0.17053842885E+04  0.25500000920E-02 0. -1.
        2   -1    0    0  501    0  0.00000000000E+00  0.00000000000E+00 -0.21096205558E+04  0.21096205558E+04  0.25500000920E-02 0.  1.
    10030    2    1    2    0    0  0.00000000000E+00  0.00000000000E+00 -0.40423626729E+03  0.38150048443E+04  0.37935280416E+04 0.  0.
        3    1    3    3  502    0  0.13643816039E+04  0.11279068554E+04  0.48291574657E+03  0.18349165278E+04  0.10100000352E+00 0. -1.
       -3    1    3    3    0  502 -0.13643816039E+04 -0.11279068554E+04 -0.88715201386E+03  0.19800883166E+04  0.10100000352E+00 0.  1.
</event>
<event>
 5   0  0.6661000E-08  0.3836821E+04  0.7818609E-02  0.8038299E-01
       -1   -1    0    0    0  501  0.00000000000E+00  0.00000000000E+00  0.14382215288E+04  0.14382215288E+04  0.50400001928E-02 0.  1.
        1   -1    0    0  501    0  0.00000000000E+00  0.00000000000E+00 -0.25589233879E+04  0.25589233879E+04  0.50400001928E-02 0. -1.
    10030    2    1    2    0    0  0.00000000000E+00  0.00000000000E+00 -0.11207018591E+04  0.39971449167E+04  0.38368209273E+04 0.  0.
        1    1    3    3  502    0 -0.85448756101E+03  0.17112371462E+04 -0.40647265148E+03  0.19554287456E+04  0.50400001928E-02 0. -1.
       -1    1    3    3    0  502  0.85448756101E+03 -0.17112371462E+04 -0.71422920767E+03  0.20417161712E+04  0.50400001928E-02 0.  1.
</event>
<event>
 5   0  0.6661000E-08  0.3781087E+04  0.7818609E-02  0.8050226E-01
       -1   -1    0    0    0  501  0.00000000000E+00  0.00000000000E+00  0.20165352821E+04  0.20165352821E+04  0.50400001928E-02 0. -1.
        1   -1    0    0  501    0  0.00000000000E+00  0.00000000000E+00 -0.17724239768E+04  0.17724239768E+04  0.50400001928E-02 0.  1.
    10030    2    1    2    0    0  0.00000000000E+00  0.00000000000E+00  0.24411130528E+03  0.37889592588E+04  0.37810874012E+04 0.  0.
        2    1    3    3  502    0  0.18809722771E+04 -0.14629662281E+03  0.57590024117E+00  0.18866530525E+04  0.25500000920E-02 0.  1.
       -2    1    3    3    0  502 -0.18809722771E+04  0.14629662281E+03  0.24353540503E+03  0.19023062063E+04  0.25500000920E-02 0. -1.
</event>
<event>
 5   0  0.6661000E-08  0.3813327E+04  0.7818609E-02  0.8043301E-01
       -3   -1    0    0    0  501  0.00000000000E+00  0.00000000000E+00  0.17946888072E+04  0.17946888100E+04  0.10100000352E+00 0.  1.
        3   -1    0    0  501    0  0.00000000000E+00  0.00000000000E+00 -0.20256240899E+04  0.20256240924E+04  0.10100000352E+00 0. -1.
    10030    2    1    2    0    0  0.00000000000E+00  0.00000000000E+00 -0.23093528271E+03  0.38203129024E+04  0.38133265750E+04 0.  0.
        2    1    3    3  502    0 -0.74673197865E+03  0.97269940710E+03 -0.15781466352E+04  0.19985743886E+04  0.25500000920E-02 0. -1.
       -2    1    3    3    0  502  0.74673197865E+03 -0.97269940710E+03  0.13472113525E+04  0.18217385138E+04  0.25500000920E-02 0.  1.
</event>
<event>
 5   0  0.6661000E-08  0.3784993E+04  0.7818609E-02  0.8049383E-01
       -1   -1    0    0    0  501  0.00000000000E+00  0.00000000000E+00  0.33065180062E+04  0.33065180062E+04  0.50400001928E-02 0.  1.
        1   -1    0    0  501    0  0.00000000000E+00  0.00000000000E+00 -0.10831766809E+04  0.10831766810E+04  0.50400001928E-02 0. -1.
    10030    2    1    2    0    0  0.00000000000E+00  0.00000000000E+00  0.22233413252E+04  0.43896946871E+04  0.37849931041E+04 0.  0.
        4    1    3    3  502    0  0.57359469178E+03  0.94434099084E+03  0.28936156660E+04  0.30973866425E+04  0.12699999809E+01 0.  1.
       -4    1    3    3    0  502 -0.57359469178E+03 -0.94434099084E+03 -0.67027434081E+03  0.12923080446E+04  0.12699999809E+01 0. -1.
</event>
<event>
 5   0  0.6661000E-08  0.3800485E+04  0.7818609E-02  0.8046051E-01
       -1   -1    0    0    0  501  0.00000000000E+00  0.00000000000E+00  0.16108453444E+04  0.16108453444E+04  0.50400001928E-02 0.  1.
        1   -1    0    0  501    0  0.00000000000E+00  0.00000000000E+00 -0.22416314760E+04  0.22416314760E+04  0.50400001928E-02 0. -1.
    10030    2    1    2    0    0  0.00000000000E+00  0.00000000000E+00 -0.63078613155E+03  0.38524768204E+04  0.38004850359E+04 0.  0.
        2    1    3    3  502    0 -0.17494858717E+04  0.71941793176E+03 -0.13220375427E+03  0.18962438684E+04  0.25500000920E-02 0. -1.
       -2    1    3    3    0  502  0.17494858717E+04 -0.71941793176E+03 -0.49858237728E+03  0.19562329520E+04  0.25500000920E-02 0.  1.
</event>
<event>
 5   0  0.6661000E-08  0.3834988E+04  0.7818609E-02  0.8038688E-01
        1   -1    0    0  501    0  0.00000000000E+00  0.00000000000E+00  0.15732298753E+04  0.15732298753E+04  0.50400001928E-02 0. -1.
       -1   -1    0    0    0  501  0.00000000000E+00  0.00000000000E+00 -0.23370923200E+04  0.23370923200E+04  0.50400001928E-02 0.  1.
    10030    2    1    2    0    0  0.00000000000E+00  0.00000000000E+00 -0.76386244470E+03  0.39103221953E+04  0.38349881143E+04 0.  0.
        3    1    3    3  502    0  0.11117044106E+04 -0.13457379354E+04  0.42731290108E+03  0.17970791894E+04  0.10100000352E+00 0. -1.
       -3    1    3    3    0  502 -0.11117044106E+04  0.13457379354E+04 -0.11911753458E+04  0.21132430059E+04  0.10100000352E+00 0.  1.
</event>
<event>
 5   0  0.2081337E-07  0.3796359E+04  0.7818609E-02  0.8046937E-01
       -2   -1    0    0    0  501  0.00000000000E+00  0.00000000000E+00  0.13355610700E+04  0.13355610700E+04  0.25500000920E-02 0.  1.
        2   -1    0    0  501    0  0.00000000000E+00  0.00000000000E+00 -0.26978059753E+04  0.26978059753E+04  0.25500000920E-02 0. -1.
    10030    2    1    2    0    0  0.00000000000E+00  0.00000000000E+00 -0.13622449052E+04  0.40333670453E+04  0.37963585896E+04 0.  0.
        1    1    3    3  502    0 -0.87295333105E+03 -0.13544725627E+04 -0.17469690919E+04  0.23766666677E+04  0.50400001928E-02 0. -1.
       -1    1    3    3    0  502  0.87295333105E+03  0.13544725627E+04  0.38472418671E+03  0.16567003776E+04  0.50400001928E-02 0.  1.
</event>
<event>
 5   0  0.6725199E-08  0.3836458E+04  0.7818609E-02  0.8038376E-01
       -1   -1    0    0    0  501  0.00000000000E+00  0.00000000000E+00  0.15892676644E+04  0.15892676644E+04  0.50400001928E-02 0.  1.
        1   -1    0    0  501    0  0.00000000000E+00  0.00000000000E+00 -0.23152823379E+04  0.23152823379E+04  0.50400001928E-02 0. -1.
    10030    2    1    2    0    0  0.00000000000E+00  0.00000000000E+00 -0.72601467351E+03  0.39045500023E+04  0.38364584468E+04 0.  0.
        5    1    3    3  502    0  0.90440520542E+03 -0.12911119190E+04 -0.14754127820E+04  0.21591164235E+04  0.46999998093E+01 0. -1.
       -5    1    3    3    0  502 -0.90440520542E+03  0.12911119190E+04  0.74939810844E+03  0.17454335788E+04  0.46999998093E+01 0.  1.
</event>
<event>
 5   0  0.2205204E-07  0.3808921E+04  0.7818609E-02  0.8044243E-01
        2   -1    0    0  501    0  0.00000000000E+00  0.00000000000E+00  0.15653131217E+04  0.15653131217E+04  0.25500000920E-02 0.  1.
       -2   -1    0    0    0  501  0.00000000000E+00  0.00000000000E+00 -0.23170892765E+04  0.23170892765E+04  0.25500000920E-02 0. -1.
    10030    2    1    2    0    0  0.00000000000E+00  0.00000000000E+00 -0.75177615483E+03  0.38824023982E+04  0.38089212376E+04 0.  0.
        2    1    3    3  502    0  0.12363347161E+04  0.99445274740E+03 -0.14495418467E+04  0.21491001285E+04  0.25500000920E-02 0. -1.
       -2    1    3    3    0  502 -0.12363347161E+04 -0.99445274740E+03  0.69776569191E+03  0.17333022696E+04  0.25500000920E-02 0.  1.
</event>
<event>
 5   0  0.6661000E-08  0.3791527E+04  0.7818609E-02  0.8047976E-01
       -1   -1    0    0    0  501  0.00000000000E+00  0.00000000000E+00  0.22577712215E+04  0.22577712215E+04  0.50400001928E-02 0.  1.
        1   -1    0    0  501    0  0.00000000000E+00  0.00000000000E+00 -0.15917991828E+04  0.15917991828E+04  0.50400001928E-02 0. -1.
    10030    2    1    2    0    0  0.00000000000E+00  0.00000000000E+00  0.66597203865E+03  0.38495704043E+04  0.37915265450E+04 0.  0.
        2    1    3    3  502    0  0.36771317257E+03  0.10241221739E+04 -0.12431576458E+04  0.16521138389E+04  0.25500000920E-02 0.  1.
       -2    1    3    3    0  502 -0.36771317257E+03 -0.10241221739E+04  0.19091296845E+04  0.21974565654E+04  0.25500000920E-02 0. -1.
</event>
<event>
 5   0  0.2203998E-07  0.3835448E+04  0.7818609E-02  0.8038590E-01
       -2   -1    0    0    0  501  0.00000000000E+00  0.00000000000E+00  0.19003694605E+04  0.19003694605E+04  0.25500000920E-02 0. -1.
        2   -1    0    0  501    0  0.00000000000E+00  0.00000000000E+00 -0.19352368958E+04  0.19352368958E+04  0.25500000920E-02 0.  1.
    10030    2    1    2    0    0  0.00000000000E+00  0.00000000000E+00 -0.34867435270E+02  0.38356063563E+04  0.38354478725E+04 0.  0.
        3    1    3    3  502    0 -0.12076013442E+04 -0.14613640066E+04 -0.30689225183E+03  0.19204344901E+04  0.10100000352E+00 0.  1.
       -3    1    3    3    0  502  0.12076013442E+04  0.14613640066E+04  0.27202481656E+03  0.19151718663E+04  0.10100000352E+00 0. -1.
</event>
<event>
 5   0  0.6661000E-08  0.3818375E+04  0.7818609E-02  0.8042223E-01
       -1   -1    0    0    0  501  0.00000000000E+00  0.00000000000E+00  0.19767191999E+04  0.19767191999E+04  0.50400001928E-02 0.  1.
        1   -1    0    0  501    0  0.00000000000E+00  0.00000000000E+00 -0.18439624728E+04  0.18439624729E+04  0.50400001928E-02 0. -1.
    10030    2    1    2    0    0  0.00000000000E+00  0.00000000000E+00  0.13275672701E+03  0.38206816727E+04  0.38183745358E+04 0.  0.
        4    1    3    3  502    0 -0.94823457272E+03  0.12712999471E+04  0.11298667588E+04  0.19472937287E+04  0.12699999809E+01 0.  1.
       -4    1    3    3    0  502  0.94823457272E+03 -0.12712999471E+04 -0.99711003181E+03  0.18733879440E+04  0.12699999809E+01 0. -1.
</event>
<event>
 5   0  0.2203998E-07  0.3807136E+04  0.7818609E-02  0.8044625E-01
       -2   -1    0    0    0  501  0.00000000000E+00  0.00000000000E+00  0.22368550977E+04  0.22368550977E+04  0.25500000920E-02 0.  1.
        2   -1    0    0  501    0  0.00000000000E+00  0.00000000000E+00 -0.16199400296E+04  0.16199400296E+04  0.25500000920E-02 0. -1.
    10030    2    1    2    0    0  0.00000000000E+00  0.00000000000E+00  0.61691506807E+03  0.38567951273E+04  0.38071359908E+04 0.  0.
        3    1    3    3  502    0  0.27318907345E+03  0.11820326967E+04  0.17944712835E+04  0.21660934337E+04  0.10100000352E+00 0.  1.
       -3    1    3    3    0  502 -0.27318907345E+03 -0.11820326967E+04 -0.11775562154E+04  0.16907016936E+04  0.10100000352E+00 0. -1.
</event>
<event>
 5   0  0.6661000E-08  0.3762362E+04  0.7818609E-02  0.8054281E-01
       -1   -1    0    0    0  501  0.00000000000E+00  0.00000000000E+00  0.15029828094E+04  0.15029828094E+04  0.50400001928E-02 0.  1.
        1   -1    0    0  501    0  0.00000000000E+00  0.00000000000E+00 -0.23545452993E+04  0.23545452993E+04  0.50400001928E-02 0. -1.
    10030    2    1    2    0    0  0.00000000000E+00  0.00000000000E+00 -0.85156248994E+03  0.38575281087E+04  0.37623615503E+04 0.  0.
        3    1    3    3  502    0 -0.83019574431E+02 -0.17588646957E+04  0.25304093072E+03  0.17789117432E+04  0.10100000352E+00 0.  1.
       -3    1    3    3    0  502  0.83019574431E+02  0.17588646957E+04 -0.11046034207E+04  0.20786163654E+04  0.10100000352E+00 0. -1.
</event>
<event>
 5   0  0.6725199E-08  0.3784716E+04  0.7818609E-02  0.8049443E-01
        1   -1    0    0  501    0  0.00000000000E+00  0.00000000000E+00  0.25645854568E+04  0.25645854568E+04  0.50400001928E-02 0. -1.
       -1   -1    0    0    0  501  0.00000000000E+00  0.00000000000E+00 -0.13963346704E+04  0.13963346704E+04  0.50400001928E-02 0.  1.
    10030    2    1    2    0    0  0.00000000000E+00  0.00000000000E+00  0.11682507864E+04  0.39609201272E+04  0.37847164166E+04 0.  0.
        5    1    3    3  502    0  0.95847439644E+03  0.13334409748E+04  0.15682557019E+04  0.22707236817E+04  0.46999998093E+01 0. -1.
       -5    1    3    3    0  502 -0.95847439644E+03 -0.13334409748E+04 -0.40000491551E+03  0.16901964455E+04  0.46999998093E+01 0.  1.
</event>
<event>
 5   0  0.6661000E-08  0.3790444E+04  0.7818609E-02  0.8048209E-01
       -1   -1    0    0    0  501  0.00000000000E+00  0.00000000000E+00  0.15560968109E+04  0.15560968109E+04  0.50400001928E-02 0. -1.
        1   -1    0    0  501    0  0.00000000000E+00  0.00000000000E+00 -0.23082540079E+04  0.23082540079E+04  0.50400001928E-02 0.  1.
    10030    2    1    2    0    0  0.00000000000E+00  0.00000000000E+00 -0.75215719703E+03  0.38643508188E+04  0.37904441431E+04 0.  0.
        1    1    3    3  502    0 -0.92111804542E+03  0.92736624854E+03 -0.17752075337E+04  0.22045018486E+04  0.50400001928E-02 0.  1.
       -1    1    3    3    0  502  0.92111804542E+03 -0.92736624854E+03  0.10230503367E+04  0.16598489702E+04  0.50400001928E-02 0. -1.
</event>
<event>
 5   0  0.1370688E-07  0.3789101E+04  0.7818609E-02  0.8048498E-01
        2   -1    0    0  501    0  0.00000000000E+00  0.00000000000E+00  0.19225765872E+04  0.19225765872E+04  0.25500000920E-02 0.  1.
       -2   -1    0    0    0  501  0.00000000000E+00  0.00000000000E+00 -0.18669331107E+04  0.18669331107E+04  0.25500000920E-02 0. -1.
    10030    2    1    2    0    0  0.00000000000E+00  0.00000000000E+00  0.55643476440E+02  0.37895096979E+04  0.37891011538E+04 0.  0.
        5    1    3    3  502    0 -0.14535355939E+04  0.78074254391E+03 -0.90339366216E+03  0.18810812958E+04  0.46999998093E+01 0. -1.
       -5    1    3    3    0  502  0.14535355939E+04 -0.78074254391E+03  0.95903713860E+03  0.19084284021E+04  0.46999998093E+01 0.  1.
</event>
<event>
 5   0  0.2081337E-07  0.3814828E+04  0.7818609E-02  0.8042980E-01
        2   -1    0    0  501    0  0.00000000000E+00  0.00000000000E+00  0.19937825675E+04  0.19937825675E+04  0.25500000920E-02 0.  1.
       -2   -1    0    0    0  501  0.00000000000E+00  0.00000000000E+00 -0.18247866802E+04  0.18247866802E+04  0.25500000920E-02 0. -1.
    10030    2    1    2    0    0  0.00000000000E+00  0.00000000000E+00  0.16899588736E+03  0.38185692477E+04  0.38148278453E+04 0.  0.
        1    1    3    3  502    0 -0.95729541666E+03 -0.13480178915E+04  0.10365675260E+04  0.19514197361E+04  0.50400001928E-02 0.  1.
       -1    1    3    3    0  502  0.95729541666E+03  0.13480178915E+04 -0.86757163860E+03  0.18671495116E+04  0.50400001928E-02 0. -1.
</event>
<event>
 5   0  0.2081337E-07  0.3814144E+04  0.7818609E-02  0.8043126E-01
        2   -1    0    0  501    0  0.00000000000E+00  0.00000000000E+00  0.17743411115E+04  0.17743411115E+04  0.25500000920E-02 0.  1.
       -2   -1    0    0    0  501  0.00000000000E+00  0.00000000000E+00 -0.20497317434E+04  0.20497317435E+04  0.25500000920E-02 0. -1.
    10030    2    1    2    0    0  0.00000000000E+00  0.00000000000E+00 -0.27539063193E+03  0.38240728550E+04  0.38141438358E+04 0.  0.
        1    1    3    3  502    0  0.90107431187E+03  0.16192651630E+04  0.31399797860E+03  0.18795077319E+04  0.50400001928E-02 0.  1.
       -1    1    3    3    0  502 -0.90107431187E+03 -0.16192651630E+04 -0.58938861053E+03  0.19445651231E+04  0.50400001928E-02 0. -1.
</event>
<event>
 5   0  0.6661000E-08  0.3795080E+04  0.7818609E-02  0.8047212E-01
        1   -1    0    0  501    0  0.00000000000E+00  0.00000000000E+00  0.13310927118E+04  0.13310927118E+04  0.50400001928E-02 0. -1.
       -1   -1    0    0    0  501  0.00000000000E+00  0.00000000000E+00 -0.27050393140E+04  0.27050393140E+04  0.50400001928E-02 0.  1.
    10030    2    1    2    0    0  0.00000000000E+00  0.00000000000E+00 -0.13739466023E+04  0.40361320258E+04  0.37950800339E+04 0.  0.
        2    1    3    3  502    0  0.12338450175E+04 -0.14405085299E+04 -0.62662619365E+03  0.19975231509E+04  0.25500000920E-02 0.  1.
       -2    1    3    3    0  502 -0.12338450175E+04  0.14405085299E+04 -0.74732040862E+03  0.20386088749E+04  0.25500000920E-02 0. -1.
</event>
<event>
 5   0  0.1370688E-07  0.3771529E+04  0.7818609E-02  0.8052292E-01
       -2   -1    0    0    0  501  0.00000000000E+00  0.00000000000E+00  0.24065849869E+04  0.24065849869E+04  0.25500000920E-02 0.  1.
        2   -1    0    0  501    0  0.00000000000E+00  0.00000000000E+00 -0.14776572459E+04  0.14776572459E+04  0.25500000920E-02 0. -1.
    10030    2    1    2    0    0  0.00000000000E+00  0.00000000000E+00  0.92892774102E+03  0.38842422328E+04  0.37715289969E+04 0.  0.
        5    1    3    3  502    0 -0.95433209107E+03  0.22241423239E+03  0.21237838500E+04  0.23389522788E+04  0.46999998093E+01 0.  1.
       -5    1    3    3    0  502  0.95433209107E+03 -0.22241423239E+03 -0.11948561090E+04  0.15452899540E+04  0.46999998093E+01 0. -1.
</event>
<event>
 5   0  0.2205204E-07  0.3800018E+04  0.7818609E-02  0.8046151E-01
       -2   -1    0    0    0  501  0.00000000000E+00  0.00000000000E+00  0.16017863086E+04  0.16017863086E+04  0.25500000920E-02 0. -1.
        2   -1    0    0  501    0  0.00000000000E+00  0.00000000000E+00 -0.22537557069E+04  0.22537557069E+04  0.25500000920E-02 0.  1.
    10030    2    1    2    0    0  0.00000000000E+00  0.00000000000E+00 -0.65196939833E+03  0.38555420155E+04  0.38000184390E+04 0.  0.
        2    1    3    3  502    0 -0.75249357760E+03 -0.25043514874E+03 -0.20777901495E+04  0.22240000569E+04  0.25500000920E-02 0.  1.
       -2    1    3    3    0  502  0.75249357760E+03  0.25043514874E+03  0.14258207511E+04  0.16315419585E+04  0.25500000920E-02 0. -1.
</event>
<event>
 5   0  0.6725199E-08  0.3797767E+04  0.7818609E-02  0.8046634E-01
       -1   -1    0    0    0  501  0.00000000000E+00  0.00000000000E+00  0.18982544969E+04  0.18982544969E+04  0.50400001928E-02 0.  1.
        1   -1    0    0  501    0  0.00000000000E+00  0.00000000000E+00 -0.18995126428E+04  0.18995126428E+04  0.50400001928E-02 0. -1.
    10030    2    1    2    0    0  0.00000000000E+00  0.00000000000E+00 -0.12581459153E+01  0.37977671396E+04  0.37977669312E+04 0.  0.
        5    1    3    3  502    0  0.13005460695E+04 -0.10956684393E+04 -0.84551190312E+03  0.18991634674E+04  0.46999998093E+01 0. -1.
       -5    1    3    3    0  502 -0.13005460695E+04  0.10956684393E+04  0.84425375720E+03  0.18986036722E+04  0.46999998093E+01 0.  1.
</event>
<event>
 5   0  0.6661000E-08  0.3795983E+04  0.7818609E-02  0.8047017E-01
        1   -1    0    0  501    0  0.00000000000E+00  0.00000000000E+00  0.12409667677E+04  0.12409667677E+04  0.50400001928E-02 0.  1.
       -1   -1    0    0    0  501  0.00000000000E+00  0.00000000000E+00 -0.29028758400E+04  0.29028758400E+04  0.50400001928E-02 0. -1.
    10030    2    1    2    0    0  0.00000000000E+00  0.00000000000E+00 -0.16619090724E+04  0.41438426077E+04  0.37959833763E+04 0.  0.
        4    1    3    3  502    0 -0.18207315584E+04  0.53187414924E+03 -0.90350801362E+03  0.21010192436E+04  0.12699999809E+01 0. -1.
       -4    1    3    3    0  502  0.18207315584E+04 -0.53187414924E+03 -0.75840105875E+03  0.20428233642E+04  0.12699999809E+01 0.  1.
</event>
<event>
 5   0  0.6661000E-08  0.3763710E+04  0.7818609E-02  0.8053988E-01
       -1   -1    0    0    0  501  0.00000000000E+00  0.00000000000E+00  0.15127023115E+04  0.15127023115E+04  0.50400001928E-02 0. -1.
        1   -1    0    0  501    0  0.00000000000E+00  0.00000000000E+00 -0.23410943885E+04  0.23410943885E+04  0.50400001928E-02 0.  1.
    10030    2    1    2    0    0  0.00000000000E+00  0.00000000000E+00 -0.82839207703E+03  0.38537967001E+04  0.37637103465E+04 0.  0.
        3    1    3    3  502    0  0.16106987196E+04  0.92806689856E+03 -0.11440781161E+03  0.18624574334E+04  0.10100000352E+00 0. -1.
       -3    1    3    3    0  502 -0.16106987196E+04 -0.92806689856E+03 -0.71398426542E+03  0.19913392667E+04  0.10100000352E+00 0.  1.
</event>
<event>
 5   0  0.6661000E-08  0.3693670E+04  0.7818609E-02  0.8069366E-01
        1   -1    0    0  501    0  0.00000000000E+00  0.00000000000E+00  0.18143731549E+04  0.18143731549E+04  0.50400001928E-02 0. -1.
       -1   -1    0    0    0  501  0.00000000000E+00  0.00000000000E+00 -0.18798772248E+04  0.18798772248E+04  0.50400001928E-02 0.  1.
    10030    2    1    2    0    0  0.00000000000E+00  0.00000000000E+00 -0.65504069902E+02  0.36942503797E+04  0.36936695960E+04 0.  0.
        3    1    3    3  502    0 -0.38269700221E+03  0.14958153333E+04 -0.10462613873E+04  0.18650960853E+04  0.10100000352E+00 0. -1.
       -3    1    3    3    0  502  0.38269700221E+03 -0.14958153333E+04  0.98075731737E+03  0.18291542943E+04  0.10100000352E+00 0.  1.
</event>
<event>
 5   0  0.2205204E-07  0.3839062E+04  0.7818609E-02  0.8037824E-01
       -2   -1    0    0    0  501  0.00000000000E+00  0.00000000000E+00  0.12360248169E+04  0.12360248169E+04  0.25500000920E-02 0. -1.
        2   -1    0    0  501    0  0.00000000000E+00  0.00000000000E+00 -0.29810081200E+04  0.29810081200E+04  0.25500000920E-02 0.  1.
    10030    2    1    2    0    0  0.00000000000E+00  0.00000000000E+00 -0.17449833031E+04  0.42170329369E+04  0.38390623937E+04 0.  0.
        2    1    3    3  502    0  0.17179945231E+04 -0.67091543213E+03 -0.14568105882E+04  0.23503041906E+04  0.25500000920E-02 0.  1.
       -2    1    3    3    0  502 -0.17179945231E+04  0.67091543213E+03 -0.28817271489E+03  0.18667287463E+04  0.25500000920E-02 0. -1.
</event>
<event>
 5   0  0.2205204E-07  0.3370787E+04  0.7818609E-02  0.8145114E-01
       -2   -1    0    0    0  501  0.00000000000E+00  0.00000000000E+00  0.14273225958E+04  0.14273225958E+04  0.25500000920E-02 0.  1.
        2   -1    0    0  501    0  0.00000000000E+00  0.00000000000E+00 -0.19901257263E+04  0.19901257263E+04  0.25500000920E-02 0. -1.
    10030    2    1    2    0    0  0.00000000000E+00  0.00000000000E+00 -0.56280313051E+03  0.34174483220E+04  0.33707870995E+04 0.  0.
        2    1    3    3  502    0  0.12634737933E+04  0.68692126305E+03  0.60958377471E+03  0.15619920699E+04  0.25500000920E-02 0.  1.
       -2    1    3    3    0  502 -0.12634737933E+04 -0.68692126305E+03 -0.11723869052E+04  0.18554562521E+04  0.25500000920E-02 0. -1.
</event>
<event>
 5   0  0.6661000E-08  0.3850607E+04  0.7818609E-02  0.8035381E-01
       -1   -1    0    0    0  501  0.00000000000E+00  0.00000000000E+00  0.20072960445E+04  0.20072960445E+04  0.50400001928E-02 0.  1.
        1   -1    0    0  501    0  0.00000000000E+00  0.00000000000E+00 -0.18466599223E+04  0.18466599223E+04  0.50400001928E-02 0. -1.
    10030    2    1    2    0    0  0.00000000000E+00  0.00000000000E+00  0.16063612218E+03  0.38539559668E+04  0.38506067873E+04 0.  0.
        4    1    3    3  502    0 -0.12509377840E+04  0.13485874081E+04 -0.48873446659E+03  0.19032593960E+04  0.12699999809E+01 0. -1.
       -4    1    3    3    0  502  0.12509377840E+04 -0.13485874081E+04  0.64937058877E+03  0.19506965708E+04  0.12699999809E+01 0.  1.
</event>
<event>
 5   0  0.6661000E-08  0.3814541E+04  0.7818609E-02  0.8043042E-01
        1   -1    0    0  501    0  0.00000000000E+00  0.00000000000E+00  0.14075249665E+04  0.14075249665E+04  0.50400001928E-02 0.  1.
       -1   -1    0    0    0  501  0.00000000000E+00  0.00000000000E+00 -0.25844522613E+04  0.25844522613E+04  0.50400001928E-02 0. -1.
    10030    2    1    2    0    0  0.00000000000E+00  0.00000000000E+00 -0.11769272948E+04  0.39919772279E+04  0.38145411691E+04 0.  0.
        1    1    3    3  502    0 -0.10840125731E+04  0.43773392374E+03 -0.21655412251E+04  0.24609475907E+04  0.50400001928E-02 0. -1.
       -1    1    3    3    0  502  0.10840125731E+04 -0.43773392374E+03  0.98861393026E+03  0.15310296371E+04  0.50400001928E-02 0.  1.
</event>
<event>
 5   0  0.6661000E-08  0.3796219E+04  0.7818609E-02  0.8046967E-01
       -1   -1    0    0    0  501  0.00000000000E+00  0.00000000000E+00  0.18761689203E+04  0.18761689203E+04  0.50400001928E-02 0. -1.
        1   -1    0    0  501    0  0.00000000000E+00  0.00000000000E+00 -0.19203066387E+04  0.19203066387E+04  0.50400001928E-02 0.  1.
    10030    2    1    2    0    0  0.00000000000E+00  0.00000000000E+00 -0.44137718403E+02  0.37964755590E+04  0.37962189784E+04 0.  0.
        4    1    3    3  502    0 -0.86338783236E+03 -0.61169016101E+03  0.15538595347E+04  0.18799160802E+04  0.12699999809E+01 0. -1.
       -4    1    3    3    0  502  0.86338783236E+03  0.61169016101E+03 -0.15979972531E+04  0.19165594788E+04  0.12699999809E+01 0.  1.
</event>
<event>
 5   0  0.6661000E-08  0.3771623E+04  0.7818609E-02  0.8052272E-01
       -3   -1    0    0    0  501  0.00000000000E+00  0.00000000000E+00  0.25411641551E+04  0.25411641571E+04  0.10100000352E+00 0.  1.
        3   -1    0    0  501    0  0.00000000000E+00  0.00000000000E+00 -0.13994705533E+04  0.13994705569E+04  0.10100000352E+00 0. -1.
    10030    2    1    2    0    0  0.00000000000E+00  0.00000000000E+00  0.11416936018E+04  0.39406347140E+04  0.37716226838E+04 0.  0.
        4    1    3    3  502    0  0.11028429728E+04  0.89708765360E+03 -0.72373067851E+03  0.15952481277E+04  0.12699999809E+01 0. -1.
       -4    1    3    3    0  502 -0.11028429728E+04 -0.89708765360E+03  0.18654242803E+04  0.23453865863E+04  0.12699999809E+01 0.  1.
</event>
<event>
 5   0  0.6661000E-08  0.3774215E+04  0.7818609E-02  0.8051711E-01
       -1   -1    0    0    0  501  0.00000000000E+00  0.00000000000E+00  0.18388488101E+04  0.18388488101E+04  0.50400001928E-02 0. -1.
        1   -1    0    0  501    0  0.00000000000E+00  0.00000000000E+00 -0.19366331526E+04  0.19366331526E+04  0.50400001928E-02 0.  1.
    10030    2    1    2    0    0  0.00000000000E+00  0.00000000000E+00 -0.97784342486E+02  0.37754819627E+04  0.37742154513E+04 0.  0.
        3    1    3    3  502    0  0.16417970930E+04 -0.82979247195E+03  0.37210807857E+03  0.18768371463E+04  0.10100000352E+00 0. -1.
       -3    1    3    3    0  502 -0.16417970930E+04  0.82979247195E+03 -0.46989242106E+03  0.18986448164E+04  0.10100000352E+00 0.  1.
</event>
<event>
 5   0  0.2081337E-07  0.3777890E+04  0.7818609E-02  0.8050916E-01
       -2   -1    0    0    0  501  0.00000000000E+00  0.00000000000E+00  0.22093565521E+04  0.22093565521E+04  0.25500000920E-02 0. -1.
        2   -1    0    0  501    0  0.00000000000E+00  0.00000000000E+00 -0.16150011753E+04  0.16150011753E+04  0.25500000920E-02 0.  1.
    10030    2    1    2    0    0  0.00000000000E+00  0.00000000000E+00  0.59435537681E+03  0.38243577274E+04  0.37778901140E+04 0.  0.
        1    1    3    3  502    0  0.12210418310E+04  0.63935695477E+03 -0.10103724822E+04  0.17089684086E+04  0.50400001928E-02 0.  1.
       -1    1    3    3    0  502 -0.12210418310E+04 -0.63935695477E+03  0.16047278590E+04  0.21153893188E+04  0.50400001928E-02 0. -1.
</event>
<event>
 5   0  0.2203998E-07  0.3792829E+04  0.7818609E-02  0.8047696E-01
       -2   -1    0    0    0  501  0.00000000000E+00  0.00000000000E+00  0.18961109718E+04  0.18961109718E+04  0.25500000920E-02 0. -1.
        2   -1    0    0  501    0  0.00000000000E+00  0.00000000000E+00 -0.18967178778E+04  0.18967178778E+04  0.25500000920E-02 0.  1.
    10030    2    1    2    0    0  0.00000000000E+00  0.00000000000E+00 -0.60690591172E+00  0.37928288496E+04  0.37928288010E+04 0.  0.
        3    1    3    3  502    0 -0.28584950295E+03  0.12093392659E+04  0.14322384216E+04  0.18961851980E+04  0.10100000352E+00 0. -1.
       -3    1    3    3    0  502  0.28584950295E+03 -0.12093392659E+04 -0.14328453275E+04  0.18966436516E+04  0.10100000352E+00 0.  1.
</event>
<event>
 5   0  0.2081337E-07  0.3805368E+04  0.7818609E-02  0.8045004E-01
        2   -1    0    0  501    0  0.00000000000E+00  0.00000000000E+00  0.23283534550E+04  0.23283534550E+04  0.25500000920E-02 0.  1.
       -2   -1    0    0    0  501  0.00000000000E+00  0.00000000000E+00 -0.15548357425E+04  0.15548357425E+04  0.25500000920E-02 0. -1.
    10030    2    1    2    0    0  0.00000000000E+00  0.00000000000E+00  0.77351771254E+03  0.38831891975E+04  0.38053684042E+04 0.  0.
        1    1    3    3  502    0 -0.44896470119E+03  0.15562327571E+04  0.14055635820E+04  0.21445369384E+04  0.50400001928E-02 0.  1.
       -1    1    3    3    0  502  0.44896470119E+03 -0.15562327571E+04 -0.63204586942E+03  0.17386522591E+04  0.50400001928E-02 0. -1.
</event>
<event>
 5   0  0.2203998E-07  0.3870876E+04  0.7818609E-02  0.8031114E-01
       -2   -1    0    0    0  501  0.00000000000E+00  0.00000000000E+00  0.23242548223E+04  0.23242548223E+04  0.25500000920E-02 0.  1.
        2   -1    0    0  501    0  0.00000000000E+00  0.00000000000E+00 -0.16116650349E+04  0.16116650349E+04  0.25500000920E-02 0. -1.
    10030    2    1    2    0    0  0.00000000000E+00  0.00000000000E+00  0.71258978742E+03  0.39359198571E+04  0.38708759883E+04 0.  0.
        3    1    3    3  502    0 -0.33924466946E+02  0.15327452849E+04 -0.84485132380E+03  0.17504950007E+04  0.10100000352E+00 0.  1.
       -3    1    3    3    0  502  0.33924466946E+02 -0.15327452849E+04  0.15574411112E+04  0.21854248564E+04  0.10100000352E+00 0. -1.
</event>
<event>
 5   0  0.1370688E-07  0.3785704E+04  0.7818609E-02  0.8049230E-01
        2   -1    0    0  501    0  0.00000000000E+00  0.00000000000E+00  0.16836526494E+04  0.16836526494E+04  0.25500000920E-02 0.  1.
       -2   -1    0    0    0  501  0.00000000000E+00  0.00000000000E+00 -0.21280446639E+04  0.21280446639E+04  0.25500000920E-02 0. -1.
    10030    2    1    2    0    0  0.00000000000E+00  0.00000000000E+00 -0.44439201450E+03  0.38116973133E+04  0.37857036527E+04 0.  0.
        5    1    3    3  502    0 -0.18679523423E+04  0.85681169559E+02  0.73553251659E+02  0.18713683194E+04  0.46999998093E+01 0.  1.
       -5    1    3    3    0  502  0.18679523423E+04 -0.85681169559E+02 -0.51794526616E+03  0.19403289939E+04  0.46999998093E+01 0. -1.
</event>
<event>
 5   0  0.1370688E-07  0.3782514E+04  0.7818609E-02  0.8049918E-01
        2   -1    0    0  501    0  0.00000000000E+00  0.00000000000E+00  0.22857904055E+04  0.22857904055E+04  0.25500000920E-02 0. -1.
       -2   -1    0    0    0  501  0.00000000000E+00  0.00000000000E+00 -0.15648207957E+04  0.15648207957E+04  0.25500000920E-02 0.  1.
    10030    2    1    2    0    0  0.00000000000E+00  0.00000000000E+00  0.72096960975E+03  0.38506112012E+04  0.37825136410E+04 0.  0.
        5    1    3    3  502    0  0.50214186896E+03  0.18223046011E+04  0.29699407645E+03  0.19134179071E+04  0.46999998093E+01 0.  1.
       -5    1    3    3    0  502 -0.50214186896E+03 -0.18223046011E+04  0.42397553331E+03  0.19371932941E+04  0.46999998093E+01 0. -1.
</event>
<event>
 5   0  0.6661000E-08  0.3791413E+04  0.7818609E-02  0.8048000E-01
       -1   -1    0    0    0  501  0.00000000000E+00  0.00000000000E+00  0.13152865282E+04  0.13152865282E+04  0.50400001928E-02 0. -1.
        1   -1    0    0  501    0  0.00000000000E+00  0.00000000000E+00 -0.27322583433E+04  0.27322583433E+04  0.50400001928E-02 0.  1.
    10030    2    1    2    0    0  0.00000000000E+00  0.00000000000E+00 -0.14169718151E+04  0.40475448715E+04  0.37914127132E+04 0.  0.
        1    1    3    3  502    0 -0.14943276440E+04 -0.40449886682E+03  0.45953347031E+03  0.16148701035E+04  0.50400001928E-02 0. -1.
       -1    1    3    3    0  502  0.14943276440E+04  0.40449886682E+03 -0.18765052854E+04  0.24326747680E+04  0.50400001928E-02 0.  1.
</event>
<event>
 5   0  0.2081337E-07  0.3704304E+04  0.7818609E-02  0.8067009E-01
       -2   -1    0    0    0  501  0.00000000000E+00  0.00000000000E+00  0.16693837550E+04  0.16693837550E+04  0.25500000920E-02 0.  1.
        2   -1    0    0  501    0  0.00000000000E+00  0.00000000000E+00 -0.20549302544E+04  0.20549302544E+04  0.25500000920E-02 0. -1.
    10030    2    1    2    0    0  0.00000000000E+00  0.00000000000E+00 -0.38554649939E+03  0.37243140094E+04  0.37043040827E+04 0.  0.
        1    1    3    3  502    0 -0.26174138739E+03  0.49815675214E+03 -0.19669010922E+04  0.20458173452E+04  0.50400001928E-02 0. -1.
       -1    1    3    3    0  502  0.26174138739E+03 -0.49815675214E+03  0.15813545928E+04  0.16784966642E+04  0.50400001928E-02 0.  1.
</event>
<event>
 5   0  0.6661000E-08  0.3787484E+04  0.7818609E-02  0.8048846E-01
        1   -1    0    0  501    0  0.00000000000E+00  0.00000000000E+00  0.28124698325E+04  0.28124698325E+04  0.50400001928E-02 0. -1.
       -1   -1    0    0    0  501  0.00000000000E+00  0.00000000000E+00 -0.12751276216E+04  0.12751276217E+04  0.50400001928E-02 0.  1.
    10030    2    1    2    0    0  0.00000000000E+00  0.00000000000E+00  0.15373422109E+04  0.40875974542E+04  0.37874835807E+04 0.  0.
        3    1    3    3  502    0 -0.24382522318E+03  0.21993583737E+02 -0.12579774196E+04  0.12815777993E+04  0.10100000352E+00 0.  1.
       -3    1    3    3    0  502  0.24382522318E+03 -0.21993583737E+02  0.27953196305E+04  0.28060196549E+04  0.10100000352E+00 0. -1.
</event>
<event>
 5   0  0.6661000E-08  0.3693173E+04  0.7818609E-02  0.8069476E-01
        1   -1    0    0  501    0  0.00000000000E+00  0.00000000000E+00  0.22688677253E+04  0.22688677253E+04  0.50400001928E-02 0. -1.
       -1   -1    0    0    0  501  0.00000000000E+00  0.00000000000E+00 -0.15029003696E+04  0.15029003696E+04  0.50400001928E-02 0.  1.
    10030    2    1    2    0    0  0.00000000000E+00  0.00000000000E+00  0.76596735569E+03  0.37717680950E+04  0.36931732389E+04 0.  0.
        2    1    3    3  502    0  0.82776273244E+03 -0.12666924008E+03  0.20638045013E+04  0.22272236657E+04  0.25500000920E-02 0. -1.
       -2    1    3    3    0  502 -0.82776273244E+03  0.12666924008E+03 -0.12978371456E+04  0.15445444293E+04  0.25500000920E-02 0.  1.
</event>
<event>
 5   0  0.6661000E-08  0.3789635E+04  0.7818609E-02  0.8048383E-01
        1   -1    0    0  501    0  0.00000000000E+00  0.00000000000E+00  0.24023638461E+04  0.24023638461E+04  0.50400001928E-02 0. -1.
       -1   -1    0    0    0  501  0.00000000000E+00  0.00000000000E+00 -0.14945000906E+04  0.14945000906E+04  0.50400001928E-02 0.  1.
    10030    2    1    2    0    0  0.00000000000E+00  0.00000000000E+00  0.90786375555E+03  0.38968639367E+04  0.37896348034E+04 0.  0.
        4    1    3    3  502    0  0.18547295485E+04  0.14973921192E+03  0.82166480030E+03  0.20341037797E+04  0.12699999809E+01 0. -1.
       -4    1    3    3    0  502 -0.18547295485E+04 -0.14973921192E+03  0.86198955257E+02  0.18627601570E+04  0.12699999809E+01 0.  1.
</event>
<event>
 5   0  0.2135314E-07  0.3752181E+04  0.7818609E-02  0.8056495E-01
       -2   -1    0    0    0  501  0.00000000000E+00  0.00000000000E+00  0.30656783631E+04  0.30656783631E+04  0.25500000920E-02 0.  1.
        2   -1    0    0  501    0  0.00000000000E+00  0.00000000000E+00 -0.11481032122E+04  0.11481032122E+04  0.25500000920E-02 0. -1.
    10030    2    1    2    0    0  0.00000000000E+00  0.00000000000E+00  0.19175751510E+04  0.42137815753E+04  0.37521807932E+04 0.  0.
        4    1    3    3  502    0 -0.15091872227E+03  0.41610646423E+02  0.30583298861E+04  0.30623342750E+04  0.12699999809E+01 0.  1.
       -4    1    3    3    0  502  0.15091872227E+03 -0.41610646423E+02 -0.11407547352E+04  0.11514473003E+04  0.12699999809E+01 0. -1.
</event>
<event>
 5   0  0.6725199E-08  0.3795017E+04  0.7818609E-02  0.8047225E-01
       -1   -1    0    0    0  501  0.00000000000E+00  0.00000000000E+00  0.17916093693E+04  0.17916093693E+04  0.50400001928E-02 0. -1.
        1   -1    0    0  501    0  0.00000000000E+00  0.00000000000E+00 -0.20096674135E+04  0.20096674135E+04  0.50400001928E-02 0.  1.
    10030    2    1    2    0    0  0.00000000000E+00  0.00000000000E+00 -0.21805804421E+03  0.38012767828E+04  0.37950172423E+04 0.  0.
        5    1    3    3  502    0  0.10442150764E+04  0.11338424951E+04 -0.12174404051E+04  0.19642217694E+04  0.46999998093E+01 0.  1.
       -5    1    3    3    0  502 -0.10442150764E+04 -0.11338424951E+04  0.99938236087E+03  0.18370550135E+04  0.46999998093E+01 0. -1.
</event>
<event>
 5   0  0.6661000E-08  0.3795205E+04  0.7818609E-02  0.8047185E-01
        1   -1    0    0  501    0  0.00000000000E+00  0.00000000000E+00  0.22676624870E+04  0.22676624870E+04  0.50400001928E-02 0. -1.
       -1   -1    0    0    0  501  0.00000000000E+00  0.00000000000E+00 -0.15879329107E+04  0.15879329107E+04  0.50400001928E-02 0.  1.
    10030    2    1    2    0    0  0.00000000000E+00  0.00000000000E+00  0.67972957632E+03  0.38555953977E+04  0.37952053402E+04 0.  0.
        3    1    3    3  502    0  0.68884836743E+03  0.12238730977E+04  0.16363050696E+04  0.21563561217E+04  0.10100000352E+00 0. -1.
       -3    1    3    3    0  502 -0.68884836743E+03 -0.12238730977E+04 -0.95657549327E+03  0.16992392760E+04  0.10100000352E+00 0.  1.
</event>
<event>
 5   0  0.6725199E-08  0.3808437E+04  0.7818609E-02  0.8044347E-01
        1   -1    0    0  501    0  0.00000000000E+00  0.00000000000E+00  0.28506540966E+04  0.28506540966E+04  0.50400001928E-02 0. -1.
       -1   -1    0    0    0  501  0.00000000000E+00  0.00000000000E+00 -0.12720057529E+04  0.12720057529E+04  0.50400001928E-02 0.  1.
    10030    2    1    2    0    0  0.00000000000E+00  0.00000000000E+00  0.15786483437E+04  0.41226598495E+04  0.38084371653E+04 0.  0.
        5    1    3    3  502    0 -0.85170836502E+03  0.63035308169E+03  0.25020384508E+04  0.27171622414E+04  0.46999998093E+01 0. -1.
       -5    1    3    3    0  502  0.85170836502E+03 -0.63035308169E+03 -0.92339010711E+03  0.14054976082E+04  0.46999998093E+01 0.  1.
</event>
<event>
 5   0  0.1370688E-07  0.3791874E+04  0.7818609E-02  0.8047901E-01
        2   -1    0    0  501    0  0.00000000000E+00  0.00000000000E+00  0.21041184905E+04  0.21041184905E+04  0.25500000920E-02 0. -1.
       -2   -1    0    0    0  501  0.00000000000E+00  0.00000000000E+00 -0.17083532233E+04  0.17083532233E+04  0.25500000920E-02 0.  1.
    10030    2    1    2    0    0  0.00000000000E+00  0.00000000000E+00  0.39576526716E+03  0.38124717138E+04  0.37918742624E+04 0.  0.
        5    1    3    3  502    0 -0.13252241725E+04 -0.75699384279E+03 -0.93308166380E+03  0.17888326547E+04  0.46999998093E+01 0.  1.
       -5    1    3    3    0  502  0.13252241725E+04  0.75699384279E+03  0.13288469310E+04  0.20236390590E+04  0.46999998093E+01 0. -1.
</event>
<event>
 5   0  0.2081337E-07  0.3792224E+04  0.7818609E-02  0.8047826E-01
       -2   -1    0    0    0  501  0.00000000000E+00  0.00000000000E+00  0.18405202259E+04  0.18405202259E+04  0.25500000920E-02 0.  1.
        2   -1    0    0  501    0  0.00000000000E+00  0.00000000000E+00 -0.19533828273E+04  0.19533828273E+04  0.25500000920E-02 0. -1.
    10030    2    1    2    0    0  0.00000000000E+00  0.00000000000E+00 -0.11286260138E+03  0.37939030532E+04  0.37922239399E+04 0.  0.
        1    1    3    3  502    0  0.71342138053E+03  0.16870909751E+04 -0.54654062911E+03  0.19115315022E+04  0.50400001928E-02 0.  1.
       -1    1    3    3    0  502 -0.71342138053E+03 -0.16870909751E+04  0.43367802773E+03  0.18823715511E+04  0.50400001928E-02 0. -1.
</event>
<event>
 5   0  0.1370688E-07  0.3841783E+04  0.7818609E-02  0.8037247E-01
       -2   -1    0    0    0  501  0.00000000000E+00  0.00000000000E+00  0.20446248938E+04  0.20446248938E+04  0.25500000920E-02 0. -1.
        2   -1    0    0  501    0  0.00000000000E+00  0.00000000000E+00 -0.18046460426E+04  0.18046460426E+04  0.25500000920E-02 0.  1.
    10030    2    1    2    0    0  0.00000000000E+00  0.00000000000E+00  0.23997885122E+03  0.38492709365E+04  0.38417830357E+04 0.  0.
        5    1    3    3  502    0 -0.14245494605E+04  0.92166664710E+03  0.10222953591E+04  0.19808888068E+04  0.46999998093E+01 0. -1.
       -5    1    3    3    0  502  0.14245494605E+04 -0.92166664710E+03 -0.78231650785E+03  0.18683821296E+04  0.46999998093E+01 0.  1.
</event>
<event>
 5   0  0.1370688E-07  0.3800120E+04  0.7818609E-02  0.8046129E-01
       -2   -1    0    0    0  501  0.00000000000E+00  0.00000000000E+00  0.29085248429E+04  0.29085248429E+04  0.25500000920E-02 0. -1.
        2   -1    0    0  501    0  0.00000000000E+00  0.00000000000E+00 -0.12412574859E+04  0.12412574859E+04  0.25500000920E-02 0.  1.
    10030    2    1    2    0    0  0.00000000000E+00  0.00000000000E+00  0.16672673570E+04  0.41497823288E+04  0.38001201214E+04 0.  0.
        5    1    3    3  502    0  0.17861605647E+04  0.32555938094E+02  0.12695946643E+03  0.17909690807E+04  0.46999998093E+01 0.  1.
       -5    1    3    3    0  502 -0.17861605647E+04 -0.32555938094E+02  0.15403078905E+04  0.23588132481E+04  0.46999998093E+01 0. -1.
</event>
<event>
 5   0  0.2081337E-07  0.3806645E+04  0.7818609E-02  0.8044730E-01
       -2   -1    0    0    0  501  0.00000000000E+00  0.00000000000E+00  0.30982725347E+04  0.30982725347E+04  0.25500000920E-02 0.  1.
        2   -1    0    0  501    0  0.00000000000E+00  0.00000000000E+00 -0.11692442614E+04  0.11692442614E+04  0.25500000920E-02 0. -1.
    10030    2    1    2    0    0  0.00000000000E+00  0.00000000000E+00  0.19290282733E+04  0.42675167960E+04  0.38066454425E+04 0.  0.
        1    1    3    3  502    0 -0.18118261363E+03  0.43639939355E+03 -0.11024443890E+04  0.11994395362E+04  0.50400001928E-02 0. -1.
       -1    1    3    3    0  502  0.18118261363E+03 -0.43639939355E+03  0.30314726623E+04  0.30680772598E+04  0.50400001928E-02 0.  1.
</event>
<event>
 5   0  0.6725199E-08  0.3808329E+04  0.7818609E-02  0.8044370E-01
        1   -1    0    0  501    0  0.00000000000E+00  0.00000000000E+00  0.19574392380E+04  0.19574392380E+04  0.50400001928E-02 0. -1.
       -1   -1    0    0    0  501  0.00000000000E+00  0.00000000000E+00 -0.18523398331E+04  0.18523398332E+04  0.50400001928E-02 0.  1.
    10030    2    1    2    0    0  0.00000000000E+00  0.00000000000E+00  0.10509940480E+03  0.38097790711E+04  0.38083291199E+04 0.  0.
        5    1    3    3  502    0  0.10258863253E+04  0.14002378340E+04  0.83560684173E+03  0.19264915334E+04  0.46999998093E+01 0. -1.
       -5    1    3    3    0  502 -0.10258863253E+04 -0.14002378340E+04 -0.73050743693E+03  0.18832875377E+04  0.46999998093E+01 0.  1.
</event>
<event>
 5   0  0.2081337E-07  0.3805903E+04  0.7818609E-02  0.8044889E-01
       -2   -1    0    0    0  501  0.00000000000E+00  0.00000000000E+00  0.14643674304E+04  0.14643674304E+04  0.25500000920E-02 0. -1.
        2   -1    0    0  501    0  0.00000000000E+00  0.00000000000E+00 -0.24728930180E+04  0.24728930180E+04  0.25500000920E-02 0.  1.
    10030    2    1    2    0    0  0.00000000000E+00  0.00000000000E+00 -0.10085255876E+04  0.39372604484E+04  0.38059027809E+04 0.  0.
        1    1    3    3  502    0  0.46911264166E+02  0.10728631733E+04 -0.21294671222E+04  0.23849247954E+04  0.50400001928E-02 0.  1.
       -1    1    3    3    0  502 -0.46911264166E+02 -0.10728631733E+04  0.11209415347E+04  0.15523356529E+04  0.50400001928E-02 0. -1.
</event>
<event>
 5   0  0.2203998E-07  0.3812760E+04  0.7818609E-02  0.8043422E-01
       -2   -1    0    0    0  501  0.00000000000E+00  0.00000000000E+00  0.20030803340E+04  0.20030803340E+04  0.25500000920E-02 0.  1.
        2   -1    0    0  501    0  0.00000000000E+00  0.00000000000E+00 -0.18143476213E+04  0.18143476213E+04  0.25500000920E-02 0. -1.
    10030    2    1    2    0    0  0.00000000000E+00  0.00000000000E+00  0.18873271271E+03  0.38174279553E+04  0.38127596511E+04 0.  0.
        3    1    3    3  502    0  0.35039040727E+03 -0.53619839573E+03 -0.17033826738E+04  0.18198337014E+04  0.10100000352E+00 0. -1.
       -3    1    3    3    0  502 -0.35039040727E+03  0.53619839573E+03  0.18921153865E+04  0.19975942539E+04  0.10100000352E+00 0.  1.
</event>
<event>
 5   0  0.6661000E-08  0.3786666E+04  0.7818609E-02  0.8049022E-01
       -1   -1    0    0    0  501  0.00000000000E+00  0.00000000000E+00  0.21820340070E+04  0.21820340070E+04  0.50400001928E-02 0. -1.
        1   -1    0    0  501    0  0.00000000000E+00  0.00000000000E+00 -0.16428292535E+04  0.16428292535E+04  0.50400001928E-02 0.  1.
    10030    2    1    2    0    0  0.00000000000E+00  0.00000000000E+00  0.53920475355E+03  0.38248632605E+04  0.37866657095E+04 0.  0.
        4    1    3    3  502    0  0.15991376758E+03 -0.26716682266E+03  0.21559948998E+04  0.21783631803E+04  0.12699999809E+01 0. -1.
       -4    1    3    3    0  502 -0.15991376758E+03  0.26716682266E+03 -0.16167901463E+04  0.16465000802E+04  0.12699999809E+01 0.  1.
</event>
<event>
 5   0  0.6661000E-08  0.3995351E+04  0.7818609E-02  0.8005485E-01
       -1   -1    0    0    0  501  0.00000000000E+00  0.00000000000E+00  0.23096484445E+04  0.23096484445E+04  0.50400001928E-02 0. -1.
        1   -1    0    0  501    0  0.00000000000E+00  0.00000000000E+00 -0.17278421664E+04  0.17278421664E+04  0.50400001928E-02 0.  1.
    10030    2    1    2    0    0  0.00000000000E+00  0.00000000000E+00  0.58180627808E+03  0.40374906110E+04  0.39953512847E+04 0.  0.
        2    1    3    3  502    0 -0.40227016180E+03 -0.14370019304E+04 -0.10512282398E+04  0.18253428837E+04  0.25500000920E-02 0.  1.
       -2    1    3    3    0  502  0.40227016180E+03  0.14370019304E+04  0.16330345178E+04  0.22121477273E+04  0.25500000920E-02 0. -1.
</event>
<event>
 5   0  0.6661000E-08  0.3770274E+04  0.7818609E-02  0.8052564E-01
       -1   -1    0    0    0  501  0.00000000000E+00  0.00000000000E+00  0.27715353890E+04  0.27715353890E+04  0.50400001928E-02 0.  1.
        1   -1    0    0  501    0  0.00000000000E+00  0.00000000000E+00 -0.12822281742E+04  0.12822281742E+04  0.50400001928E-02 0. -1.
    10030    2    1    2    0    0  0.00000000000E+00  0.00000000000E+00  0.14893072148E+04  0.40537635631E+04  0.37702736036E+04 0.  0.
        1    1    3    3  502    0  0.63455910330E+03 -0.16982779174E+04  0.18915585620E+03  0.18227981453E+04  0.50400001928E-02 0. -1.
       -1    1    3    3    0  502 -0.63455910330E+03  0.16982779174E+04  0.13001513586E+04  0.22309654179E+04  0.50400001928E-02 0.  1.
</event>
<event>
 5   0  0.1370688E-07  0.3790952E+04  0.7818609E-02  0.8048099E-01
       -2   -1    0    0    0  501  0.00000000000E+00  0.00000000000E+00  0.20662207484E+04  0.20662207484E+04  0.25500000920E-02 0.  1.
        2   -1    0    0  501    0  0.00000000000E+00  0.00000000000E+00 -0.17388411107E+04  0.17388411107E+04  0.25500000920E-02 0. -1.
    10030    2    1    2    0    0  0.00000000000E+00  0.00000000000E+00  0.32737963768E+03  0.38050618591E+04  0.37909521659E+04 0.  0.
        5    1    3    3  502    0 -0.77895954828E+03  0.16839737937E+04  0.55276871481E+03  0.19360064715E+04  0.46999998093E+01 0.  1.
       -5    1    3    3    0  502  0.77895954828E+03 -0.16839737937E+04 -0.22538907713E+03  0.18690553875E+04  0.46999998093E+01 0. -1.
</event>
<event>
 5   0  0.6661000E-08  0.4138973E+04  0.7818609E-02  0.7977083E-01
        1   -1    0    0  501    0  0.00000000000E+00  0.00000000000E+00  0.21991618846E+04  0.21991618846E+04  0.50400001928E-02 0. -1.
       -1   -1    0    0    0  501  0.00000000000E+00  0.00000000000E+00 -0.19474578752E+04  0.19474578752E+04  0.50400001928E-02 0.  1.
    10030    2    1    2    0    0  0.00000000000E+00  0.00000000000E+00  0.25170400940E+03  0.41466197599E+04  0.41389733660E+04 0.  0.
        1    1    3    3  502    0  0.16233677593E+03 -0.56133507252E+03  0.21147966497E+04  0.21940408296E+04  0.50400001928E-02 0. -1.
       -1    1    3    3    0  502 -0.16233677593E+03  0.56133507252E+03 -0.18630926403E+04  0.19525789302E+04  0.50400001928E-02 0.  1.
</event>
<event>
 5   0  0.6661000E-08  0.3534250E+04  0.7818609E-02  0.8105721E-01
       -3   -1    0    0    0  501  0.00000000000E+00  0.00000000000E+00  0.11572248631E+04  0.11572248675E+04  0.10100000352E+00 0. -1.
        3   -1    0    0  501    0  0.00000000000E+00  0.00000000000E+00 -0.26984646657E+04  0.26984646676E+04  0.10100000352E+00 0.  1.
    10030    2    1    2    0    0  0.00000000000E+00  0.00000000000E+00 -0.15412398026E+04  0.38556895351E+04  0.35342498018E+04 0.  0.
        4    1    3    3  502    0  0.12298726579E+04  0.12619154127E+04 -0.62543115233E+03  0.18698082797E+04  0.12699999809E+01 0. -1.
       -4    1    3    3    0  502 -0.12298726579E+04 -0.12619154127E+04 -0.91580865026E+03  0.19858812554E+04  0.12699999809E+01 0.  1.
</event>
<event>
 5   0  0.1370688E-07  0.3752727E+04  0.7818609E-02  0.8056376E-01
       -2   -1    0    0    0  501  0.00000000000E+00  0.00000000000E+00  0.17559493531E+04  0.17559493531E+04  0.25500000920E-02 0.  1.
        2   -1    0    0  501    0  0.00000000000E+00  0.00000000000E+00 -0.20050347660E+04  0.20050347660E+04  0.25500000920E-02 0. -1.
    10030    2    1    2    0    0  0.00000000000E+00  0.00000000000E+00 -0.24908541289E+03  0.37609841191E+04  0.37527267421E+04 0.  0.
        5    1    3    3  502    0  0.72490198012E+03  0.12702240373E+04  0.10535289795E+04  0.18024698018E+04  0.46999998093E+01 0.  1.
       -5    1    3    3    0  502 -0.72490198012E+03 -0.12702240373E+04 -0.13026143924E+04  0.19585143173E+04  0.46999998093E+01 0. -1.
</event>
<event>
 5   0  0.2081337E-07  0.3788927E+04  0.7818609E-02  0.8048535E-01
       -2   -1    0    0    0  501  0.00000000000E+00  0.00000000000E+00  0.13221867214E+04  0.13221867214E+04  0.25500000920E-02 0. -1.
        2   -1    0    0  501    0  0.00000000000E+00  0.00000000000E+00 -0.27144371524E+04  0.27144371524E+04  0.25500000920E-02 0.  1.
    10030    2    1    2    0    0  0.00000000000E+00  0.00000000000E+00 -0.13922504311E+04  0.40366238738E+04  0.37889274255E+04 0.  0.
        1    1    3    3  502    0 -0.32096956415E+03  0.18663319723E+04 -0.63999036202E+03  0.19989507637E+04  0.50400001928E-02 0.  1.
       -1    1    3    3    0  502  0.32096956415E+03 -0.18663319723E+04 -0.75226006905E+03  0.20376731101E+04  0.50400001928E-02 0. -1.
</event>
<event>
 5   0  0.2135314E-07  0.3872742E+04  0.7818609E-02  0.8030722E-01
       -2   -1    0    0    0  501  0.00000000000E+00  0.00000000000E+00  0.24238664311E+04  0.24238664311E+04  0.25500000920E-02 0. -1.
        2   -1    0    0  501    0  0.00000000000E+00  0.00000000000E+00 -0.15469222654E+04  0.15469222654E+04  0.25500000920E-02 0.  1.
    10030    2    1    2    0    0  0.00000000000E+00  0.00000000000E+00  0.87694416563E+03  0.39707886965E+04  0.38727421555E+04 0.  0.
        4    1    3    3  502    0 -0.72221074229E+03  0.16948773780E+04  0.10496622598E+04  0.21203750034E+04  0.12699999809E+01 0. -1.
       -4    1    3    3    0  502  0.72221074229E+03 -0.16948773780E+04 -0.17271809417E+03  0.18504136931E+04  0.12699999809E+01 0.  1.
</event>
<event>
 5   0  0.1370688E-07  0.3717974E+04  0.7818609E-02  0.8063990E-01
        2   -1    0    0  501    0  0.00000000000E+00  0.00000000000E+00  0.26728396126E+04  0.26728396126E+04  0.25500000920E-02 0.  1.
       -2   -1    0    0    0  501  0.00000000000E+00  0.00000000000E+00 -0.12929439354E+04  0.12929439355E+04  0.25500000920E-02 0. -1.
    10030    2    1    2    0    0  0.00000000000E+00  0.00000000000E+00  0.13798956771E+04  0.39657835480E+04  0.37179735166E+04 0.  0.
        5    1    3    3  502    0  0.17682566426E+03 -0.44341239995E+03  0.26063410392E+04  0.26497014123E+04  0.46999998093E+01 0.  1.
       -5    1    3    3    0  502 -0.17682566426E+03  0.44341239995E+03 -0.12264453620E+04  0.13160821357E+04  0.46999998093E+01 0. -1.
</event>
<event>
 5   0  0.6661000E-08  0.3795889E+04  0.7818609E-02  0.8047038E-01
        1   -1    0    0  501    0  0.00000000000E+00  0.00000000000E+00  0.22853517286E+04  0.22853517286E+04  0.50400001928E-02 0.  1.
       -1   -1    0    0    0  501  0.00000000000E+00  0.00000000000E+00 -0.15762095473E+04  0.15762095473E+04  0.50400001928E-02 0. -1.
    10030    2    1    2    0    0  0.00000000000E+00  0.00000000000E+00  0.70914218129E+03  0.38615612759E+04  0.37958889412E+04 0.  0.
        4    1    3    3  502    0  0.14595175652E+04 -0.49779664197E+02 -0.87864018942E+03  0.17043120998E+04  0.12699999809E+01 0. -1.
       -4    1    3    3    0  502 -0.14595175652E+04  0.49779664197E+02  0.15877823707E+04  0.21572491761E+04  0.12699999809E+01 0.  1.
</event>
<event>
 5   0  0.2081337E-07  0.3765090E+04  0.7818609E-02  0.8053688E-01
        2   -1    0    0  501    0  0.00000000000E+00  0.00000000000E+00  0.27192513755E+04  0.27192513755E+04  0.25500000920E-02 0. -1.
       -2   -1    0    0    0  501  0.00000000000E+00  0.00000000000E+00 -0.13032910177E+04  0.13032910177E+04  0.25500000920E-02 0.  1.
    10030    2    1    2    0    0  0.00000000000E+00  0.00000000000E+00  0.14159603578E+04  0.40225423932E+04  0.37650901145E+04 0.  0.
        1    1    3    3  502    0 -0.17917071078E+04 -0.33040491294E+03  0.12142994428E+04  0.21894987790E+04  0.50400001928E-02 0.  1.
       -1    1    3    3    0  502  0.17917071078E+04  0.33040491294E+03  0.20166091508E+03  0.18330436142E+04  0.50400001928E-02 0. -1.
</event>
<event>
 5   0  0.6661000E-08  0.3798109E+04  0.7818609E-02  0.8046561E-01
       -1   -1    0    0    0  501  0.00000000000E+00  0.00000000000E+00  0.23869231244E+04  0.23869231244E+04  0.50400001928E-02 0.  1.
        1   -1    0    0  501    0  0.00000000000E+00  0.00000000000E+00 -0.15109025542E+04  0.15109025542E+04  0.50400001928E-02 0. -1.
    10030    2    1    2    0    0  0.00000000000E+00  0.00000000000E+00  0.87602057017E+03  0.38978256786E+04  0.37981091324E+04 0.  0.
        4    1    3    3  502    0 -0.13138445591E+04 -0.82755183987E+03  0.15600479392E+04  0.22010862679E+04  0.12699999809E+01 0.  1.
       -4    1    3    3    0  502  0.13138445591E+04  0.82755183987E+03 -0.68402736907E+03  0.16967394107E+04  0.12699999809E+01 0. -1.
</event>
<event>
 5   0  0.6661000E-08  0.3933758E+04  0.7818609E-02  0.8018045E-01
       -1   -1    0    0    0  501  0.00000000000E+00  0.00000000000E+00  0.26994554760E+04  0.26994554760E+04  0.50400001928E-02 0.  1.
        1   -1    0    0  501    0  0.00000000000E+00  0.00000000000E+00 -0.14331086232E+04  0.14331086233E+04  0.50400001928E-02 0. -1.
    10030    2    1    2    0    0  0.00000000000E+00  0.00000000000E+00  0.12663468527E+04  0.41325640992E+04  0.39337579594E+04 0.  0.
        2    1    3    3  502    0  0.12404615034E+04 -0.18639584743E+03  0.22247044682E+04  0.25539769232E+04  0.25500000920E-02 0.  1.
       -2    1    3    3    0  502 -0.12404615034E+04  0.18639584743E+03 -0.95835761548E+03  0.15785871761E+04  0.25500000920E-02 0. -1.
</event>
<event>
 5   0  0.1370688E-07  0.3800293E+04  0.7818609E-02  0.8046092E-01
        2   -1    0    0  501    0  0.00000000000E+00  0.00000000000E+00  0.22545593491E+04  0.22545593491E+04  0.25500000920E-02 0. -1.
       -2   -1    0    0    0  501  0.00000000000E+00  0.00000000000E+00 -0.16014467740E+04  0.16014467740E+04  0.25500000920E-02 0.  1.
    10030    2    1    2    0    0  0.00000000000E+00  0.00000000000E+00  0.65311257505E+03  0.38560061231E+04  0.38002930395E+04 0.  0.
        5    1    3    3  502    0 -0.51076434547E+03 -0.58799039449E+02 -0.15295224342E+04  0.16136289878E+04  0.46999998093E+01 0.  1.
       -5    1    3    3    0  502  0.51076434547E+03  0.58799039449E+02  0.21826350092E+04  0.22423771353E+04  0.46999998093E+01 0. -1.
</event>
<event>
 5   0  0.6661000E-08  0.3796760E+04  0.7818609E-02  0.8046851E-01
       -1   -1    0    0    0  501  0.00000000000E+00  0.00000000000E+00  0.16855486148E+04  0.16855486148E+04  0.50400001928E-02 0. -1.
        1   -1    0    0  501    0  0.00000000000E+00  0.00000000000E+00 -0.21380851659E+04  0.21380851659E+04  0.50400001928E-02 0.  1.
    10030    2    1    2    0    0  0.00000000000E+00  0.00000000000E+00 -0.45253655109E+03  0.38236337807E+04  0.37967599291E+04 0.  0.
        4    1    3    3  502    0  0.16817997647E+04  0.71349510968E+03 -0.74598220367E+03  0.19733263241E+04  0.12699999809E+01 0.  1.
       -4    1    3    3    0  502 -0.16817997647E+04 -0.71349510968E+03  0.29344565258E+03  0.18503074567E+04  0.12699999809E+01 0. -1.
</event>
<event>
 5   0  0.6661000E-08  0.3798611E+04  0.7818609E-02  0.8046453E-01
        1   -1    0    0  501    0  0.00000000000E+00  0.00000000000E+00  0.26850474824E+04  0.26850474824E+04  0.50400001928E-02 0.  1.
       -1   -1    0    0    0  501  0.00000000000E+00  0.00000000000E+00 -0.13435002568E+04  0.13435002568E+04  0.50400001928E-02 0. -1.
    10030    2    1    2    0    0  0.00000000000E+00  0.00000000000E+00  0.13415472256E+04  0.40285477392E+04  0.37986113159E+04 0.  0.
        4    1    3    3  502    0  0.21520283858E+03 -0.13756958013E+04  0.20406707427E+04  0.24704634975E+04  0.12699999809E+01 0.  1.
       -4    1    3    3    0  502 -0.21520283858E+03  0.13756958013E+04 -0.69912351714E+03  0.15580842418E+04  0.12699999809E+01 0. -1.
</event>
<event>
 5   0  0.2135314E-07  0.3849976E+04  0.7818609E-02  0.8035515E-01
        2   -1    0    0  501    0  0.00000000000E+00  0.00000000000E+00  0.27135216486E+04  0.27135216486E+04  0.25500000920E-02 0. -1.
       -2   -1    0    0    0  501  0.00000000000E+00  0.00000000000E+00 -0.13655973347E+04  0.13655973348E+04  0.25500000920E-02 0.  1.
    10030    2    1    2    0    0  0.00000000000E+00  0.00000000000E+00  0.13479243139E+04  0.40791189834E+04  0.38499755486E+04 0.  0.
        4    1    3    3  502    0  0.17911780657E+04  0.64581844498E+03  0.37395572150E+03  0.19404238768E+04  0.12699999809E+01 0.  1.
       -4    1    3    3    0  502 -0.17911780657E+04 -0.64581844498E+03  0.97396859238E+03  0.21386951066E+04  0.12699999809E+01 0. -1.
</event>
<event>
 5   0  0.2135314E-07  0.3794290E+04  0.7818609E-02  0.8047381E-01
        2   -1    0    0  501    0  0.00000000000E+00  0.00000000000E+00  0.26031412896E+04  0.26031412896E+04  0.25500000920E-02 0. -1.
       -2   -1    0    0    0  501  0.00000000000E+00  0.00000000000E+00 -0.13826211739E+04  0.13826211739E+04  0.25500000920E-02 0.  1.
    10030    2    1    2    0    0  0.00000000000E+00  0.00000000000E+00  0.12205201157E+04  0.39857624636E+04  0.37942895334E+04 0.  0.
        4    1    3    3  502    0 -0.89510381766E+03 -0.10708405597E+04  0.19601142956E+04  0.24062335741E+04  0.12699999809E+01 0. -1.
       -4    1    3    3    0  502  0.89510381766E+03  0.10708405597E+04 -0.73959417991E+03  0.15795288894E+04  0.12699999809E+01 0.  1.
</event>
<event>
 5   0  0.6661000E-08  0.3798597E+04  0.7818609E-02  0.8046456E-01
       -1   -1    0    0    0  501  0.00000000000E+00  0.00000000000E+00  0.17210109606E+04  0.17210109606E+04  0.50400001928E-02 0. -1.
        1   -1    0    0  501    0  0.00000000000E+00  0.00000000000E+00 -0.20960560972E+04  0.20960560972E+04  0.50400001928E-02 0.  1.
    10030    2    1    2    0    0  0.00000000000E+00  0.00000000000E+00 -0.37504513653E+03  0.38170670578E+04  0.37985973818E+04 0.  0.
        3    1    3    3  502    0 -0.18977830043E+04  0.57564884744E+02 -0.13787118803E+03  0.19036550428E+04  0.10100000352E+00 0.  1.
       -3    1    3    3    0  502  0.18977830043E+04 -0.57564884744E+02 -0.23717394850E+03  0.19134120150E+04  0.10100000352E+00 0. -1.
</event>
<event>
 5   0  0.2205204E-07  0.3791134E+04  0.7818609E-02  0.8048060E-01
       -2   -1    0    0    0  501  0.00000000000E+00  0.00000000000E+00  0.25562735261E+04  0.25562735261E+04  0.25500000920E-02 0. -1.
        2   -1    0    0  501    0  0.00000000000E+00  0.00000000000E+00 -0.14056297204E+04  0.14056297204E+04  0.25500000920E-02 0.  1.
    10030    2    1    2    0    0  0.00000000000E+00  0.00000000000E+00  0.11506438057E+04  0.39619032465E+04  0.37911338894E+04 0.  0.
        2    1    3    3  502    0  0.15833648623E+04  0.99439424473E+03  0.24932526314E+03  0.18862733864E+04  0.25500000920E-02 0.  1.
       -2    1    3    3    0  502 -0.15833648623E+04 -0.99439424473E+03  0.90131854256E+03  0.20756298602E+04  0.25500000920E-02 0. -1.
</event>
<event>
 5   0  0.6725199E-08  0.3807648E+04  0.7818609E-02  0.8044516E-01
        1   -1    0    0  501    0  0.00000000000E+00  0.00000000000E+00  0.17138050848E+04  0.17138050848E+04  0.50400001928E-02 0. -1.
       -1   -1    0    0    0  501  0.00000000000E+00  0.00000000000E+00 -0.21149111211E+04  0.21149111211E+04  0.50400001928E-02 0.  1.
    10030    2    1    2    0    0  0.00000000000E+00  0.00000000000E+00 -0.40110603635E+03  0.38287162059E+04  0.38076477953E+04 0.  0.
        5    1    3    3  502    0 -0.80931717508E+03 -0.16462874839E+04  0.31144664022E+03  0.18607197180E+04  0.46999998093E+01 0. -1.
       -5    1    3    3    0  502  0.80931717508E+03  0.16462874839E+04 -0.71255267657E+03  0.19679964879E+04  0.46999998093E+01 0.  1.
</event>
<event>
 5   0  0.2081337E-07  0.3811922E+04  0.7818609E-02  0.8043601E-01
        2   -1    0    0  501    0  0.00000000000E+00  0.00000000000E+00  0.23195057117E+04  0.23195057117E+04  0.25500000920E-02 0. -1.
       -2   -1    0    0    0  501  0.00000000000E+00  0.00000000000E+00 -0.15661469112E+04  0.15661469112E+04  0.25500000920E-02 0.  1.
    10030    2    1    2    0    0  0.00000000000E+00  0.00000000000E+00  0.75335880053E+03  0.38856526229E+04  0.38119216707E+04 0.  0.
        1    1    3    3  502    0  0.75281306706E+03  0.12667296770E+04  0.16089267321E+04  0.21817371102E+04  0.50400001928E-02 0. -1.
       -1    1    3    3    0  502 -0.75281306706E+03 -0.12667296770E+04 -0.85556793161E+03  0.17039155127E+04  0.50400001928E-02 0.  1.
</event>
<event>
 5   0  0.2135314E-07  0.3783901E+04  0.7818609E-02  0.8049619E-01
       -2   -1    0    0    0  501  0.00000000000E+00  0.00000000000E+00  0.11627796891E+04  0.11627796891E+04  0.25500000920E-02 0.  1.
        2   -1    0    0  501    0  0.00000000000E+00  0.00000000000E+00 -0.30783792381E+04  0.30783792381E+04  0.25500000920E-02 0. -1.
    10030    2    1    2    0    0  0.00000000000E+00  0.00000000000E+00 -0.19155995490E+04  0.42411589272E+04  0.37839010840E+04 0.  0.
        4    1    3    3  502    0  0.13724999948E+04  0.21184437202E+03 -0.23979154938E+04  0.27710349334E+04  0.12699999809E+01 0. -1.
       -4    1    3    3    0  502 -0.13724999948E+04 -0.21184437202E+03  0.48231594484E+03  0.14701239938E+04  0.12699999809E+01 0.  1.
</event>
<event>
 5   0  0.6661000E-08  0.3785830E+04  0.7818609E-02  0.8049202E-01
       -1   -1    0    0    0  501  0.00000000000E+00  0.00000000000E+00  0.18742530409E+04  0.18742530409E+04  0.50400001928E-02 0.  1.
        1   -1    0    0  501    0  0.00000000000E+00  0.00000000000E+00 -0.19117632479E+04  0.19117632479E+04  0.50400001928E-02 0. -1.
    10030    2    1    2    0    0  0.00000000000E+00  0.00000000000E+00 -0.37510206970E+02  0.37860162888E+04  0.37858304668E+04 0.  0.
        3    1    3    3  502    0  0.18497455599E+04 -0.40181424137E+03 -0.80424543432E+01  0.18929020081E+04  0.10100000352E+00 0.  1.
       -3    1    3    3    0  502 -0.18497455599E+04  0.40181424137E+03 -0.29467752627E+02  0.18931142807E+04  0.10100000352E+00 0. -1.
</event>
<event>
 5   0  0.2135314E-07  0.3793124E+04  0.7818609E-02  0.8047632E-01
       -2   -1    0    0    0  501  0.00000000000E+00  0.00000000000E+00  0.19353326991E+04  0.19353326991E+04  0.25500000920E-02 0. -1.
        2   -1    0    0  501    0  0.00000000000E+00  0.00000000000E+00 -0.18585676649E+04  0.18585676649E+04  0.25500000920E-02 0.  1.
    10030    2    1    2    0    0  0.00000000000E+00  0.00000000000E+00  0.76765034203E+02  0.37939003640E+04  0.37931236602E+04 0.  0.
        4    1    3    3  502    0  0.15004389714E+04 -0.10321086977E+04  0.56799985827E+03  0.19076663552E+04  0.12699999809E+01 0. -1.
       -4    1    3    3    0  502 -0.15004389714E+04  0.10321086977E+04 -0.49123482407E+03  0.18862340088E+04  0.12699999809E+01 0.  1.
</event>
<event>
 5   0  0.1370688E-07  0.3794873E+04  0.7818609E-02  0.8047256E-01
       -2   -1    0    0    0  501  0.00000000000E+00  0.00000000000E+00  0.15082528254E+04  0.15082528254E+04  0.25500000920E-02 0. -1.
        2   -1    0    0  501    0  0.00000000000E+00  0.00000000000E+00 -0.23870431230E+04  0.23870431230E+04  0.25500000920E-02 0.  1.
    10030    2    1    2    0    0  0.00000000000E+00  0.00000000000E+00 -0.87879029757E+03  0.38952959484E+04  0.37948726116E+04 0.  0.
        5    1    3    3  502    0 -0.18623491724E+04 -0.35067402761E+03 -0.53637134816E+03  0.19695260919E+04  0.46999998093E+01 0.  1.
       -5    1    3    3    0  502  0.18623491724E+04  0.35067402761E+03 -0.34241894942E+03  0.19257698565E+04  0.46999998093E+01 0. -1.
</event>
<event>
 5   0  0.2081337E-07  0.3802668E+04  0.7818609E-02  0.8045583E-01
       -2   -1    0    0    0  501  0.00000000000E+00  0.00000000000E+00  0.15080778659E+04  0.15080778659E+04  0.25500000920E-02 0. -1.
        2   -1    0    0  501    0  0.00000000000E+00  0.00000000000E+00 -0.23971383168E+04  0.23971383168E+04  0.25500000920E-02 0.  1.
    10030    2    1    2    0    0  0.00000000000E+00  0.00000000000E+00 -0.88906045090E+03  0.39052161827E+04  0.38026681354E+04 0.  0.
        1    1    3    3  502    0  0.14013560562E+04  0.17742714272E+03  0.86250197251E+03  0.16550494977E+04  0.50400001928E-02 0. -1.
       -1    1    3    3    0  502 -0.14013560562E+04 -0.17742714272E+03 -0.17515624234E+04  0.22501666850E+04  0.50400001928E-02 0.  1.
</event>
<event>
 5   0  0.6661000E-08  0.3652318E+04  0.7818609E-02  0.8078612E-01
        1   -1    0    0  501    0  0.00000000000E+00  0.00000000000E+00  0.20069938954E+04  0.20069938954E+04  0.50400001928E-02 0. -1.
       -1   -1    0    0    0  501  0.00000000000E+00  0.00000000000E+00 -0.16616175128E+04  0.16616175129E+04  0.50400001928E-02 0.  1.
    10030    2    1    2    0    0  0.00000000000E+00  0.00000000000E+00  0.34537638252E+03  0.36686114082E+04  0.36523177325E+04 0.  0.
        4    1    3    3  502    0 -0.44282690384E+03 -0.10128081833E+04  0.16327818014E+04  0.19717642117E+04  0.12699999809E+01 0. -1.
       -4    1    3    3    0  502  0.44282690384E+03  0.10128081833E+04 -0.12874054189E+04  0.16968471965E+04  0.12699999809E+01 0.  1.
</event>
<event>
 5   0  0.2081337E-07  0.3792987E+04  0.7818609E-02  0.8047661E-01
       -2   -1    0    0    0  501  0.00000000000E+00  0.00000000000E+00  0.20847066049E+04  0.20847066049E+04  0.25500000920E-02 0. -1.
        2   -1    0    0  501    0  0.00000000000E+00  0.00000000000E+00 -0.17252729056E+04  0.17252729056E+04  0.25500000920E-02 0.  1.
    10030    2    1    2    0    0  0.00000000000E+00  0.00000000000E+00  0.35943369926E+03  0.38099795105E+04  0.37929871192E+04 0.  0.
        1    1    3    3  502    0 -0.11578697603E+04 -0.11677762773E+04  0.11285777710E+04  0.19945053524E+04  0.50400001928E-02 0. -1.
       -1    1    3    3    0  502  0.11578697603E+04  0.11677762773E+04 -0.76914407179E+03  0.18154741581E+04  0.50400001928E-02 0.  1.
</event>
<event>
 5   0  0.6661000E-08  0.3800790E+04  0.7818609E-02  0.8045985E-01
       -1   -1    0    0    0  501  0.00000000000E+00  0.00000000000E+00  0.13095374437E+04  0.13095374437E+04  0.50400001928E-02 0. -1.
        1   -1    0    0  501    0  0.00000000000E+00  0.00000000000E+00 -0.27578443010E+04  0.27578443010E+04  0.50400001928E-02 0.  1.
    10030    2    1    2    0    0  0.00000000000E+00  0.00000000000E+00 -0.14483068573E+04  0.40673817447E+04  0.38007895895E+04 0.  0.
        2    1    3    3  502    0 -0.12180576522E+04 -0.24698654890E+03  0.81433367921E+03  0.14858688168E+04  0.25500000920E-02 0. -1.
       -2    1    3    3    0  502  0.12180576522E+04  0.24698654890E+03 -0.22626405365E+04  0.25815129279E+04  0.25500000920E-02 0.  1.
</event>
<event>
 5   0  0.2203998E-07  0.3758341E+04  0.7818609E-02  0.8055154E-01
       -2   -1    0    0    0  501  0.00000000000E+00  0.00000000000E+00  0.24295789837E+04  0.24295789837E+04  0.25500000920E-02 0. -1.
        2   -1    0    0  501    0  0.00000000000E+00  0.00000000000E+00 -0.14534540263E+04  0.14534540263E+04  0.25500000920E-02 0.  1.
    10030    2    1    2    0    0  0.00000000000E+00  0.00000000000E+00  0.97612495734E+03  0.38830330100E+04  0.37583407808E+04 0.  0.
        3    1    3    3  502    0 -0.15900784625E+04  0.84135175524E+03 -0.73152686798E+02  0.18004370632E+04  0.10100000352E+00 0.  1.
       -3    1    3    3    0  502  0.15900784625E+04 -0.84135175524E+03  0.10492776441E+04  0.20825959468E+04  0.10100000352E+00 0. -1.
</event>
<event>
 5   0  0.6661000E-08  0.3784385E+04  0.7818609E-02  0.8049514E-01
       -1   -1    0    0    0  501  0.00000000000E+00  0.00000000000E+00  0.20107885899E+04  0.20107885899E+04  0.50400001928E-02 0. -1.
        1   -1    0    0  501    0  0.00000000000E+00  0.00000000000E+00 -0.17805911309E+04  0.17805911309E+04  0.50400001928E-02 0.  1.
    10030    2    1    2    0    0  0.00000000000E+00  0.00000000000E+00  0.23019745899E+03  0.37913797208E+04  0.37843849325E+04 0.  0.
        4    1    3    3  502    0 -0.18444892254E+03  0.10281067371E+04  0.16957874044E+04  0.19916629739E+04  0.12699999809E+01 0. -1.
       -4    1    3    3    0  502  0.18444892254E+03 -0.10281067371E+04 -0.14655899454E+04  0.17997167469E+04  0.12699999809E+01 0.  1.
</event>
<event>
 5   0  0.6661000E-08  0.3793032E+04  0.7818609E-02  0.8047652E-01
        1   -1    0    0  501    0  0.00000000000E+00  0.00000000000E+00  0.20030382213E+04  0.20030382213E+04  0.50400001928E-02 0. -1.
       -1   -1    0    0    0  501  0.00000000000E+00  0.00000000000E+00 -0.17956585379E+04  0.17956585379E+04  0.50400001928E-02 0.  1.
    10030    2    1    2    0    0  0.00000000000E+00  0.00000000000E+00  0.20737968340E+03  0.37986967592E+04  0.37930318658E+04 0.  0.
        4    1    3    3  502    0  0.16331312818E+04 -0.57567876882E+03 -0.67092976900E+03  0.18570600950E+04  0.12699999809E+01 0.  1.
       -4    1    3    3    0  502 -0.16331312818E+04  0.57567876882E+03  0.87830945240E+03  0.19416366642E+04  0.12699999809E+01 0. -1.
</event>
<event>
 5   0  0.2081337E-07  0.3797441E+04  0.7818609E-02  0.8046704E-01
       -2   -1    0    0    0  501  0.00000000000E+00  0.00000000000E+00  0.14203186256E+04  0.14203186256E+04  0.25500000920E-02 0.  1.
        2   -1    0    0  501    0  0.00000000000E+00  0.00000000000E+00 -0.25382612553E+04  0.25382612553E+04  0.25500000920E-02 0. -1.
    10030    2    1    2    0    0  0.00000000000E+00  0.00000000000E+00 -0.11179426298E+04  0.39585798809E+04  0.37974411055E+04 0.  0.
        1    1    3    3  502    0 -0.10074368253E+04  0.77416920674E+03  0.91188457760E+03  0.15639054960E+04  0.50400001928E-02 0.  1.
       -1    1    3    3    0  502  0.10074368253E+04 -0.77416920674E+03 -0.20298272074E+04  0.23946743849E+04  0.50400001928E-02 0. -1.
</event>
<event>
 5   0  0.2135314E-07  0.3803910E+04  0.7818609E-02  0.8045316E-01
        2   -1    0    0  501    0  0.00000000000E+00  0.00000000000E+00  0.28177242780E+04  0.28177242780E+04  0.25500000920E-02 0. -1.
       -2   -1    0    0    0  501  0.00000000000E+00  0.00000000000E+00 -0.12838135569E+04  0.12838135570E+04  0.25500000920E-02 0.  1.
    10030    2    1    2    0    0  0.00000000000E+00  0.00000000000E+00  0.15339107211E+04  0.41015378350E+04  0.38039098979E+04 0.  0.
        4    1    3    3  502    0  0.11546244532E+04  0.58056998735E+02 -0.86147761129E+03  0.14417605663E+04  0.12699999809E+01 0.  1.
       -4    1    3    3    0  502 -0.11546244532E+04 -0.58056998735E+02  0.23953883324E+04  0.26597772686E+04  0.12699999809E+01 0. -1.
</event>
<event>
 5   0  0.6725199E-08  0.3785447E+04  0.7818609E-02  0.8049285E-01
       -1   -1    0    0    0  501  0.00000000000E+00  0.00000000000E+00  0.17218055403E+04  0.17218055403E+04  0.50400001928E-02 0.  1.
        1   -1    0    0  501    0  0.00000000000E+00  0.00000000000E+00 -0.20806079661E+04  0.20806079661E+04  0.50400001928E-02 0. -1.
    10030    2    1    2    0    0  0.00000000000E+00  0.00000000000E+00 -0.35880242580E+03  0.38024135065E+04  0.37854470401E+04 0.  0.
        5    1    3    3  502    0  0.84416898879E+03  0.40374829261E+03  0.14731919157E+04  0.17452651592E+04  0.46999998093E+01 0.  1.
       -5    1    3    3    0  502 -0.84416898879E+03 -0.40374829261E+03 -0.18319943415E+04  0.20571483473E+04  0.46999998093E+01 0. -1.
</event>
<event>
 5   0  0.2081337E-07  0.3770681E+04  0.7818609E-02  0.8052476E-01
       -2   -1    0    0    0  501  0.00000000000E+00  0.00000000000E+00  0.13010642315E+04  0.13010642315E+04  0.25500000920E-02 0.  1.
        2   -1    0    0  501    0  0.00000000000E+00  0.00000000000E+00 -0.27320006480E+04  0.27320006480E+04  0.25500000920E-02 0. -1.
    10030    2    1    2    0    0  0.00000000000E+00  0.00000000000E+00 -0.14309364164E+04  0.40330648795E+04  0.37706807468E+04 0.  0.
        1    1    3    3  502    0 -0.12757807240E+04 -0.23933295457E+03 -0.21779522727E+04  0.25354235979E+04  0.50400001928E-02 0. -1.
       -1    1    3    3    0  502  0.12757807240E+04  0.23933295457E+03  0.74701585624E+03  0.14976412816E+04  0.50400001928E-02 0.  1.
</event>
<event>
 5   0  0.2203998E-07  0.3776175E+04  0.7818609E-02  0.8051287E-01
        2   -1    0    0  501    0  0.00000000000E+00  0.00000000000E+00  0.11971163215E+04  0.11971163215E+04  0.25500000920E-02 0.  1.
       -2   -1    0    0    0  501  0.00000000000E+00  0.00000000000E+00 -0.29778850616E+04  0.29778850616E+04  0.25500000920E-02 0. -1.
    10030    2    1    2    0    0  0.00000000000E+00  0.00000000000E+00 -0.17807687401E+04  0.41750013830E+04  0.37761752135E+04 0.  0.
        3    1    3    3  502    0 -0.17738782127E+04  0.33064405832E+03 -0.27589095656E+03  0.18254000211E+04  0.10100000352E+00 0.  1.
       -3    1    3    3    0  502  0.17738782127E+04 -0.33064405832E+03 -0.15048777835E+04  0.23496013620E+04  0.10100000352E+00 0. -1.
</event>
<event>
 5   0  0.6661000E-08  0.3792192E+04  0.7818609E-02  0.8047833E-01
        1   -1    0    0  501    0  0.00000000000E+00  0.00000000000E+00  0.22861548534E+04  0.22861548534E+04  0.50400001928E-02 0.  1.
       -1   -1    0    0    0  501  0.00000000000E+00  0.00000000000E+00 -0.15725878425E+04  0.15725878425E+04  0.50400001928E-02 0. -1.
    10030    2    1    2    0    0  0.00000000000E+00  0.00000000000E+00  0.71356701092E+03  0.38587426960E+04  0.37921916242E+04 0.  0.
        4    1    3    3  502    0 -0.62300729122E+03 -0.81076296344E+03  0.19815851401E+04  0.22298331660E+04  0.12699999809E+01 0.  1.
       -4    1    3    3    0  502  0.62300729122E+03  0.81076296344E+03 -0.12680181292E+04  0.16289095299E+04  0.12699999809E+01 0. -1.
</event>
<event>
 5   0  0.6661000E-08  0.3799733E+04  0.7818609E-02  0.8046212E-01
       -1   -1    0    0    0  501  0.00000000000E+00  0.00000000000E+00  0.29255647224E+04  0.29255647224E+04  0.50400001928E-02 0.  1.
        1   -1    0    0  501    0  0.00000000000E+00  0.00000000000E+00 -0.12337764224E+04  0.12337764224E+04  0.50400001928E-02 0. -1.
    10030    2    1    2    0    0  0.00000000000E+00  0.00000000000E+00  0.16917883000E+04  0.41593411448E+04  0.37997330310E+04 0.  0.
        4    1    3    3  502    0  0.16872091044E+03  0.14902288344E+03  0.29109141478E+04  0.29196056847E+04  0.12699999809E+01 0.  1.
       -4    1    3    3    0  502 -0.16872091044E+03 -0.14902288344E+03 -0.12191258478E+04  0.12397354601E+04  0.12699999809E+01 0. -1.
</event>
<event>
 5   0  0.6661000E-08  0.3692278E+04  0.7818609E-02  0.8069675E-01
       -1   -1    0    0    0  501  0.00000000000E+00  0.00000000000E+00  0.26276359563E+04  0.26276359563E+04  0.50400001928E-02 0.  1.
        1   -1    0    0  501    0  0.00000000000E+00  0.00000000000E+00 -0.12970706121E+04  0.12970706121E+04  0.50400001928E-02 0. -1.
    10030    2    1    2    0    0  0.00000000000E+00  0.00000000000E+00  0.13305653443E+04  0.39247065684E+04  0.36922780926E+04 0.  0.
        1    1    3    3  502    0 -0.74408728152E+03 -0.11511022040E+04  0.19798759059E+04  0.24080304751E+04  0.50400001928E-02 0.  1.
       -1    1    3    3    0  502  0.74408728152E+03  0.11511022040E+04 -0.64931056158E+03  0.15166760933E+04  0.50400001928E-02 0. -1.
</event>
<event>
 5   0  0.6661000E-08  0.3816750E+04  0.7818609E-02  0.8042570E-01
       -1   -1    0    0    0  501  0.00000000000E+00  0.00000000000E+00  0.28568531058E+04  0.28568531058E+04  0.50400001928E-02 0. -1.
        1   -1    0    0  501    0  0.00000000000E+00  0.00000000000E+00 -0.12747926274E+04  0.12747926274E+04  0.50400001928E-02 0.  1.
    10030    2    1    2    0    0  0.00000000000E+00  0.00000000000E+00  0.15820604785E+04  0.41316457332E+04  0.38167500713E+04 0.  0.
        3    1    3    3  502    0  0.17786691845E+04 -0.95456611719E+02  0.15324616370E+04  0.23497265185E+04  0.10100000352E+00 0. -1.
       -3    1    3    3    0  502 -0.17786691845E+04  0.95456611719E+02  0.49598841462E+02  0.17819192147E+04  0.10100000352E+00 0.  1.
</event>
<event>
 5   0  0.6661000E-08  0.3797033E+04  0.7818609E-02  0.8046792E-01
        3   -1    0    0  501    0  0.00000000000E+00  0.00000000000E+00  0.26544659604E+04  0.26544659623E+04  0.10100000352E+00 0. -1.
       -3   -1    0    0    0  501  0.00000000000E+00  0.00000000000E+00 -0.13578489997E+04  0.13578490035E+04  0.10100000352E+00 0.  1.
    10030    2    1    2    0    0  0.00000000000E+00  0.00000000000E+00  0.12966169606E+04  0.40123149658E+04  0.37970325047E+04 0.  0.
        3    1    3    3  502    0  0.88234824665E+03  0.13688868474E+04 -0.38270256879E+03  0.16729766573E+04  0.10100000352E+00 0.  1.
       -3    1    3    3    0  502 -0.88234824665E+03 -0.13688868474E+04  0.16793195294E+04  0.23393383085E+04  0.10100000352E+00 0. -1.
</event>
<event>
 5   0  0.6661000E-08  0.3760188E+04  0.7818609E-02  0.8054753E-01
        1   -1    0    0  501    0  0.00000000000E+00  0.00000000000E+00  0.20393047499E+04  0.20393047499E+04  0.50400001928E-02 0.  1.
       -1   -1    0    0    0  501  0.00000000000E+00  0.00000000000E+00 -0.17333133148E+04  0.17333133148E+04  0.50400001928E-02 0. -1.
    10030    2    1    2    0    0  0.00000000000E+00  0.00000000000E+00  0.30599143514E+03  0.37726180647E+04  0.37601883335E+04 0.  0.
        3    1    3    3  502    0  0.18206563700E+04 -0.25931374617E+03  0.54508265948E+03  0.19181106205E+04  0.10100000352E+00 0.  1.
       -3    1    3    3    0  502 -0.18206563700E+04  0.25931374617E+03 -0.23909122434E+03  0.18545074441E+04  0.10100000352E+00 0. -1.
</event>
<event>
 5   0  0.2135314E-07  0.3770090E+04  0.7818609E-02  0.8052604E-01
       -2   -1    0    0    0  501  0.00000000000E+00  0.00000000000E+00  0.20130992953E+04  0.20130992953E+04  0.25500000920E-02 0. -1.
        2   -1    0    0  501    0  0.00000000000E+00  0.00000000000E+00 -0.17651359473E+04  0.17651359473E+04  0.25500000920E-02 0.  1.
    10030    2    1    2    0    0  0.00000000000E+00  0.00000000000E+00  0.24796334803E+03  0.37782352426E+04  0.37700896178E+04 0.  0.
        4    1    3    3  502    0  0.52000280974E+03 -0.16481868587E+04 -0.63028614203E+03  0.18396154699E+04  0.12699999809E+01 0.  1.
       -4    1    3    3    0  502 -0.52000280974E+03  0.16481868587E+04  0.87824949006E+03  0.19386197727E+04  0.12699999809E+01 0. -1.
</event>
<event>
 5   0  0.2081337E-07  0.3808175E+04  0.7818609E-02  0.8044403E-01
        2   -1    0    0  501    0  0.00000000000E+00  0.00000000000E+00  0.33464765665E+04  0.33464765665E+04  0.25500000920E-02 0.  1.
       -2   -1    0    0    0  501  0.00000000000E+00  0.00000000000E+00 -0.10833929438E+04  0.10833929438E+04  0.25500000920E-02 0. -1.
    10030    2    1    2    0    0  0.00000000000E+00  0.00000000000E+00  0.22630836227E+04  0.44298695103E+04  0.38081749427E+04 0.  0.
        1    1    3    3  502    0  0.12197396757E+03 -0.18961332365E+04  0.12756640671E+04  0.22885623679E+04  0.50400001928E-02 0.  1.
       -1    1    3    3    0  502 -0.12197396757E+03  0.18961332365E+04  0.98741955558E+03  0.21413071424E+04  0.50400001928E-02 0. -1.
</event>
<event>
 5   0  0.6661000E-08  0.3802931E+04  0.7818609E-02  0.8045526E-01
        1   -1    0    0  501    0  0.00000000000E+00  0.00000000000E+00  0.12105761186E+04  0.12105761186E+04  0.50400001928E-02 0. -1.
       -1   -1    0    0    0  501  0.00000000000E+00  0.00000000000E+00 -0.29866533768E+04  0.29866533768E+04  0.50400001928E-02 0.  1.
    10030    2    1    2    0    0  0.00000000000E+00  0.00000000000E+00 -0.17760772582E+04  0.41972294954E+04  0.38029311077E+04 0.  0.
        2    1    3    3  502    0 -0.12488771234E+04 -0.97113958758E+03  0.27621071864E+03  0.16059572002E+04  0.25500000920E-02 0. -1.
       -2    1    3    3    0  502  0.12488771234E+04  0.97113958758E+03 -0.20522879769E+04  0.25912722952E+04  0.25500000920E-02 0.  1.
</event>
<event>
 5   0  0.1370688E-07  0.3762153E+04  0.7818609E-02  0.8054326E-01
        2   -1    0    0  501    0  0.00000000000E+00  0.00000000000E+00  0.23693829658E+04  0.23693829658E+04  0.25500000920E-02 0.  1.
       -2   -1    0    0    0  501  0.00000000000E+00  0.00000000000E+00 -0.14934048271E+04  0.14934048271E+04  0.25500000920E-02 0. -1.
    10030    2    1    2    0    0  0.00000000000E+00  0.00000000000E+00  0.87597813871E+03  0.38627877929E+04  0.37621525532E+04 0.  0.
        5    1    3    3  502    0 -0.28024696629E+03  0.14545045805E+04  0.16284446157E+04  0.22013577385E+04  0.46999998093E+01 0. -1.
       -5    1    3    3    0  502  0.28024696629E+03 -0.14545045805E+04 -0.75246647694E+03  0.16614300544E+04  0.46999998093E+01 0.  1.
</event>
<event>
 5   0  0.6661000E-08  0.3579215E+04  0.7818609E-02  0.8095269E-01
        1   -1    0    0  501    0  0.00000000000E+00  0.00000000000E+00  0.25097991546E+04  0.25097991546E+04  0.50400001928E-02 0.  1.
       -1   -1    0    0    0  501  0.00000000000E+00  0.00000000000E+00 -0.12760762310E+04  0.12760762310E+04  0.50400001928E-02 0. -1.
    10030    2    1    2    0    0  0.00000000000E+00  0.00000000000E+00  0.12337229236E+04  0.37858753856E+04  0.35792150233E+04 0.  0.
        2    1    3    3  502    0  0.10740141747E+04 -0.26319508928E+03  0.21052009731E+04  0.23779506386E+04  0.25500000920E-02 0.  1.
       -2    1    3    3    0  502 -0.10740141747E+04  0.26319508928E+03 -0.87147804945E+03  0.14079247470E+04  0.25500000920E-02 0. -1.
</event>
<event>
 5   0  0.2205204E-07  0.3793582E+04  0.7818609E-02  0.8047534E-01
       -2   -1    0    0    0  501  0.00000000000E+00  0.00000000000E+00  0.19852980636E+04  0.19852980636E+04  0.25500000920E-02 0.  1.
        2   -1    0    0  501    0  0.00000000000E+00  0.00000000000E+00 -0.18122298228E+04  0.18122298228E+04  0.25500000920E-02 0. -1.
    10030    2    1    2    0    0  0.00000000000E+00  0.00000000000E+00  0.17306824076E+03  0.37975278864E+04  0.37935821373E+04 0.  0.
        2    1    3    3  502    0  0.80394234160E+03 -0.11630229045E+04  0.13523139319E+04  0.19564504940E+04  0.25500000920E-02 0.  1.
       -2    1    3    3    0  502 -0.80394234160E+03  0.11630229045E+04 -0.11792456911E+04  0.18410773925E+04  0.25500000920E-02 0. -1.
</event>
<event>
 5   0  0.2203998E-07  0.3746107E+04  0.7818609E-02  0.8057820E-01
       -2   -1    0    0    0  501  0.00000000000E+00  0.00000000000E+00  0.12805432737E+04  0.12805432737E+04  0.25500000920E-02 0.  1.
        2   -1    0    0  501    0  0.00000000000E+00  0.00000000000E+00 -0.27397191765E+04  0.27397191765E+04  0.25500000920E-02 0. -1.
    10030    2    1    2    0    0  0.00000000000E+00  0.00000000000E+00 -0.14591759028E+04  0.40202624502E+04  0.37461067594E+04 0.  0.
        3    1    3    3  502    0  0.11013371956E+03 -0.18640576464E+04 -0.88690594399E+03  0.20672306376E+04  0.10100000352E+00 0. -1.
       -3    1    3    3    0  502 -0.11013371956E+03  0.18640576464E+04 -0.57226995884E+03  0.19530318126E+04  0.10100000352E+00 0.  1.
</event>
<event>
 5   0  0.6725199E-08  0.3675232E+04  0.7818609E-02  0.8073473E-01
       -1   -1    0    0    0  501  0.00000000000E+00  0.00000000000E+00  0.19448899206E+04  0.19448899206E+04  0.50400001928E-02 0.  1.
        1   -1    0    0  501    0  0.00000000000E+00  0.00000000000E+00 -0.17362586430E+04  0.17362586430E+04  0.50400001928E-02 0. -1.
    10030    2    1    2    0    0  0.00000000000E+00  0.00000000000E+00  0.20863127754E+03  0.36811485636E+04  0.36752316577E+04 0.  0.
        5    1    3    3  502    0  0.10787310332E+04 -0.11609046248E+04  0.10361088257E+04  0.18933842132E+04  0.46999998093E+01 0.  1.
       -5    1    3    3    0  502 -0.10787310332E+04  0.11609046248E+04 -0.82747754819E+03  0.17877643504E+04  0.46999998093E+01 0. -1.
</event>
<event>
 5   0  0.2081337E-07  0.3768118E+04  0.7818609E-02  0.8053031E-01
        2   -1    0    0  501    0  0.00000000000E+00  0.00000000000E+00  0.25233681444E+04  0.25233681444E+04  0.25500000920E-02 0. -1.
       -2   -1    0    0    0  501  0.00000000000E+00  0.00000000000E+00 -0.14067225604E+04  0.14067225604E+04  0.25500000920E-02 0.  1.
    10030    2    1    2    0    0  0.00000000000E+00  0.00000000000E+00  0.11166455840E+04  0.39300907048E+04  0.37681183086E+04 0.  0.
        1    1    3    3  502    0  0.14018962443E+04  0.97927812372E+03  0.13831255379E+04  0.21993942296E+04  0.50400001928E-02 0. -1.
       -1    1    3    3    0  502 -0.14018962443E+04 -0.97927812372E+03 -0.26647995394E+03  0.17306964752E+04  0.50400001928E-02 0.  1.
</event>
<event>
 5   0  0.2135314E-07  0.3831064E+04  0.7818609E-02  0.8039521E-01
       -2   -1    0    0    0  501  0.00000000000E+00  0.00000000000E+00  0.29730881591E+04  0.29730881591E+04  0.25500000920E-02 0.  1.
        2   -1    0    0  501    0  0.00000000000E+00  0.00000000000E+00 -0.12341590806E+04  0.12341590806E+04  0.25500000920E-02 0. -1.
    10030    2    1    2    0    0  0.00000000000E+00  0.00000000000E+00  0.17389290785E+04  0.42072472396E+04  0.38310644729E+04 0.  0.
        4    1    3    3  502    0 -0.23250004118E+03  0.11403190402E+04  0.25403345348E+04  0.27942234957E+04  0.12699999809E+01 0.  1.
       -4    1    3    3    0  502  0.23250004118E+03 -0.11403190402E+04 -0.80140545629E+03  0.14130237439E+04  0.12699999809E+01 0. -1.
</event>
<event>
 5   0  0.6725199E-08  0.3813526E+04  0.7818609E-02  0.8043259E-01
       -1   -1    0    0    0  501  0.00000000000E+00  0.00000000000E+00  0.35755868005E+04  0.35755868005E+04  0.50400001928E-02 0. -1.
        1   -1    0    0  501    0  0.00000000000E+00  0.00000000000E+00 -0.10168246382E+04  0.10168246383E+04  0.50400001928E-02 0.  1.
    10030    2    1    2    0    0  0.00000000000E+00  0.00000000000E+00  0.25587621623E+04  0.45924114388E+04  0.38135257990E+04 0.  0.
        5    1    3    3  502    0  0.85906627705E+03 -0.16170108437E+04  0.19200153693E+04  0.26531490809E+04  0.46999998093E+01 0. -1.
       -5    1    3    3    0  502 -0.85906627705E+03  0.16170108437E+04  0.63874679296E+03  0.19392623579E+04  0.46999998093E+01 0.  1.
</event>
<event>
 5   0  0.6661000E-08  0.3836928E+04  0.7818609E-02  0.8038276E-01
       -1   -1    0    0    0  501  0.00000000000E+00  0.00000000000E+00  0.16068868420E+04  0.16068868420E+04  0.50400001928E-02 0.  1.
        1   -1    0    0  501    0  0.00000000000E+00  0.00000000000E+00 -0.22904567748E+04  0.22904567748E+04  0.50400001928E-02 0. -1.
    10030    2    1    2    0    0  0.00000000000E+00  0.00000000000E+00 -0.68356993278E+03  0.38973436168E+04  0.38369283827E+04 0.  0.
        2    1    3    3  502    0  0.14956614726E+04 -0.86251687552E+03 -0.11913554788E+04  0.20976812146E+04  0.25500000920E-02 0. -1.
       -2    1    3    3    0  502 -0.14956614726E+04  0.86251687552E+03  0.50778554600E+03  0.17996624022E+04  0.25500000920E-02 0.  1.
</event>
<event>
 5   0  0.6725199E-08  0.3769134E+04  0.7818609E-02  0.8052811E-01
       -1   -1    0    0    0  501  0.00000000000E+00  0.00000000000E+00  0.23468981785E+04  0.23468981786E+04  0.50400001928E-02 0.  1.
        1   -1    0    0  501    0  0.00000000000E+00  0.00000000000E+00 -0.15133137162E+04  0.15133137162E+04  0.50400001928E-02 0. -1.
    10030    2    1    2    0    0  0.00000000000E+00  0.00000000000E+00  0.83358446236E+03  0.38602118947E+04  0.37691342264E+04 0.  0.
        5    1    3    3  502    0  0.96822394614E+03  0.13883757556E+04 -0.43179817892E+03  0.17468590687E+04  0.46999998093E+01 0. -1.
       -5    1    3    3    0  502 -0.96822394614E+03 -0.13883757556E+04  0.12653826413E+04  0.21133528261E+04  0.46999998093E+01 0.  1.
</event>
<event>
 5   0  0.2203998E-07  0.3792076E+04  0.7818609E-02  0.8047857E-01
        2   -1    0    0  501    0  0.00000000000E+00  0.00000000000E+00  0.12130409624E+04  0.12130409624E+04  0.25500000920E-02 0. -1.
       -2   -1    0    0    0  501  0.00000000000E+00  0.00000000000E+00 -0.29635935592E+04  0.29635935592E+04  0.25500000920E-02 0.  1.
    10030    2    1    2    0    0  0.00000000000E+00  0.00000000000E+00 -0.17505525968E+04  0.41766345216E+04  0.37920761506E+04 0.  0.
        3    1    3    3  502    0  0.44560284877E+03  0.10493394583E+03  0.11512563587E+04  0.12389367399E+04  0.10100000352E+00 0. -1.
       -3    1    3    3    0  502 -0.44560284877E+03 -0.10493394583E+03 -0.29018089555E+04  0.29376977817E+04  0.10100000352E+00 0.  1.
</event>
<event>
 5   0  0.2205204E-07  0.3806776E+04  0.7818609E-02  0.8044702E-01
       -2   -1    0    0    0  501  0.00000000000E+00  0.00000000000E+00  0.18116136940E+04  0.18116136940E+04  0.25500000920E-02 0. -1.
        2   -1    0    0  501    0  0.00000000000E+00  0.00000000000E+00 -0.19998117443E+04  0.19998117443E+04  0.25500000920E-02 0.  1.
    10030    2    1    2    0    0  0.00000000000E+00  0.00000000000E+00 -0.18819805024E+03  0.38114254383E+04  0.38067762432E+04 0.  0.
        2    1    3    3  502    0 -0.77552563188E+03  0.20088283555E+03 -0.18227917255E+04  0.19910709666E+04  0.25500000920E-02 0.  1.
       -2    1    3    3    0  502  0.77552563188E+03 -0.20088283555E+03  0.16345936753E+04  0.18203544717E+04  0.25500000920E-02 0. -1.
</event>
<event>
 5   0  0.1370688E-07  0.3809875E+04  0.7818609E-02  0.8044039E-01
       -2   -1    0    0    0  501  0.00000000000E+00  0.00000000000E+00  0.21973252462E+04  0.21973252462E+04  0.25500000920E-02 0. -1.
        2   -1    0    0  501    0  0.00000000000E+00  0.00000000000E+00 -0.16514566835E+04  0.16514566836E+04  0.25500000920E-02 0.  1.
    10030    2    1    2    0    0  0.00000000000E+00  0.00000000000E+00  0.54586856262E+03  0.38487819297E+04  0.38098753070E+04 0.  0.
        5    1    3    3  502    0  0.15618740415E+03  0.18954167715E+04  0.16335476554E+03  0.19088494211E+04  0.46999998093E+01 0.  1.
       -5    1    3    3    0  502 -0.15618740415E+03 -0.18954167715E+04  0.38251379708E+03  0.19399325086E+04  0.46999998093E+01 0. -1.
</event>
<event>
 5   0  0.6661000E-08  0.3818041E+04  0.7818609E-02  0.8042294E-01
        1   -1    0    0  501    0  0.00000000000E+00  0.00000000000E+00  0.13756273508E+04  0.13756273508E+04  0.50400001928E-02 0.  1.
       -1   -1    0    0    0  501  0.00000000000E+00  0.00000000000E+00 -0.26492338578E+04  0.26492338578E+04  0.50400001928E-02 0. -1.
    10030    2    1    2    0    0  0.00000000000E+00  0.00000000000E+00 -0.12736065070E+04  0.40248612085E+04  0.38180406249E+04 0.  0.
        4    1    3    3  502    0 -0.72773896310E+03  0.79313600439E+01 -0.24972523019E+04  0.26011415911E+04  0.12699999809E+01 0. -1.
       -4    1    3    3    0  502  0.72773896310E+03 -0.79313600439E+01  0.12236457949E+04  0.14237196174E+04  0.12699999809E+01 0.  1.
</event>
<event>
 5   0  0.6661000E-08  0.3796224E+04  0.7818609E-02  0.8046966E-01
        1   -1    0    0  501    0  0.00000000000E+00  0.00000000000E+00  0.96462516345E+03  0.96462516346E+03  0.50400001928E-02 0.  1.
       -1   -1    0    0    0  501  0.00000000000E+00  0.00000000000E+00 -0.37349518926E+04  0.37349518926E+04  0.50400001928E-02 0. -1.
    10030    2    1    2    0    0  0.00000000000E+00  0.00000000000E+00 -0.27703267291E+04  0.46995770560E+04  0.37962236920E+04 0.  0.
        1    1    3    3  502    0 -0.92799207634E+03 -0.15622475650E+04 -0.70592782169E+03  0.19493898629E+04  0.50400001928E-02 0.  1.
       -1    1    3    3    0  502  0.92799207634E+03  0.15622475650E+04 -0.20643989074E+04  0.27501871931E+04  0.50400001928E-02 0. -1.
</event>
<event>
 5   0  0.2205204E-07  0.3817165E+04  0.7818609E-02  0.8042481E-01
        2   -1    0    0  501    0  0.00000000000E+00  0.00000000000E+00  0.20690810595E+04  0.20690810595E+04  0.25500000920E-02 0. -1.
       -2   -1    0    0    0  501  0.00000000000E+00  0.00000000000E+00 -0.17605342672E+04  0.17605342672E+04  0.25500000920E-02 0.  1.
    10030    2    1    2    0    0  0.00000000000E+00  0.00000000000E+00  0.30854679235E+03  0.38296153267E+04  0.38171654965E+04 0.  0.
        2    1    3    3  502    0 -0.64182750318E+03  0.15617374312E+03 -0.16421966794E+04  0.17700685624E+04  0.25500000920E-02 0.  1.
       -2    1    3    3    0  502  0.64182750318E+03 -0.15617374312E+03  0.19507434717E+04  0.20595467643E+04  0.25500000920E-02 0. -1.
</event>
<event>
 5   0  0.6725199E-08  0.3778406E+04  0.7818609E-02  0.8050805E-01
        1   -1    0    0  501    0  0.00000000000E+00  0.00000000000E+00  0.24429677317E+04  0.24429677317E+04  0.50400001928E-02 0.  1.
       -1   -1    0    0    0  501  0.00000000000E+00  0.00000000000E+00 -0.14609641741E+04  0.14609641741E+04  0.50400001928E-02 0. -1.
    10030    2    1    2    0    0  0.00000000000E+00  0.00000000000E+00  0.98200355768E+03  0.39039319058E+04  0.37784061902E+04 0.  0.
        5    1    3    3  502    0 -0.61803078219E+03 -0.17664352798E+04  0.22393721088E+03  0.18847879482E+04  0.46999998093E+01 0.  1.
       -5    1    3    3    0  502  0.61803078219E+03  0.17664352798E+04  0.75806634680E+03  0.20191439576E+04  0.46999998093E+01 0. -1.
</event>
<event>
 5   0  0.6661000E-08  0.3803153E+04  0.7818609E-02  0.8045479E-01
       -1   -1    0    0    0  501  0.00000000000E+00  0.00000000000E+00  0.18164195043E+04  0.18164195043E+04  0.50400001928E-02 0. -1.
        1   -1    0    0  501    0  0.00000000000E+00  0.00000000000E+00 -0.19907256815E+04  0.19907256815E+04  0.50400001928E-02 0.  1.
    10030    2    1    2    0    0  0.00000000000E+00  0.00000000000E+00 -0.17430617725E+03  0.38071451858E+04  0.38031528792E+04 0.  0.
        4    1    3    3  502    0 -0.43990528831E+03  0.37572491314E+03 -0.19004920240E+04  0.19865944275E+04  0.12699999809E+01 0.  1.
       -4    1    3    3    0  502  0.43990528831E+03 -0.37572491314E+03  0.17261858468E+04  0.18205507583E+04  0.12699999809E+01 0. -1.
</event>
<event>
 5   0  0.2135314E-07  0.3785977E+04  0.7818609E-02  0.8049171E-01
       -2   -1    0    0    0  501  0.00000000000E+00  0.00000000000E+00  0.28289424575E+04  0.28289424575E+04  0.25500000920E-02 0. -1.
        2   -1    0    0  501    0  0.00000000000E+00  0.00000000000E+00 -0.12666944762E+04  0.12666944762E+04  0.25500000920E-02 0.  1.
    10030    2    1    2    0    0  0.00000000000E+00  0.00000000000E+00  0.15622479813E+04  0.40956369336E+04  0.37859771707E+04 0.  0.
        4    1    3    3  502    0  0.17778173530E+03 -0.90977490007E+03 -0.10043584251E+04  0.13667604666E+04  0.12699999809E+01 0.  1.
       -4    1    3    3    0  502 -0.17778173530E+03  0.90977490007E+03  0.25666064064E+04  0.27288764670E+04  0.12699999809E+01 0. -1.
</event>
<event>
 5   0  0.6725199E-08  0.3382843E+04  0.7818609E-02  0.8142130E-01
        1   -1    0    0  501    0  0.00000000000E+00  0.00000000000E+00  0.21430070776E+04  0.21430070776E+04  0.50400001928E-02 0. -1.
       -1   -1    0    0    0  501  0.00000000000E+00  0.00000000000E+00 -0.13349964071E+04  0.13349964071E+04  0.50400001928E-02 0.  1.
    10030    2    1    2    0    0  0.00000000000E+00  0.00000000000E+00  0.80801067054E+03  0.34780034847E+04  0.33828430345E+04 0.  0.
        5    1    3    3  502    0 -0.11752112903E+04  0.80732650695E+03  0.13395400842E+04  0.19563454176E+04  0.46999998093E+01 0. -1.
       -5    1    3    3    0  502  0.11752112903E+04 -0.80732650695E+03 -0.53152941362E+03  0.15216580671E+04  0.46999998093E+01 0.  1.
</event>
<event>
 5   0  0.1370688E-07  0.3805387E+04  0.7818609E-02  0.8045000E-01
       -2   -1    0    0    0  501  0.00000000000E+00  0.00000000000E+00  0.14605510546E+04  0.14605510546E+04  0.25500000920E-02 0.  1.
        2   -1    0    0  501    0  0.00000000000E+00  0.00000000000E+00 -0.24786824146E+04  0.24786824146E+04  0.25500000920E-02 0. -1.
    10030    2    1    2    0    0  0.00000000000E+00  0.00000000000E+00 -0.10181313601E+04  0.39392334692E+04  0.38053868211E+04 0.  0.
        5    1    3    3  502    0 -0.81864286125E+03  0.12475022649E+04  0.71304447002E+03  0.16537510518E+04  0.46999998093E+01 0. -1.
       -5    1    3    3    0  502  0.81864286125E+03 -0.12475022649E+04 -0.17311758301E+04  0.22854824173E+04  0.46999998093E+01 0.  1.
</event>
<event>
 5   0  0.2081337E-07  0.3434222E+04  0.7818609E-02  0.8129558E-01
        2   -1    0    0  501    0  0.00000000000E+00  0.00000000000E+00  0.17112155530E+04  0.17112155530E+04  0.25500000920E-02 0.  1.
       -2   -1    0    0    0  501  0.00000000000E+00  0.00000000000E+00 -0.17230266730E+04  0.17230266730E+04  0.25500000920E-02 0. -1.
    10030    2    1    2    0    0  0.00000000000E+00  0.00000000000E+00 -0.11811119976E+02  0.34342422260E+04  0.34342219154E+04 0.  0.
        1    1    3    3  502    0 -0.78790570720E+03  0.96319641568E+02  0.15167318187E+04  0.17118844257E+04  0.50400001928E-02 0.  1.
       -1    1    3    3    0  502  0.78790570720E+03 -0.96319641568E+02 -0.15285429387E+04  0.17223578003E+04  0.50400001928E-02 0. -1.
</event>
<event>
 5   0  0.6661000E-08  0.3479417E+04  0.7818609E-02  0.8118685E-01
       -1   -1    0    0    0  501  0.00000000000E+00  0.00000000000E+00  0.12193145734E+04  0.12193145734E+04  0.50400001928E-02 0. -1.
        1   -1    0    0  501    0  0.00000000000E+00  0.00000000000E+00 -0.24822021594E+04  0.24822021595E+04  0.50400001928E-02 0.  1.
    10030    2    1    2    0    0  0.00000000000E+00  0.00000000000E+00 -0.12628875861E+04  0.37015167328E+04  0.34794167713E+04 0.  0.
        1    1    3    3  502    0  0.12370747845E+04 -0.57427513492E+03 -0.17804022838E+04  0.22427612992E+04  0.50400001928E-02 0.  1.
       -1    1    3    3    0  502 -0.12370747845E+04  0.57427513492E+03  0.51751469768E+03  0.14587554337E+04  0.50400001928E-02 0. -1.
</event>
<event>
 5   0  0.6661000E-08  0.3786506E+04  0.7818609E-02  0.8049057E-01
       -3   -1    0    0    0  501  0.00000000000E+00  0.00000000000E+00  0.11296842315E+04  0.11296842360E+04  0.10100000352E+00 0.  1.
        3   -1    0    0  501    0  0.00000000000E+00  0.00000000000E+00 -0.31729286585E+04  0.31729286601E+04  0.10100000352E+00 0. -1.
    10030    2    1    2    0    0  0.00000000000E+00  0.00000000000E+00 -0.20432444270E+04  0.43026128960E+04  0.37865062980E+04 0.  0.
        3    1    3    3  502    0  0.76251263246E+03  0.17329089914E+04 -0.10183310925E+04  0.21497435455E+04  0.10100000352E+00 0.  1.
       -3    1    3    3    0  502 -0.76251263246E+03 -0.17329089914E+04 -0.10249133346E+04  0.21528693506E+04  0.10100000352E+00 0. -1.
</event>
<event>
 5   0  0.6661000E-08  0.3791167E+04  0.7818609E-02  0.8048053E-01
        1   -1    0    0  501    0  0.00000000000E+00  0.00000000000E+00  0.12413863711E+04  0.12413863711E+04  0.50400001928E-02 0. -1.
       -1   -1    0    0    0  501  0.00000000000E+00  0.00000000000E+00 -0.28945346697E+04  0.28945346697E+04  0.50400001928E-02 0.  1.
    10030    2    1    2    0    0  0.00000000000E+00  0.00000000000E+00 -0.16531482986E+04  0.41359210408E+04  0.37911665169E+04 0.  0.
        2    1    3    3  502    0 -0.39037731190E+03 -0.14469232058E+04 -0.20928380603E+04  0.25740925305E+04  0.25500000920E-02 0. -1.
       -2    1    3    3    0  502  0.39037731190E+03  0.14469232058E+04  0.43968976168E+03  0.15618285103E+04  0.25500000920E-02 0.  1.
</event>
<event>
 5   0  0.6661000E-08  0.3794056E+04  0.7818609E-02  0.8047432E-01
        1   -1    0    0  501    0  0.00000000000E+00  0.00000000000E+00  0.24116659304E+04  0.24116659304E+04  0.50400001928E-02 0. -1.
       -1   -1    0    0    0  501  0.00000000000E+00  0.00000000000E+00 -0.14922112677E+04  0.14922112677E+04  0.50400001928E-02 0.  1.
    10030    2    1    2    0    0  0.00000000000E+00  0.00000000000E+00  0.91945466271E+03  0.39038771982E+04  0.37940559170E+04 0.  0.
        4    1    3    3  502    0 -0.28867007808E+03 -0.17923430805E+03 -0.14606441560E+04  0.14996460631E+04  0.12699999809E+01 0.  1.
       -4    1    3    3    0  502  0.28867007808E+03  0.17923430805E+03  0.23800988187E+04  0.24042311351E+04  0.12699999809E+01 0. -1.
</event>
<event>
 5   0  0.6661000E-08  0.3801988E+04  0.7818609E-02  0.8045728E-01
        1   -1    0    0  501    0  0.00000000000E+00  0.00000000000E+00  0.22180899053E+04  0.22180899053E+04  0.50400001928E-02 0.  1.
       -1   -1    0    0    0  501  0.00000000000E+00  0.00000000000E+00 -0.16292299895E+04  0.16292299895E+04  0.50400001928E-02 0. -1.
    10030    2    1    2    0    0  0.00000000000E+00  0.00000000000E+00  0.58885991582E+03  0.38473198948E+04  0.38019882131E+04 0.  0.
        2    1    3    3  502    0 -0.77675990221E+03  0.76007938774E+03 -0.12838788703E+04  0.16820884563E+04  0.25500000920E-02 0. -1.
       -2    1    3    3    0  502  0.77675990221E+03 -0.76007938774E+03  0.18727387861E+04  0.21652314385E+04  0.25500000920E-02 0.  1.
</event>
<event>
 5   0  0.6661000E-08  0.3795637E+04  0.7818609E-02  0.8047092E-01
        1   -1    0    0  501    0  0.00000000000E+00  0.00000000000E+00  0.16740823692E+04  0.16740823692E+04  0.50400001928E-02 0.  1.
       -1   -1    0    0    0  501  0.00000000000E+00  0.00000000000E+00 -0.21514558953E+04  0.21514558953E+04  0.50400001928E-02 0. -1.
    10030    2    1    2    0    0  0.00000000000E+00  0.00000000000E+00 -0.47737352605E+03  0.38255382645E+04  0.37956366436E+04 0.  0.
        1    1    3    3  502    0  0.15389267914E+04 -0.51936694754E+03 -0.12280906131E+04  0.20362328573E+04  0.50400001928E-02 0. -1.
       -1    1    3    3    0  502 -0.15389267914E+04  0.51936694754E+03  0.75071708702E+03  0.17893054072E+04  0.50400001928E-02 0.  1.
</event>
<event>
 5   0  0.1370688E-07  0.3781518E+04  0.7818609E-02  0.8050133E-01
       -2   -1    0    0    0  501  0.00000000000E+00  0.00000000000E+00  0.16613251765E+04  0.16613251765E+04  0.25500000920E-02 0.  1.
        2   -1    0    0  501    0  0.00000000000E+00  0.00000000000E+00 -0.21518787339E+04  0.21518787339E+04  0.25500000920E-02 0. -1.
    10030    2    1    2    0    0  0.00000000000E+00  0.00000000000E+00 -0.49055355744E+03  0.38132039104E+04  0.37815183814E+04 0.  0.
        5    1    3    3  502    0  0.10462218180E+04 -0.97390336828E+03 -0.14933390036E+04  0.20671602098E+04  0.46999998093E+01 0. -1.
       -5    1    3    3    0  502 -0.10462218180E+04  0.97390336828E+03  0.10027854462E+04  0.17460437006E+04  0.46999998093E+01 0.  1.
</event>
<event>
 5   0  0.2205204E-07  0.3807504E+04  0.7818609E-02  0.8044547E-01
        2   -1    0    0  501    0  0.00000000000E+00  0.00000000000E+00  0.19850939437E+04  0.19850939437E+04  0.25500000920E-02 0. -1.
       -2   -1    0    0    0  501  0.00000000000E+00  0.00000000000E+00 -0.18257429237E+04  0.18257429237E+04  0.25500000920E-02 0.  1.
    10030    2    1    2    0    0  0.00000000000E+00  0.00000000000E+00  0.15935102007E+03  0.38108368674E+04  0.38075037600E+04 0.  0.
        2    1    3    3  502    0  0.11931569314E+03  0.13078997498E+04 -0.12997302433E+04  0.18477382649E+04  0.25500000920E-02 0.  1.
       -2    1    3    3    0  502 -0.11931569314E+03 -0.13078997498E+04  0.14590812634E+04  0.19630986025E+04  0.25500000920E-02 0. -1.
</event>
<event>
 5   0  0.6661000E-08  0.3730466E+04  0.7818609E-02  0.8061244E-01
       -1   -1    0    0    0  501  0.00000000000E+00  0.00000000000E+00  0.11871145952E+04  0.11871145952E+04  0.50400001928E-02 0.  1.
        1   -1    0    0  501    0  0.00000000000E+00  0.00000000000E+00 -0.29307143244E+04  0.29307143244E+04  0.50400001928E-02 0. -1.
    10030    2    1    2    0    0  0.00000000000E+00  0.00000000000E+00 -0.17435997292E+04  0.41178289197E+04  0.37304657881E+04 0.  0.
        2    1    3    3  502    0 -0.85012995820E+03  0.76028235336E+03 -0.25009774434E+04  0.27487521488E+04  0.25500000920E-02 0. -1.
       -2    1    3    3    0  502  0.85012995820E+03 -0.76028235336E+03  0.75737771424E+03  0.13690767709E+04  0.25500000920E-02 0.  1.
</event>
<event>
 5   0  0.6661000E-08  0.3833681E+04  0.7818609E-02  0.8038965E-01
        1   -1    0    0  501    0  0.00000000000E+00  0.00000000000E+00  0.23506160886E+04  0.23506160886E+04  0.50400001928E-02 0. -1.
       -1   -1    0    0    0  501  0.00000000000E+00  0.00000000000E+00 -0.15631129448E+04  0.15631129448E+04  0.50400001928E-02 0.  1.
    10030    2    1    2    0    0  0.00000000000E+00  0.00000000000E+00  0.78750314381E+03  0.39137290335E+04  0.38336814873E+04 0.  0.
        4    1    3    3  502    0 -0.76538609091E+03 -0.17437264774E+04  0.17037021117E+03  0.19119167132E+04  0.12699999809E+01 0. -1.
       -4    1    3    3    0  502  0.76538609091E+03  0.17437264774E+04  0.61713293264E+03  0.20018123203E+04  0.12699999809E+01 0.  1.
</event>
<event>
 5   0  0.6661000E-08  0.3329009E+04  0.7818609E-02  0.8155553E-01
        1   -1    0    0  501    0  0.00000000000E+00  0.00000000000E+00  0.21594247357E+04  0.21594247357E+04  0.50400001928E-02 0.  1.
       -1   -1    0    0    0  501  0.00000000000E+00  0.00000000000E+00 -0.12830154396E+04  0.12830154396E+04  0.50400001928E-02 0. -1.
    10030    2    1    2    0    0  0.00000000000E+00  0.00000000000E+00  0.87640929608E+03  0.34424401753E+04  0.33290090276E+04 0.  0.
        1    1    3    3  502    0  0.66264497719E+03 -0.93450937296E+03  0.16868967951E+04  0.20391240598E+04  0.50400001928E-02 0.  1.
       -1    1    3    3    0  502 -0.66264497719E+03  0.93450937296E+03 -0.81048749900E+03  0.14033161155E+04  0.50400001928E-02 0. -1.
</event>
<event>
 5   0  0.6661000E-08  0.3816303E+04  0.7818609E-02  0.8042665E-01
       -1   -1    0    0    0  501  0.00000000000E+00  0.00000000000E+00  0.18030263439E+04  0.18030263440E+04  0.50400001928E-02 0.  1.
        1   -1    0    0  501    0  0.00000000000E+00  0.00000000000E+00 -0.20194064132E+04  0.20194064132E+04  0.50400001928E-02 0. -1.
    10030    2    1    2    0    0  0.00000000000E+00  0.00000000000E+00 -0.21638006923E+03  0.38224327571E+04  0.38163034272E+04 0.  0.
        1    1    3    3  502    0  0.17365696452E+02  0.13541402926E+04 -0.14546129556E+04  0.19874346153E+04  0.50400001928E-02 0. -1.
       -1    1    3    3    0  502 -0.17365696452E+02 -0.13541402926E+04  0.12382328864E+04  0.18349981418E+04  0.50400001928E-02 0.  1.
</event>
<event>
 5   0  0.6661000E-08  0.3800671E+04  0.7818609E-02  0.8046011E-01
       -1   -1    0    0    0  501  0.00000000000E+00  0.00000000000E+00  0.15811269359E+04  0.15811269359E+04  0.50400001928E-02 0. -1.
        1   -1    0    0  501    0  0.00000000000E+00  0.00000000000E+00 -0.22839874798E+04  0.22839874798E+04  0.50400001928E-02 0.  1.
    10030    2    1    2    0    0  0.00000000000E+00  0.00000000000E+00 -0.70286054393E+03  0.38651144156E+04  0.38006705332E+04 0.  0.
        2    1    3    3  502    0 -0.12286592937E+04 -0.14489048129E+04 -0.30218073879E+03  0.19236013142E+04  0.25500000920E-02 0. -1.
       -2    1    3    3    0  502  0.12286592937E+04  0.14489048129E+04 -0.40067980514E+03  0.19415131015E+04  0.25500000920E-02 0.  1.
</event>
<event>
 5   0  0.6661000E-08  0.3688681E+04  0.7818609E-02  0.8070475E-01
        1   -1    0    0  501    0  0.00000000000E+00  0.00000000000E+00  0.25048896420E+04  0.25048896421E+04  0.50400001928E-02 0.  1.
       -1   -1    0    0    0  501  0.00000000000E+00  0.00000000000E+00 -0.13579809179E+04  0.13579809179E+04  0.50400001928E-02 0. -1.
    10030    2    1    2    0    0  0.00000000000E+00  0.00000000000E+00  0.11469087241E+04  0.38628705600E+04  0.36886812470E+04 0.  0.
        4    1    3    3  502    0  0.16365496212E+04 -0.40776992135E+03 -0.20812723555E+03  0.16993791603E+04  0.12699999809E+01 0. -1.
       -4    1    3    3    0  502 -0.16365496212E+04  0.40776992135E+03  0.13550359597E+04  0.21634913997E+04  0.12699999809E+01 0.  1.
</event>
<event>
 5   0  0.6661000E-08  0.3801200E+04  0.7818609E-02  0.8045897E-01
        1   -1    0    0  501    0  0.00000000000E+00  0.00000000000E+00  0.20760374063E+04  0.20760374063E+04  0.50400001928E-02 0.  1.
       -1   -1    0    0    0  501  0.00000000000E+00  0.00000000000E+00 -0.17399885152E+04  0.17399885152E+04  0.50400001928E-02 0. -1.
    10030    2    1    2    0    0  0.00000000000E+00  0.00000000000E+00  0.33604889108E+03  0.38160259215E+04  0.38012004652E+04 0.  0.
        3    1    3    3  502    0 -0.13037074168E+04  0.73850840707E+03  0.13418725253E+04  0.20113849906E+04  0.10100000352E+00 0.  1.
       -3    1    3    3    0  502  0.13037074168E+04 -0.73850840707E+03 -0.10058236343E+04  0.18046409309E+04  0.10100000352E+00 0. -1.
</event>
<event>
 5   0  0.2205204E-07  0.3806184E+04  0.7818609E-02  0.8044829E-01
       -2   -1    0    0    0  501  0.00000000000E+00  0.00000000000E+00  0.30372224612E+04  0.30372224612E+04  0.25500000920E-02 0. -1.
        2   -1    0    0  501    0  0.00000000000E+00  0.00000000000E+00 -0.11924574456E+04  0.11924574456E+04  0.25500000920E-02 0.  1.
    10030    2    1    2    0    0  0.00000000000E+00  0.00000000000E+00  0.18447650156E+04  0.42296799068E+04  0.38061836728E+04 0.  0.
        2    1    3    3  502    0 -0.18418458535E+04  0.30469312073E+03  0.13329863840E+04  0.22939238753E+04  0.25500000920E-02 0.  1.
       -2    1    3    3    0  502  0.18418458535E+04 -0.30469312073E+03  0.51177863159E+03  0.19357560315E+04  0.25500000920E-02 0. -1.
</event>
<event>
 5   0  0.6725199E-08  0.3790456E+04  0.7818609E-02  0.8048206E-01
        1   -1    0    0  501    0  0.00000000000E+00  0.00000000000E+00  0.20149250452E+04  0.20149250452E+04  0.50400001928E-02 0. -1.
       -1   -1    0    0    0  501  0.00000000000E+00  0.00000000000E+00 -0.17826417427E+04  0.17826417427E+04  0.50400001928E-02 0.  1.
    10030    2    1    2    0    0  0.00000000000E+00  0.00000000000E+00  0.23228330245E+03  0.37975667879E+04  0.37904561699E+04 0.  0.
        5    1    3    3  502    0  0.67687254087E+03 -0.49636075327E+03  0.18185458324E+04  0.20029132454E+04  0.46999998093E+01 0. -1.
       -5    1    3    3    0  502 -0.67687254087E+03  0.49636075327E+03 -0.15862625299E+04  0.17946535426E+04  0.46999998093E+01 0.  1.
</event>
<event>
 5   0  0.2081337E-07  0.3846869E+04  0.7818609E-02  0.8036171E-01
        2   -1    0    0  501    0  0.00000000000E+00  0.00000000000E+00  0.18767057503E+04  0.18767057503E+04  0.25500000920E-02 0.  1.
       -2   -1    0    0    0  501  0.00000000000E+00  0.00000000000E+00 -0.19713264630E+04  0.19713264630E+04  0.25500000920E-02 0. -1.
    10030    2    1    2    0    0  0.00000000000E+00  0.00000000000E+00 -0.94620712739E+02  0.38480322133E+04  0.38468687052E+04 0.  0.
        1    1    3    3  502    0 -0.15602897398E+04 -0.42126504496E+01 -0.11724073595E+04  0.19516815404E+04  0.50400001928E-02 0. -1.
       -1    1    3    3    0  502  0.15602897398E+04  0.42126504496E+01  0.10777866468E+04  0.18963506729E+04  0.50400001928E-02 0.  1.
</event>
<event>
 5   0  0.6661000E-08  0.3800234E+04  0.7818609E-02  0.8046105E-01
       -1   -1    0    0    0  501  0.00000000000E+00  0.00000000000E+00  0.13635308131E+04  0.13635308132E+04  0.50400001928E-02 0. -1.
        1   -1    0    0  501    0  0.00000000000E+00  0.00000000000E+00 -0.26478636924E+04  0.26478636924E+04  0.50400001928E-02 0.  1.
    10030    2    1    2    0    0  0.00000000000E+00  0.00000000000E+00 -0.12843328793E+04  0.40113945056E+04  0.38002335368E+04 0.  0.
        3    1    3    3  502    0 -0.14976099521E+04 -0.11206023662E+04 -0.28912997245E+03  0.18926651534E+04  0.10100000352E+00 0.  1.
       -3    1    3    3    0  502  0.14976099521E+04  0.11206023662E+04 -0.99520290681E+03  0.21187293522E+04  0.10100000352E+00 0. -1.
</event>
<event>
 5   0  0.2081337E-07  0.3797328E+04  0.7818609E-02  0.8046729E-01
        2   -1    0    0  501    0  0.00000000000E+00  0.00000000000E+00  0.17869122750E+04  0.17869122750E+04  0.25500000920E-02 0. -1.
       -2   -1    0    0    0  501  0.00000000000E+00  0.00000000000E+00 -0.20174045339E+04  0.20174045339E+04  0.25500000920E-02 0.  1.
    10030    2    1    2    0    0  0.00000000000E+00  0.00000000000E+00 -0.23049225886E+03  0.38043168089E+04  0.37973279686E+04 0.  0.
        1    1    3    3  502    0 -0.42942057585E+03 -0.49607678109E+03 -0.19002184868E+04  0.20103045793E+04  0.50400001928E-02 0.  1.
       -1    1    3    3    0  502  0.42942057585E+03  0.49607678109E+03  0.16697262280E+04  0.17940122296E+04  0.50400001928E-02 0. -1.
</event>
<event>
 5   0  0.6661000E-08  0.3800808E+04  0.7818609E-02  0.8045982E-01
       -1   -1    0    0    0  501  0.00000000000E+00  0.00000000000E+00  0.23202597370E+04  0.23202597370E+04  0.50400001928E-02 0. -1.
        1   -1    0    0  501    0  0.00000000000E+00  0.00000000000E+00 -0.15565220379E+04  0.15565220379E+04  0.50400001928E-02 0.  1.
    10030    2    1    2    0    0  0.00000000000E+00  0.00000000000E+00  0.76373769914E+03  0.38767817749E+04  0.38008080268E+04 0.  0.
        1    1    3    3  502    0 -0.82890305230E+03  0.69437427122E+03 -0.12121552468E+04  0.16243633341E+04  0.50400001928E-02 0.  1.
       -1    1    3    3    0  502  0.82890305230E+03 -0.69437427122E+03  0.19758929459E+04  0.22524184408E+04  0.50400001928E-02 0. -1.
</event>
<event>
 5   0  0.1370688E-07  0.3796121E+04  0.7818609E-02  0.8046988E-01
       -2   -1    0    0    0  501  0.00000000000E+00  0.00000000000E+00  0.13534684975E+04  0.13534684975E+04  0.25500000920E-02 0. -1.
        2   -1    0    0  501    0  0.00000000000E+00  0.00000000000E+00 -0.26617784848E+04  0.26617784848E+04  0.25500000920E-02 0.  1.
    10030    2    1    2    0    0  0.00000000000E+00  0.00000000000E+00 -0.13083099873E+04  0.40152469823E+04  0.37961208234E+04 0.  0.
        5    1    3    3  502    0 -0.60540594371E+03  0.93091241911E+03  0.97401712855E+03  0.14771072220E+04  0.46999998093E+01 0. -1.
       -5    1    3    3    0  502  0.60540594371E+03 -0.93091241911E+03 -0.22823271159E+04  0.25381397603E+04  0.46999998093E+01 0.  1.
</event>
<event>
 5   0  0.1370688E-07  0.3726040E+04  0.7818609E-02  0.8062215E-01
        2   -1    0    0  501    0  0.00000000000E+00  0.00000000000E+00  0.21533254012E+04  0.21533254012E+04  0.25500000920E-02 0.  1.
       -2   -1    0    0    0  501  0.00000000000E+00  0.00000000000E+00 -0.16118528490E+04  0.16118528490E+04  0.25500000920E-02 0. -1.
    10030    2    1    2    0    0  0.00000000000E+00  0.00000000000E+00  0.54147255220E+03  0.37651782502E+04  0.37260400871E+04 0.  0.
        5    1    3    3  502    0  0.47835474590E+03 -0.29485337588E+02  0.20899602600E+04  0.21442128221E+04  0.46999998093E+01 0.  1.
       -5    1    3    3    0  502 -0.47835474590E+03  0.29485337588E+02 -0.15484877078E+04  0.16209654281E+04  0.46999998093E+01 0. -1.
</event>
<event>
 5   0  0.2203998E-07  0.3611891E+04  0.7818609E-02  0.8087773E-01
        2   -1    0    0  501    0  0.00000000000E+00  0.00000000000E+00  0.24922831406E+04  0.24922831406E+04  0.25500000920E-02 0.  1.
       -2   -1    0    0    0  501  0.00000000000E+00  0.00000000000E+00 -0.13086149692E+04  0.13086149692E+04  0.25500000920E-02 0. -1.
    10030    2    1    2    0    0  0.00000000000E+00  0.00000000000E+00  0.11836681714E+04  0.38008981098E+04  0.36118909315E+04 0.  0.
        3    1    3    3  502    0  0.13527147137E+04  0.32833103056E+03 -0.61893938274E+03  0.15233923762E+04  0.10100000352E+00 0. -1.
       -3    1    3    3    0  502 -0.13527147137E+04 -0.32833103056E+03  0.18026075541E+04  0.22775057336E+04  0.10100000352E+00 0.  1.
</event>
<event>
 5   0  0.2205204E-07  0.3829050E+04  0.7818609E-02  0.8039949E-01
        2   -1    0    0  501    0  0.00000000000E+00  0.00000000000E+00  0.31624938973E+04  0.31624938973E+04  0.25500000920E-02 0.  1.
       -2   -1    0    0    0  501  0.00000000000E+00  0.00000000000E+00 -0.11590240004E+04  0.11590240004E+04  0.25500000920E-02 0. -1.
    10030    2    1    2    0    0  0.00000000000E+00  0.00000000000E+00  0.20034698969E+04  0.43215178977E+04  0.38290501841E+04 0.  0.
        2    1    3    3  502    0  0.12449412498E+03  0.18267431526E+04  0.37039999634E+03  0.18680699906E+04  0.25500000920E-02 0. -1.
       -2    1    3    3    0  502 -0.12449412498E+03 -0.18267431526E+04  0.16330699006E+04  0.24534479071E+04  0.25500000920E-02 0.  1.
</event>
<event>
 5   0  0.1370688E-07  0.3803191E+04  0.7818609E-02  0.8045470E-01
       -2   -1    0    0    0  501  0.00000000000E+00  0.00000000000E+00  0.23008897640E+04  0.23008897640E+04  0.25500000920E-02 0. -1.
        2   -1    0    0  501    0  0.00000000000E+00  0.00000000000E+00 -0.15715946886E+04  0.15715946886E+04  0.25500000920E-02 0.  1.
    10030    2    1    2    0    0  0.00000000000E+00  0.00000000000E+00  0.72929507545E+03  0.38724844526E+04  0.38031913610E+04 0.  0.
        5    1    3    3  502    0 -0.59094436888E+03  0.13344843731E+04  0.16058654204E+04  0.21699976101E+04  0.46999998093E+01 0. -1.
       -5    1    3    3    0  502  0.59094436888E+03 -0.13344843731E+04 -0.87657034497E+03  0.17024868425E+04  0.46999998093E+01 0.  1.
</event>
<event>
 5   0  0.1370688E-07  0.3658111E+04  0.7818609E-02  0.8077309E-01
        2   -1    0    0  501    0  0.00000000000E+00  0.00000000000E+00  0.23686384392E+04  0.23686384392E+04  0.25500000920E-02 0. -1.
       -2   -1    0    0    0  501  0.00000000000E+00  0.00000000000E+00 -0.14123910708E+04  0.14123910708E+04  0.25500000920E-02 0.  1.
    10030    2    1    2    0    0  0.00000000000E+00  0.00000000000E+00  0.95624736843E+03  0.37810295100E+04  0.36581108684E+04 0.  0.
        5    1    3    3  502    0  0.10938863763E+04 -0.10119302496E+04  0.15743416865E+04  0.21677555375E+04  0.46999998093E+01 0. -1.
       -5    1    3    3    0  502 -0.10938863763E+04  0.10119302496E+04 -0.61809431804E+03  0.16132739725E+04  0.46999998093E+01 0.  1.
</event>
<event>
 5   0  0.1370688E-07  0.3724072E+04  0.7818609E-02  0.8062648E-01
        2   -1    0    0  501    0  0.00000000000E+00  0.00000000000E+00  0.27167607963E+04  0.27167607963E+04  0.25500000920E-02 0. -1.
       -2   -1    0    0    0  501  0.00000000000E+00  0.00000000000E+00 -0.12762173320E+04  0.12762173320E+04  0.25500000920E-02 0.  1.
    10030    2    1    2    0    0  0.00000000000E+00  0.00000000000E+00  0.14405434643E+04  0.39929781282E+04  0.37240715434E+04 0.  0.
        5    1    3    3  502    0 -0.59422536326E+03 -0.17395616090E+02  0.26122698401E+04  0.26790636792E+04  0.46999998093E+01 0. -1.
       -5    1    3    3    0  502  0.59422536326E+03  0.17395616090E+02 -0.11717263758E+04  0.13139144491E+04  0.46999998093E+01 0.  1.
</event>
<event>
 5   0  0.2203998E-07  0.3816944E+04  0.7818609E-02  0.8042529E-01
        2   -1    0    0  501    0  0.00000000000E+00  0.00000000000E+00  0.11468720275E+04  0.11468720275E+04  0.25500000920E-02 0.  1.
       -2   -1    0    0    0  501  0.00000000000E+00  0.00000000000E+00 -0.31758247725E+04  0.31758247725E+04  0.25500000920E-02 0. -1.
    10030    2    1    2    0    0  0.00000000000E+00  0.00000000000E+00 -0.20289527450E+04  0.43226968000E+04  0.38169435918E+04 0.  0.
        3    1    3    3  502    0 -0.13564827964E+03  0.85570873126E+03  0.91131903019E+03  0.12574340036E+04  0.10100000352E+00 0.  1.
       -3    1    3    3    0  502  0.13564827964E+03 -0.85570873126E+03 -0.29402717752E+04  0.30652627964E+04  0.10100000352E+00 0. -1.
</event>
<event>
 5   0  0.2081337E-07  0.3790260E+04  0.7818609E-02  0.8048248E-01
       -2   -1    0    0    0  501  0.00000000000E+00  0.00000000000E+00  0.29188179316E+04  0.29188179316E+04  0.25500000920E-02 0. -1.
        2   -1    0    0  501    0  0.00000000000E+00  0.00000000000E+00 -0.12304701015E+04  0.12304701015E+04  0.25500000920E-02 0.  1.
    10030    2    1    2    0    0  0.00000000000E+00  0.00000000000E+00  0.16883478301E+04  0.41492880332E+04  0.37902602532E+04 0.  0.
        1    1    3    3  502    0  0.33902243650E+03  0.16790213836E+03 -0.11887110069E+04  0.12474619026E+04  0.50400001928E-02 0.  1.
       -1    1    3    3    0  502 -0.33902243650E+03 -0.16790213836E+03  0.28770588370E+04  0.29018261305E+04  0.50400001928E-02 0. -1.
</event>
<event>
 5   0  0.6725199E-08  0.3793385E+04  0.7818609E-02  0.8047576E-01
       -1   -1    0    0    0  501  0.00000000000E+00  0.00000000000E+00  0.17639743661E+04  0.17639743662E+04  0.50400001928E-02 0.  1.
        1   -1    0    0  501    0  0.00000000000E+00  0.00000000000E+00 -0.20393962690E+04  0.20393962690E+04  0.50400001928E-02 0. -1.
    10030    2    1    2    0    0  0.00000000000E+00  0.00000000000E+00 -0.27542190282E+03  0.38033706351E+04  0.37933851589E+04 0.  0.
        5    1    3    3  502    0  0.11060286508E+04 -0.15320784197E+04 -0.30202336709E+03  0.19135840365E+04  0.46999998093E+01 0.  1.
       -5    1    3    3    0  502 -0.11060286508E+04  0.15320784197E+04  0.26601464271E+02  0.18897865986E+04  0.46999998093E+01 0. -1.
</event>
<event>
 5   0  0.6661000E-08  0.3761980E+04  0.7818609E-02  0.8054364E-01
        1   -1    0    0  501    0  0.00000000000E+00  0.00000000000E+00  0.23389803730E+04  0.23389803730E+04  0.50400001928E-02 0.  1.
       -1   -1    0    0    0  501  0.00000000000E+00  0.00000000000E+00 -0.15126773402E+04  0.15126773402E+04  0.50400001928E-02 0. -1.
    10030    2    1    2    0    0  0.00000000000E+00  0.00000000000E+00  0.82630303282E+03  0.38516577132E+04  0.37619795903E+04 0.  0.
        1    1    3    3  502    0 -0.13055311829E+02 -0.82776416948E+03 -0.13161223003E+04  0.15548446452E+04  0.50400001928E-02 0. -1.
       -1    1    3    3    0  502  0.13055311829E+02  0.82776416948E+03  0.21424253331E+04  0.22968130680E+04  0.50400001928E-02 0.  1.
</event>
<event>
 5   0  0.6661000E-08  0.3828666E+04  0.7818609E-02  0.8040031E-01
       -3   -1    0    0    0  501  0.00000000000E+00  0.00000000000E+00  0.17864173914E+04  0.17864173943E+04  0.10100000352E+00 0. -1.
        3   -1    0    0  501    0  0.00000000000E+00  0.00000000000E+00 -0.20514078173E+04  0.20514078198E+04  0.10100000352E+00 0.  1.
    10030    2    1    2    0    0  0.00000000000E+00  0.00000000000E+00 -0.26499042589E+03  0.38378252141E+04  0.38286658835E+04 0.  0.
        1    1    3    3  502    0 -0.14284034269E+04 -0.80546362140E+03 -0.11225638386E+04  0.19872739034E+04  0.50400001928E-02 0.  1.
       -1    1    3    3    0  502  0.14284034269E+04  0.80546362140E+03  0.85757341269E+03  0.18505513107E+04  0.50400001928E-02 0. -1.
</event>
<event>
 5   0  0.2205204E-07  0.3789169E+04  0.7818609E-02  0.8048483E-01
       -2   -1    0    0    0  501  0.00000000000E+00  0.00000000000E+00  0.13847282593E+04  0.13847282593E+04  0.25500000920E-02 0.  1.
        2   -1    0    0  501    0  0.00000000000E+00  0.00000000000E+00 -0.25921701816E+04  0.25921701816E+04  0.25500000920E-02 0. -1.
    10030    2    1    2    0    0  0.00000000000E+00  0.00000000000E+00 -0.12074419223E+04  0.39768984408E+04  0.37891694622E+04 0.  0.
        2    1    3    3  502    0 -0.11016435449E+04 -0.15187227230E+04 -0.88004027829E+03  0.20723436252E+04  0.25500000920E-02 0.  1.
       -2    1    3    3    0  502  0.11016435449E+04  0.15187227230E+04 -0.32740164400E+03  0.19045548157E+04  0.25500000920E-02 0. -1.
</event>
<event>
 5   0  0.1370688E-07  0.3783807E+04  0.7818609E-02  0.8049639E-01
        2   -1    0    0  501    0  0.00000000000E+00  0.00000000000E+00  0.22482712788E+04  0.22482712788E+04  0.25500000920E-02 0.  1.
       -2   -1    0    0    0  501  0.00000000000E+00  0.00000000000E+00 -0.15920228598E+04  0.15920228598E+04  0.25500000920E-02 0. -1.
    10030    2    1    2    0    0  0.00000000000E+00  0.00000000000E+00  0.65624841895E+03  0.38402941386E+04  0.37838072208E+04 0.  0.
        5    1    3    3  502    0 -0.12562842501E+04 -0.95446097658E+03 -0.73150756759E+03  0.17390719607E+04  0.46999998093E+01 0. -1.
       -5    1    3    3    0  502  0.12562842501E+04  0.95446097658E+03  0.13877559865E+04  0.21012221780E+04  0.46999998093E+01 0.  1.
</event>
<event>
 5   0  0.2203998E-07  0.3793067E+04  0.7818609E-02  0.8047644E-01
        2   -1    0    0  501    0  0.00000000000E+00  0.00000000000E+00  0.32621886973E+04  0.32621886973E+04  0.25500000920E-02 0. -1.
       -2   -1    0    0    0  501  0.00000000000E+00  0.00000000000E+00 -0.11025845802E+04  0.11025845802E+04  0.25500000920E-02 0.  1.
    10030    2    1    2    0    0  0.00000000000E+00  0.00000000000E+00  0.21596041171E+04  0.43647732775E+04  0.37930668096E+04 0.  0.
        3    1    3    3  502    0 -0.11789927154E+04  0.98431745392E+02  0.27854865872E+04  0.30263258531E+04  0.10100000352E+00 0. -1.
       -3    1    3    3    0  502  0.11789927154E+04 -0.98431745392E+02 -0.62588247005E+03  0.13384474245E+04  0.10100000352E+00 0.  1.
</event>
<event>
 5   0  0.1370688E-07  0.3794829E+04  0.7818609E-02  0.8047265E-01
       -2   -1    0    0    0  501  0.00000000000E+00  0.00000000000E+00  0.13912029417E+04  0.13912029417E+04  0.25500000920E-02 0.  1.
        2   -1    0    0  501    0  0.00000000000E+00  0.00000000000E+00 -0.25878194433E+04  0.25878194433E+04  0.25500000920E-02 0. -1.
    10030    2    1    2    0    0  0.00000000000E+00  0.00000000000E+00 -0.11966165016E+04  0.39790223849E+04  0.37948291250E+04 0.  0.
        5    1    3    3  502    0  0.63507098422E+02 -0.18885496995E+04 -0.41819514708E+03  0.19353455479E+04  0.46999998093E+01 0. -1.
       -5    1    3    3    0  502 -0.63507098422E+02  0.18885496995E+04 -0.77842135451E+03  0.20436768370E+04  0.46999998093E+01 0.  1.
</event>
<event>
 5   0  0.6661000E-08  0.3796370E+04  0.7818609E-02  0.8046934E-01
       -3   -1    0    0    0  501  0.00000000000E+00  0.00000000000E+00  0.27469756626E+04  0.27469756644E+04  0.10100000352E+00 0.  1.
        3   -1    0    0  501    0  0.00000000000E+00  0.00000000000E+00 -0.13116629504E+04  0.13116629543E+04  0.10100000352E+00 0. -1.
    10030    2    1    2    0    0  0.00000000000E+00  0.00000000000E+00  0.14353127122E+04  0.40586386187E+04  0.37963699577E+04 0.  0.
        1    1    3    3  502    0  0.57518683667E+02 -0.57476351988E+03 -0.12154193115E+04  0.13456989283E+04  0.50400001928E-02 0. -1.
       -1    1    3    3    0  502 -0.57518683667E+02  0.57476351988E+03  0.26507320237E+04  0.27129396905E+04  0.50400001928E-02 0.  1.
</event>
<event>
 5   0  0.6661000E-08  0.3830274E+04  0.7818609E-02  0.8039689E-01
       -1   -1    0    0    0  501  0.00000000000E+00  0.00000000000E+00  0.18399880851E+04  0.18399880851E+04  0.50400001928E-02 0.  1.
        1   -1    0    0  501    0  0.00000000000E+00  0.00000000000E+00 -0.19933553317E+04  0.19933553317E+04  0.50400001928E-02 0. -1.
    10030    2    1    2    0    0  0.00000000000E+00  0.00000000000E+00 -0.15336724666E+03  0.38333434168E+04  0.38302741728E+04 0.  0.
        3    1    3    3  502    0  0.18848340138E+04 -0.30444487653E+03 -0.22668403306E+03  0.19226730360E+04  0.10100000352E+00 0.  1.
       -3    1    3    3    0  502 -0.18848340138E+04  0.30444487653E+03  0.73316786401E+02  0.19106703807E+04  0.10100000352E+00 0. -1.
</event>
<event>
 5   0  0.6725199E-08  0.3939573E+04  0.7818609E-02  0.8016849E-01
       -1   -1    0    0    0  501  0.00000000000E+00  0.00000000000E+00  0.17478129001E+04  0.17478129001E+04  0.50400001928E-02 0.  1.
        1   -1    0    0  501    0  0.00000000000E+00  0.00000000000E+00 -0.22199513092E+04  0.22199513092E+04  0.50400001928E-02 0. -1.
    10030    2    1    2    0    0  0.00000000000E+00  0.00000000000E+00 -0.47213840908E+03  0.39677642093E+04  0.39395733453E+04 0.  0.
        5    1    3    3  502    0 -0.10968461751E+03 -0.78062404597E+03  0.15820166150E+04  0.17675415912E+04  0.46999998093E+01 0.  1.
       -5    1    3    3    0  502  0.10968461751E+03  0.78062404597E+03 -0.20541550240E+04  0.22002226181E+04  0.46999998093E+01 0. -1.
</event>
<event>
 5   0  0.2081337E-07  0.3795595E+04  0.7818609E-02  0.8047101E-01
       -2   -1    0    0    0  501  0.00000000000E+00  0.00000000000E+00  0.23981995736E+04  0.23981995736E+04  0.25500000920E-02 0. -1.
        2   -1    0    0  501    0  0.00000000000E+00  0.00000000000E+00 -0.15018079804E+04  0.15018079804E+04  0.25500000920E-02 0.  1.
    10030    2    1    2    0    0  0.00000000000E+00  0.00000000000E+00  0.89639159317E+03  0.39000075540E+04  0.37955949512E+04 0.  0.
        1    1    3    3  502    0  0.51960517219E+03  0.18206604245E+04  0.58153993672E+03  0.19806520680E+04  0.50400001928E-02 0. -1.
       -1    1    3    3    0  502 -0.51960517219E+03 -0.18206604245E+04  0.31485165645E+03  0.19193554861E+04  0.50400001928E-02 0.  1.
</event>
<event>
 5   0  0.2135314E-07  0.3668314E+04  0.7818609E-02  0.8075020E-01
       -2   -1    0    0    0  501  0.00000000000E+00  0.00000000000E+00  0.14912067532E+04  0.14912067532E+04  0.25500000920E-02 0.  1.
        2   -1    0    0  501    0  0.00000000000E+00  0.00000000000E+00 -0.22559795742E+04  0.22559795742E+04  0.25500000920E-02 0. -1.
    10030    2    1    2    0    0  0.00000000000E+00  0.00000000000E+00 -0.76477282098E+03  0.37471863273E+04  0.36683140411E+04 0.  0.
        4    1    3    3  502    0 -0.10348374614E+04 -0.10897674088E+04 -0.14564929911E+04  0.20928103170E+04  0.12699999809E+01 0. -1.
       -4    1    3    3    0  502  0.10348374614E+04  0.10897674088E+04  0.69172017015E+03  0.16543760103E+04  0.12699999809E+01 0.  1.
</event>
<event>
 5   0  0.1370688E-07  0.3758977E+04  0.7818609E-02  0.8055016E-01
        2   -1    0    0  501    0  0.00000000000E+00  0.00000000000E+00  0.24556659667E+04  0.24556659667E+04  0.25500000920E-02 0. -1.
       -2   -1    0    0    0  501  0.00000000000E+00  0.00000000000E+00 -0.14385005607E+04  0.14385005607E+04  0.25500000920E-02 0.  1.
    10030    2    1    2    0    0  0.00000000000E+00  0.00000000000E+00  0.10171654060E+04  0.38941665273E+04  0.37589769192E+04 0.  0.
        5    1    3    3  502    0  0.44288340487E+03 -0.52403770679E+03  0.23212818071E+04  0.24205645098E+04  0.46999998093E+01 0. -1.
       -5    1    3    3    0  502 -0.44288340487E+03  0.52403770679E+03 -0.13041164011E+04  0.14736020175E+04  0.46999998093E+01 0.  1.
</event>
<event>
 5   0  0.6661000E-08  0.3797887E+04  0.7818609E-02  0.8046609E-01
       -1   -1    0    0    0  501  0.00000000000E+00  0.00000000000E+00  0.26601025976E+04  0.26601025976E+04  0.50400001928E-02 0.  1.
        1   -1    0    0  501    0  0.00000000000E+00  0.00000000000E+00 -0.13555813730E+04  0.13555813730E+04  0.50400001928E-02 0. -1.
    10030    2    1    2    0    0  0.00000000000E+00  0.00000000000E+00  0.13045212246E+04  0.40156839706E+04  0.37978865341E+04 0.  0.
        2    1    3    3  502    0 -0.11983890001E+04  0.12071349095E+04  0.15448735883E+04  0.22978131536E+04  0.25500000920E-02 0. -1.
       -2    1    3    3    0  502  0.11983890001E+04 -0.12071349095E+04 -0.24035236369E+03  0.17178708170E+04  0.25500000920E-02 0.  1.
</event>
<event>
 5   0  0.1370688E-07  0.3799726E+04  0.7818609E-02  0.8046214E-01
       -2   -1    0    0    0  501  0.00000000000E+00  0.00000000000E+00  0.27575706728E+04  0.27575706728E+04  0.25500000920E-02 0.  1.
        2   -1    0    0  501    0  0.00000000000E+00  0.00000000000E+00 -0.13089345517E+04  0.13089345517E+04  0.25500000920E-02 0. -1.
    10030    2    1    2    0    0  0.00000000000E+00  0.00000000000E+00  0.14486361210E+04  0.40665052245E+04  0.37997260598E+04 0.  0.
        5    1    3    3  502    0 -0.86904165480E+02  0.11317289669E+04  0.23547980487E+04  0.26140885082E+04  0.46999998093E+01 0.  1.
       -5    1    3    3    0  502  0.86904165480E+02 -0.11317289669E+04 -0.90616192772E+03  0.14524167163E+04  0.46999998093E+01 0. -1.
</event>
<event>
 5   0  0.6661000E-08  0.3817601E+04  0.7818609E-02  0.8042388E-01
       -1   -1    0    0    0  501  0.00000000000E+00  0.00000000000E+00  0.18978779703E+04  0.18978779703E+04  0.50400001928E-02 0.  1.
        1   -1    0    0  501    0  0.00000000000E+00  0.00000000000E+00 -0.19197862756E+04  0.19197862756E+04  0.50400001928E-02 0. -1.
    10030    2    1    2    0    0  0.00000000000E+00  0.00000000000E+00 -0.21908305263E+02  0.38176642459E+04  0.38176013831E+04 0.  0.
        4    1    3    3  502    0 -0.79184949965E+03  0.85874539400E+03 -0.15206310195E+04  0.19174956563E+04  0.12699999809E+01 0.  1.
       -4    1    3    3    0  502  0.79184949965E+03 -0.85874539400E+03  0.14987227142E+04  0.19001685896E+04  0.12699999809E+01 0. -1.
</event>
<event>
 5   0  0.1370688E-07  0.3715131E+04  0.7818609E-02  0.8064617E-01
        2   -1    0    0  501    0  0.00000000000E+00  0.00000000000E+00  0.14834187995E+04  0.14834187995E+04  0.25500000920E-02 0. -1.
       -2   -1    0    0    0  501  0.00000000000E+00  0.00000000000E+00 -0.23260797403E+04  0.23260797403E+04  0.25500000920E-02 0.  1.
    10030    2    1    2    0    0  0.00000000000E+00  0.00000000000E+00 -0.84266094082E+03  0.38094985399E+04  0.37151314464E+04 0.  0.
        5    1    3    3  502    0 -0.15672803214E+04 -0.67535164499E+03  0.33082797157E+03  0.17383718495E+04  0.46999998093E+01 0. -1.
       -5    1    3    3    0  502  0.15672803214E+04  0.67535164499E+03 -0.11734889124E+04  0.20711266904E+04  0.46999998093E+01 0.  1.
</event>
<event>
 5   0  0.6661000E-08  0.3831533E+04  0.7818609E-02  0.8039422E-01
       -1   -1    0    0    0  501  0.00000000000E+00  0.00000000000E+00  0.18932323075E+04  0.18932323075E+04  0.50400001928E-02 0. -1.
        1   -1    0    0  501    0  0.00000000000E+00  0.00000000000E+00 -0.19385689473E+04  0.19385689473E+04  0.50400001928E-02 0.  1.
    10030    2    1    2    0    0  0.00000000000E+00  0.00000000000E+00 -0.45336639812E+02  0.38318012549E+04  0.38315330412E+04 0.  0.
        2    1    3    3  502    0  0.15640206102E+04 -0.11062522430E+04 -0.37052208794E+02  0.19160708130E+04  0.25500000920E-02 0.  1.
       -2    1    3    3    0  502 -0.15640206102E+04  0.11062522430E+04 -0.82844310181E+01  0.19157304419E+04  0.25500000920E-02 0. -1.
</event>
<event>
 5   0  0.2081337E-07  0.3768293E+04  0.7818609E-02  0.8052994E-01
        2   -1    0    0  501    0  0.00000000000E+00  0.00000000000E+00  0.29133459938E+04  0.29133459938E+04  0.25500000920E-02 0.  1.
       -2   -1    0    0    0  501  0.00000000000E+00  0.00000000000E+00 -0.12185327307E+04  0.12185327307E+04  0.25500000920E-02 0. -1.
    10030    2    1    2    0    0  0.00000000000E+00  0.00000000000E+00  0.16948132631E+04  0.41318787245E+04  0.37682926900E+04 0.  0.
        1    1    3    3  502    0 -0.12573896747E+04 -0.13958797917E+04  0.10043928262E+04  0.21303319310E+04  0.50400001928E-02 0.  1.
       -1    1    3    3    0  502  0.12573896747E+04  0.13958797917E+04  0.69042043689E+03  0.20015467935E+04  0.50400001928E-02 0. -1.
</event>
<event>
 5   0  0.2205204E-07  0.3771043E+04  0.7818609E-02  0.8052398E-01
        2   -1    0    0  501    0  0.00000000000E+00  0.00000000000E+00  0.20538278800E+04  0.20538278800E+04  0.25500000920E-02 0.  1.
       -2   -1    0    0    0  501  0.00000000000E+00  0.00000000000E+00 -0.17310071320E+04  0.17310071320E+04  0.25500000920E-02 0. -1.
    10030    2    1    2    0    0  0.00000000000E+00  0.00000000000E+00  0.32282074797E+03  0.37848350120E+04  0.37710426718E+04 0.  0.
        2    1    3    3  502    0 -0.23338791534E+03  0.18661720842E+04  0.26298021558E+02  0.18808933390E+04  0.25500000920E-02 0. -1.
       -2    1    3    3    0  502  0.23338791534E+03 -0.18661720842E+04  0.29652272641E+03  0.19039416730E+04  0.25500000920E-02 0.  1.
</event>
<event>
 5   0  0.6725199E-08  0.3770610E+04  0.7818609E-02  0.8052491E-01
       -1   -1    0    0    0  501  0.00000000000E+00  0.00000000000E+00  0.16956990347E+04  0.16956990347E+04  0.50400001928E-02 0. -1.
        1   -1    0    0  501    0  0.00000000000E+00  0.00000000000E+00 -0.20961123090E+04  0.20961123090E+04  0.50400001928E-02 0.  1.
    10030    2    1    2    0    0  0.00000000000E+00  0.00000000000E+00 -0.40041327425E+03  0.37918113437E+04  0.37706103586E+04 0.  0.
        5    1    3    3  502    0 -0.46491712891E+03 -0.11520108994E+04 -0.16263045971E+04  0.20465008629E+04  0.46999998093E+01 0.  1.
       -5    1    3    3    0  502  0.46491712891E+03  0.11520108994E+04  0.12258913228E+04  0.17453104809E+04  0.46999998093E+01 0. -1.
</event>
<event>
 5   0  0.6661000E-08  0.3796429E+04  0.7818609E-02  0.8046922E-01
        1   -1    0    0  501    0  0.00000000000E+00  0.00000000000E+00  0.27247062278E+04  0.27247062278E+04  0.50400001928E-02 0.  1.
       -1   -1    0    0    0  501  0.00000000000E+00  0.00000000000E+00 -0.13224247470E+04  0.13224247470E+04  0.50400001928E-02 0. -1.
    10030    2    1    2    0    0  0.00000000000E+00  0.00000000000E+00  0.14022814808E+04  0.40471309748E+04  0.37964293455E+04 0.  0.
        4    1    3    3  502    0  0.16375267464E+04 -0.86850095813E+03  0.11373431103E+04  0.21747042840E+04  0.12699999809E+01 0.  1.
       -4    1    3    3    0  502 -0.16375267464E+04  0.86850095813E+03  0.26493837055E+03  0.18724266908E+04  0.12699999809E+01 0. -1.
</event>
<event>
 5   0  0.6661000E-08  0.3789137E+04  0.7818609E-02  0.8048490E-01
       -3   -1    0    0    0  501  0.00000000000E+00  0.00000000000E+00  0.19710037127E+04  0.19710037153E+04  0.10100000352E+00 0. -1.
        3   -1    0    0  501    0  0.00000000000E+00  0.00000000000E+00 -0.18210976500E+04  0.18210976528E+04  0.10100000352E+00 0.  1.
    10030    2    1    2    0    0  0.00000000000E+00  0.00000000000E+00  0.14990606276E+03  0.37921013681E+04  0.37891372313E+04 0.  0.
        2    1    3    3  502    0  0.98986323231E+03 -0.34093451501E+03  0.16552147566E+04  0.19585202201E+04  0.25500000920E-02 0. -1.
       -2    1    3    3    0  502 -0.98986323231E+03  0.34093451501E+03 -0.15053086939E+04  0.18335811479E+04  0.25500000920E-02 0.  1.
</event>
<event>
 5   0  0.2135314E-07  0.3810836E+04  0.7818609E-02  0.8043833E-01
       -2   -1    0    0    0  501  0.00000000000E+00  0.00000000000E+00  0.15181299213E+04  0.15181299213E+04  0.25500000920E-02 0. -1.
        2   -1    0    0  501    0  0.00000000000E+00  0.00000000000E+00 -0.23915069443E+04  0.23915069443E+04  0.25500000920E-02 0.  1.
    10030    2    1    2    0    0  0.00000000000E+00  0.00000000000E+00 -0.87337702302E+03  0.39096368656E+04  0.38108362595E+04 0.  0.
        4    1    3    3  502    0 -0.18752501664E+04  0.14798432194E+03 -0.74812782970E+03  0.20243911205E+04  0.12699999809E+01 0.  1.
       -4    1    3    3    0  502  0.18752501664E+04 -0.14798432194E+03 -0.12524919332E+03  0.18852457451E+04  0.12699999809E+01 0. -1.
</event>
<event>
 5   0  0.1370688E-07  0.3775892E+04  0.7818609E-02  0.8051348E-01
        2   -1    0    0  501    0  0.00000000000E+00  0.00000000000E+00  0.23630760703E+04  0.23630760703E+04  0.25500000920E-02 0. -1.
       -2   -1    0    0    0  501  0.00000000000E+00  0.00000000000E+00 -0.15083478101E+04  0.15083478101E+04  0.25500000920E-02 0.  1.
    10030    2    1    2    0    0  0.00000000000E+00  0.00000000000E+00  0.85472826018E+03  0.38714238804E+04  0.37758922738E+04 0.  0.
        5    1    3    3  502    0  0.11162117041E+04  0.12061942350E+04  0.13801134226E+04  0.21460587713E+04  0.46999998093E+01 0. -1.
       -5    1    3    3    0  502 -0.11162117041E+04 -0.12061942350E+04 -0.52538516237E+03  0.17253651091E+04  0.46999998093E+01 0.  1.
</event>
<event>
 5   0  0.6661000E-08  0.3768276E+04  0.7818609E-02  0.8052997E-01
        1   -1    0    0  501    0  0.00000000000E+00  0.00000000000E+00  0.21576389951E+04  0.21576389951E+04  0.50400001928E-02 0. -1.
       -1   -1    0    0    0  501  0.00000000000E+00  0.00000000000E+00 -0.16453055080E+04  0.16453055080E+04  0.50400001928E-02 0.  1.
    10030    2    1    2    0    0  0.00000000000E+00  0.00000000000E+00  0.51233348706E+03  0.38029445031E+04  0.37682756390E+04 0.  0.
        4    1    3    3  502    0 -0.58521610023E+03 -0.93953965483E+03  0.17949111476E+04  0.21087722228E+04  0.12699999809E+01 0. -1.
       -4    1    3    3    0  502  0.58521610023E+03  0.93953965483E+03 -0.12825776606E+04  0.16941722803E+04  0.12699999809E+01 0.  1.
</event>
<event>
 5   0  0.2135314E-07  0.3783430E+04  0.7818609E-02  0.8049720E-01
       -2   -1    0    0    0  501  0.00000000000E+00  0.00000000000E+00  0.11542462977E+04  0.11542462977E+04  0.25500000920E-02 0. -1.
        2   -1    0    0  501    0  0.00000000000E+00  0.00000000000E+00 -0.31003652138E+04  0.31003652138E+04  0.25500000920E-02 0.  1.
    10030    2    1    2    0    0  0.00000000000E+00  0.00000000000E+00 -0.19461189161E+04  0.42546115115E+04  0.37834296978E+04 0.  0.
        4    1    3    3  502    0  0.11676442879E+04  0.48769252349E+02  0.69975003710E+03  0.13621392551E+04  0.12699999809E+01 0. -1.
       -4    1    3    3    0  502 -0.11676442879E+04 -0.48769252349E+02 -0.26458689532E+04  0.28924722563E+04  0.12699999809E+01 0.  1.
</event>
<event>
 5   0  0.6725199E-08  0.3777016E+04  0.7818609E-02  0.8051105E-01
        1   -1    0    0  501    0  0.00000000000E+00  0.00000000000E+00  0.26367320592E+04  0.26367320592E+04  0.50400001928E-02 0.  1.
       -1   -1    0    0    0  501  0.00000000000E+00  0.00000000000E+00 -0.13526074354E+04  0.13526074354E+04  0.50400001928E-02 0. -1.
    10030    2    1    2    0    0  0.00000000000E+00  0.00000000000E+00  0.12841246238E+04  0.39893394946E+04  0.37770164884E+04 0.  0.
        5    1    3    3  502    0  0.25719024688E+03 -0.75226878972E+03  0.24513629960E+04  0.25770637911E+04  0.46999998093E+01 0.  1.
       -5    1    3    3    0  502 -0.25719024688E+03  0.75226878972E+03 -0.11672383722E+04  0.14122757035E+04  0.46999998093E+01 0. -1.
</event>
<event>
 5   0  0.6661000E-08  0.3829654E+04  0.7818609E-02  0.8039821E-01
       -1   -1    0    0    0  501  0.00000000000E+00  0.00000000000E+00  0.28875580379E+04  0.28875580379E+04  0.50400001928E-02 0. -1.
        1   -1    0    0  501    0  0.00000000000E+00  0.00000000000E+00 -0.12697797577E+04  0.12697797577E+04  0.50400001928E-02 0.  1.
    10030    2    1    2    0    0  0.00000000000E+00  0.00000000000E+00  0.16177782803E+04  0.41573377956E+04  0.38296541597E+04 0.  0.
        3    1    3    3  502    0  0.16806545265E+04 -0.11740509792E+03  0.17968003222E+04  0.24631027186E+04  0.10100000352E+00 0. -1.
       -3    1    3    3    0  502 -0.16806545265E+04  0.11740509792E+03 -0.17902204193E+03  0.16942350770E+04  0.10100000352E+00 0.  1.
</event>
<event>
 5   0  0.6661000E-08  0.3811716E+04  0.7818609E-02  0.8043645E-01
        1   -1    0    0  501    0  0.00000000000E+00  0.00000000000E+00  0.27325288056E+04  0.27325288056E+04  0.50400001928E-02 0.  1.
       -1   -1    0    0    0  501  0.00000000000E+00  0.00000000000E+00 -0.13292796646E+04  0.13292796646E+04  0.50400001928E-02 0. -1.
    10030    2    1    2    0    0  0.00000000000E+00  0.00000000000E+00  0.14032491410E+04  0.40618084702E+04  0.38117161354E+04 0.  0.
        2    1    3    3  502    0  0.77201114564E+03 -0.16763756347E+04  0.12082760415E+04  0.22059391356E+04  0.25500000920E-02 0.  1.
       -2    1    3    3    0  502 -0.77201114564E+03  0.16763756347E+04  0.19497309945E+03  0.18558693346E+04  0.25500000920E-02 0. -1.
</event>
<event>
 5   0  0.6661000E-08  0.3791301E+04  0.7818609E-02  0.8048024E-01
       -1   -1    0    0    0  501  0.00000000000E+00  0.00000000000E+00  0.16421241455E+04  0.16421241455E+04  0.50400001928E-02 0.  1.
        1   -1    0    0  501    0  0.00000000000E+00  0.00000000000E+00 -0.21883182360E+04  0.21883182360E+04  0.50400001928E-02 0. -1.
    10030    2    1    2    0    0  0.00000000000E+00  0.00000000000E+00 -0.54619409052E+03  0.38304423815E+04  0.37913006810E+04 0.  0.
        2    1    3    3  502    0  0.14707273673E+04  0.10590687877E+04  0.28836008008E+03  0.18351613613E+04  0.25500000920E-02 0.  1.
       -2    1    3    3    0  502 -0.14707273673E+04 -0.10590687877E+04 -0.83455417059E+03  0.19952810202E+04  0.25500000920E-02 0. -1.
</event>
<event>
 5   0  0.6661000E-08  0.3810903E+04  0.7818609E-02  0.8043819E-01
        1   -1    0    0  501    0  0.00000000000E+00  0.00000000000E+00  0.26827803177E+04  0.26827803177E+04  0.50400001928E-02 0. -1.
       -1   -1    0    0    0  501  0.00000000000E+00  0.00000000000E+00 -0.13533515655E+04  0.13533515655E+04  0.50400001928E-02 0.  1.
    10030    2    1    2    0    0  0.00000000000E+00  0.00000000000E+00  0.13294287522E+04  0.40361318833E+04  0.38109027503E+04 0.  0.
        1    1    3    3  502    0  0.10212148177E+04  0.22090012945E+03  0.23523344410E+04  0.25739374300E+04  0.50400001928E-02 0. -1.
       -1    1    3    3    0  502 -0.10212148177E+04 -0.22090012945E+03 -0.10229056888E+04  0.14621944533E+04  0.50400001928E-02 0.  1.
</event>
<event>
 5   0  0.6725199E-08  0.3816547E+04  0.7818609E-02  0.8042613E-01
        1   -1    0    0  501    0  0.00000000000E+00  0.00000000000E+00  0.13392623219E+04  0.13392623219E+04  0.50400001928E-02 0.  1.
       -1   -1    0    0    0  501  0.00000000000E+00  0.00000000000E+00 -0.27190403843E+04  0.27190403843E+04  0.50400001928E-02 0. -1.
    10030    2    1    2    0    0  0.00000000000E+00  0.00000000000E+00 -0.13797780624E+04  0.40583027062E+04  0.38165473079E+04 0.  0.
        5    1    3    3  502    0  0.15930625241E+04  0.38326425565E+03 -0.17299821922E+04  0.23827715314E+04  0.46999998093E+01 0. -1.
       -5    1    3    3    0  502 -0.15930625241E+04 -0.38326425565E+03  0.35020412981E+03  0.16755311748E+04  0.46999998093E+01 0.  1.
</event>
<event>
 5   0  0.6661000E-08  0.3810058E+04  0.7818609E-02  0.8044000E-01
       -1   -1    0    0    0  501  0.00000000000E+00  0.00000000000E+00  0.27524448454E+04  0.27524448454E+04  0.50400001928E-02 0. -1.
        1   -1    0    0  501    0  0.00000000000E+00  0.00000000000E+00 -0.13185135464E+04  0.13185135464E+04  0.50400001928E-02 0.  1.
    10030    2    1    2    0    0  0.00000000000E+00  0.00000000000E+00  0.14339312989E+04  0.40709583918E+04  0.38100581699E+04 0.  0.
        2    1    3    3  502    0 -0.84160297967E+03  0.16410825898E+03  0.25346039751E+04  0.26757138125E+04  0.25500000920E-02 0. -1.
       -2    1    3    3    0  502  0.84160297967E+03 -0.16410825898E+03 -0.11006726761E+04  0.13952445793E+04  0.25500000920E-02 0.  1.
</event>
<event>
 5   0  0.2135314E-07  0.3784808E+04  0.7818609E-02  0.8049423E-01
        2   -1    0    0  501    0  0.00000000000E+00  0.00000000000E+00  0.26419155692E+04  0.26419155692E+04  0.25500000920E-02 0. -1.
       -2   -1    0    0    0  501  0.00000000000E+00  0.00000000000E+00 -0.13555292175E+04  0.13555292175E+04  0.25500000920E-02 0.  1.
    10030    2    1    2    0    0  0.00000000000E+00  0.00000000000E+00  0.12863863518E+04  0.39974447867E+04  0.37848084465E+04 0.  0.
        4    1    3    3  502    0  0.14125034049E+04 -0.58524959482E+03 -0.53458381734E+03  0.16197112174E+04  0.12699999809E+01 0.  1.
       -4    1    3    3    0  502 -0.14125034049E+04  0.58524959482E+03  0.18209701691E+04  0.23777335693E+04  0.12699999809E+01 0. -1.
</event>
<event>
 5   0  0.2135314E-07  0.3797353E+04  0.7818609E-02  0.8046723E-01
       -2   -1    0    0    0  501  0.00000000000E+00  0.00000000000E+00  0.19714280031E+04  0.19714280031E+04  0.25500000920E-02 0. -1.
        2   -1    0    0  501    0  0.00000000000E+00  0.00000000000E+00 -0.18286098560E+04  0.18286098560E+04  0.25500000920E-02 0.  1.
    10030    2    1    2    0    0  0.00000000000E+00  0.00000000000E+00  0.14281814710E+03  0.38000378590E+04  0.37973531185E+04 0.  0.
        4    1    3    3  502    0  0.96854777235E+03  0.17309097489E+03  0.16964185315E+04  0.19610922263E+04  0.12699999809E+01 0. -1.
       -4    1    3    3    0  502 -0.96854777235E+03 -0.17309097489E+03 -0.15536003844E+04  0.18389456328E+04  0.12699999809E+01 0.  1.
</event>
<event>
 5   0  0.2081337E-07  0.3824325E+04  0.7818609E-02  0.8040955E-01
        2   -1    0    0  501    0  0.00000000000E+00  0.00000000000E+00  0.29339755786E+04  0.29339755786E+04  0.25500000920E-02 0. -1.
       -2   -1    0    0    0  501  0.00000000000E+00  0.00000000000E+00 -0.12462154440E+04  0.12462154440E+04  0.25500000920E-02 0.  1.
    10030    2    1    2    0    0  0.00000000000E+00  0.00000000000E+00  0.16877601346E+04  0.41801910227E+04  0.38243251318E+04 0.  0.
        1    1    3    3  502    0  0.10792300531E+04  0.87529283437E+03  0.22796922130E+04  0.26698074161E+04  0.50400001928E-02 0. -1.
       -1    1    3    3    0  502 -0.10792300531E+04 -0.87529283437E+03 -0.59193207838E+03  0.15103836065E+04  0.50400001928E-02 0.  1.
</event>
<event>
 5   0  0.6661000E-08  0.3881009E+04  0.7818609E-02  0.8028991E-01
        1   -1    0    0  501    0  0.00000000000E+00  0.00000000000E+00  0.23388280916E+04  0.23388280916E+04  0.50400001928E-02 0. -1.
       -1   -1    0    0    0  501  0.00000000000E+00  0.00000000000E+00 -0.16100186892E+04  0.16100186892E+04  0.50400001928E-02 0.  1.
    10030    2    1    2    0    0  0.00000000000E+00  0.00000000000E+00  0.72880940240E+03  0.39488467808E+04  0.38810085999E+04 0.  0.
        4    1    3    3  502    0  0.15220867259E+03  0.84164136100E+03  0.21366973909E+04  0.23015223253E+04  0.12699999809E+01 0. -1.
       -4    1    3    3    0  502 -0.15220867259E+03 -0.84164136100E+03 -0.14078879885E+04  0.16473244555E+04  0.12699999809E+01 0.  1.
</event>
<event>
 5   0  0.6661000E-08  0.3808903E+04  0.7818609E-02  0.8044247E-01
       -1   -1    0    0    0  501  0.00000000000E+00  0.00000000000E+00  0.19292555650E+04  0.19292555651E+04  0.50400001928E-02 0. -1.
        1   -1    0    0  501    0  0.00000000000E+00  0.00000000000E+00 -0.18799660274E+04  0.18799660274E+04  0.50400001928E-02 0.  1.
    10030    2    1    2    0    0  0.00000000000E+00  0.00000000000E+00  0.49289537661E+02  0.38092215924E+04  0.38089026874E+04 0.  0.
        4    1    3    3  502    0 -0.10209904216E+03 -0.28844976785E+03 -0.18552215855E+04  0.18802862088E+04  0.12699999809E+01 0.  1.
       -4    1    3    3    0  502  0.10209904216E+03  0.28844976785E+03  0.19045111232E+04  0.19289353836E+04  0.12699999809E+01 0. -1.
</event>
<event>
 5   0  0.1370688E-07  0.3790419E+04  0.7818609E-02  0.8048214E-01
        2   -1    0    0  501    0  0.00000000000E+00  0.00000000000E+00  0.19789557254E+04  0.19789557254E+04  0.25500000920E-02 0. -1.
       -2   -1    0    0    0  501  0.00000000000E+00  0.00000000000E+00 -0.18150074954E+04  0.18150074955E+04  0.25500000920E-02 0.  1.
    10030    2    1    2    0    0  0.00000000000E+00  0.00000000000E+00  0.16394822994E+03  0.37939632208E+04  0.37904192247E+04 0.  0.
        5    1    3    3  502    0  0.99323409820E+02 -0.11239801796E+04  0.16060930589E+04  0.19628432407E+04  0.46999998093E+01 0. -1.
       -5    1    3    3    0  502 -0.99323409820E+02  0.11239801796E+04 -0.14421448289E+04  0.18311199801E+04  0.46999998093E+01 0.  1.
</event>
<event>
 5   0  0.6725199E-08  0.3818262E+04  0.7818609E-02  0.8042247E-01
       -1   -1    0    0    0  501  0.00000000000E+00  0.00000000000E+00  0.10548320219E+04  0.10548320219E+04  0.50400001928E-02 0.  1.
        1   -1    0    0  501    0  0.00000000000E+00  0.00000000000E+00 -0.34553196615E+04  0.34553196615E+04  0.50400001928E-02 0. -1.
    10030    2    1    2    0    0  0.00000000000E+00  0.00000000000E+00 -0.24004876395E+04  0.45101516834E+04  0.38182623403E+04 0.  0.
        5    1    3    3  502    0  0.18952257550E+04  0.63278994036E+02 -0.14613806119E+04  0.23940635489E+04  0.46999998093E+01 0. -1.
       -5    1    3    3    0  502 -0.18952257550E+04 -0.63278994036E+02 -0.93910702762E+03  0.21160881344E+04  0.46999998093E+01 0.  1.
</event>
<event>
 5   0  0.6725199E-08  0.3808223E+04  0.7818609E-02  0.8044393E-01
        1   -1    0    0  501    0  0.00000000000E+00  0.00000000000E+00  0.27926371210E+04  0.27926371210E+04  0.50400001928E-02 0.  1.
       -1   -1    0    0    0  501  0.00000000000E+00  0.00000000000E+00 -0.12982852753E+04  0.12982852753E+04  0.50400001928E-02 0. -1.
    10030    2    1    2    0    0  0.00000000000E+00  0.00000000000E+00  0.14943518457E+04  0.40909223963E+04  0.38082225006E+04 0.  0.
        5    1    3    3  502    0 -0.18697275660E+04  0.29664826905E+03  0.96663591652E+03  0.21256266022E+04  0.46999998093E+01 0.  1.
       -5    1    3    3    0  502  0.18697275660E+04 -0.29664826905E+03  0.52771592920E+03  0.19652957942E+04  0.46999998093E+01 0. -1.
</event>
<event>
 5   0  0.2205204E-07  0.3852148E+04  0.7818609E-02  0.8035056E-01
        2   -1    0    0  501    0  0.00000000000E+00  0.00000000000E+00  0.15170740141E+04  0.15170740141E+04  0.25500000920E-02 0. -1.
       -2   -1    0    0    0  501  0.00000000000E+00  0.00000000000E+00 -0.24453393755E+04  0.24453393755E+04  0.25500000920E-02 0.  1.
    10030    2    1    2    0    0  0.00000000000E+00  0.00000000000E+00 -0.92826536144E+03  0.39624133895E+04  0.38521478799E+04 0.  0.
        2    1    3    3  502    0  0.11729218462E+04 -0.14705606176E+04 -0.89007093239E+03  0.20809902575E+04  0.25500000920E-02 0.  1.
       -2    1    3    3    0  502 -0.11729218462E+04  0.14705606176E+04 -0.38194429044E+02  0.18814231320E+04  0.25500000920E-02 0. -1.
</event>
<event>
 5   0  0.6661000E-08  0.3791886E+04  0.7818609E-02  0.8047898E-01
        1   -1    0    0  501    0  0.00000000000E+00  0.00000000000E+00  0.19596670883E+04  0.19596670883E+04  0.50400001928E-02 0.  1.
       -1   -1    0    0    0  501  0.00000000000E+00  0.00000000000E+00 -0.18342913382E+04  0.18342913382E+04  0.50400001928E-02 0. -1.
    10030    2    1    2    0    0  0.00000000000E+00  0.00000000000E+00  0.12537575011E+03  0.37939584264E+04  0.37918862671E+04 0.  0.
        3    1    3    3  502    0 -0.38335070986E+03 -0.13776390380E+04 -0.11828832895E+04  0.18558178716E+04  0.10100000352E+00 0. -1.
       -3    1    3    3    0  502  0.38335070986E+03  0.13776390380E+04  0.13082590396E+04  0.19381405549E+04  0.10100000352E+00 0.  1.
</event>
<event>
 5   0  0.2203998E-07  0.3769863E+04  0.7818609E-02  0.8052653E-01
        2   -1    0    0  501    0  0.00000000000E+00  0.00000000000E+00  0.20230058827E+04  0.20230058827E+04  0.25500000920E-02 0.  1.
       -2   -1    0    0    0  501  0.00000000000E+00  0.00000000000E+00 -0.17562812740E+04  0.17562812740E+04  0.25500000920E-02 0. -1.
    10030    2    1    2    0    0  0.00000000000E+00  0.00000000000E+00  0.26672460873E+03  0.37792871567E+04  0.37698633126E+04 0.  0.
        3    1    3    3  502    0 -0.11683430021E+04  0.78771605290E+03  0.13884685679E+04  0.19782231737E+04  0.10100000352E+00 0.  1.
       -3    1    3    3    0  502  0.11683430021E+04 -0.78771605290E+03 -0.11217439592E+04  0.18010639830E+04  0.10100000352E+00 0. -1.
</event>
<event>
 5   0  0.6661000E-08  0.3793213E+04  0.7818609E-02  0.8047613E-01
        3   -1    0    0  501    0  0.00000000000E+00  0.00000000000E+00  0.25052208116E+04  0.25052208136E+04  0.10100000352E+00 0.  1.
       -3   -1    0    0    0  501  0.00000000000E+00  0.00000000000E+00 -0.14358476609E+04  0.14358476645E+04  0.10100000352E+00 0. -1.
    10030    2    1    2    0    0  0.00000000000E+00  0.00000000000E+00  0.10693731507E+04  0.39410684781E+04  0.37932125980E+04 0.  0.
        2    1    3    3  502    0  0.96319196055E+03  0.15749359236E+04  0.98631816354E+03  0.20930803702E+04  0.25500000920E-02 0. -1.
       -2    1    3    3    0  502 -0.96319196055E+03 -0.15749359236E+04  0.83054987119E+02  0.18479881079E+04  0.25500000920E-02 0.  1.
</event>
<event>
 5   0  0.2135314E-07  0.3788526E+04  0.7818609E-02  0.8048622E-01
       -2   -1    0    0    0  501  0.00000000000E+00  0.00000000000E+00  0.18044711387E+04  0.18044711387E+04  0.25500000920E-02 0.  1.
        2   -1    0    0  501    0  0.00000000000E+00  0.00000000000E+00 -0.19885224563E+04  0.19885224563E+04  0.25500000920E-02 0. -1.
    10030    2    1    2    0    0  0.00000000000E+00  0.00000000000E+00 -0.18405131761E+03  0.37929935950E+04  0.37885255079E+04 0.  0.
        4    1    3    3  502    0  0.12116137942E+04 -0.13140491156E+04 -0.72005862793E+03  0.19269714852E+04  0.12699999809E+01 0. -1.
       -4    1    3    3    0  502 -0.12116137942E+04  0.13140491156E+04  0.53600731032E+03  0.18660221097E+04  0.12699999809E+01 0.  1.
</event>
<event>
 5   0  0.2135314E-07  0.3777577E+04  0.7818609E-02  0.8050984E-01
       -2   -1    0    0    0  501  0.00000000000E+00  0.00000000000E+00  0.23484793585E+04  0.23484793585E+04  0.25500000920E-02 0.  1.
        2   -1    0    0  501    0  0.00000000000E+00  0.00000000000E+00 -0.15190771234E+04  0.15190771234E+04  0.25500000920E-02 0. -1.
    10030    2    1    2    0    0  0.00000000000E+00  0.00000000000E+00  0.82940223514E+03  0.38675564819E+04  0.37775766138E+04 0.  0.
        4    1    3    3  502    0 -0.12651812462E+04  0.13460436732E+04  0.81778249549E+03  0.20202195372E+04  0.12699999809E+01 0.  1.
       -4    1    3    3    0  502  0.12651812462E+04 -0.13460436732E+04  0.11619739653E+02  0.18473369447E+04  0.12699999809E+01 0. -1.
</event>
<event>
 5   0  0.6661000E-08  0.3797909E+04  0.7818609E-02  0.8046604E-01
       -1   -1    0    0    0  501  0.00000000000E+00  0.00000000000E+00  0.19647997887E+04  0.19647997887E+04  0.50400001928E-02 0.  1.
        1   -1    0    0  501    0  0.00000000000E+00  0.00000000000E+00 -0.18353161209E+04  0.18353161209E+04  0.50400001928E-02 0. -1.
    10030    2    1    2    0    0  0.00000000000E+00  0.00000000000E+00  0.12948366782E+03  0.38001159096E+04  0.37979092809E+04 0.  0.
        2    1    3    3  502    0 -0.71596308263E+03  0.41489868958E+02  0.18240876942E+04  0.19600052197E+04  0.25500000920E-02 0.  1.
       -2    1    3    3    0  502  0.71596308263E+03 -0.41489868958E+02 -0.16946040264E+04  0.18401106899E+04  0.25500000920E-02 0. -1.
</event>
<event>
 5   0  0.2081337E-07  0.3800519E+04  0.7818609E-02  0.8046044E-01
        2   -1    0    0  501    0  0.00000000000E+00  0.00000000000E+00  0.21284290822E+04  0.21284290822E+04  0.25500000920E-02 0.  1.
       -2   -1    0    0    0  501  0.00000000000E+00  0.00000000000E+00 -0.16965495408E+04  0.16965495408E+04  0.25500000920E-02 0. -1.
    10030    2    1    2    0    0  0.00000000000E+00  0.00000000000E+00  0.43187954140E+03  0.38249786230E+04  0.38005185867E+04 0.  0.
        1    1    3    3  502    0 -0.11202352311E+04  0.27857653546E+03  0.17351092914E+04  0.20840192207E+04  0.50400001928E-02 0.  1.
       -1    1    3    3    0  502  0.11202352311E+04 -0.27857653546E+03 -0.13032297500E+04  0.17409594023E+04  0.50400001928E-02 0. -1.
</event>
<event>
 5   0  0.6661000E-08  0.3854061E+04  0.7818609E-02  0.8034652E-01
        1   -1    0    0  501    0  0.00000000000E+00  0.00000000000E+00  0.18328334312E+04  0.18328334312E+04  0.50400001928E-02 0.  1.
       -1   -1    0    0    0  501  0.00000000000E+00  0.00000000000E+00 -0.20260687900E+04  0.20260687900E+04  0.50400001928E-02 0. -1.
    10030    2    1    2    0    0  0.00000000000E+00  0.00000000000E+00 -0.19323535876E+03  0.38589022212E+04  0.38540610334E+04 0.  0.
        1    1    3    3  502    0 -0.16849545164E+03  0.24078172910E+03 -0.20034994059E+04  0.20249386232E+04  0.50400001928E-02 0. -1.
       -1    1    3    3    0  502  0.16849545164E+03 -0.24078172910E+03  0.18102640472E+04  0.18339635980E+04  0.50400001928E-02 0.  1.
</event>
<event>
 5   0  0.6725199E-08  0.3931308E+04  0.7818609E-02  0.8018549E-01
        1   -1    0    0  501    0  0.00000000000E+00  0.00000000000E+00  0.27599327071E+04  0.27599327071E+04  0.50400001928E-02 0. -1.
       -1   -1    0    0    0  501  0.00000000000E+00  0.00000000000E+00 -0.13999598334E+04  0.13999598334E+04  0.50400001928E-02 0.  1.
    10030    2    1    2    0    0  0.00000000000E+00  0.00000000000E+00  0.13599728737E+04  0.41598925405E+04  0.39313076363E+04 0.  0.
        5    1    3    3  502    0 -0.16127200286E+04  0.68267962414E+03 -0.26458512171E+03  0.17711422124E+04  0.46999998093E+01 0.  1.
       -5    1    3    3    0  502  0.16127200286E+04 -0.68267962414E+03  0.16245579954E+04  0.23887503282E+04  0.46999998093E+01 0. -1.
</event>
<event>
 5   0  0.2081337E-07  0.3796497E+04  0.7818609E-02  0.8046907E-01
       -2   -1    0    0    0  501  0.00000000000E+00  0.00000000000E+00  0.16241990445E+04  0.16241990445E+04  0.25500000920E-02 0. -1.
        2   -1    0    0  501    0  0.00000000000E+00  0.00000000000E+00 -0.22185382891E+04  0.22185382891E+04  0.25500000920E-02 0.  1.
    10030    2    1    2    0    0  0.00000000000E+00  0.00000000000E+00 -0.59433924459E+03  0.38427373337E+04  0.37964972116E+04 0.  0.
        1    1    3    3  502    0 -0.46607792543E+03 -0.14713276674E+04  0.82142129319E+03  0.17483611407E+04  0.50400001928E-02 0. -1.
       -1    1    3    3    0  502  0.46607792543E+03  0.14713276674E+04 -0.14157605378E+04  0.20943761930E+04  0.50400001928E-02 0.  1.
</event>
<event>
 5   0  0.6725199E-08  0.3812066E+04  0.7818609E-02  0.8043571E-01
       -1   -1    0    0    0  501  0.00000000000E+00  0.00000000000E+00  0.24837484574E+04  0.24837484574E+04  0.50400001928E-02 0.  1.
        1   -1    0    0  501    0  0.00000000000E+00  0.00000000000E+00 -0.14626927664E+04  0.14626927664E+04  0.50400001928E-02 0. -1.
    10030    2    1    2    0    0  0.00000000000E+00  0.00000000000E+00  0.10210556910E+04  0.39464412238E+04  0.38120655305E+04 0.  0.
        5    1    3    3  502    0 -0.10694796926E+04 -0.15739086754E+04  0.39729457298E+03  0.19439239695E+04  0.46999998093E+01 0.  1.
       -5    1    3    3    0  502  0.10694796926E+04  0.15739086754E+04  0.62376111802E+03  0.20025172543E+04  0.46999998093E+01 0. -1.
</event>
<event>
 5   0  0.6661000E-08  0.3803279E+04  0.7818609E-02  0.8045452E-01
       -1   -1    0    0    0  501  0.00000000000E+00  0.00000000000E+00  0.23785984700E+04  0.23785984700E+04  0.50400001928E-02 0. -1.
        1   -1    0    0  501    0  0.00000000000E+00  0.00000000000E+00 -0.15203211226E+04  0.15203211226E+04  0.50400001928E-02 0.  1.
    10030    2    1    2    0    0  0.00000000000E+00  0.00000000000E+00  0.85827734739E+03  0.38989195926E+04  0.38032793724E+04 0.  0.
        3    1    3    3  502    0 -0.16283340947E+04 -0.75384526958E+03 -0.21636107150E+03  0.18073645836E+04  0.10100000352E+00 0. -1.
       -3    1    3    3    0  502  0.16283340947E+04  0.75384526958E+03  0.10746384189E+04  0.20915550091E+04  0.10100000352E+00 0.  1.
</event>
<event>
 5   0  0.6661000E-08  0.3812354E+04  0.7818609E-02  0.8043509E-01
       -1   -1    0    0    0  501  0.00000000000E+00  0.00000000000E+00  0.17701797458E+04  0.17701797458E+04  0.50400001928E-02 0.  1.
        1   -1    0    0  501    0  0.00000000000E+00  0.00000000000E+00 -0.20526229769E+04  0.20526229769E+04  0.50400001928E-02 0. -1.
    10030    2    1    2    0    0  0.00000000000E+00  0.00000000000E+00 -0.28244323109E+03  0.38228027228E+04  0.38123544534E+04 0.  0.
        4    1    3    3  502    0 -0.91042872498E+03 -0.12537064414E+04  0.97215906630E+03  0.18291405543E+04  0.12699999809E+01 0.  1.
       -4    1    3    3    0  502  0.91042872498E+03  0.12537064414E+04 -0.12546022974E+04  0.19936621685E+04  0.12699999809E+01 0. -1.
</event>
<event>
 5   0  0.1370688E-07  0.3838570E+04  0.7818609E-02  0.8037928E-01
        2   -1    0    0  501    0  0.00000000000E+00  0.00000000000E+00  0.26328009938E+04  0.26328009938E+04  0.25500000920E-02 0. -1.
       -2   -1    0    0    0  501  0.00000000000E+00  0.00000000000E+00 -0.13991388250E+04  0.13991388250E+04  0.25500000920E-02 0.  1.
    10030    2    1    2    0    0  0.00000000000E+00  0.00000000000E+00  0.12336621688E+04  0.40319398188E+04  0.38385695716E+04 0.  0.
        5    1    3    3  502    0  0.16129485536E+04 -0.60574930313E+03  0.15050643318E+04  0.22877447383E+04  0.46999998093E+01 0. -1.
       -5    1    3    3    0  502 -0.16129485536E+04  0.60574930313E+03 -0.27140216302E+03  0.17441950805E+04  0.46999998093E+01 0.  1.
</event>
<event>
 5   0  0.2081337E-07  0.3784054E+04  0.7818609E-02  0.8049586E-01
       -2   -1    0    0    0  501  0.00000000000E+00  0.00000000000E+00  0.16659426413E+04  0.16659426413E+04  0.25500000920E-02 0.  1.
        2   -1    0    0  501    0  0.00000000000E+00  0.00000000000E+00 -0.21487927746E+04  0.21487927746E+04  0.25500000920E-02 0. -1.
    10030    2    1    2    0    0  0.00000000000E+00  0.00000000000E+00 -0.48285013323E+03  0.38147354159E+04  0.37840536522E+04 0.  0.
        1    1    3    3  502    0  0.14262940793E+04 -0.42399202655E+03 -0.14195242218E+04  0.20564856079E+04  0.50400001928E-02 0. -1.
       -1    1    3    3    0  502 -0.14262940793E+04  0.42399202655E+03  0.93667408861E+03  0.17582498080E+04  0.50400001928E-02 0.  1.
</event>
<event>
 5   0  0.6661000E-08  0.3799171E+04  0.7818609E-02  0.8046333E-01
        1   -1    0    0  501    0  0.00000000000E+00  0.00000000000E+00  0.11282027101E+04  0.11282027101E+04  0.50400001928E-02 0. -1.
       -1   -1    0    0    0  501  0.00000000000E+00  0.00000000000E+00 -0.31983841556E+04  0.31983841556E+04  0.50400001928E-02 0.  1.
    10030    2    1    2    0    0  0.00000000000E+00  0.00000000000E+00 -0.20701814455E+04  0.43265868658E+04  0.37991713162E+04 0.  0.
        2    1    3    3  502    0  0.34131066579E+03  0.16867919476E+04 -0.11929958071E+03  0.17251064996E+04  0.25500000920E-02 0. -1.
       -2    1    3    3    0  502 -0.34131066579E+03 -0.16867919476E+04 -0.19508818648E+04  0.26014803661E+04  0.25500000920E-02 0.  1.
</event>
<event>
 5   0  0.6725199E-08  0.3779596E+04  0.7818609E-02  0.8050548E-01
       -1   -1    0    0    0  501  0.00000000000E+00  0.00000000000E+00  0.15843452771E+04  0.15843452771E+04  0.50400001928E-02 0.  1.
        1   -1    0    0  501    0  0.00000000000E+00  0.00000000000E+00 -0.22541397731E+04  0.22541397731E+04  0.50400001928E-02 0. -1.
    10030    2    1    2    0    0  0.00000000000E+00  0.00000000000E+00 -0.66979449600E+03  0.38384850503E+04  0.37795955887E+04 0.  0.
        5    1    3    3  502    0  0.15569339095E+04  0.10449632635E+04 -0.96025815906E+02  0.18775607761E+04  0.46999998093E+01 0.  1.
       -5    1    3    3    0  502 -0.15569339095E+04 -0.10449632635E+04 -0.57376868010E+03  0.19609242742E+04  0.46999998093E+01 0. -1.
</event>
<event>
 5   0  0.2203998E-07  0.3803182E+04  0.7818609E-02  0.8045472E-01
       -2   -1    0    0    0  501  0.00000000000E+00  0.00000000000E+00  0.23459659592E+04  0.23459659592E+04  0.25500000920E-02 0. -1.
        2   -1    0    0  501    0  0.00000000000E+00  0.00000000000E+00 -0.15413902227E+04  0.15413902227E+04  0.25500000920E-02 0.  1.
    10030    2    1    2    0    0  0.00000000000E+00  0.00000000000E+00  0.80457573649E+03  0.38873561819E+04  0.38031823476E+04 0.  0.
        3    1    3    3  502    0 -0.18665658976E+04  0.35385969536E+03  0.48635195964E+03  0.19610770441E+04  0.10100000352E+00 0. -1.
       -3    1    3    3    0  502  0.18665658976E+04 -0.35385969536E+03  0.31822377685E+03  0.19262791378E+04  0.10100000352E+00 0.  1.
</event>
<event>
 5   0  0.2081337E-07  0.3815853E+04  0.7818609E-02  0.8042761E-01
       -2   -1    0    0    0  501  0.00000000000E+00  0.00000000000E+00  0.29964629540E+04  0.29964629540E+04  0.25500000920E-02 0.  1.
        2   -1    0    0  501    0  0.00000000000E+00  0.00000000000E+00 -0.12148267834E+04  0.12148267834E+04  0.25500000920E-02 0. -1.
    10030    2    1    2    0    0  0.00000000000E+00  0.00000000000E+00  0.17816361706E+04  0.42112897374E+04  0.38158529594E+04 0.  0.
        1    1    3    3  502    0  0.22412269942E+02  0.14657421225E+04 -0.45691303967E+03  0.15354711998E+04  0.50400001928E-02 0. -1.
       -1    1    3    3    0  502 -0.22412269942E+02 -0.14657421225E+04  0.22385492103E+04  0.26758185376E+04  0.50400001928E-02 0.  1.
</event>
<event>
 5   0  0.6661000E-08  0.3772111E+04  0.7818609E-02  0.8052166E-01
       -3   -1    0    0    0  501  0.00000000000E+00  0.00000000000E+00  0.21742113832E+04  0.21742113855E+04  0.10100000352E+00 0. -1.
        3   -1    0    0  501    0  0.00000000000E+00  0.00000000000E+00 -0.16360895967E+04  0.16360895998E+04  0.10100000352E+00 0.  1.
    10030    2    1    2    0    0  0.00000000000E+00  0.00000000000E+00  0.53812178651E+03  0.38103009853E+04  0.37721106216E+04 0.  0.
        3    1    3    3  502    0  0.12719412769E+02 -0.18833892262E+04  0.16861640413E+03  0.18909649026E+04  0.10100000352E+00 0.  1.
       -3    1    3    3    0  502 -0.12719412769E+02  0.18833892262E+04  0.36950538238E+03  0.19193360827E+04  0.10100000352E+00 0. -1.
</event>
<event>
 5   0  0.6725199E-08  0.3820270E+04  0.7818609E-02  0.8041819E-01
        1   -1    0    0  501    0  0.00000000000E+00  0.00000000000E+00  0.18368887033E+04  0.18368887033E+04  0.50400001928E-02 0.  1.
       -1   -1    0    0    0  501  0.00000000000E+00  0.00000000000E+00 -0.19863019477E+04  0.19863019477E+04  0.50400001928E-02 0. -1.
    10030    2    1    2    0    0  0.00000000000E+00  0.00000000000E+00 -0.14941324444E+03  0.38231906510E+04  0.38202699429E+04 0.  0.
        5    1    3    3  502    0  0.69084999620E+03  0.10428660672E+04  0.13699170525E+04  0.18551383162E+04  0.46999998093E+01 0.  1.
       -5    1    3    3    0  502 -0.69084999620E+03 -0.10428660672E+04 -0.15193302970E+04  0.19680523348E+04  0.46999998093E+01 0. -1.
</event>
<event>
 5   0  0.6661000E-08  0.3858153E+04  0.7818609E-02  0.8033789E-01
       -1   -1    0    0    0  501  0.00000000000E+00  0.00000000000E+00  0.18374064975E+04  0.18374064975E+04  0.50400001928E-02 0. -1.
        1   -1    0    0  501    0  0.00000000000E+00  0.00000000000E+00 -0.20253199612E+04  0.20253199612E+04  0.50400001928E-02 0.  1.
    10030    2    1    2    0    0  0.00000000000E+00  0.00000000000E+00 -0.18791346367E+03  0.38627264587E+04  0.38581529551E+04 0.  0.
        2    1    3    3  502    0  0.10129620540E+04  0.14082303677E+04 -0.93883571988E+03  0.19724648033E+04  0.25500000920E-02 0.  1.
       -2    1    3    3    0  502 -0.10129620540E+04 -0.14082303677E+04  0.75092225621E+03  0.18902616555E+04  0.25500000920E-02 0. -1.
</event>
<event>
 5   0  0.6725199E-08  0.3862999E+04  0.7818609E-02  0.8032769E-01
       -1   -1    0    0    0  501  0.00000000000E+00  0.00000000000E+00  0.19520420310E+04  0.19520420310E+04  0.50400001928E-02 0. -1.
        1   -1    0    0  501    0  0.00000000000E+00  0.00000000000E+00 -0.19111735208E+04  0.19111735208E+04  0.50400001928E-02 0.  1.
    10030    2    1    2    0    0  0.00000000000E+00  0.00000000000E+00  0.40868510132E+02  0.38632155518E+04  0.38629993741E+04 0.  0.
        5    1    3    3  502    0 -0.61883390538E+03  0.60031532507E+03 -0.17080533549E+04  0.19133223056E+04  0.46999998093E+01 0.  1.
       -5    1    3    3    0  502  0.61883390538E+03 -0.60031532507E+03  0.17489218650E+04  0.19498932463E+04  0.46999998093E+01 0. -1.
</event>
<event>
 5   0  0.6661000E-08  0.3775324E+04  0.7818609E-02  0.8051471E-01
       -1   -1    0    0    0  501  0.00000000000E+00  0.00000000000E+00  0.19616120134E+04  0.19616120134E+04  0.50400001928E-02 0. -1.
        1   -1    0    0  501    0  0.00000000000E+00  0.00000000000E+00 -0.18165000627E+04  0.18165000627E+04  0.50400001928E-02 0.  1.
    10030    2    1    2    0    0  0.00000000000E+00  0.00000000000E+00  0.14511195079E+03  0.37781120761E+04  0.37753242750E+04 0.  0.
        2    1    3    3  502    0 -0.10451998107E+04 -0.10480013992E+04  0.12449665376E+04  0.19340866725E+04  0.25500000920E-02 0. -1.
       -2    1    3    3    0  502  0.10451998107E+04  0.10480013992E+04 -0.10998545868E+04  0.18440254036E+04  0.25500000920E-02 0.  1.
</event>
<event>
 5   0  0.6725199E-08  0.3782384E+04  0.7818609E-02  0.8049946E-01
        1   -1    0    0  501    0  0.00000000000E+00  0.00000000000E+00  0.20713174155E+04  0.20713174155E+04  0.50400001928E-02 0. -1.
       -1   -1    0    0    0  501  0.00000000000E+00  0.00000000000E+00 -0.17267302757E+04  0.17267302757E+04  0.50400001928E-02 0.  1.
    10030    2    1    2    0    0  0.00000000000E+00  0.00000000000E+00  0.34458713984E+03  0.37980476912E+04  0.37823836357E+04 0.  0.
        5    1    3    3  502    0 -0.12495769899E+04  0.25821489782E+02 -0.12529063156E+04  0.17697191101E+04  0.46999998093E+01 0.  1.
       -5    1    3    3    0  502  0.12495769899E+04 -0.25821489782E+02  0.15974934554E+04  0.20283285811E+04  0.46999998093E+01 0. -1.
</event>
<event>
 5   0  0.1370688E-07  0.3802512E+04  0.7818609E-02  0.8045616E-01
       -2   -1    0    0    0  501  0.00000000000E+00  0.00000000000E+00  0.15371533301E+04  0.15371533301E+04  0.25500000920E-02 0.  1.
        2   -1    0    0  501    0  0.00000000000E+00  0.00000000000E+00 -0.23516031685E+04  0.23516031685E+04  0.25500000920E-02 0. -1.
    10030    2    1    2    0    0  0.00000000000E+00  0.00000000000E+00 -0.81444983844E+03  0.38887564986E+04  0.38025121388E+04 0.  0.
        5    1    3    3  502    0 -0.11412128609E+04 -0.13170609359E+04  0.37010422215E+03  0.17815766972E+04  0.46999998093E+01 0. -1.
       -5    1    3    3    0  502  0.11412128609E+04  0.13170609359E+04 -0.11845540606E+04  0.21071798014E+04  0.46999998093E+01 0.  1.
</event>
<event>
 5   0  0.2203998E-07  0.3840306E+04  0.7818609E-02  0.8037560E-01
       -2   -1    0    0    0  501  0.00000000000E+00  0.00000000000E+00  0.12931629606E+04  0.12931629606E+04  0.25500000920E-02 0. -1.
        2   -1    0    0  501    0  0.00000000000E+00  0.00000000000E+00 -0.28511388737E+04  0.28511388737E+04  0.25500000920E-02 0.  1.
    10030    2    1    2    0    0  0.00000000000E+00  0.00000000000E+00 -0.15579759132E+04  0.41443018343E+04  0.38403058143E+04 0.  0.
        3    1    3    3  502    0 -0.13622883192E+04 -0.10016364099E+04 -0.17608938000E+04  0.24412808006E+04  0.10100000352E+00 0.  1.
       -3    1    3    3    0  502  0.13622883192E+04  0.10016364099E+04  0.20291788688E+03  0.17030210337E+04  0.10100000352E+00 0. -1.
</event>
<event>
 5   0  0.2205204E-07  0.3870588E+04  0.7818609E-02  0.8031174E-01
       -2   -1    0    0    0  501  0.00000000000E+00  0.00000000000E+00  0.14174287862E+04  0.14174287862E+04  0.25500000920E-02 0.  1.
        2   -1    0    0  501    0  0.00000000000E+00  0.00000000000E+00 -0.26423640595E+04  0.26423640595E+04  0.25500000920E-02 0. -1.
    10030    2    1    2    0    0  0.00000000000E+00  0.00000000000E+00 -0.12249352733E+04  0.40597928458E+04  0.38705880079E+04 0.  0.
        2    1    3    3  502    0  0.18262096406E+04 -0.59246508484E+03 -0.35703432260E+03  0.19528261663E+04  0.25500000920E-02 0.  1.
       -2    1    3    3    0  502 -0.18262096406E+04  0.59246508484E+03 -0.86790095072E+03  0.21069666795E+04  0.25500000920E-02 0. -1.
</event>
<event>
 5   0  0.2081337E-07  0.3832615E+04  0.7818609E-02  0.8039192E-01
        2   -1    0    0  501    0  0.00000000000E+00  0.00000000000E+00  0.16426859331E+04  0.16426859331E+04  0.25500000920E-02 0. -1.
       -2   -1    0    0    0  501  0.00000000000E+00  0.00000000000E+00 -0.22355058240E+04  0.22355058240E+04  0.25500000920E-02 0.  1.
    10030    2    1    2    0    0  0.00000000000E+00  0.00000000000E+00 -0.59281989097E+03  0.38781917571E+04  0.38326147578E+04 0.  0.
        1    1    3    3  502    0  0.18995762913E+04  0.12700475793E+03 -0.51744214578E+03  0.19728828321E+04  0.50400001928E-02 0. -1.
       -1    1    3    3    0  502 -0.18995762913E+04 -0.12700475793E+03 -0.75377745198E+02  0.19053089250E+04  0.50400001928E-02 0.  1.
</event>
<event>
 5   0  0.6661000E-08  0.3443082E+04  0.7818609E-02  0.8127413E-01
        1   -1    0    0  501    0  0.00000000000E+00  0.00000000000E+00  0.18786337115E+04  0.18786337116E+04  0.50400001928E-02 0.  1.
       -1   -1    0    0    0  501  0.00000000000E+00  0.00000000000E+00 -0.15775848763E+04  0.15775848763E+04  0.50400001928E-02 0. -1.
    10030    2    1    2    0    0  0.00000000000E+00  0.00000000000E+00  0.30104883523E+03  0.34562185879E+04  0.34430824164E+04 0.  0.
        2    1    3    3  502    0  0.66397847508E+03  0.13264088642E+04  0.10276293361E+04  0.18045082275E+04  0.25500000920E-02 0.  1.
       -2    1    3    3    0  502 -0.66397847508E+03 -0.13264088642E+04 -0.72658050092E+03  0.16517103604E+04  0.25500000920E-02 0. -1.
</event>
<event>
 5   0  0.2135314E-07  0.3797073E+04  0.7818609E-02  0.8046783E-01
        2   -1    0    0  501    0  0.00000000000E+00  0.00000000000E+00  0.20006342080E+04  0.20006342080E+04  0.25500000920E-02 0. -1.
       -2   -1    0    0    0  501  0.00000000000E+00  0.00000000000E+00 -0.18016491268E+04  0.18016491268E+04  0.25500000920E-02 0.  1.
    10030    2    1    2    0    0  0.00000000000E+00  0.00000000000E+00  0.19898508121E+03  0.38022833349E+04  0.37970730170E+04 0.  0.
        4    1    3    3  502    0 -0.16488639995E+04 -0.75019331044E+03  0.66851233890E+03  0.19309202086E+04  0.12699999809E+01 0. -1.
       -4    1    3    3    0  502  0.16488639995E+04  0.75019331044E+03 -0.46952725769E+03  0.18713631263E+04  0.12699999809E+01 0.  1.
</event>
<event>
 5   0  0.6661000E-08  0.3782379E+04  0.7818609E-02  0.8049947E-01
       -1   -1    0    0    0  501  0.00000000000E+00  0.00000000000E+00  0.12271853898E+04  0.12271853898E+04  0.50400001928E-02 0.  1.
        1   -1    0    0  501    0  0.00000000000E+00  0.00000000000E+00 -0.29144722608E+04  0.29144722608E+04  0.50400001928E-02 0. -1.
    10030    2    1    2    0    0  0.00000000000E+00  0.00000000000E+00 -0.16872868710E+04  0.41416576507E+04  0.37823790278E+04 0.  0.
        4    1    3    3  502    0 -0.10302585635E+04 -0.14374253096E+04 -0.10994304849E+03  0.17719236201E+04  0.12699999809E+01 0.  1.
       -4    1    3    3    0  502  0.10302585635E+04  0.14374253096E+04 -0.15773438225E+04  0.23697340306E+04  0.12699999809E+01 0. -1.
</event>
<event>
 5   0  0.6661000E-08  0.3828206E+04  0.7818609E-02  0.8040129E-01
       -1   -1    0    0    0  501  0.00000000000E+00  0.00000000000E+00  0.19965264202E+04  0.19965264202E+04  0.50400001928E-02 0.  1.
        1   -1    0    0  501    0  0.00000000000E+00  0.00000000000E+00 -0.18350821996E+04  0.18350821996E+04  0.50400001928E-02 0. -1.
    10030    2    1    2    0    0  0.00000000000E+00  0.00000000000E+00  0.16144422055E+03  0.38316086198E+04  0.38282058956E+04 0.  0.
        2    1    3    3  502    0  0.17497064379E+04  0.74105858823E+03 -0.15002487580E+03  0.19060818223E+04  0.25500000920E-02 0. -1.
       -2    1    3    3    0  502 -0.17497064379E+04 -0.74105858823E+03  0.31146909635E+03  0.19255267975E+04  0.25500000920E-02 0.  1.
</event>
<event>
 5   0  0.2203998E-07  0.3799530E+04  0.7818609E-02  0.8046256E-01
       -2   -1    0    0    0  501  0.00000000000E+00  0.00000000000E+00  0.18626450620E+04  0.18626450620E+04  0.25500000920E-02 0.  1.
        2   -1    0    0  501    0  0.00000000000E+00  0.00000000000E+00 -0.19376249527E+04  0.19376249527E+04  0.25500000920E-02 0. -1.
    10030    2    1    2    0    0  0.00000000000E+00  0.00000000000E+00 -0.74979890688E+02  0.38002700148E+04  0.37995302606E+04 0.  0.
        3    1    3    3  502    0  0.86815976658E+03  0.16018919499E+04  0.50052587387E+03  0.18895198755E+04  0.10100000352E+00 0.  1.
       -3    1    3    3    0  502 -0.86815976658E+03 -0.16018919499E+04 -0.57550576456E+03  0.19107501393E+04  0.10100000352E+00 0. -1.
</event>
<event>
 5   0  0.6661000E-08  0.3807991E+04  0.7818609E-02  0.8044442E-01
       -1   -1    0    0    0  501  0.00000000000E+00  0.00000000000E+00  0.12211945342E+04  0.12211945342E+04  0.50400001928E-02 0. -1.
        1   -1    0    0  501    0  0.00000000000E+00  0.00000000000E+00 -0.29685676924E+04  0.29685676924E+04  0.50400001928E-02 0.  1.
    10030    2    1    2    0    0  0.00000000000E+00  0.00000000000E+00 -0.17473731582E+04  0.41897622266E+04  0.38079908826E+04 0.  0.
        3    1    3    3  502    0 -0.17216162866E+04 -0.31714846946E+03 -0.16975220565E+04  0.24384681529E+04  0.10100000352E+00 0.  1.
       -3    1    3    3    0  502  0.17216162866E+04  0.31714846946E+03 -0.49851101668E+02  0.17512940737E+04  0.10100000352E+00 0. -1.
</event>
<event>
 5   0  0.2203998E-07  0.3704784E+04  0.7818609E-02  0.8066902E-01
       -2   -1    0    0    0  501  0.00000000000E+00  0.00000000000E+00  0.13927337187E+04  0.13927337188E+04  0.25500000920E-02 0. -1.
        2   -1    0    0  501    0  0.00000000000E+00  0.00000000000E+00 -0.24637559250E+04  0.24637559250E+04  0.25500000920E-02 0.  1.
    10030    2    1    2    0    0  0.00000000000E+00  0.00000000000E+00 -0.10710222062E+04  0.38564896437E+04  0.37047839081E+04 0.  0.
        3    1    3    3  502    0 -0.28455598867E+03 -0.10697642116E+04  0.10105651023E+04  0.14988693790E+04  0.10100000352E+00 0. -1.
       -3    1    3    3    0  502  0.28455598867E+03  0.10697642116E+04 -0.20815873086E+04  0.23576202647E+04  0.10100000352E+00 0.  1.
</event>
<event>
 5   0  0.6661000E-08  0.3865899E+04  0.7818609E-02  0.8032159E-01
       -1   -1    0    0    0  501  0.00000000000E+00  0.00000000000E+00  0.27666871599E+04  0.27666871599E+04  0.50400001928E-02 0. -1.
        1   -1    0    0  501    0  0.00000000000E+00  0.00000000000E+00 -0.13504578659E+04  0.13504578659E+04  0.50400001928E-02 0.  1.
    10030    2    1    2    0    0  0.00000000000E+00  0.00000000000E+00  0.14162292940E+04  0.41171450259E+04  0.38658993457E+04 0.  0.
        4    1    3    3  502    0  0.16183197078E+04  0.35612640703E+03 -0.35180915583E+03  0.16939763839E+04  0.12699999809E+01 0.  1.
       -4    1    3    3    0  502 -0.16183197078E+04 -0.35612640703E+03  0.17680384498E+04  0.24231686419E+04  0.12699999809E+01 0. -1.
</event>
<event>
 5   0  0.6725199E-08  0.3833512E+04  0.7818609E-02  0.8039001E-01
        1   -1    0    0  501    0  0.00000000000E+00  0.00000000000E+00  0.20421390987E+04  0.20421390987E+04  0.50400001928E-02 0. -1.
       -1   -1    0    0    0  501  0.00000000000E+00  0.00000000000E+00 -0.17990708416E+04  0.17990708417E+04  0.50400001928E-02 0.  1.
    10030    2    1    2    0    0  0.00000000000E+00  0.00000000000E+00  0.24306825702E+03  0.38412099403E+04  0.38335116575E+04 0.  0.
        5    1    3    3  502    0  0.16493534717E+04  0.97563410921E+03  0.80195646313E+02  0.19179891088E+04  0.46999998093E+01 0.  1.
       -5    1    3    3    0  502 -0.16493534717E+04 -0.97563410921E+03  0.16287261070E+03  0.19232208316E+04  0.46999998093E+01 0. -1.
</event>
<event>
 5   0  0.1370688E-07  0.3790320E+04  0.7818609E-02  0.8048235E-01
       -2   -1    0    0    0  501  0.00000000000E+00  0.00000000000E+00  0.24388049498E+04  0.24388049498E+04  0.25500000920E-02 0. -1.
        2   -1    0    0  501    0  0.00000000000E+00  0.00000000000E+00 -0.14727017422E+04  0.14727017422E+04  0.25500000920E-02 0.  1.
    10030    2    1    2    0    0  0.00000000000E+00  0.00000000000E+00  0.96610320762E+03  0.39115066919E+04  0.37903204605E+04 0.  0.
        5    1    3    3  502    0 -0.84925783242E+03 -0.21443836215E+03 -0.12512726219E+04  0.15273925302E+04  0.46999998093E+01 0.  1.
       -5    1    3    3    0  502  0.84925783242E+03  0.21443836215E+03  0.22173758295E+04  0.23841141617E+04  0.46999998093E+01 0. -1.
</event>
<event>
 5   0  0.6661000E-08  0.3822364E+04  0.7818609E-02  0.8041373E-01
        1   -1    0    0  501    0  0.00000000000E+00  0.00000000000E+00  0.20562652624E+04  0.20562652624E+04  0.50400001928E-02 0. -1.
       -1   -1    0    0    0  501  0.00000000000E+00  0.00000000000E+00 -0.17763353628E+04  0.17763353628E+04  0.50400001928E-02 0.  1.
    10030    2    1    2    0    0  0.00000000000E+00  0.00000000000E+00  0.27992989952E+03  0.38326006252E+04  0.38223640334E+04 0.  0.
        1    1    3    3  502    0 -0.14265658283E+04  0.98436112944E+03 -0.66752390169E+03  0.18573220117E+04  0.50400001928E-02 0.  1.
       -1    1    3    3    0  502  0.14265658283E+04 -0.98436112944E+03  0.94745380121E+03  0.19752786135E+04  0.50400001928E-02 0. -1.
</event>
<event>
 5   0  0.1370688E-07  0.3806799E+04  0.7818609E-02  0.8044698E-01
        2   -1    0    0  501    0  0.00000000000E+00  0.00000000000E+00  0.22006523779E+04  0.22006523779E+04  0.25500000920E-02 0. -1.
       -2   -1    0    0    0  501  0.00000000000E+00  0.00000000000E+00 -0.16462976528E+04  0.16462976528E+04  0.25500000920E-02 0.  1.
    10030    2    1    2    0    0  0.00000000000E+00  0.00000000000E+00  0.55435472512E+03  0.38469500307E+04  0.38067985733E+04 0.  0.
        5    1    3    3  502    0 -0.54328881050E+03  0.55270099869E+03  0.20339799537E+04  0.21766344819E+04  0.46999998093E+01 0. -1.
       -5    1    3    3    0  502  0.54328881050E+03 -0.55270099869E+03 -0.14796252286E+04  0.16703155488E+04  0.46999998093E+01 0.  1.
</event>
<event>
 5   0  0.6661000E-08  0.3776290E+04  0.7818609E-02  0.8051262E-01
       -1   -1    0    0    0  501  0.00000000000E+00  0.00000000000E+00  0.16548109588E+04  0.16548109588E+04  0.50400001928E-02 0. -1.
        1   -1    0    0  501    0  0.00000000000E+00  0.00000000000E+00 -0.21543797056E+04  0.21543797056E+04  0.50400001928E-02 0.  1.
    10030    2    1    2    0    0  0.00000000000E+00  0.00000000000E+00 -0.49956874681E+03  0.38091906644E+04  0.37762897909E+04 0.  0.
        2    1    3    3  502    0 -0.80138544846E+03  0.71049486507E+01  0.14747370058E+04  0.16784273453E+04  0.25500000920E-02 0. -1.
       -2    1    3    3    0  502  0.80138544846E+03 -0.71049486507E+01 -0.19743057526E+04  0.21307633191E+04  0.25500000920E-02 0.  1.
</event>
<event>
 5   0  0.6661000E-08  0.3810275E+04  0.7818609E-02  0.8043954E-01
        1   -1    0    0  501    0  0.00000000000E+00  0.00000000000E+00  0.23063372650E+04  0.23063372650E+04  0.50400001928E-02 0. -1.
       -1   -1    0    0    0  501  0.00000000000E+00  0.00000000000E+00 -0.15737282844E+04  0.15737282844E+04  0.50400001928E-02 0.  1.
    10030    2    1    2    0    0  0.00000000000E+00  0.00000000000E+00  0.73260898060E+03  0.38800655494E+04  0.38102746291E+04 0.  0.
        1    1    3    3  502    0  0.40801789985E+03  0.17937803726E+04  0.87077889402E+03  0.20352843816E+04  0.50400001928E-02 0. -1.
       -1    1    3    3    0  502 -0.40801789985E+03 -0.17937803726E+04 -0.13816991342E+03  0.18447811677E+04  0.50400001928E-02 0.  1.
</event>
<event>
 5   0  0.6661000E-08  0.3806877E+04  0.7818609E-02  0.8044681E-01
       -3   -1    0    0    0  501  0.00000000000E+00  0.00000000000E+00  0.18769523493E+04  0.18769523520E+04  0.10100000352E+00 0.  1.
        3   -1    0    0  501    0  0.00000000000E+00  0.00000000000E+00 -0.19302985471E+04  0.19302985498E+04  0.10100000352E+00 0. -1.
    10030    2    1    2    0    0  0.00000000000E+00  0.00000000000E+00 -0.53346197880E+02  0.38072509018E+04  0.38068771470E+04 0.  0.
        5    1    3    3  502    0  0.61015193677E+03 -0.15502245933E+04  0.89405545680E+03  0.18907244446E+04  0.46999998093E+01 0.  1.
       -5    1    3    3    0  502 -0.61015193677E+03  0.15502245933E+04 -0.94740165468E+03  0.19165264571E+04  0.46999998093E+01 0. -1.
</event>
<event>
 5   0  0.6661000E-08  0.3809568E+04  0.7818609E-02  0.8044105E-01
        1   -1    0    0  501    0  0.00000000000E+00  0.00000000000E+00  0.14563259085E+04  0.14563259085E+04  0.50400001928E-02 0. -1.
       -1   -1    0    0    0  501  0.00000000000E+00  0.00000000000E+00 -0.24913399792E+04  0.24913399792E+04  0.50400001928E-02 0.  1.
    10030    2    1    2    0    0  0.00000000000E+00  0.00000000000E+00 -0.10350140707E+04  0.39476658877E+04  0.38095684578E+04 0.  0.
        3    1    3    3  502    0 -0.20217820903E+03  0.75555329520E+03 -0.23172638798E+04  0.24457000448E+04  0.10100000352E+00 0.  1.
       -3    1    3    3    0  502  0.20217820903E+03 -0.75555329520E+03  0.12822498092E+04  0.15019658429E+04  0.10100000352E+00 0. -1.
</event>
<event>
 5   0  0.2205204E-07  0.3813969E+04  0.7818609E-02  0.8043164E-01
       -2   -1    0    0    0  501  0.00000000000E+00  0.00000000000E+00  0.18087157761E+04  0.18087157761E+04  0.25500000920E-02 0.  1.
        2   -1    0    0  501    0  0.00000000000E+00  0.00000000000E+00 -0.20105923698E+04  0.20105923698E+04  0.25500000920E-02 0. -1.
    10030    2    1    2    0    0  0.00000000000E+00  0.00000000000E+00 -0.20187659366E+03  0.38193081459E+04  0.38139691339E+04 0.  0.
        2    1    3    3  502    0 -0.12946395327E+03 -0.11724452854E+04 -0.16014354138E+04  0.19889656224E+04  0.25500000920E-02 0. -1.
       -2    1    3    3    0  502  0.12946395327E+03  0.11724452854E+04  0.13995588201E+04  0.18303425235E+04  0.25500000920E-02 0.  1.
</event>
<event>
 5   0  0.2081337E-07  0.3804675E+04  0.7818609E-02  0.8045152E-01
       -2   -1    0    0    0  501  0.00000000000E+00  0.00000000000E+00  0.28048914812E+04  0.28048914812E+04  0.25500000920E-02 0.  1.
        2   -1    0    0  501    0  0.00000000000E+00  0.00000000000E+00 -0.12902063156E+04  0.12902063156E+04  0.25500000920E-02 0. -1.
    10030    2    1    2    0    0  0.00000000000E+00  0.00000000000E+00  0.15146851657E+04  0.40950977968E+04  0.38046753888E+04 0.  0.
        1    1    3    3  502    0  0.28393803842E+03 -0.10703872275E+02 -0.12672376532E+04  0.12987019105E+04  0.50400001928E-02 0. -1.
       -1    1    3    3    0  502 -0.28393803842E+03  0.10703872275E+02  0.27819228189E+04  0.27963958863E+04  0.50400001928E-02 0.  1.
</event>
<event>
 5   0  0.6661000E-08  0.3798754E+04  0.7818609E-02  0.8046422E-01
       -1   -1    0    0    0  501  0.00000000000E+00  0.00000000000E+00  0.16381155102E+04  0.16381155102E+04  0.50400001928E-02 0.  1.
        1   -1    0    0  501    0  0.00000000000E+00  0.00000000000E+00 -0.22023063131E+04  0.22023063131E+04  0.50400001928E-02 0. -1.
    10030    2    1    2    0    0  0.00000000000E+00  0.00000000000E+00 -0.56419080292E+03  0.38404218234E+04  0.37987535481E+04 0.  0.
        4    1    3    3  502    0 -0.16632650206E+04  0.85843669248E+03 -0.60854043736E+03  0.19681684787E+04  0.12699999809E+01 0.  1.
       -4    1    3    3    0  502  0.16632650206E+04 -0.85843669248E+03  0.44349634441E+02  0.18722533447E+04  0.12699999809E+01 0. -1.
</event>
<event>
 5   0  0.6661000E-08  0.3766852E+04  0.7818609E-02  0.8053306E-01
       -1   -1    0    0    0  501  0.00000000000E+00  0.00000000000E+00  0.30450719576E+04  0.30450719576E+04  0.50400001928E-02 0.  1.
        1   -1    0    0  501    0  0.00000000000E+00  0.00000000000E+00 -0.11649292011E+04  0.11649292011E+04  0.50400001928E-02 0. -1.
    10030    2    1    2    0    0  0.00000000000E+00  0.00000000000E+00  0.18801427565E+04  0.42100011588E+04  0.37668518649E+04 0.  0.
        3    1    3    3  502    0 -0.14576051208E+04  0.11927493782E+04  0.93400457865E+03  0.21022912097E+04  0.10100000352E+00 0. -1.
       -3    1    3    3    0  502  0.14576051208E+04 -0.11927493782E+04  0.94613817787E+03  0.21077099490E+04  0.10100000352E+00 0.  1.
</event>
<event>
 5   0  0.6661000E-08  0.3778306E+04  0.7818609E-02  0.8050826E-01
        1   -1    0    0  501    0  0.00000000000E+00  0.00000000000E+00  0.22252980771E+04  0.22252980771E+04  0.50400001928E-02 0.  1.
       -1   -1    0    0    0  501  0.00000000000E+00  0.00000000000E+00 -0.16037845753E+04  0.16037845753E+04  0.50400001928E-02 0. -1.
    10030    2    1    2    0    0  0.00000000000E+00  0.00000000000E+00  0.62151350176E+03  0.38290826524E+04  0.37783058275E+04 0.  0.
        1    1    3    3  502    0 -0.15509476517E+03 -0.18323056956E+04 -0.12807544277E+03  0.18433127427E+04  0.50400001928E-02 0.  1.
       -1    1    3    3    0  502  0.15509476517E+03  0.18323056956E+04  0.74958894453E+03  0.19857699097E+04  0.50400001928E-02 0. -1.
</event>
<event>
 5   0  0.6661000E-08  0.3785128E+04  0.7818609E-02  0.8049354E-01
       -1   -1    0    0    0  501  0.00000000000E+00  0.00000000000E+00  0.12722947086E+04  0.12722947086E+04  0.50400001928E-02 0.  1.
        1   -1    0    0  501    0  0.00000000000E+00  0.00000000000E+00 -0.28152267866E+04  0.28152267866E+04  0.50400001928E-02 0. -1.
    10030    2    1    2    0    0  0.00000000000E+00  0.00000000000E+00 -0.15429320780E+04  0.40875214952E+04  0.37851278150E+04 0.  0.
        2    1    3    3  502    0 -0.11801400248E+04  0.11230650498E+04  0.26870544384E+03  0.16511233145E+04  0.25500000920E-02 0.  1.
       -2    1    3    3    0  502  0.11801400248E+04 -0.11230650498E+04 -0.18116375218E+04  0.24363981806E+04  0.25500000920E-02 0. -1.
</event>
<event>
 5   0  0.2081337E-07  0.3755592E+04  0.7818609E-02  0.8055752E-01
        2   -1    0    0  501    0  0.00000000000E+00  0.00000000000E+00  0.25821454883E+04  0.25821454883E+04  0.25500000920E-02 0. -1.
       -2   -1    0    0    0  501  0.00000000000E+00  0.00000000000E+00 -0.13655766255E+04  0.13655766255E+04  0.25500000920E-02 0.  1.
    10030    2    1    2    0    0  0.00000000000E+00  0.00000000000E+00  0.12165688628E+04  0.39477221138E+04  0.37555918429E+04 0.  0.
        1    1    3    3  502    0 -0.21136362443E+02 -0.14063118063E+04 -0.69953491347E+03  0.15708305884E+04  0.50400001928E-02 0.  1.
       -1    1    3    3    0  502  0.21136362443E+02  0.14063118063E+04  0.19161037763E+04  0.23768915254E+04  0.50400001928E-02 0. -1.
</event>
<event>
 5   0  0.2203998E-07  0.3652578E+04  0.7818609E-02  0.8078553E-01
        2   -1    0    0  501    0  0.00000000000E+00  0.00000000000E+00  0.19125400239E+04  0.19125400239E+04  0.25500000920E-02 0. -1.
       -2   -1    0    0    0  501  0.00000000000E+00  0.00000000000E+00 -0.17439278743E+04  0.17439278744E+04  0.25500000920E-02 0.  1.
    10030    2    1    2    0    0  0.00000000000E+00  0.00000000000E+00  0.16861214952E+03  0.36564678982E+04  0.36525781900E+04 0.  0.
        3    1    3    3  502    0  0.14216447693E+04  0.14312416422E+02 -0.10632362423E+04  0.17753168766E+04  0.10100000352E+00 0.  1.
       -3    1    3    3    0  502 -0.14216447693E+04 -0.14312416422E+02  0.12318483918E+04  0.18811510216E+04  0.10100000352E+00 0. -1.
</event>
<event>
 5   0  0.6661000E-08  0.3921434E+04  0.7818609E-02  0.8020586E-01
       -1   -1    0    0    0  501  0.00000000000E+00  0.00000000000E+00  0.13376801472E+04  0.13376801472E+04  0.50400001928E-02 0. -1.
        1   -1    0    0  501    0  0.00000000000E+00  0.00000000000E+00 -0.28739394388E+04  0.28739394388E+04  0.50400001928E-02 0.  1.
    10030    2    1    2    0    0  0.00000000000E+00  0.00000000000E+00 -0.15362592916E+04  0.42116195860E+04  0.39214342945E+04 0.  0.
        3    1    3    3  502    0  0.50572223167E+03 -0.10931626317E+04 -0.24297611521E+04  0.27119179157E+04  0.10100000352E+00 0.  1.
       -3    1    3    3    0  502 -0.50572223167E+03  0.10931626317E+04  0.89350186052E+03  0.14997016703E+04  0.10100000352E+00 0. -1.
</event>
<event>
 5   0  0.2135314E-07  0.3812034E+04  0.7818609E-02  0.8043577E-01
       -2   -1    0    0    0  501  0.00000000000E+00  0.00000000000E+00  0.29851449615E+04  0.29851449615E+04  0.25500000920E-02 0. -1.
        2   -1    0    0  501    0  0.00000000000E+00  0.00000000000E+00 -0.12169932197E+04  0.12169932197E+04  0.25500000920E-02 0.  1.
    10030    2    1    2    0    0  0.00000000000E+00  0.00000000000E+00  0.17681517418E+04  0.42021381812E+04  0.38120341960E+04 0.  0.
        4    1    3    3  502    0 -0.16703281733E+04  0.63636991342E+03  0.16135656449E+04  0.24080196379E+04  0.12699999809E+01 0. -1.
       -4    1    3    3    0  502  0.16703281733E+04 -0.63636991342E+03  0.15458609690E+03  0.17941185433E+04  0.12699999809E+01 0.  1.
</event>
<event>
 5   0  0.6661000E-08  0.3749994E+04  0.7818609E-02  0.8056972E-01
        1   -1    0    0  501    0  0.00000000000E+00  0.00000000000E+00  0.24373870813E+04  0.24373870813E+04  0.50400001928E-02 0. -1.
       -1   -1    0    0    0  501  0.00000000000E+00  0.00000000000E+00 -0.14423702402E+04  0.14423702402E+04  0.50400001928E-02 0.  1.
    10030    2    1    2    0    0  0.00000000000E+00  0.00000000000E+00  0.99501684109E+03  0.38797573214E+04  0.37499944479E+04 0.  0.
        3    1    3    3  502    0  0.64427479765E+01 -0.10792322957E+04 -0.10887889908E+04  0.15330509886E+04  0.10100000352E+00 0.  1.
       -3    1    3    3    0  502 -0.64427479765E+01  0.10792322957E+04  0.20838058319E+04  0.23467063328E+04  0.10100000352E+00 0. -1.
</event>
<event>
 5   0  0.6661000E-08  0.3754144E+04  0.7818609E-02  0.8056068E-01
       -1   -1    0    0    0  501  0.00000000000E+00  0.00000000000E+00  0.13683307647E+04  0.13683307647E+04  0.50400001928E-02 0. -1.
        1   -1    0    0  501    0  0.00000000000E+00  0.00000000000E+00 -0.25749622518E+04  0.25749622518E+04  0.50400001928E-02 0.  1.
    10030    2    1    2    0    0  0.00000000000E+00  0.00000000000E+00 -0.12066314871E+04  0.39432930166E+04  0.37541444123E+04 0.  0.
        3    1    3    3  502    0  0.64528440148E+03 -0.33649334592E+03  0.12141157097E+04  0.14155199389E+04  0.10100000352E+00 0. -1.
       -3    1    3    3    0  502 -0.64528440148E+03  0.33649334592E+03 -0.24207471969E+04  0.25277730776E+04  0.10100000352E+00 0.  1.
</event>
<event>
 5   0  0.1370688E-07  0.3803873E+04  0.7818609E-02  0.8045324E-01
       -2   -1    0    0    0  501  0.00000000000E+00  0.00000000000E+00  0.17331451149E+04  0.17331451149E+04  0.25500000920E-02 0.  1.
        2   -1    0    0  501    0  0.00000000000E+00  0.00000000000E+00 -0.20871664165E+04  0.20871664165E+04  0.25500000920E-02 0. -1.
    10030    2    1    2    0    0  0.00000000000E+00  0.00000000000E+00 -0.35402130156E+03  0.38203115314E+04  0.38038729100E+04 0.  0.
        5    1    3    3  502    0 -0.81990867228E+03 -0.51225607071E+03 -0.18219788792E+04  0.20625919711E+04  0.46999998093E+01 0. -1.
       -5    1    3    3    0  502  0.81990867228E+03  0.51225607071E+03  0.14679575777E+04  0.17577195603E+04  0.46999998093E+01 0.  1.
</event>
<event>
 5   0  0.6661000E-08  0.3746298E+04  0.7818609E-02  0.8057778E-01
        1   -1    0    0  501    0  0.00000000000E+00  0.00000000000E+00  0.19520972313E+04  0.19520972313E+04  0.50400001928E-02 0.  1.
       -1   -1    0    0    0  501  0.00000000000E+00  0.00000000000E+00 -0.17973938580E+04  0.17973938580E+04  0.50400001928E-02 0. -1.
    10030    2    1    2    0    0  0.00000000000E+00  0.00000000000E+00  0.15470337331E+03  0.37494910892E+04  0.37462982122E+04 0.  0.
        4    1    3    3  502    0 -0.17003138783E+04 -0.70023369920E+03  0.43443502361E+03  0.18894787432E+04  0.12699999809E+01 0.  1.
       -4    1    3    3    0  502  0.17003138783E+04  0.70023369920E+03 -0.27973165030E+03  0.18600123460E+04  0.12699999809E+01 0. -1.
</event>
<event>
 5   0  0.6661000E-08  0.3787454E+04  0.7818609E-02  0.8048853E-01
        1   -1    0    0  501    0  0.00000000000E+00  0.00000000000E+00  0.24343325236E+04  0.24343325236E+04  0.50400001928E-02 0.  1.
       -1   -1    0    0    0  501  0.00000000000E+00  0.00000000000E+00 -0.14731767344E+04  0.14731767345E+04  0.50400001928E-02 0. -1.
    10030    2    1    2    0    0  0.00000000000E+00  0.00000000000E+00  0.96115578916E+03  0.39075092581E+04  0.37874540460E+04 0.  0.
        3    1    3    3  502    0 -0.11747411291E+04 -0.97734713819E+03  0.16345025651E+04  0.22375930806E+04  0.10100000352E+00 0.  1.
       -3    1    3    3    0  502  0.11747411291E+04  0.97734713819E+03 -0.67334677592E+03  0.16699161775E+04  0.10100000352E+00 0. -1.
</event>
<event>
 5   0  0.2205204E-07  0.3787371E+04  0.7818609E-02  0.8048871E-01
       -2   -1    0    0    0  501  0.00000000000E+00  0.00000000000E+00  0.18293037045E+04  0.18293037045E+04  0.25500000920E-02 0.  1.
        2   -1    0    0  501    0  0.00000000000E+00  0.00000000000E+00 -0.19603327680E+04  0.19603327680E+04  0.25500000920E-02 0. -1.
    10030    2    1    2    0    0  0.00000000000E+00  0.00000000000E+00 -0.13102906356E+03  0.37896364725E+04  0.37873705890E+04 0.  0.
        2    1    3    3  502    0 -0.88395912331E+03  0.15800724682E+04 -0.62085221489E+03  0.19140193858E+04  0.25500000920E-02 0.  1.
       -2    1    3    3    0  502  0.88395912331E+03 -0.15800724682E+04  0.48982315133E+03  0.18756170867E+04  0.25500000920E-02 0. -1.
</event>
<event>
 5   0  0.6661000E-08  0.3987196E+04  0.7818609E-02  0.8007135E-01
        1   -1    0    0  501    0  0.00000000000E+00  0.00000000000E+00  0.17277821181E+04  0.17277821181E+04  0.50400001928E-02 0.  1.
       -1   -1    0    0    0  501  0.00000000000E+00  0.00000000000E+00 -0.23003086090E+04  0.23003086090E+04  0.50400001928E-02 0. -1.
    10030    2    1    2    0    0  0.00000000000E+00  0.00000000000E+00 -0.57252649094E+03  0.40280907272E+04  0.39871955462E+04 0.  0.
        4    1    3    3  502    0 -0.25460031645E+03 -0.19657626535E+04 -0.71037473624E+02  0.19834545789E+04  0.12699999809E+01 0.  1.
       -4    1    3    3    0  502  0.25460031645E+03  0.19657626535E+04 -0.50148901731E+03  0.20446361482E+04  0.12699999809E+01 0. -1.
</event>
<event>
 5   0  0.2081337E-07  0.3822041E+04  0.7818609E-02  0.8041441E-01
        2   -1    0    0  501    0  0.00000000000E+00  0.00000000000E+00  0.11594522199E+04  0.11594522199E+04  0.25500000920E-02 0. -1.
       -2   -1    0    0    0  501  0.00000000000E+00  0.00000000000E+00 -0.31497626427E+04  0.31497626427E+04  0.25500000920E-02 0.  1.
    10030    2    1    2    0    0  0.00000000000E+00  0.00000000000E+00 -0.19903104229E+04  0.43092148626E+04  0.38220409669E+04 0.  0.
        1    1    3    3  502    0 -0.10884105843E+04  0.72941167546E+03  0.57332569707E+03  0.14301682934E+04  0.50400001928E-02 0. -1.
       -1    1    3    3    0  502  0.10884105843E+04 -0.72941167546E+03 -0.25636361199E+04  0.28790465693E+04  0.50400001928E-02 0.  1.
</event>
<event>
 5   0  0.1370688E-07  0.3683458E+04  0.7818609E-02  0.8071638E-01
        2   -1    0    0  501    0  0.00000000000E+00  0.00000000000E+00  0.16853272995E+04  0.16853272995E+04  0.25500000920E-02 0. -1.
       -2   -1    0    0    0  501  0.00000000000E+00  0.00000000000E+00 -0.20126452786E+04  0.20126452786E+04  0.25500000920E-02 0.  1.
    10030    2    1    2    0    0  0.00000000000E+00  0.00000000000E+00 -0.32731797910E+03  0.36979725781E+04  0.36834581753E+04 0.  0.
        5    1    3    3  502    0  0.94639829487E+03 -0.26722739966E+03 -0.17269924091E+04  0.19873613378E+04  0.46999998093E+01 0.  1.
       -5    1    3    3    0  502 -0.94639829487E+03  0.26722739966E+03  0.13996744300E+04  0.17106112404E+04  0.46999998093E+01 0. -1.
</event>
<event>
 5   0  0.6661000E-08  0.3770816E+04  0.7818609E-02  0.8052447E-01
       -1   -1    0    0    0  501  0.00000000000E+00  0.00000000000E+00  0.17061117050E+04  0.17061117051E+04  0.50400001928E-02 0.  1.
        1   -1    0    0  501    0  0.00000000000E+00  0.00000000000E+00 -0.20835464209E+04  0.20835464209E+04  0.50400001928E-02 0. -1.
    10030    2    1    2    0    0  0.00000000000E+00  0.00000000000E+00 -0.37743471589E+03  0.37896581260E+04  0.37708157933E+04 0.  0.
        4    1    3    3  502    0 -0.67740423349E+03 -0.46427045002E+03  0.15169189249E+04  0.17249545455E+04  0.12699999809E+01 0.  1.
       -4    1    3    3    0  502  0.67740423349E+03  0.46427045002E+03 -0.18943536408E+04  0.20647035805E+04  0.12699999809E+01 0. -1.
</event>
<event>
 5   0  0.2203998E-07  0.3746916E+04  0.7818609E-02  0.8057643E-01
        2   -1    0    0  501    0  0.00000000000E+00  0.00000000000E+00  0.22661104723E+04  0.22661104723E+04  0.25500000920E-02 0.  1.
       -2   -1    0    0    0  501  0.00000000000E+00  0.00000000000E+00 -0.15488411238E+04  0.15488411238E+04  0.25500000920E-02 0. -1.
    10030    2    1    2    0    0  0.00000000000E+00  0.00000000000E+00  0.71726934846E+03  0.38149515961E+04  0.37469161136E+04 0.  0.
        3    1    3    3  502    0  0.58384544787E+03  0.16620081545E+03 -0.14459323142E+04  0.15681895566E+04  0.10100000352E+00 0. -1.
       -3    1    3    3    0  502 -0.58384544787E+03 -0.16620081545E+03  0.21632016627E+04  0.22467620394E+04  0.10100000352E+00 0.  1.
</event>
<event>
 5   0  0.6661000E-08  0.3800275E+04  0.7818609E-02  0.8046096E-01
       -1   -1    0    0    0  501  0.00000000000E+00  0.00000000000E+00  0.19680398438E+04  0.19680398438E+04  0.50400001928E-02 0.  1.
        1   -1    0    0  501    0  0.00000000000E+00  0.00000000000E+00 -0.18345780508E+04  0.18345780508E+04  0.50400001928E-02 0. -1.
    10030    2    1    2    0    0  0.00000000000E+00  0.00000000000E+00  0.13346179302E+03  0.38026178946E+04  0.38002750956E+04 0.  0.
        3    1    3    3  502    0 -0.11211235364E+04  0.14903320495E+04 -0.29751973867E+03  0.18885247170E+04  0.10100000352E+00 0. -1.
       -3    1    3    3    0  502  0.11211235364E+04 -0.14903320495E+04  0.43098153168E+03  0.19140931776E+04  0.10100000352E+00 0.  1.
</event>
<event>
 5   0  0.2205204E-07  0.3725298E+04  0.7818609E-02  0.8062379E-01
        2   -1    0    0  501    0  0.00000000000E+00  0.00000000000E+00  0.29062907789E+04  0.29062907789E+04  0.25500000920E-02 0.  1.
       -2   -1    0    0    0  501  0.00000000000E+00  0.00000000000E+00 -0.11937762142E+04  0.11937762142E+04  0.25500000920E-02 0. -1.
    10030    2    1    2    0    0  0.00000000000E+00  0.00000000000E+00  0.17125145647E+04  0.41000669931E+04  0.37252977349E+04 0.  0.
        2    1    3    3  502    0 -0.14566215527E+04 -0.88491406206E+03  0.16832779909E+04  0.23954632203E+04  0.25500000920E-02 0.  1.
       -2    1    3    3    0  502  0.14566215527E+04  0.88491406206E+03  0.29236573815E+02  0.17046037728E+04  0.25500000920E-02 0. -1.
</event>
<event>
 5   0  0.2203998E-07  0.3780385E+04  0.7818609E-02  0.8050377E-01
        2   -1    0    0  501    0  0.00000000000E+00  0.00000000000E+00  0.23065704731E+04  0.23065704731E+04  0.25500000920E-02 0.  1.
       -2   -1    0    0    0  501  0.00000000000E+00  0.00000000000E+00 -0.15489786448E+04  0.15489786448E+04  0.25500000920E-02 0. -1.
    10030    2    1    2    0    0  0.00000000000E+00  0.00000000000E+00  0.75759182829E+03  0.38555491178E+04  0.37803853800E+04 0.  0.
        3    1    3    3  502    0  0.58103863360E+03  0.15465615762E+04 -0.55781493912E+03  0.17437362528E+04  0.10100000352E+00 0.  1.
       -3    1    3    3    0  502 -0.58103863360E+03 -0.15465615762E+04  0.13154067674E+04  0.21118128650E+04  0.10100000352E+00 0. -1.
</event>
<event>
 5   0  0.2205204E-07  0.3812527E+04  0.7818609E-02  0.8043472E-01
        2   -1    0    0  501    0  0.00000000000E+00  0.00000000000E+00  0.26254047575E+04  0.26254047575E+04  0.25500000920E-02 0. -1.
       -2   -1    0    0    0  501  0.00000000000E+00  0.00000000000E+00 -0.13841064922E+04  0.13841064922E+04  0.25500000920E-02 0.  1.
    10030    2    1    2    0    0  0.00000000000E+00  0.00000000000E+00  0.12412982654E+04  0.40095112497E+04  0.38125266003E+04 0.  0.
        2    1    3    3  502    0  0.42220903767E+03  0.14872834692E+03  0.25693469464E+04  0.26080499082E+04  0.25500000920E-02 0. -1.
       -2    1    3    3    0  502 -0.42220903767E+03 -0.14872834692E+03 -0.13280486810E+04  0.14014613415E+04  0.25500000920E-02 0.  1.
</event>
<event>
 5   0  0.2135314E-07  0.3784604E+04  0.7818609E-02  0.8049467E-01
        2   -1    0    0  501    0  0.00000000000E+00  0.00000000000E+00  0.10713225913E+04  0.10713225913E+04  0.25500000920E-02 0.  1.
       -2   -1    0    0    0  501  0.00000000000E+00  0.00000000000E+00 -0.33424168655E+04  0.33424168655E+04  0.25500000920E-02 0. -1.
    10030    2    1    2    0    0  0.00000000000E+00  0.00000000000E+00 -0.22710942742E+04  0.44137394568E+04  0.37846039146E+04 0.  0.
        4    1    3    3  502    0 -0.16095913210E+04 -0.55194676247E+03 -0.21010433837E+04  0.27036668364E+04  0.12699999809E+01 0. -1.
       -4    1    3    3    0  502  0.16095913210E+04  0.55194676247E+03 -0.17005089051E+03  0.17100726205E+04  0.12699999809E+01 0.  1.
</event>
<event>
 5   0  0.6725199E-08  0.3910877E+04  0.7818609E-02  0.8022771E-01
       -1   -1    0    0    0  501  0.00000000000E+00  0.00000000000E+00  0.16633985054E+04  0.16633985054E+04  0.50400001928E-02 0.  1.
        1   -1    0    0  501    0  0.00000000000E+00  0.00000000000E+00 -0.22987510286E+04  0.22987510286E+04  0.50400001928E-02 0. -1.
    10030    2    1    2    0    0  0.00000000000E+00  0.00000000000E+00 -0.63535252317E+03  0.39621495340E+04  0.39108766410E+04 0.  0.
        5    1    3    3  502    0 -0.13090563583E+04 -0.70809466938E+03 -0.16026462060E+04  0.21871267823E+04  0.46999998093E+01 0. -1.
       -5    1    3    3    0  502  0.13090563583E+04  0.70809466938E+03  0.96729368285E+03  0.17750227517E+04  0.46999998093E+01 0.  1.
</event>
<event>
 5   0  0.6661000E-08  0.3783904E+04  0.7818609E-02  0.8049618E-01
        1   -1    0    0  501    0  0.00000000000E+00  0.00000000000E+00  0.11929813492E+04  0.11929813493E+04  0.50400001928E-02 0.  1.
       -1   -1    0    0    0  501  0.00000000000E+00  0.00000000000E+00 -0.30004506088E+04  0.30004506088E+04  0.50400001928E-02 0. -1.
    10030    2    1    2    0    0  0.00000000000E+00  0.00000000000E+00 -0.18074692596E+04  0.41934319581E+04  0.37839036012E+04 0.  0.
        4    1    3    3  502    0 -0.16832951429E+04  0.72094278817E+03 -0.37661008898E+03  0.18695127209E+04  0.12699999809E+01 0.  1.
       -4    1    3    3    0  502  0.16832951429E+04 -0.72094278817E+03 -0.14308591706E+04  0.23239192371E+04  0.12699999809E+01 0. -1.
</event>
<event>
 5   0  0.2205204E-07  0.3780880E+04  0.7818609E-02  0.8050270E-01
       -2   -1    0    0    0  501  0.00000000000E+00  0.00000000000E+00  0.14252261057E+04  0.14252261057E+04  0.25500000920E-02 0. -1.
        2   -1    0    0  501    0  0.00000000000E+00  0.00000000000E+00 -0.25075063997E+04  0.25075063997E+04  0.25500000920E-02 0.  1.
    10030    2    1    2    0    0  0.00000000000E+00  0.00000000000E+00 -0.10822802940E+04  0.39327325054E+04  0.37808800992E+04 0.  0.
        2    1    3    3  502    0 -0.69601894589E+03 -0.15299084557E+04 -0.14411676973E+04  0.22140520743E+04  0.25500000920E-02 0.  1.
       -2    1    3    3    0  502  0.69601894589E+03  0.15299084557E+04  0.35888740329E+03  0.17186804311E+04  0.25500000920E-02 0. -1.
</event>
<event>
 5   0  0.2205204E-07  0.3785150E+04  0.7818609E-02  0.8049349E-01
       -2   -1    0    0    0  501  0.00000000000E+00  0.00000000000E+00  0.25533593473E+04  0.25533593473E+04  0.25500000920E-02 0. -1.
        2   -1    0    0  501    0  0.00000000000E+00  0.00000000000E+00 -0.14027949751E+04  0.14027949751E+04  0.25500000920E-02 0.  1.
    10030    2    1    2    0    0  0.00000000000E+00  0.00000000000E+00  0.11505643722E+04  0.39561543224E+04  0.37851497524E+04 0.  0.
        2    1    3    3  502    0  0.89955277487E+03  0.13969413533E+04  0.15224227771E+04  0.22535331042E+04  0.25500000920E-02 0. -1.
       -2    1    3    3    0  502 -0.89955277487E+03 -0.13969413533E+04 -0.37185840487E+03  0.17026212182E+04  0.25500000920E-02 0.  1.
</event>
<event>
 5   0  0.6725199E-08  0.3795449E+04  0.7818609E-02  0.8047132E-01
       -1   -1    0    0    0  501  0.00000000000E+00  0.00000000000E+00  0.19391711692E+04  0.19391711692E+04  0.50400001928E-02 0.  1.
        1   -1    0    0  501    0  0.00000000000E+00  0.00000000000E+00 -0.18571637789E+04  0.18571637789E+04  0.50400001928E-02 0. -1.
    10030    2    1    2    0    0  0.00000000000E+00  0.00000000000E+00  0.82007390280E+02  0.37963349482E+04  0.37954490942E+04 0.  0.
        5    1    3    3  502    0 -0.33160997088E+03 -0.30670252310E+03  0.18846117870E+04  0.19379925924E+04  0.46999998093E+01 0.  1.
       -5    1    3    3    0  502  0.33160997088E+03  0.30670252310E+03 -0.18026043967E+04  0.18583423558E+04  0.46999998093E+01 0. -1.
</event>
<event>
 5   0  0.2203998E-07  0.3795840E+04  0.7818609E-02  0.8047048E-01
       -2   -1    0    0    0  501  0.00000000000E+00  0.00000000000E+00  0.14655719233E+04  0.14655719233E+04  0.25500000920E-02 0.  1.
        2   -1    0    0  501    0  0.00000000000E+00  0.00000000000E+00 -0.24578122478E+04  0.24578122478E+04  0.25500000920E-02 0. -1.
    10030    2    1    2    0    0  0.00000000000E+00  0.00000000000E+00 -0.99224032448E+03  0.39233841711E+04  0.37958401563E+04 0.  0.
        3    1    3    3  502    0  0.47932266555E+03 -0.36045717175E+03 -0.23572969307E+04  0.24323915022E+04  0.10100000352E+00 0. -1.
       -3    1    3    3    0  502 -0.47932266555E+03  0.36045717175E+03  0.13650566062E+04  0.14909926689E+04  0.10100000352E+00 0.  1.
</event>
<event>
 5   0  0.1370688E-07  0.3772066E+04  0.7818609E-02  0.8052176E-01
        2   -1    0    0  501    0  0.00000000000E+00  0.00000000000E+00  0.19777265654E+04  0.19777265654E+04  0.25500000920E-02 0.  1.
       -2   -1    0    0    0  501  0.00000000000E+00  0.00000000000E+00 -0.17985903872E+04  0.17985903872E+04  0.25500000920E-02 0. -1.
    10030    2    1    2    0    0  0.00000000000E+00  0.00000000000E+00  0.17913617822E+03  0.37763169526E+04  0.37720657413E+04 0.  0.
        5    1    3    3  502    0  0.13914385817E+04 -0.43489032359E+03  0.12875231370E+04  0.19449855625E+04  0.46999998093E+01 0.  1.
       -5    1    3    3    0  502 -0.13914385817E+04  0.43489032359E+03 -0.11083869587E+04  0.18313313901E+04  0.46999998093E+01 0. -1.
</event>
<event>
 5   0  0.6661000E-08  0.3683095E+04  0.7818609E-02  0.8071718E-01
        1   -1    0    0  501    0  0.00000000000E+00  0.00000000000E+00  0.28583718472E+04  0.28583718473E+04  0.50400001928E-02 0. -1.
       -1   -1    0    0    0  501  0.00000000000E+00  0.00000000000E+00 -0.11864438195E+04  0.11864438195E+04  0.50400001928E-02 0.  1.
    10030    2    1    2    0    0  0.00000000000E+00  0.00000000000E+00  0.16719280277E+04  0.40448156668E+04  0.36830952266E+04 0.  0.
        4    1    3    3  502    0 -0.79632351807E+03  0.16114961716E+04  0.12755845312E+04  0.22041253516E+04  0.12699999809E+01 0.  1.
       -4    1    3    3    0  502  0.79632351807E+03 -0.16114961716E+04  0.39634349655E+03  0.18406903152E+04  0.12699999809E+01 0. -1.
</event>
<event>
 5   0  0.2205204E-07  0.3800747E+04  0.7818609E-02  0.8045995E-01
        2   -1    0    0  501    0  0.00000000000E+00  0.00000000000E+00  0.25185818412E+04  0.25185818412E+04  0.25500000920E-02 0.  1.
       -2   -1    0    0    0  501  0.00000000000E+00  0.00000000000E+00 -0.14339099133E+04  0.14339099133E+04  0.25500000920E-02 0. -1.
    10030    2    1    2    0    0  0.00000000000E+00  0.00000000000E+00  0.10846719279E+04  0.39524917545E+04  0.38007470158E+04 0.  0.
        2    1    3    3  502    0 -0.10377463652E+03 -0.70047021531E+03  0.23762612113E+04  0.24795251647E+04  0.25500000920E-02 0.  1.
       -2    1    3    3    0  502  0.10377463652E+03  0.70047021531E+03 -0.12915892834E+04  0.14729665899E+04  0.25500000920E-02 0. -1.
</event>
<event>
 5   0  0.1370688E-07  0.3794761E+04  0.7818609E-02  0.8047280E-01
       -2   -1    0    0    0  501  0.00000000000E+00  0.00000000000E+00  0.15617438079E+04  0.15617438079E+04  0.25500000920E-02 0. -1.
        2   -1    0    0  501    0  0.00000000000E+00  0.00000000000E+00 -0.23051493106E+04  0.23051493106E+04  0.25500000920E-02 0.  1.
    10030    2    1    2    0    0  0.00000000000E+00  0.00000000000E+00 -0.74340550270E+03  0.38668931184E+04  0.37947609474E+04 0.  0.
        5    1    3    3  502    0  0.11801360695E+04  0.84054865382E+03 -0.16200555284E+04  0.21734408635E+04  0.46999998093E+01 0.  1.
       -5    1    3    3    0  502 -0.11801360695E+04 -0.84054865382E+03  0.87665002572E+03  0.16934522549E+04  0.46999998093E+01 0. -1.
</event>
<event>
 5   0  0.1370688E-07  0.3847056E+04  0.7818609E-02  0.8036132E-01
        2   -1    0    0  501    0  0.00000000000E+00  0.00000000000E+00  0.16841103314E+04  0.16841103314E+04  0.25500000920E-02 0.  1.
       -2   -1    0    0    0  501  0.00000000000E+00  0.00000000000E+00 -0.21969819077E+04  0.21969819077E+04  0.25500000920E-02 0. -1.
    10030    2    1    2    0    0  0.00000000000E+00  0.00000000000E+00 -0.51287157631E+03  0.38810922391E+04  0.38470559802E+04 0.  0.
        5    1    3    3  502    0  0.16317811494E+04 -0.26906351076E+03  0.73451370745E+03  0.18095959131E+04  0.46999998093E+01 0. -1.
       -5    1    3    3    0  502 -0.16317811494E+04  0.26906351076E+03 -0.12473852838E+04  0.20714963260E+04  0.46999998093E+01 0.  1.
</event>
<event>
 5   0  0.6725199E-08  0.3850920E+04  0.7818609E-02  0.8035315E-01
        1   -1    0    0  501    0  0.00000000000E+00  0.00000000000E+00  0.15957441670E+04  0.15957441670E+04  0.50400001928E-02 0. -1.
       -1   -1    0    0    0  501  0.00000000000E+00  0.00000000000E+00 -0.23233023203E+04  0.23233023203E+04  0.50400001928E-02 0.  1.
    10030    2    1    2    0    0  0.00000000000E+00  0.00000000000E+00 -0.72755815325E+03  0.39190464873E+04  0.38509199555E+04 0.  0.
        5    1    3    3  502    0 -0.90052288252E+03 -0.16941433388E+04 -0.52885508276E+03  0.19901690639E+04  0.46999998093E+01 0.  1.
       -5    1    3    3    0  502  0.90052288252E+03  0.16941433388E+04 -0.19870307049E+03  0.19288774234E+04  0.46999998093E+01 0. -1.
</event>
<event>
 5   0  0.2135314E-07  0.3850170E+04  0.7818609E-02  0.8035474E-01
       -2   -1    0    0    0  501  0.00000000000E+00  0.00000000000E+00  0.22116195475E+04  0.22116195475E+04  0.25500000920E-02 0.  1.
        2   -1    0    0  501    0  0.00000000000E+00  0.00000000000E+00 -0.16756731468E+04  0.16756731468E+04  0.25500000920E-02 0. -1.
    10030    2    1    2    0    0  0.00000000000E+00  0.00000000000E+00  0.53594640071E+03  0.38872926943E+04  0.38501695997E+04 0.  0.
        4    1    3    3  502    0  0.68330443894E+03  0.76374022377E+03  0.19133320531E+04  0.21704942396E+04  0.12699999809E+01 0.  1.
       -4    1    3    3    0  502 -0.68330443894E+03 -0.76374022377E+03 -0.13773856524E+04  0.17167984547E+04  0.12699999809E+01 0. -1.
</event>
<event>
 5   0  0.6661000E-08  0.3817462E+04  0.7818609E-02  0.8042418E-01
       -1   -1    0    0    0  501  0.00000000000E+00  0.00000000000E+00  0.19807508230E+04  0.19807508230E+04  0.50400001928E-02 0.  1.
        1   -1    0    0  501    0  0.00000000000E+00  0.00000000000E+00 -0.18393295543E+04  0.18393295543E+04  0.50400001928E-02 0. -1.
    10030    2    1    2    0    0  0.00000000000E+00  0.00000000000E+00  0.14142126872E+03  0.38200803774E+04  0.38174617371E+04 0.  0.
        3    1    3    3  502    0 -0.11492990327E+04 -0.11928741708E+04 -0.87831561499E+03  0.18749067666E+04  0.10100000352E+00 0. -1.
       -3    1    3    3    0  502  0.11492990327E+04  0.11928741708E+04  0.10197368837E+04  0.19451736107E+04  0.10100000352E+00 0.  1.
</event>
<event>
 5   0  0.6661000E-08  0.3775106E+04  0.7818609E-02  0.8051518E-01
        4   -1    0    0  501    0  0.00000000000E+00  0.00000000000E+00  0.24335192169E+04  0.24335195483E+04  0.12699999809E+01 0. -1.
       -4   -1    0    0    0  501  0.00000000000E+00  0.00000000000E+00 -0.14640746853E+04  0.14640752361E+04  0.12699999809E+01 0.  1.
    10030    2    1    2    0    0  0.00000000000E+00  0.00000000000E+00  0.96944453167E+03  0.38975947844E+04  0.37751056149E+04 0.  0.
        4    1    3    3  502    0  0.75570196777E+03 -0.13271079851E+03 -0.12958084835E+04  0.15059279063E+04  0.12699999809E+01 0.  1.
       -4    1    3    3    0  502 -0.75570196777E+03  0.13271079851E+03  0.22652530152E+04  0.23916668781E+04  0.12699999809E+01 0. -1.
</event>
<event>
 5   0  0.2205204E-07  0.3778800E+04  0.7818609E-02  0.8050720E-01
       -2   -1    0    0    0  501  0.00000000000E+00  0.00000000000E+00  0.18929836940E+04  0.18929836940E+04  0.25500000920E-02 0. -1.
        2   -1    0    0  501    0  0.00000000000E+00  0.00000000000E+00 -0.18858230185E+04  0.18858230185E+04  0.25500000920E-02 0.  1.
    10030    2    1    2    0    0  0.00000000000E+00  0.00000000000E+00  0.71606754871E+01  0.37788067125E+04  0.37787999279E+04 0.  0.
        2    1    3    3  502    0  0.23133780961E+03  0.11627685537E+03  0.18751591666E+04  0.18929499173E+04  0.25500000920E-02 0. -1.
       -2    1    3    3    0  502 -0.23133780961E+03 -0.11627685537E+03 -0.18679984911E+04  0.18858567952E+04  0.25500000920E-02 0.  1.
</event>
<event>
 5   0  0.1370688E-07  0.3831435E+04  0.7818609E-02  0.8039442E-01
       -2   -1    0    0    0  501  0.00000000000E+00  0.00000000000E+00  0.25259283000E+04  0.25259283000E+04  0.25500000920E-02 0. -1.
        2   -1    0    0  501    0  0.00000000000E+00  0.00000000000E+00 -0.14529209632E+04  0.14529209632E+04  0.25500000920E-02 0.  1.
    10030    2    1    2    0    0  0.00000000000E+00  0.00000000000E+00  0.10730073367E+04  0.39788492632E+04  0.38314353335E+04 0.  0.
        5    1    3    3  502    0 -0.60417555960E+03  0.16105015772E+04  0.14122826176E+04  0.22256027765E+04  0.46999998093E+01 0. -1.
       -5    1    3    3    0  502  0.60417555960E+03 -0.16105015772E+04 -0.33927528091E+03  0.17532464867E+04  0.46999998093E+01 0.  1.
</event>
<event>
 5   0  0.6661000E-08  0.3824792E+04  0.7818609E-02  0.8040855E-01
       -1   -1    0    0    0  501  0.00000000000E+00  0.00000000000E+00  0.19141332313E+04  0.19141332314E+04  0.50400001928E-02 0. -1.
        1   -1    0    0  501    0  0.00000000000E+00  0.00000000000E+00 -0.19106607843E+04  0.19106607843E+04  0.50400001928E-02 0.  1.
    10030    2    1    2    0    0  0.00000000000E+00  0.00000000000E+00  0.34724470437E+01  0.38247940157E+04  0.38247924394E+04 0.  0.
        4    1    3    3  502    0  0.12898783187E+04 -0.14094754910E+04 -0.81031263314E+02  0.19123218650E+04  0.12699999809E+01 0.  1.
       -4    1    3    3    0  502 -0.12898783187E+04  0.14094754910E+04  0.84503710358E+02  0.19124721506E+04  0.12699999809E+01 0. -1.
</event>
<event>
 5   0  0.1370688E-07  0.3351547E+04  0.7818609E-02  0.8149902E-01
       -2   -1    0    0    0  501  0.00000000000E+00  0.00000000000E+00  0.22607449596E+04  0.22607449596E+04  0.25500000920E-02 0.  1.
        2   -1    0    0  501    0  0.00000000000E+00  0.00000000000E+00 -0.12421641234E+04  0.12421641234E+04  0.25500000920E-02 0. -1.
    10030    2    1    2    0    0  0.00000000000E+00  0.00000000000E+00  0.10185808362E+04  0.35029090830E+04  0.33515466764E+04 0.  0.
        5    1    3    3  502    0  0.97379132512E+02  0.20417883735E+03 -0.12261261861E+04  0.12468276574E+04  0.46999998093E+01 0. -1.
       -5    1    3    3    0  502 -0.97379132512E+02 -0.20417883735E+03  0.22447070223E+04  0.22560814256E+04  0.46999998093E+01 0.  1.
</event>
<event>
 5   0  0.6661000E-08  0.3795966E+04  0.7818609E-02  0.8047021E-01
       -1   -1    0    0    0  501  0.00000000000E+00  0.00000000000E+00  0.20073471374E+04  0.20073471374E+04  0.50400001928E-02 0.  1.
        1   -1    0    0  501    0  0.00000000000E+00  0.00000000000E+00 -0.17945773745E+04  0.17945773745E+04  0.50400001928E-02 0. -1.
    10030    2    1    2    0    0  0.00000000000E+00  0.00000000000E+00  0.21276976290E+03  0.38019245120E+04  0.37959661514E+04 0.  0.
        1    1    3    3  502    0 -0.19368785618E+03 -0.13159739593E+04 -0.12496373530E+04  0.18250742344E+04  0.50400001928E-02 0. -1.
       -1    1    3    3    0  502  0.19368785618E+03  0.13159739593E+04  0.14624071159E+04  0.19768502775E+04  0.50400001928E-02 0.  1.
</event>
<event>
 5   0  0.2205204E-07  0.3800066E+04  0.7818609E-02  0.8046141E-01
        2   -1    0    0  501    0  0.00000000000E+00  0.00000000000E+00  0.26442516513E+04  0.26442516513E+04  0.25500000920E-02 0.  1.
       -2   -1    0    0    0  501  0.00000000000E+00  0.00000000000E+00 -0.13652733415E+04  0.13652733415E+04  0.25500000920E-02 0. -1.
    10030    2    1    2    0    0  0.00000000000E+00  0.00000000000E+00  0.12789783098E+04  0.40095249928E+04  0.38000664666E+04 0.  0.
        2    1    3    3  502    0 -0.10988916961E+03  0.71244475118E+03  0.24943623206E+04  0.25964392039E+04  0.25500000920E-02 0.  1.
       -2    1    3    3    0  502  0.10988916961E+03 -0.71244475118E+03 -0.12153840108E+04  0.14130857889E+04  0.25500000920E-02 0. -1.
</event>
<event>
 5   0  0.2203998E-07  0.3764648E+04  0.7818609E-02  0.8053784E-01
       -2   -1    0    0    0  501  0.00000000000E+00  0.00000000000E+00  0.18739259032E+04  0.18739259032E+04  0.25500000920E-02 0.  1.
        2   -1    0    0  501    0  0.00000000000E+00  0.00000000000E+00 -0.18907598208E+04  0.18907598208E+04  0.25500000920E-02 0. -1.
    10030    2    1    2    0    0  0.00000000000E+00  0.00000000000E+00 -0.16833917604E+02  0.37646857239E+04  0.37646480870E+04 0.  0.
        3    1    3    3  502    0 -0.12932921379E+04  0.69121969893E+03 -0.11885789886E+04  0.18876199958E+04  0.10100000352E+00 0. -1.
       -3    1    3    3    0  502  0.12932921379E+04 -0.69121969893E+03  0.11717450710E+04  0.18770657281E+04  0.10100000352E+00 0.  1.
</event>
<event>
 5   0  0.2081337E-07  0.3817060E+04  0.7818609E-02  0.8042504E-01
        2   -1    0    0  501    0  0.00000000000E+00  0.00000000000E+00  0.24233601988E+04  0.24233601988E+04  0.25500000920E-02 0. -1.
       -2   -1    0    0    0  501  0.00000000000E+00  0.00000000000E+00 -0.15030730790E+04  0.15030730790E+04  0.25500000920E-02 0.  1.
    10030    2    1    2    0    0  0.00000000000E+00  0.00000000000E+00  0.92028711980E+03  0.39264332778E+04  0.38170603745E+04 0.  0.
        1    1    3    3  502    0  0.16795098301E+04  0.69225261884E+03 -0.14187861529E+03  0.18221131961E+04  0.50400001928E-02 0.  1.
       -1    1    3    3    0  502 -0.16795098301E+04 -0.69225261884E+03  0.10621657351E+04  0.21043200818E+04  0.50400001928E-02 0. -1.
</event>
<event>
 5   0  0.6661000E-08  0.3803105E+04  0.7818609E-02  0.8045489E-01
        1   -1    0    0  501    0  0.00000000000E+00  0.00000000000E+00  0.15342855603E+04  0.15342855603E+04  0.50400001928E-02 0. -1.
       -1   -1    0    0    0  501  0.00000000000E+00  0.00000000000E+00 -0.23567327641E+04  0.23567327641E+04  0.50400001928E-02 0.  1.
    10030    2    1    2    0    0  0.00000000000E+00  0.00000000000E+00 -0.82244720384E+03  0.38910183244E+04  0.38031045473E+04 0.  0.
        4    1    3    3  502    0 -0.18718431223E+04 -0.11496074908E+03 -0.73295551970E+03  0.20135138577E+04  0.12699999809E+01 0.  1.
       -4    1    3    3    0  502  0.18718431223E+04  0.11496074908E+03 -0.89491684132E+02  0.18775044668E+04  0.12699999809E+01 0. -1.
</event>
<event>
 5   0  0.2203998E-07  0.3822314E+04  0.7818609E-02  0.8041383E-01
       -2   -1    0    0    0  501  0.00000000000E+00  0.00000000000E+00  0.16088729958E+04  0.16088729958E+04  0.25500000920E-02 0. -1.
        2   -1    0    0  501    0  0.00000000000E+00  0.00000000000E+00 -0.22702358837E+04  0.22702358837E+04  0.25500000920E-02 0.  1.
    10030    2    1    2    0    0  0.00000000000E+00  0.00000000000E+00 -0.66136288791E+03  0.38791088795E+04  0.38223140673E+04 0.  0.
        3    1    3    3  502    0  0.18137176125E+04  0.57918386228E+03 -0.16239940003E+03  0.19108634434E+04  0.10100000352E+00 0. -1.
       -3    1    3    3    0  502 -0.18137176125E+04 -0.57918386228E+03 -0.49896348788E+03  0.19682454360E+04  0.10100000352E+00 0.  1.
</event>
<event>
 5   0  0.6661000E-08  0.3912413E+04  0.7818609E-02  0.8022452E-01
       -1   -1    0    0    0  501  0.00000000000E+00  0.00000000000E+00  0.14876937377E+04  0.14876937377E+04  0.50400001928E-02 0. -1.
        1   -1    0    0  501    0  0.00000000000E+00  0.00000000000E+00 -0.25722660889E+04  0.25722660889E+04  0.50400001928E-02 0.  1.
    10030    2    1    2    0    0  0.00000000000E+00  0.00000000000E+00 -0.10845723512E+04  0.40599598266E+04  0.39124131439E+04 0.  0.
        4    1    3    3  502    0  0.77204453095E+03  0.13030027024E+04  0.74249811871E+03  0.16867643194E+04  0.12699999809E+01 0. -1.
       -4    1    3    3    0  502 -0.77204453095E+03 -0.13030027024E+04 -0.18270704699E+04  0.23731955071E+04  0.12699999809E+01 0.  1.
</event>
<event>
 5   0  0.1370688E-07  0.3653359E+04  0.7818609E-02  0.8078377E-01
        2   -1    0    0  501    0  0.00000000000E+00  0.00000000000E+00  0.20740713017E+04  0.20740713017E+04  0.25500000920E-02 0.  1.
       -2   -1    0    0    0  501  0.00000000000E+00  0.00000000000E+00 -0.16087960472E+04  0.16087960472E+04  0.25500000920E-02 0. -1.
    10030    2    1    2    0    0  0.00000000000E+00  0.00000000000E+00  0.46527525449E+03  0.36828673489E+04  0.36533588446E+04 0.  0.
        5    1    3    3  502    0 -0.92229812951E+03 -0.70897786122E+03 -0.11870886185E+04  0.16620724790E+04  0.46999998093E+01 0. -1.
       -5    1    3    3    0  502  0.92229812951E+03  0.70897786122E+03  0.16523638730E+04  0.20207948699E+04  0.46999998093E+01 0.  1.
</event>
<event>
 5   0  0.6661000E-08  0.3712854E+04  0.7818609E-02  0.8065119E-01
       -1   -1    0    0    0  501  0.00000000000E+00  0.00000000000E+00  0.25117195425E+04  0.25117195425E+04  0.50400001928E-02 0.  1.
        1   -1    0    0  501    0  0.00000000000E+00  0.00000000000E+00 -0.13720966034E+04  0.13720966034E+04  0.50400001928E-02 0. -1.
    10030    2    1    2    0    0  0.00000000000E+00  0.00000000000E+00  0.11396229391E+04  0.38838161459E+04  0.37128543484E+04 0.  0.
        2    1    3    3  502    0 -0.68048131073E+03 -0.15931283587E+04  0.12677750352E+04  0.21467105817E+04  0.25500000920E-02 0.  1.
       -2    1    3    3    0  502  0.68048131073E+03  0.15931283587E+04 -0.12815209612E+03  0.17371055643E+04  0.25500000920E-02 0. -1.
</event>
<event>
 5   0  0.6661000E-08  0.3792119E+04  0.7818609E-02  0.8047848E-01
       -1   -1    0    0    0  501  0.00000000000E+00  0.00000000000E+00  0.15871678997E+04  0.15871678997E+04  0.50400001928E-02 0.  1.
        1   -1    0    0  501    0  0.00000000000E+00  0.00000000000E+00 -0.22650675738E+04  0.22650675738E+04  0.50400001928E-02 0. -1.
    10030    2    1    2    0    0  0.00000000000E+00  0.00000000000E+00 -0.67789967405E+03  0.38522354735E+04  0.37921194833E+04 0.  0.
        3    1    3    3  502    0  0.75459074379E+03 -0.93926564350E+03 -0.18261998662E+04  0.21878375400E+04  0.10100000352E+00 0. -1.
       -3    1    3    3    0  502 -0.75459074379E+03  0.93926564350E+03  0.11483001922E+04  0.16643979336E+04  0.10100000352E+00 0.  1.
</event>
<event>
 5   0  0.2081337E-07  0.3808410E+04  0.7818609E-02  0.8044353E-01
       -2   -1    0    0    0  501  0.00000000000E+00  0.00000000000E+00  0.32003733119E+04  0.32003733119E+04  0.25500000920E-02 0. -1.
        2   -1    0    0  501    0  0.00000000000E+00  0.00000000000E+00 -0.11329915030E+04  0.11329915030E+04  0.25500000920E-02 0.  1.
    10030    2    1    2    0    0  0.00000000000E+00  0.00000000000E+00  0.20673818089E+04  0.43333648149E+04  0.38084095204E+04 0.  0.
        1    1    3    3  502    0  0.13450122350E+04  0.90008658520E+03 -0.10800207569E+03  0.16219982188E+04  0.50400001928E-02 0.  1.
       -1    1    3    3    0  502 -0.13450122350E+04 -0.90008658520E+03  0.21753838846E+04  0.27113665961E+04  0.50400001928E-02 0. -1.
</event>
<event>
 5   0  0.2135314E-07  0.3777957E+04  0.7818609E-02  0.8050902E-01
        2   -1    0    0  501    0  0.00000000000E+00  0.00000000000E+00  0.18146014385E+04  0.18146014385E+04  0.25500000920E-02 0.  1.
       -2   -1    0    0    0  501  0.00000000000E+00  0.00000000000E+00 -0.19664044321E+04  0.19664044321E+04  0.25500000920E-02 0. -1.
    10030    2    1    2    0    0  0.00000000000E+00  0.00000000000E+00 -0.15180299358E+03  0.37810058706E+04  0.37779572846E+04 0.  0.
        4    1    3    3  502    0  0.79736962315E+03 -0.38922652163E+03 -0.17448631554E+04  0.19575098072E+04  0.12699999809E+01 0. -1.
       -4    1    3    3    0  502 -0.79736962315E+03  0.38922652163E+03  0.15930601619E+04  0.18234960634E+04  0.12699999809E+01 0.  1.
</event>
<event>
 5   0  0.2203998E-07  0.3757917E+04  0.7818609E-02  0.8055247E-01
        2   -1    0    0  501    0  0.00000000000E+00  0.00000000000E+00  0.25217664819E+04  0.25217664819E+04  0.25500000920E-02 0.  1.
       -2   -1    0    0    0  501  0.00000000000E+00  0.00000000000E+00 -0.14000044123E+04  0.14000044123E+04  0.25500000920E-02 0. -1.
    10030    2    1    2    0    0  0.00000000000E+00  0.00000000000E+00  0.11217620696E+04  0.39217708942E+04  0.37579165512E+04 0.  0.
        3    1    3    3  502    0  0.17249098940E+03  0.40408913003E+03  0.24674038963E+04  0.25062169029E+04  0.10100000352E+00 0.  1.
       -3    1    3    3    0  502 -0.17249098940E+03 -0.40408913003E+03 -0.13456418267E+04  0.14155539913E+04  0.10100000352E+00 0. -1.
</event>
<event>
 5   0  0.6661000E-08  0.3590149E+04  0.7818609E-02  0.8092752E-01
        1   -1    0    0  501    0  0.00000000000E+00  0.00000000000E+00  0.16017386047E+04  0.16017386047E+04  0.50400001928E-02 0.  1.
       -1   -1    0    0    0  501  0.00000000000E+00  0.00000000000E+00 -0.20117465573E+04  0.20117465573E+04  0.50400001928E-02 0. -1.
    10030    2    1    2    0    0  0.00000000000E+00  0.00000000000E+00 -0.41000795259E+03  0.36134851620E+04  0.35901488123E+04 0.  0.
        2    1    3    3  502    0  0.11360893205E+04  0.13108475049E+04  0.25981167608E+03  0.17540017766E+04  0.25500000920E-02 0.  1.
       -2    1    3    3    0  502 -0.11360893205E+04 -0.13108475049E+04 -0.66981962868E+03  0.18594833853E+04  0.25500000920E-02 0. -1.
</event>
<event>
 5   0  0.6661000E-08  0.3812015E+04  0.7818609E-02  0.8043581E-01
       -1   -1    0    0    0  501  0.00000000000E+00  0.00000000000E+00  0.13685916459E+04  0.13685916459E+04  0.50400001928E-02 0.  1.
        1   -1    0    0  501    0  0.00000000000E+00  0.00000000000E+00 -0.26544554359E+04  0.26544554359E+04  0.50400001928E-02 0. -1.
    10030    2    1    2    0    0  0.00000000000E+00  0.00000000000E+00 -0.12858637900E+04  0.40230470818E+04  0.38120154952E+04 0.  0.
        2    1    3    3  502    0 -0.58325071656E+03  0.92778373413E+03 -0.22887182079E+04  0.25375569138E+04  0.25500000920E-02 0.  1.
       -2    1    3    3    0  502  0.58325071656E+03 -0.92778373413E+03  0.10028544179E+04  0.14854901680E+04  0.25500000920E-02 0. -1.
</event>
<event>
 5   0  0.1370688E-07  0.3795930E+04  0.7818609E-02  0.8047029E-01
       -2   -1    0    0    0  501  0.00000000000E+00  0.00000000000E+00  0.17149912133E+04  0.17149912133E+04  0.25500000920E-02 0.  1.
        2   -1    0    0  501    0  0.00000000000E+00  0.00000000000E+00 -0.21004607558E+04  0.21004607558E+04  0.25500000920E-02 0. -1.
    10030    2    1    2    0    0  0.00000000000E+00  0.00000000000E+00 -0.38546954250E+03  0.38154519692E+04  0.37959303156E+04 0.  0.
        5    1    3    3  502    0 -0.12046646416E+04  0.11682757827E+04  0.69848427545E+03  0.18176874253E+04  0.46999998093E+01 0.  1.
       -5    1    3    3    0  502  0.12046646416E+04 -0.11682757827E+04 -0.10839538179E+04  0.19977645438E+04  0.46999998093E+01 0. -1.
</event>
<event>
 5   0  0.6661000E-08  0.3812621E+04  0.7818609E-02  0.8043452E-01
        1   -1    0    0  501    0  0.00000000000E+00  0.00000000000E+00  0.28668458708E+04  0.28668458708E+04  0.50400001928E-02 0.  1.
       -1   -1    0    0    0  501  0.00000000000E+00  0.00000000000E+00 -0.12676022243E+04  0.12676022243E+04  0.50400001928E-02 0. -1.
    10030    2    1    2    0    0  0.00000000000E+00  0.00000000000E+00  0.15992436465E+04  0.41344480950E+04  0.38126212518E+04 0.  0.
        1    1    3    3  502    0  0.13762095304E+04 -0.12155737778E+04  0.24408167734E+03  0.18523358621E+04  0.50400001928E-02 0.  1.
       -1    1    3    3    0  502 -0.13762095304E+04  0.12155737778E+04  0.13551619692E+04  0.22821122329E+04  0.50400001928E-02 0. -1.
</event>
<event>
 5   0  0.2203998E-07  0.3793258E+04  0.7818609E-02  0.8047603E-01
        2   -1    0    0  501    0  0.00000000000E+00  0.00000000000E+00  0.25879678456E+04  0.25879678456E+04  0.25500000920E-02 0.  1.
       -2   -1    0    0    0  501  0.00000000000E+00  0.00000000000E+00 -0.13899714679E+04  0.13899714679E+04  0.25500000920E-02 0. -1.
    10030    2    1    2    0    0  0.00000000000E+00  0.00000000000E+00  0.11979963777E+04  0.39779393135E+04  0.37932579481E+04 0.  0.
        3    1    3    3  502    0 -0.55472749898E+03  0.13407399921E+04 -0.68190092470E+03  0.16032140237E+04  0.10100000352E+00 0. -1.
       -3    1    3    3    0  502  0.55472749898E+03 -0.13407399921E+04  0.18798973024E+04  0.23747252898E+04  0.10100000352E+00 0.  1.
</event>
<event>
 5   0  0.1370688E-07  0.3840553E+04  0.7818609E-02  0.8037508E-01
        2   -1    0    0  501    0  0.00000000000E+00  0.00000000000E+00  0.26809292153E+04  0.26809292153E+04  0.25500000920E-02 0.  1.
       -2   -1    0    0    0  501  0.00000000000E+00  0.00000000000E+00 -0.13754417463E+04  0.13754417463E+04  0.25500000920E-02 0. -1.
    10030    2    1    2    0    0  0.00000000000E+00  0.00000000000E+00  0.13054874689E+04  0.40563709616E+04  0.38405530652E+04 0.  0.
        5    1    3    3  502    0  0.16915080025E+04 -0.14603910780E+03  0.16003292209E+04  0.23331528987E+04  0.46999998093E+01 0.  1.
       -5    1    3    3    0  502 -0.16915080025E+04  0.14603910780E+03 -0.29484175195E+03  0.17232180629E+04  0.46999998093E+01 0. -1.
</event>
<event>
 5   0  0.6661000E-08  0.3823043E+04  0.7818609E-02  0.8041228E-01
       -1   -1    0    0    0  501  0.00000000000E+00  0.00000000000E+00  0.17845938122E+04  0.17845938122E+04  0.50400001928E-02 0.  1.
        1   -1    0    0  501    0  0.00000000000E+00  0.00000000000E+00 -0.20474765770E+04  0.20474765770E+04  0.50400001928E-02 0. -1.
    10030    2    1    2    0    0  0.00000000000E+00  0.00000000000E+00 -0.26288276487E+03  0.38320703892E+04  0.38230427829E+04 0.  0.
        4    1    3    3  502    0 -0.11647899241E+04  0.29669749573E+03 -0.16212712314E+04  0.20182385860E+04  0.12699999809E+01 0. -1.
       -4    1    3    3    0  502  0.11647899241E+04 -0.29669749573E+03  0.13583884666E+04  0.18138318032E+04  0.12699999809E+01 0.  1.
</event>
<event>
 5   0  0.6725199E-08  0.3806826E+04  0.7818609E-02  0.8044692E-01
       -1   -1    0    0    0  501  0.00000000000E+00  0.00000000000E+00  0.27201791268E+04  0.27201791268E+04  0.50400001928E-02 0. -1.
        1   -1    0    0  501    0  0.00000000000E+00  0.00000000000E+00 -0.13318909161E+04  0.13318909161E+04  0.50400001928E-02 0.  1.
    10030    2    1    2    0    0  0.00000000000E+00  0.00000000000E+00  0.13882882107E+04  0.40520700430E+04  0.38068264312E+04 0.  0.
        5    1    3    3  502    0 -0.11632835867E+04 -0.80757503331E+03 -0.65962068273E+03  0.15622188299E+04  0.46999998093E+01 0.  1.
       -5    1    3    3    0  502  0.11632835867E+04  0.80757503331E+03  0.20479088934E+04  0.24898512131E+04  0.46999998093E+01 0. -1.
</event>
<event>
 5   0  0.2135314E-07  0.3769797E+04  0.7818609E-02  0.8052668E-01
        2   -1    0    0  501    0  0.00000000000E+00  0.00000000000E+00  0.10082460122E+04  0.10082460122E+04  0.25500000920E-02 0. -1.
       -2   -1    0    0    0  501  0.00000000000E+00  0.00000000000E+00 -0.35237843617E+04  0.35237843617E+04  0.25500000920E-02 0.  1.
    10030    2    1    2    0    0  0.00000000000E+00  0.00000000000E+00 -0.25155383495E+04  0.45320303739E+04  0.37697965624E+04 0.  0.
        4    1    3    3  502    0 -0.16772170266E+04  0.84381989450E+03 -0.14580382153E+04  0.23771760597E+04  0.12699999809E+01 0. -1.
       -4    1    3    3    0  502  0.16772170266E+04 -0.84381989450E+03 -0.10575001343E+04  0.21548543142E+04  0.12699999809E+01 0.  1.
</event>
<event>
 5   0  0.6725199E-08  0.3797915E+04  0.7818609E-02  0.8046603E-01
       -1   -1    0    0    0  501  0.00000000000E+00  0.00000000000E+00  0.32224508136E+04  0.32224508137E+04  0.50400001928E-02 0. -1.
        1   -1    0    0  501    0  0.00000000000E+00  0.00000000000E+00 -0.11190361470E+04  0.11190361470E+04  0.50400001928E-02 0.  1.
    10030    2    1    2    0    0  0.00000000000E+00  0.00000000000E+00  0.21034146666E+04  0.43414869607E+04  0.37979146607E+04 0.  0.
        5    1    3    3  502    0  0.14514442409E+04 -0.71836620013E+03 -0.81817717701E+02  0.16215599313E+04  0.46999998093E+01 0.  1.
       -5    1    3    3    0  502 -0.14514442409E+04  0.71836620013E+03  0.21852323843E+04  0.27199270294E+04  0.46999998093E+01 0. -1.
</event>
<event>
 5   0  0.2205204E-07  0.3765442E+04  0.7818609E-02  0.8053612E-01
        2   -1    0    0  501    0  0.00000000000E+00  0.00000000000E+00  0.27820028296E+04  0.27820028296E+04  0.25500000920E-02 0. -1.
       -2   -1    0    0    0  501  0.00000000000E+00  0.00000000000E+00 -0.12741315108E+04  0.12741315108E+04  0.25500000920E-02 0.  1.
    10030    2    1    2    0    0  0.00000000000E+00  0.00000000000E+00  0.15078713188E+04  0.40561343404E+04  0.37654415243E+04 0.  0.
        2    1    3    3  502    0 -0.12736161727E+04  0.39173651139E+03 -0.67881422641E+03  0.14954412070E+04  0.25500000920E-02 0.  1.
       -2    1    3    3    0  502  0.12736161727E+04 -0.39173651139E+03  0.21866855452E+04  0.25606931333E+04  0.25500000920E-02 0. -1.
</event>
<event>
 5   0  0.6661000E-08  0.3773230E+04  0.7818609E-02  0.8051924E-01
        1   -1    0    0  501    0  0.00000000000E+00  0.00000000000E+00  0.25299065199E+04  0.25299065199E+04  0.50400001928E-02 0.  1.
       -1   -1    0    0    0  501  0.00000000000E+00  0.00000000000E+00 -0.14068964065E+04  0.14068964065E+04  0.50400001928E-02 0. -1.
    10030    2    1    2    0    0  0.00000000000E+00  0.00000000000E+00  0.11230101134E+04  0.39368029265E+04  0.37732301238E+04 0.  0.
        2    1    3    3  502    0 -0.68410191897E+03 -0.16637221148E+04 -0.31784358574E+02  0.17991600697E+04  0.25500000920E-02 0.  1.
       -2    1    3    3    0  502  0.68410191897E+03  0.16637221148E+04  0.11547944720E+04  0.21376428568E+04  0.25500000920E-02 0. -1.
</event>
<event>
 5   0  0.6661000E-08  0.3797747E+04  0.7818609E-02  0.8046639E-01
        1   -1    0    0  501    0  0.00000000000E+00  0.00000000000E+00  0.12482844122E+04  0.12482844122E+04  0.50400001928E-02 0. -1.
       -1   -1    0    0    0  501  0.00000000000E+00  0.00000000000E+00 -0.28885406022E+04  0.28885406022E+04  0.50400001928E-02 0.  1.
    10030    2    1    2    0    0  0.00000000000E+00  0.00000000000E+00 -0.16402561900E+04  0.41368250144E+04  0.37977468098E+04 0.  0.
        4    1    3    3  502    0  0.14726006483E+04  0.78002585717E+03 -0.18117509262E+04  0.24615921755E+04  0.12699999809E+01 0.  1.
       -4    1    3    3    0  502 -0.14726006483E+04 -0.78002585717E+03  0.17149473612E+03  0.16752328389E+04  0.12699999809E+01 0. -1.
</event>
<event>
 5   0  0.2205204E-07  0.3814709E+04  0.7818609E-02  0.8043006E-01
        2   -1    0    0  501    0  0.00000000000E+00  0.00000000000E+00  0.17004419805E+04  0.17004419805E+04  0.25500000920E-02 0. -1.
       -2   -1    0    0    0  501  0.00000000000E+00  0.00000000000E+00 -0.21394444934E+04  0.21394444934E+04  0.25500000920E-02 0.  1.
    10030    2    1    2    0    0  0.00000000000E+00  0.00000000000E+00 -0.43900251298E+03  0.38398864739E+04  0.38147090225E+04 0.  0.
        2    1    3    3  502    0  0.11219790871E+04 -0.18228632351E+03  0.13222525690E+04  0.17436792228E+04  0.25500000920E-02 0. -1.
       -2    1    3    3    0  502 -0.11219790871E+04  0.18228632351E+03 -0.17612550820E+04  0.20962072511E+04  0.25500000920E-02 0.  1.
</event>
<event>
 5   0  0.2081337E-07  0.3809994E+04  0.7818609E-02  0.8044014E-01
       -2   -1    0    0    0  501  0.00000000000E+00  0.00000000000E+00  0.19576615354E+04  0.19576615354E+04  0.25500000920E-02 0. -1.
        2   -1    0    0  501    0  0.00000000000E+00  0.00000000000E+00 -0.18537496150E+04  0.18537496150E+04  0.25500000920E-02 0.  1.
    10030    2    1    2    0    0  0.00000000000E+00  0.00000000000E+00  0.10391192044E+03  0.38114111504E+04  0.38099943925E+04 0.  0.
        1    1    3    3  502    0 -0.13297327377E+04 -0.10876616558E+04 -0.77164678189E+03  0.18832513872E+04  0.50400001928E-02 0.  1.
       -1    1    3    3    0  502  0.13297327377E+04  0.10876616558E+04  0.87555870233E+03  0.19281597632E+04  0.50400001928E-02 0. -1.
</event>
<event>
 5   0  0.1370688E-07  0.3431840E+04  0.7818609E-02  0.8130136E-01
       -2   -1    0    0    0  501  0.00000000000E+00  0.00000000000E+00  0.32757237852E+04  0.32757237852E+04  0.25500000920E-02 0.  1.
        2   -1    0    0  501    0  0.00000000000E+00  0.00000000000E+00 -0.89884936046E+03  0.89884936046E+03  0.25500000920E-02 0. -1.
    10030    2    1    2    0    0  0.00000000000E+00  0.00000000000E+00  0.23768744247E+04  0.41745731457E+04  0.34318404563E+04 0.  0.
        5    1    3    3  502    0  0.16413226633E+04 -0.25371136641E+03  0.66374995235E+03  0.17885456751E+04  0.46999998093E+01 0.  1.
       -5    1    3    3    0  502 -0.16413226633E+04  0.25371136641E+03  0.17131244724E+04  0.23860274706E+04  0.46999998093E+01 0. -1.
</event>
<event>
 5   0  0.6661000E-08  0.3806661E+04  0.7818609E-02  0.8044727E-01
        1   -1    0    0  501    0  0.00000000000E+00  0.00000000000E+00  0.15973149259E+04  0.15973149259E+04  0.50400001928E-02 0.  1.
       -1   -1    0    0    0  501  0.00000000000E+00  0.00000000000E+00 -0.22679726103E+04  0.22679726103E+04  0.50400001928E-02 0. -1.
    10030    2    1    2    0    0  0.00000000000E+00  0.00000000000E+00 -0.67065768443E+03  0.38652875362E+04  0.38066607424E+04 0.  0.
        1    1    3    3  502    0  0.95784228684E+03  0.43484414209E+02  0.13341689944E+04  0.16429728076E+04  0.50400001928E-02 0.  1.
       -1    1    3    3    0  502 -0.95784228684E+03 -0.43484414209E+02 -0.20048266788E+04  0.22223147286E+04  0.50400001928E-02 0. -1.
</event>
<event>
 5   0  0.6661000E-08  0.4027036E+04  0.7818609E-02  0.7999115E-01
       -1   -1    0    0    0  501  0.00000000000E+00  0.00000000000E+00  0.29822123914E+04  0.29822123914E+04  0.50400001928E-02 0. -1.
        1   -1    0    0  501    0  0.00000000000E+00  0.00000000000E+00 -0.13594787977E+04  0.13594787977E+04  0.50400001928E-02 0.  1.
    10030    2    1    2    0    0  0.00000000000E+00  0.00000000000E+00  0.16227335937E+04  0.43416911892E+04  0.40270358908E+04 0.  0.
        4    1    3    3  502    0  0.53989854222E+03 -0.17903546851E+04  0.16162892041E+04  0.24716902594E+04  0.12699999809E+01 0. -1.
       -4    1    3    3    0  502 -0.53989854222E+03  0.17903546851E+04  0.64443896573E+01  0.18700009298E+04  0.12699999809E+01 0.  1.
</event>
<event>
 5   0  0.2135314E-07  0.3804842E+04  0.7818609E-02  0.8045117E-01
       -2   -1    0    0    0  501  0.00000000000E+00  0.00000000000E+00  0.14949351419E+04  0.14949351419E+04  0.25500000920E-02 0. -1.
        2   -1    0    0  501    0  0.00000000000E+00  0.00000000000E+00 -0.24209785924E+04  0.24209785924E+04  0.25500000920E-02 0.  1.
    10030    2    1    2    0    0  0.00000000000E+00  0.00000000000E+00 -0.92604345048E+03  0.39159137343E+04  0.38048421652E+04 0.  0.
        4    1    3    3  502    0 -0.14715639012E+04 -0.86608881467E+03 -0.13263134925E+04  0.21621099055E+04  0.12699999809E+01 0. -1.
       -4    1    3    3    0  502  0.14715639012E+04  0.86608881467E+03  0.40027004207E+03  0.17538038287E+04  0.12699999809E+01 0.  1.
</event>
<event>
 5   0  0.6661000E-08  0.4054946E+04  0.7818609E-02  0.7993553E-01
       -1   -1    0    0    0  501  0.00000000000E+00  0.00000000000E+00  0.20649060541E+04  0.20649060541E+04  0.50400001928E-02 0.  1.
        1   -1    0    0  501    0  0.00000000000E+00  0.00000000000E+00 -0.19907181690E+04  0.19907181690E+04  0.50400001928E-02 0. -1.
    10030    2    1    2    0    0  0.00000000000E+00  0.00000000000E+00  0.74187885067E+02  0.40556242232E+04  0.40549456220E+04 0.  0.
        3    1    3    3  502    0  0.99562212597E+03 -0.12215191278E+04 -0.12387658815E+04  0.20044733265E+04  0.10100000352E+00 0. -1.
       -3    1    3    3    0  502 -0.99562212597E+03  0.12215191278E+04  0.13129537666E+04  0.20511508966E+04  0.10100000352E+00 0.  1.
</event>
<event>
 5   0  0.6661000E-08  0.3788825E+04  0.7818609E-02  0.8048557E-01
       -1   -1    0    0    0  501  0.00000000000E+00  0.00000000000E+00  0.28468281601E+04  0.28468281601E+04  0.50400001928E-02 0. -1.
        1   -1    0    0  501    0  0.00000000000E+00  0.00000000000E+00 -0.12606303027E+04  0.12606303027E+04  0.50400001928E-02 0.  1.
    10030    2    1    2    0    0  0.00000000000E+00  0.00000000000E+00  0.15861978573E+04  0.41074584628E+04  0.37888245382E+04 0.  0.
        1    1    3    3  502    0  0.99938035907E+03  0.15892580899E+04  0.10679888800E+04  0.21598848641E+04  0.50400001928E-02 0. -1.
       -1    1    3    3    0  502 -0.99938035907E+03 -0.15892580899E+04  0.51820897734E+03  0.19475735987E+04  0.50400001928E-02 0.  1.
</event>
<event>
 5   0  0.6661000E-08  0.3797612E+04  0.7818609E-02  0.8046667E-01
        1   -1    0    0  501    0  0.00000000000E+00  0.00000000000E+00  0.24089070327E+04  0.24089070327E+04  0.50400001928E-02 0. -1.
       -1   -1    0    0    0  501  0.00000000000E+00  0.00000000000E+00 -0.14967222402E+04  0.14967222403E+04  0.50400001928E-02 0.  1.
    10030    2    1    2    0    0  0.00000000000E+00  0.00000000000E+00  0.91218479249E+03  0.39056292730E+04  0.37976122659E+04 0.  0.
        1    1    3    3  502    0 -0.16333956437E+04  0.96758388358E+03  0.41951637209E+03  0.19442720712E+04  0.50400001928E-02 0.  1.
       -1    1    3    3    0  502  0.16333956437E+04 -0.96758388358E+03  0.49266842040E+03  0.19613572018E+04  0.50400001928E-02 0. -1.
</event>
<event>
 5   0  0.2135314E-07  0.3774675E+04  0.7818609E-02  0.8051612E-01
       -2   -1    0    0    0  501  0.00000000000E+00  0.00000000000E+00  0.19429005111E+04  0.19429005111E+04  0.25500000920E-02 0. -1.
        2   -1    0    0  501    0  0.00000000000E+00  0.00000000000E+00 -0.18333631299E+04  0.18333631299E+04  0.25500000920E-02 0.  1.
    10030    2    1    2    0    0  0.00000000000E+00  0.00000000000E+00  0.10953738120E+03  0.37762636410E+04  0.37746746414E+04 0.  0.
        4    1    3    3  502    0 -0.26501332110E+03 -0.11254177126E+04 -0.14375842661E+04  0.18448434142E+04  0.12699999809E+01 0.  1.
       -4    1    3    3    0  502  0.26501332110E+03  0.11254177126E+04  0.15471216473E+04  0.19314202268E+04  0.12699999809E+01 0. -1.
</event>
<event>
 5   0  0.2203998E-07  0.3784164E+04  0.7818609E-02  0.8049562E-01
        2   -1    0    0  501    0  0.00000000000E+00  0.00000000000E+00  0.27510218938E+04  0.27510218938E+04  0.25500000920E-02 0.  1.
       -2   -1    0    0    0  501  0.00000000000E+00  0.00000000000E+00 -0.13013252916E+04  0.13013252916E+04  0.25500000920E-02 0. -1.
    10030    2    1    2    0    0  0.00000000000E+00  0.00000000000E+00  0.14496966022E+04  0.40523471854E+04  0.37841640388E+04 0.  0.
        3    1    3    3  502    0  0.37046479454E+03 -0.17154303593E+04 -0.32392898670E+02  0.17552762722E+04  0.10100000352E+00 0. -1.
       -3    1    3    3    0  502 -0.37046479454E+03  0.17154303593E+04  0.14820895009E+04  0.22970709132E+04  0.10100000352E+00 0.  1.
</event>
<event>
 5   0  0.1370688E-07  0.3796600E+04  0.7818609E-02  0.8046885E-01
       -2   -1    0    0    0  501  0.00000000000E+00  0.00000000000E+00  0.11558462605E+04  0.11558462605E+04  0.25500000920E-02 0. -1.
        2   -1    0    0  501    0  0.00000000000E+00  0.00000000000E+00 -0.31176657693E+04  0.31176657693E+04  0.25500000920E-02 0.  1.
    10030    2    1    2    0    0  0.00000000000E+00  0.00000000000E+00 -0.19618195087E+04  0.42735120298E+04  0.37965997003E+04 0.  0.
        5    1    3    3  502    0 -0.17954299220E+04  0.82821375754E+02 -0.16684501714E+04  0.24523817096E+04  0.46999998093E+01 0.  1.
       -5    1    3    3    0  502  0.17954299220E+04 -0.82821375754E+02 -0.29336933732E+03  0.18211303202E+04  0.46999998093E+01 0. -1.
</event>
<event>
 5   0  0.2203998E-07  0.3764496E+04  0.7818609E-02  0.8053817E-01
        2   -1    0    0  501    0  0.00000000000E+00  0.00000000000E+00  0.13990324401E+04  0.13990324401E+04  0.25500000920E-02 0. -1.
       -2   -1    0    0    0  501  0.00000000000E+00  0.00000000000E+00 -0.25323633198E+04  0.25323633198E+04  0.25500000920E-02 0.  1.
    10030    2    1    2    0    0  0.00000000000E+00  0.00000000000E+00 -0.11333308796E+04  0.39313957599E+04  0.37644964787E+04 0.  0.
        3    1    3    3  502    0  0.10789571471E+04  0.15334659171E+04 -0.39445404497E+03  0.19160532999E+04  0.10100000352E+00 0.  1.
       -3    1    3    3    0  502 -0.10789571471E+04 -0.15334659171E+04 -0.73887683467E+03  0.20153424600E+04  0.10100000352E+00 0. -1.
</event>
<event>
 5   0  0.6661000E-08  0.3803889E+04  0.7818609E-02  0.8045321E-01
        1   -1    0    0  501    0  0.00000000000E+00  0.00000000000E+00  0.28223923479E+04  0.28223923479E+04  0.50400001928E-02 0.  1.
       -1   -1    0    0    0  501  0.00000000000E+00  0.00000000000E+00 -0.12816763735E+04  0.12816763735E+04  0.50400001928E-02 0. -1.
    10030    2    1    2    0    0  0.00000000000E+00  0.00000000000E+00  0.15407159744E+04  0.41040687214E+04  0.38038893722E+04 0.  0.
        3    1    3    3  502    0  0.18925772866E+04  0.67742774430E+02  0.96018461336E+03  0.21232975230E+04  0.10100000352E+00 0. -1.
       -3    1    3    3    0  502 -0.18925772866E+04 -0.67742774430E+02  0.58053136104E+03  0.19807711984E+04  0.10100000352E+00 0.  1.
</event>
<event>
 5   0  0.1370688E-07  0.3813854E+04  0.7818609E-02  0.8043188E-01
       -2   -1    0    0    0  501  0.00000000000E+00  0.00000000000E+00  0.17675850262E+04  0.17675850262E+04  0.25500000920E-02 0. -1.
        2   -1    0    0  501    0  0.00000000000E+00  0.00000000000E+00 -0.20572535746E+04  0.20572535746E+04  0.25500000920E-02 0.  1.
    10030    2    1    2    0    0  0.00000000000E+00  0.00000000000E+00 -0.28966854838E+03  0.38248386008E+04  0.38138540158E+04 0.  0.
        5    1    3    3  502    0  0.52305519098E+03 -0.30092328053E+03 -0.19589685588E+04  0.20498101029E+04  0.46999998093E+01 0.  1.
       -5    1    3    3    0  502 -0.52305519098E+03  0.30092328053E+03  0.16693000104E+04  0.17750284979E+04  0.46999998093E+01 0. -1.
</event>
<event>
 5   0  0.2205204E-07  0.4171534E+04  0.7818609E-02  0.7970809E-01
       -2   -1    0    0    0  501  0.00000000000E+00  0.00000000000E+00  0.25091801292E+04  0.25091801292E+04  0.25500000920E-02 0.  1.
        2   -1    0    0  501    0  0.00000000000E+00  0.00000000000E+00 -0.17338026188E+04  0.17338026188E+04  0.25500000920E-02 0. -1.
    10030    2    1    2    0    0  0.00000000000E+00  0.00000000000E+00  0.77537751044E+03  0.42429827480E+04  0.41715335689E+04 0.  0.
        2    1    3    3  502    0  0.11827992608E+03  0.79134266281E+03  0.23468706245E+04  0.24795191225E+04  0.25500000920E-02 0.  1.
       -2    1    3    3    0  502 -0.11827992608E+03 -0.79134266281E+03 -0.15714931140E+04  0.17634636255E+04  0.25500000920E-02 0. -1.
</event>
<event>
 5   0  0.1370688E-07  0.3685983E+04  0.7818609E-02  0.8071075E-01
       -2   -1    0    0    0  501  0.00000000000E+00  0.00000000000E+00  0.27268964887E+04  0.27268964887E+04  0.25500000920E-02 0.  1.
        2   -1    0    0  501    0  0.00000000000E+00  0.00000000000E+00 -0.12455981104E+04  0.12455981104E+04  0.25500000920E-02 0. -1.
    10030    2    1    2    0    0  0.00000000000E+00  0.00000000000E+00  0.14812983783E+04  0.39724945991E+04  0.36859826986E+04 0.  0.
        5    1    3    3  502    0 -0.13534132250E+04  0.79790814132E+03  0.17789739394E+04  0.23734268741E+04  0.46999998093E+01 0.  1.
       -5    1    3    3    0  502  0.13534132250E+04 -0.79790814132E+03 -0.29767556106E+03  0.15990677250E+04  0.46999998093E+01 0. -1.
</event>
<event>
 5   0  0.6661000E-08  0.3828753E+04  0.7818609E-02  0.8040013E-01
       -1   -1    0    0    0  501  0.00000000000E+00  0.00000000000E+00  0.13072276443E+04  0.13072276443E+04  0.50400001928E-02 0.  1.
        1   -1    0    0  501    0  0.00000000000E+00  0.00000000000E+00 -0.28035187947E+04  0.28035187947E+04  0.50400001928E-02 0. -1.
    10030    2    1    2    0    0  0.00000000000E+00  0.00000000000E+00 -0.14962911504E+04  0.41107464389E+04  0.38287529404E+04 0.  0.
        4    1    3    3  502    0 -0.15522419489E+04  0.46944153291E+03 -0.18404271790E+04  0.24529582619E+04  0.12699999809E+01 0. -1.
       -4    1    3    3    0  502  0.15522419489E+04 -0.46944153291E+03  0.34413602858E+03  0.16577881770E+04  0.12699999809E+01 0.  1.
</event>
<event>
 5   0  0.2205204E-07  0.3813596E+04  0.7818609E-02  0.8043244E-01
       -2   -1    0    0    0  501  0.00000000000E+00  0.00000000000E+00  0.16981142061E+04  0.16981142061E+04  0.25500000920E-02 0. -1.
        2   -1    0    0  501    0  0.00000000000E+00  0.00000000000E+00 -0.21411267061E+04  0.21411267061E+04  0.25500000920E-02 0.  1.
    10030    2    1    2    0    0  0.00000000000E+00  0.00000000000E+00 -0.44301250004E+03  0.38392409122E+04  0.38135955090E+04 0.  0.
        2    1    3    3  502    0 -0.16290306979E+04 -0.82747072151E+03  0.32753161335E+03  0.18562666208E+04  0.25500000920E-02 0. -1.
       -2    1    3    3    0  502  0.16290306979E+04  0.82747072151E+03 -0.77054411339E+03  0.19829742914E+04  0.25500000920E-02 0.  1.
</event>
<event>
 5   0  0.6725199E-08  0.3783266E+04  0.7818609E-02  0.8049755E-01
       -1   -1    0    0    0  501  0.00000000000E+00  0.00000000000E+00  0.15446639523E+04  0.15446639523E+04  0.50400001928E-02 0.  1.
        1   -1    0    0  501    0  0.00000000000E+00  0.00000000000E+00 -0.23165403106E+04  0.23165403106E+04  0.50400001928E-02 0. -1.
    10030    2    1    2    0    0  0.00000000000E+00  0.00000000000E+00 -0.77187635825E+03  0.38612042629E+04  0.37832664785E+04 0.  0.
        5    1    3    3  502    0  0.11330980242E+04 -0.10180393870E+03  0.11564791729E+04  0.16222642639E+04  0.46999998093E+01 0.  1.
       -5    1    3    3    0  502 -0.11330980242E+04  0.10180393870E+03 -0.19283555312E+04  0.22389399990E+04  0.46999998093E+01 0. -1.
</event>
<event>
 5   0  0.6661000E-08  0.3790176E+04  0.7818609E-02  0.8048266E-01
       -1   -1    0    0    0  501  0.00000000000E+00  0.00000000000E+00  0.16681019572E+04  0.16681019572E+04  0.50400001928E-02 0. -1.
        1   -1    0    0  501    0  0.00000000000E+00  0.00000000000E+00 -0.21529607285E+04  0.21529607285E+04  0.50400001928E-02 0.  1.
    10030    2    1    2    0    0  0.00000000000E+00  0.00000000000E+00 -0.48485877126E+03  0.38210626857E+04  0.37901757242E+04 0.  0.
        3    1    3    3  502    0  0.45075375762E+03 -0.42845807567E+03  0.15622992754E+04  0.16815273738E+04  0.10100000352E+00 0. -1.
       -3    1    3    3    0  502 -0.45075375762E+03  0.42845807567E+03 -0.20471580467E+04  0.21395353119E+04  0.10100000352E+00 0.  1.
</event>
<event>
 5   0  0.2135314E-07  0.3781928E+04  0.7818609E-02  0.8050044E-01
        2   -1    0    0  501    0  0.00000000000E+00  0.00000000000E+00  0.19832694786E+04  0.19832694786E+04  0.25500000920E-02 0.  1.
       -2   -1    0    0    0  501  0.00000000000E+00  0.00000000000E+00 -0.18029548573E+04  0.18029548573E+04  0.25500000920E-02 0. -1.
    10030    2    1    2    0    0  0.00000000000E+00  0.00000000000E+00  0.18031462129E+03  0.37862243358E+04  0.37819282593E+04 0.  0.
        4    1    3    3  502    0 -0.14754625005E+04 -0.17134029599E+03  0.12616988315E+04  0.19489054984E+04  0.12699999809E+01 0.  1.
       -4    1    3    3    0  502  0.14754625005E+04  0.17134029599E+03 -0.10813842102E+04  0.18373188374E+04  0.12699999809E+01 0. -1.
</event>
<event>
 5   0  0.6661000E-08  0.3762674E+04  0.7818609E-02  0.8054213E-01
        1   -1    0    0  501    0  0.00000000000E+00  0.00000000000E+00  0.23114003281E+04  0.23114003281E+04  0.50400001928E-02 0.  1.
       -1   -1    0    0    0  501  0.00000000000E+00  0.00000000000E+00 -0.15312918353E+04  0.15312918353E+04  0.50400001928E-02 0. -1.
    10030    2    1    2    0    0  0.00000000000E+00  0.00000000000E+00  0.78010849280E+03  0.38426921635E+04  0.37626737572E+04 0.  0.
        3    1    3    3  502    0 -0.17968336352E+04 -0.26454669107E+03  0.89123740110E+03  0.20230917379E+04  0.10100000352E+00 0.  1.
       -3    1    3    3    0  502  0.17968336352E+04  0.26454669107E+03 -0.11112890829E+03  0.18196004256E+04  0.10100000352E+00 0. -1.
</event>
<event>
 5   0  0.6661000E-08  0.3812645E+04  0.7818609E-02  0.8043447E-01
       -1   -1    0    0    0  501  0.00000000000E+00  0.00000000000E+00  0.24937012997E+04  0.24937012997E+04  0.50400001928E-02 0.  1.
        1   -1    0    0  501    0  0.00000000000E+00  0.00000000000E+00 -0.14572977626E+04  0.14572977626E+04  0.50400001928E-02 0. -1.
    10030    2    1    2    0    0  0.00000000000E+00  0.00000000000E+00  0.10364035371E+04  0.39509990623E+04  0.38126449217E+04 0.  0.
        4    1    3    3  502    0 -0.28581861696E+03  0.31692879941E+03  0.24435593663E+04  0.24805483538E+04  0.12699999809E+01 0.  1.
       -4    1    3    3    0  502  0.28581861696E+03 -0.31692879941E+03 -0.14071558292E+04  0.14704507086E+04  0.12699999809E+01 0. -1.
</event>
<event>
 5   0  0.6661000E-08  0.3786006E+04  0.7818609E-02  0.8049165E-01
       -1   -1    0    0    0  501  0.00000000000E+00  0.00000000000E+00  0.19699259882E+04  0.19699259883E+04  0.50400001928E-02 0. -1.
        1   -1    0    0  501    0  0.00000000000E+00  0.00000000000E+00 -0.18190839532E+04  0.18190839532E+04  0.50400001928E-02 0.  1.
    10030    2    1    2    0    0  0.00000000000E+00  0.00000000000E+00  0.15084203503E+03  0.37890099415E+04  0.37860062093E+04 0.  0.
        3    1    3    3  502    0  0.86072911301E+03 -0.92337323770E+03  0.14872095562E+04  0.19507088497E+04  0.10100000352E+00 0. -1.
       -3    1    3    3    0  502 -0.86072911301E+03  0.92337323770E+03 -0.13363675212E+04  0.18383010918E+04  0.10100000352E+00 0.  1.
</event>
<event>
 5   0  0.1370688E-07  0.3796768E+04  0.7818609E-02  0.8046849E-01
        2   -1    0    0  501    0  0.00000000000E+00  0.00000000000E+00  0.17138644843E+04  0.17138644843E+04  0.25500000920E-02 0.  1.
       -2   -1    0    0    0  501  0.00000000000E+00  0.00000000000E+00 -0.21027695745E+04  0.21027695745E+04  0.25500000920E-02 0. -1.
    10030    2    1    2    0    0  0.00000000000E+00  0.00000000000E+00 -0.38890509019E+03  0.38166340587E+04  0.37967681479E+04 0.  0.
        5    1    3    3  502    0 -0.17058416540E+04 -0.17885843823E+03  0.62341000228E+03  0.18249789616E+04  0.46999998093E+01 0. -1.
       -5    1    3    3    0  502  0.17058416540E+04  0.17885843823E+03 -0.10123150925E+04  0.19916550971E+04  0.46999998093E+01 0.  1.
</event>
<event>
 5   0  0.6661000E-08  0.3800148E+04  0.7818609E-02  0.8046123E-01
       -1   -1    0    0    0  501  0.00000000000E+00  0.00000000000E+00  0.20998175903E+04  0.20998175903E+04  0.50400001928E-02 0.  1.
        1   -1    0    0  501    0  0.00000000000E+00  0.00000000000E+00 -0.17193309562E+04  0.17193309562E+04  0.50400001928E-02 0. -1.
    10030    2    1    2    0    0  0.00000000000E+00  0.00000000000E+00  0.38048663413E+03  0.38191485465E+04  0.38001480947E+04 0.  0.
        4    1    3    3  502    0 -0.54462903455E+02  0.13285578852E+04  0.15543238720E+04  0.20454722130E+04  0.12699999809E+01 0.  1.
       -4    1    3    3    0  502  0.54462903455E+02 -0.13285578852E+04 -0.11738372379E+04  0.17736763335E+04  0.12699999809E+01 0. -1.
</event>
<event>
 5   0  0.6725199E-08  0.3796371E+04  0.7818609E-02  0.8046934E-01
        1   -1    0    0  501    0  0.00000000000E+00  0.00000000000E+00  0.18975099680E+04  0.18975099680E+04  0.50400001928E-02 0.  1.
       -1   -1    0    0    0  501  0.00000000000E+00  0.00000000000E+00 -0.18988610130E+04  0.18988610130E+04  0.50400001928E-02 0. -1.
    10030    2    1    2    0    0  0.00000000000E+00  0.00000000000E+00 -0.13510450094E+01  0.37963709810E+04  0.37963707406E+04 0.  0.
        5    1    3    3  502    0  0.12420217827E+04 -0.15883192197E+03 -0.14272939647E+04  0.18986931927E+04  0.46999998093E+01 0. -1.
       -5    1    3    3    0  502 -0.12420217827E+04  0.15883192197E+03  0.14259429197E+04  0.18976777884E+04  0.46999998093E+01 0.  1.
</event>
<event>
 5   0  0.1370688E-07  0.3799830E+04  0.7818609E-02  0.8046191E-01
        2   -1    0    0  501    0  0.00000000000E+00  0.00000000000E+00  0.16247016680E+04  0.16247016680E+04  0.25500000920E-02 0. -1.
       -2   -1    0    0    0  501  0.00000000000E+00  0.00000000000E+00 -0.22217477133E+04  0.22217477133E+04  0.25500000920E-02 0.  1.
    10030    2    1    2    0    0  0.00000000000E+00  0.00000000000E+00 -0.59704604532E+03  0.38464493812E+04  0.37998301097E+04 0.  0.
        5    1    3    3  502    0 -0.17509044252E+04  0.64521077473E+03  0.63201102594E+02  0.18670778557E+04  0.46999998093E+01 0.  1.
       -5    1    3    3    0  502  0.17509044252E+04 -0.64521077473E+03 -0.66024714792E+03  0.19793715256E+04  0.46999998093E+01 0. -1.
</event>
<event>
 5   0  0.6725199E-08  0.3750945E+04  0.7818609E-02  0.8056765E-01
        1   -1    0    0  501    0  0.00000000000E+00  0.00000000000E+00  0.25982384548E+04  0.25982384548E+04  0.50400001928E-02 0.  1.
       -1   -1    0    0    0  501  0.00000000000E+00  0.00000000000E+00 -0.13537620502E+04  0.13537620502E+04  0.50400001928E-02 0. -1.
    10030    2    1    2    0    0  0.00000000000E+00  0.00000000000E+00  0.12444764046E+04  0.39520005050E+04  0.37509447437E+04 0.  0.
        5    1    3    3  502    0 -0.18413095526E+04  0.80068131413E+02  0.98804087867E+03  0.20911907235E+04  0.46999998093E+01 0.  1.
       -5    1    3    3    0  502  0.18413095526E+04 -0.80068131413E+02  0.25643552593E+03  0.18608097815E+04  0.46999998093E+01 0. -1.
</event>
<event>
 5   0  0.2135314E-07  0.3709507E+04  0.7818609E-02  0.8065858E-01
        2   -1    0    0  501    0  0.00000000000E+00  0.00000000000E+00  0.21016821802E+04  0.21016821802E+04  0.25500000920E-02 0. -1.
       -2   -1    0    0    0  501  0.00000000000E+00  0.00000000000E+00 -0.16368366696E+04  0.16368366696E+04  0.25500000920E-02 0.  1.
    10030    2    1    2    0    0  0.00000000000E+00  0.00000000000E+00  0.46484551063E+03  0.37385188497E+04  0.37095069539E+04 0.  0.
        4    1    3    3  502    0 -0.81934119760E+03  0.12506329311E+04  0.13385980218E+04  0.20068006885E+04  0.12699999809E+01 0. -1.
       -4    1    3    3    0  502  0.81934119760E+03 -0.12506329311E+04 -0.87375251120E+03  0.17317181613E+04  0.12699999809E+01 0.  1.
</event>
<event>
 5   0  0.6661000E-08  0.3790033E+04  0.7818609E-02  0.8048297E-01
        1   -1    0    0  501    0  0.00000000000E+00  0.00000000000E+00  0.25833023378E+04  0.25833023378E+04  0.50400001928E-02 0.  1.
       -1   -1    0    0    0  501  0.00000000000E+00  0.00000000000E+00 -0.13901148849E+04  0.13901148849E+04  0.50400001928E-02 0. -1.
    10030    2    1    2    0    0  0.00000000000E+00  0.00000000000E+00  0.11931874529E+04  0.39734172228E+04  0.37900327345E+04 0.  0.
        2    1    3    3  502    0 -0.17868123714E+04 -0.58139535416E+02  0.12555010905E+04  0.21845735612E+04  0.25500000920E-02 0.  1.
       -2    1    3    3    0  502  0.17868123714E+04  0.58139535416E+02 -0.62313637525E+02  0.17888436616E+04  0.25500000920E-02 0. -1.
</event>
<event>
 5   0  0.1370688E-07  0.3627888E+04  0.7818609E-02  0.8084133E-01
       -2   -1    0    0    0  501  0.00000000000E+00  0.00000000000E+00  0.16804567599E+04  0.16804567599E+04  0.25500000920E-02 0. -1.
        2   -1    0    0  501    0  0.00000000000E+00  0.00000000000E+00 -0.19580342812E+04  0.19580342812E+04  0.25500000920E-02 0.  1.
    10030    2    1    2    0    0  0.00000000000E+00  0.00000000000E+00 -0.27757752134E+03  0.36384910411E+04  0.36278875087E+04 0.  0.
        5    1    3    3  502    0 -0.22452504104E+03 -0.17466305523E+04  0.29750002692E+03  0.17859614039E+04  0.46999998093E+01 0. -1.
       -5    1    3    3    0  502  0.22452504104E+03  0.17466305523E+04 -0.57507754826E+03  0.18525296372E+04  0.46999998093E+01 0.  1.
</event>
<event>
 5   0  0.6661000E-08  0.3815134E+04  0.7818609E-02  0.8042915E-01
       -1   -1    0    0    0  501  0.00000000000E+00  0.00000000000E+00  0.18118141357E+04  0.18118141357E+04  0.50400001928E-02 0. -1.
        1   -1    0    0  501    0  0.00000000000E+00  0.00000000000E+00 -0.20083806872E+04  0.20083806872E+04  0.50400001928E-02 0.  1.
    10030    2    1    2    0    0  0.00000000000E+00  0.00000000000E+00 -0.19656655159E+03  0.38201948229E+04  0.38151343457E+04 0.  0.
        1    1    3    3  502    0  0.33185627359E+02  0.76232821346E+03 -0.18489062790E+04  0.20001749972E+04  0.50400001928E-02 0.  1.
       -1    1    3    3    0  502 -0.33185627359E+02 -0.76232821346E+03  0.16523397274E+04  0.18200198257E+04  0.50400001928E-02 0. -1.
</event>
<event>
 5   0  0.2203998E-07  0.3820092E+04  0.7818609E-02  0.8041857E-01
       -2   -1    0    0    0  501  0.00000000000E+00  0.00000000000E+00  0.18459607913E+04  0.18459607913E+04  0.25500000920E-02 0. -1.
        2   -1    0    0  501    0  0.00000000000E+00  0.00000000000E+00 -0.19763556550E+04  0.19763556550E+04  0.25500000920E-02 0.  1.
    10030    2    1    2    0    0  0.00000000000E+00  0.00000000000E+00 -0.13039486368E+03  0.38223164464E+04  0.38200916476E+04 0.  0.
        3    1    3    3  502    0  0.14932409871E+04 -0.10077463457E+03 -0.12526281770E+04  0.19516663476E+04  0.10100000352E+00 0.  1.
       -3    1    3    3    0  502 -0.14932409871E+04  0.10077463457E+03  0.11222333133E+04  0.18706500988E+04  0.10100000352E+00 0. -1.
</event>
<event>
 5   0  0.6661000E-08  0.3783162E+04  0.7818609E-02  0.8049778E-01
       -1   -1    0    0    0  501  0.00000000000E+00  0.00000000000E+00  0.28406108151E+04  0.28406108151E+04  0.50400001928E-02 0.  1.
        1   -1    0    0  501    0  0.00000000000E+00  0.00000000000E+00 -0.12596157512E+04  0.12596157512E+04  0.50400001928E-02 0. -1.
    10030    2    1    2    0    0  0.00000000000E+00  0.00000000000E+00  0.15809950639E+04  0.41002265663E+04  0.37831617073E+04 0.  0.
        2    1    3    3  502    0  0.13972092200E+02  0.16462605236E+04 -0.21908086707E+03  0.16608327301E+04  0.25500000920E-02 0. -1.
       -2    1    3    3    0  502 -0.13972092200E+02 -0.16462605236E+04  0.18000759310E+04  0.24393938362E+04  0.25500000920E-02 0.  1.
</event>
<event>
 5   0  0.6661000E-08  0.3812703E+04  0.7818609E-02  0.8043434E-01
        3   -1    0    0  501    0  0.00000000000E+00  0.00000000000E+00  0.27507308628E+04  0.27507308646E+04  0.10100000352E+00 0. -1.
       -3   -1    0    0    0  501  0.00000000000E+00  0.00000000000E+00 -0.13211672550E+04  0.13211672589E+04  0.10100000352E+00 0.  1.
    10030    2    1    2    0    0  0.00000000000E+00  0.00000000000E+00  0.14295636078E+04  0.40718981235E+04  0.38127027447E+04 0.  0.
        3    1    3    3  502    0 -0.43741726550E+03 -0.13039418877E+04  0.21245898165E+04  0.25309050178E+04  0.10100000352E+00 0. -1.
       -3    1    3    3    0  502  0.43741726550E+03  0.13039418877E+04 -0.69502620875E+03  0.15409931057E+04  0.10100000352E+00 0.  1.
</event>
<event>
 5   0  0.6661000E-08  0.3836615E+04  0.7818609E-02  0.8038343E-01
       -1   -1    0    0    0  501  0.00000000000E+00  0.00000000000E+00  0.29735236421E+04  0.29735236421E+04  0.50400001928E-02 0.  1.
        1   -1    0    0  501    0  0.00000000000E+00  0.00000000000E+00 -0.12375562687E+04  0.12375562688E+04  0.50400001928E-02 0. -1.
    10030    2    1    2    0    0  0.00000000000E+00  0.00000000000E+00  0.17359673734E+04  0.42110799109E+04  0.38366145616E+04 0.  0.
        2    1    3    3  502    0 -0.19158662991E+04  0.73114833886E+02  0.79844926668E+03  0.20768752217E+04  0.25500000920E-02 0. -1.
       -2    1    3    3    0  502  0.19158662991E+04 -0.73114833886E+02  0.93751810670E+03  0.21342046892E+04  0.25500000920E-02 0.  1.
</event>
<event>
 5   0  0.1370688E-07  0.3344689E+04  0.7818609E-02  0.8151617E-01
        2   -1    0    0  501    0  0.00000000000E+00  0.00000000000E+00  0.24128245345E+04  0.24128245345E+04  0.25500000920E-02 0. -1.
       -2   -1    0    0    0  501  0.00000000000E+00  0.00000000000E+00 -0.11591126855E+04  0.11591126855E+04  0.25500000920E-02 0.  1.
    10030    2    1    2    0    0  0.00000000000E+00  0.00000000000E+00  0.12537118490E+04  0.35719372200E+04  0.33446886407E+04 0.  0.
        5    1    3    3  502    0  0.12046954309E+04  0.88079626341E+03 -0.17915485464E+03  0.15030674272E+04  0.46999998093E+01 0.  1.
       -5    1    3    3    0  502 -0.12046954309E+04 -0.88079626341E+03  0.14328667037E+04  0.20688697928E+04  0.46999998093E+01 0. -1.
</event>
<event>
 5   0  0.2135314E-07  0.3790153E+04  0.7818609E-02  0.8048271E-01
        2   -1    0    0  501    0  0.00000000000E+00  0.00000000000E+00  0.19713160648E+04  0.19713160648E+04  0.25500000920E-02 0.  1.
       -2   -1    0    0    0  501  0.00000000000E+00  0.00000000000E+00 -0.18217854779E+04  0.18217854779E+04  0.25500000920E-02 0. -1.
    10030    2    1    2    0    0  0.00000000000E+00  0.00000000000E+00  0.14953058683E+03  0.37931015427E+04  0.37901530202E+04 0.  0.
        4    1    3    3  502    0 -0.78504980638E+03 -0.14330126133E+04  0.10354521835E+04  0.19344227009E+04  0.12699999809E+01 0.  1.
       -4    1    3    3    0  502  0.78504980638E+03  0.14330126133E+04 -0.88592159671E+03  0.18586788418E+04  0.12699999809E+01 0. -1.
</event>
<event>
 5   0  0.6661000E-08  0.3534419E+04  0.7818609E-02  0.8105681E-01
        4   -1    0    0  501    0  0.00000000000E+00  0.00000000000E+00  0.16139553765E+04  0.16139558762E+04  0.12699999809E+01 0.  1.
       -4   -1    0    0    0  501  0.00000000000E+00  0.00000000000E+00 -0.19350151875E+04  0.19350156042E+04  0.12699999809E+01 0. -1.
    10030    2    1    2    0    0  0.00000000000E+00  0.00000000000E+00 -0.32105981099E+03  0.35489714804E+04  0.35344192120E+04 0.  0.
        5    1    3    3  502    0 -0.64814425394E+03 -0.14928784600E+04 -0.85200931309E+03  0.18370408351E+04  0.46999998093E+01 0. -1.
       -5    1    3    3    0  502  0.64814425394E+03  0.14928784600E+04  0.53094950210E+03  0.17119306453E+04  0.46999998093E+01 0.  1.
</event>
<event>
 5   0  0.6661000E-08  0.3803979E+04  0.7818609E-02  0.8045302E-01
       -1   -1    0    0    0  501  0.00000000000E+00  0.00000000000E+00  0.20502874115E+04  0.20502874115E+04  0.50400001928E-02 0.  1.
        1   -1    0    0  501    0  0.00000000000E+00  0.00000000000E+00 -0.17644178421E+04  0.17644178421E+04  0.50400001928E-02 0. -1.
    10030    2    1    2    0    0  0.00000000000E+00  0.00000000000E+00  0.28586956945E+03  0.38147052536E+04  0.38039788066E+04 0.  0.
        1    1    3    3  502    0  0.10294169375E+04 -0.15651599256E+04 -0.18683723578E+03  0.18826398956E+04  0.50400001928E-02 0.  1.
       -1    1    3    3    0  502 -0.10294169375E+04  0.15651599256E+04  0.47270680523E+03  0.19320653580E+04  0.50400001928E-02 0. -1.
</event>
<event>
 5   0  0.6661000E-08  0.3781577E+04  0.7818609E-02  0.8050120E-01
       -1   -1    0    0    0  501  0.00000000000E+00  0.00000000000E+00  0.14231864690E+04  0.14231864690E+04  0.50400001928E-02 0. -1.
        1   -1    0    0  501    0  0.00000000000E+00  0.00000000000E+00 -0.25120262810E+04  0.25120262810E+04  0.50400001928E-02 0.  1.
    10030    2    1    2    0    0  0.00000000000E+00  0.00000000000E+00 -0.10888398119E+04  0.39352127500E+04  0.37815773497E+04 0.  0.
        3    1    3    3  502    0 -0.10904903626E+04  0.15332754524E+04 -0.34979488706E+03  0.19137552918E+04  0.10100000352E+00 0. -1.
       -3    1    3    3    0  502  0.10904903626E+04 -0.15332754524E+04 -0.73904492489E+03  0.20214574581E+04  0.10100000352E+00 0.  1.
</event>
<event>
 5   0  0.2205204E-07  0.3781210E+04  0.7818609E-02  0.8050199E-01
        2   -1    0    0  501    0  0.00000000000E+00  0.00000000000E+00  0.25149117633E+04  0.25149117633E+04  0.25500000920E-02 0. -1.
       -2   -1    0    0    0  501  0.00000000000E+00  0.00000000000E+00 -0.14212774891E+04  0.14212774891E+04  0.25500000920E-02 0.  1.
    10030    2    1    2    0    0  0.00000000000E+00  0.00000000000E+00  0.10936342742E+04  0.39361892524E+04  0.37812101112E+04 0.  0.
        2    1    3    3  502    0 -0.12554345262E+04  0.14085217801E+04  0.67146641779E+03  0.20027272917E+04  0.25500000920E-02 0. -1.
       -2    1    3    3    0  502  0.12554345262E+04 -0.14085217801E+04  0.42216785639E+03  0.19334619607E+04  0.25500000920E-02 0.  1.
</event>
<event>
 5   0  0.6661000E-08  0.3784022E+04  0.7818609E-02  0.8049592E-01
        1   -1    0    0  501    0  0.00000000000E+00  0.00000000000E+00  0.23614190505E+04  0.23614190505E+04  0.50400001928E-02 0.  1.
       -1   -1    0    0    0  501  0.00000000000E+00  0.00000000000E+00 -0.15159132912E+04  0.15159132912E+04  0.50400001928E-02 0. -1.
    10030    2    1    2    0    0  0.00000000000E+00  0.00000000000E+00  0.84550575930E+03  0.38773323418E+04  0.37840224761E+04 0.  0.
        1    1    3    3  502    0  0.40741735724E+03  0.15953093813E+04  0.13777798379E+04  0.21469229625E+04  0.50400001928E-02 0.  1.
       -1    1    3    3    0  502 -0.40741735724E+03 -0.15953093813E+04 -0.53227407858E+03  0.17304093793E+04  0.50400001928E-02 0. -1.
</event>
<event>
 5   0  0.1370688E-07  0.3624861E+04  0.7818609E-02  0.8084821E-01
        2   -1    0    0  501    0  0.00000000000E+00  0.00000000000E+00  0.26859931182E+04  0.26859931182E+04  0.25500000920E-02 0. -1.
       -2   -1    0    0    0  501  0.00000000000E+00  0.00000000000E+00 -0.12229755684E+04  0.12229755684E+04  0.25500000920E-02 0.  1.
    10030    2    1    2    0    0  0.00000000000E+00  0.00000000000E+00  0.14630175498E+04  0.39089686866E+04  0.36248608031E+04 0.  0.
        5    1    3    3  502    0  0.47517090858E+03  0.68689779710E+03 -0.10030594613E+04  0.13052840109E+04  0.46999998093E+01 0.  1.
       -5    1    3    3    0  502 -0.47517090858E+03 -0.68689779710E+03  0.24660770111E+04  0.26036846758E+04  0.46999998093E+01 0. -1.
</event>
<event>
 5   0  0.6661000E-08  0.3794996E+04  0.7818609E-02  0.8047230E-01
       -1   -1    0    0    0  501  0.00000000000E+00  0.00000000000E+00  0.22857370308E+04  0.22857370308E+04  0.50400001928E-02 0. -1.
        1   -1    0    0  501    0  0.00000000000E+00  0.00000000000E+00 -0.15752020784E+04  0.15752020784E+04  0.50400001928E-02 0.  1.
    10030    2    1    2    0    0  0.00000000000E+00  0.00000000000E+00  0.71053495240E+03  0.38609391092E+04  0.37949955054E+04 0.  0.
        1    1    3    3  502    0  0.18246709038E+03  0.72398892643E+03  0.21300116865E+04  0.22570786404E+04  0.50400001928E-02 0. -1.
       -1    1    3    3    0  502 -0.18246709038E+03 -0.72398892643E+03 -0.14194767341E+04  0.16038604687E+04  0.50400001928E-02 0.  1.
</event>
<event>
 5   0  0.2205204E-07  0.3803591E+04  0.7818609E-02  0.8045385E-01
        2   -1    0    0  501    0  0.00000000000E+00  0.00000000000E+00  0.24175829329E+04  0.24175829329E+04  0.25500000920E-02 0. -1.
       -2   -1    0    0    0  501  0.00000000000E+00  0.00000000000E+00 -0.14960503640E+04  0.14960503640E+04  0.25500000920E-02 0.  1.
    10030    2    1    2    0    0  0.00000000000E+00  0.00000000000E+00  0.92153256891E+03  0.39136332969E+04  0.38035908438E+04 0.  0.
        2    1    3    3  502    0  0.17954534357E+03  0.10115519970E+04 -0.11859582570E+04  0.15690669075E+04  0.25500000920E-02 0.  1.
       -2    1    3    3    0  502 -0.17954534357E+03 -0.10115519970E+04  0.21074908259E+04  0.23445663894E+04  0.25500000920E-02 0. -1.
</event>
<event>
 5   0  0.6725199E-08  0.3782127E+04  0.7818609E-02  0.8050001E-01
       -1   -1    0    0    0  501  0.00000000000E+00  0.00000000000E+00  0.13809253275E+04  0.13809253275E+04  0.50400001928E-02 0.  1.
        1   -1    0    0  501    0  0.00000000000E+00  0.00000000000E+00 -0.25896558699E+04  0.25896558699E+04  0.50400001928E-02 0. -1.
    10030    2    1    2    0    0  0.00000000000E+00  0.00000000000E+00 -0.12087305423E+04  0.39705811974E+04  0.37821271160E+04 0.  0.
        5    1    3    3  502    0 -0.10812970823E+04  0.14950698470E+04 -0.16939945812E+03  0.18528776252E+04  0.46999998093E+01 0.  1.
       -5    1    3    3    0  502  0.10812970823E+04 -0.14950698470E+04 -0.10393310842E+04  0.21177035723E+04  0.46999998093E+01 0. -1.
</event>
<event>
 5   0  0.1370688E-07  0.3792688E+04  0.7818609E-02  0.8047726E-01
       -2   -1    0    0    0  501  0.00000000000E+00  0.00000000000E+00  0.16728853108E+04  0.16728853108E+04  0.25500000920E-02 0.  1.
        2   -1    0    0  501    0  0.00000000000E+00  0.00000000000E+00 -0.21496517180E+04  0.21496517180E+04  0.25500000920E-02 0. -1.
    10030    2    1    2    0    0  0.00000000000E+00  0.00000000000E+00 -0.47676640721E+03  0.38225370288E+04  0.37926881139E+04 0.  0.
        5    1    3    3  502    0 -0.45310333407E+03 -0.67772147561E+03  0.14872510546E+04  0.16960385665E+04  0.46999998093E+01 0.  1.
       -5    1    3    3    0  502  0.45310333407E+03  0.67772147561E+03 -0.19640174618E+04  0.21264984623E+04  0.46999998093E+01 0. -1.
</event>
<event>
 5   0  0.6661000E-08  0.3801737E+04  0.7818609E-02  0.8045782E-01
       -1   -1    0    0    0  501  0.00000000000E+00  0.00000000000E+00  0.15835714671E+04  0.15835714671E+04  0.50400001928E-02 0. -1.
        1   -1    0    0  501    0  0.00000000000E+00  0.00000000000E+00 -0.22817417605E+04  0.22817417605E+04  0.50400001928E-02 0.  1.
    10030    2    1    2    0    0  0.00000000000E+00  0.00000000000E+00 -0.69817029340E+03  0.38653132275E+04  0.38017370488E+04 0.  0.
        1    1    3    3  502    0  0.36868326697E+03  0.71102156593E+03  0.14036408325E+04  0.16160713491E+04  0.50400001928E-02 0. -1.
       -1    1    3    3    0  502 -0.36868326697E+03 -0.71102156593E+03 -0.21018111259E+04  0.22492418784E+04  0.50400001928E-02 0.  1.
</event>
<event>
 5   0  0.6661000E-08  0.3800350E+04  0.7818609E-02  0.8046080E-01
       -1   -1    0    0    0  501  0.00000000000E+00  0.00000000000E+00  0.15446739987E+04  0.15446739987E+04  0.50400001928E-02 0.  1.
        1   -1    0    0  501    0  0.00000000000E+00  0.00000000000E+00 -0.23374934209E+04  0.23374934209E+04  0.50400001928E-02 0. -1.
    10030    2    1    2    0    0  0.00000000000E+00  0.00000000000E+00 -0.79281942228E+03  0.38821674196E+04  0.38003501467E+04 0.  0.
        2    1    3    3  502    0  0.51181733162E+03 -0.34842702620E+03 -0.22315563974E+04  0.23158588749E+04  0.25500000920E-02 0. -1.
       -2    1    3    3    0  502 -0.51181733162E+03  0.34842702620E+03  0.14387369751E+04  0.15663085447E+04  0.25500000920E-02 0.  1.
</event>
<event>
 5   0  0.2203998E-07  0.3806009E+04  0.7818609E-02  0.8044867E-01
       -2   -1    0    0    0  501  0.00000000000E+00  0.00000000000E+00  0.19168555863E+04  0.19168555863E+04  0.25500000920E-02 0.  1.
        2   -1    0    0  501    0  0.00000000000E+00  0.00000000000E+00 -0.18892534628E+04  0.18892534629E+04  0.25500000920E-02 0. -1.
    10030    2    1    2    0    0  0.00000000000E+00  0.00000000000E+00  0.27602123423E+02  0.38061090491E+04  0.38060089617E+04 0.  0.
        3    1    3    3  502    0  0.61605024654E+02  0.73502160871E+03 -0.17404896652E+04  0.18903323065E+04  0.10100000352E+00 0. -1.
       -3    1    3    3    0  502 -0.61605024654E+02 -0.73502160871E+03  0.17680917886E+04  0.19157767426E+04  0.10100000352E+00 0.  1.
</event>
<event>
 5   0  0.6661000E-08  0.3761370E+04  0.7818609E-02  0.8054496E-01
        1   -1    0    0  501    0  0.00000000000E+00  0.00000000000E+00  0.18945917779E+04  0.18945917779E+04  0.50400001928E-02 0. -1.
       -1   -1    0    0    0  501  0.00000000000E+00  0.00000000000E+00 -0.18668802509E+04  0.18668802509E+04  0.50400001928E-02 0.  1.
    10030    2    1    2    0    0  0.00000000000E+00  0.00000000000E+00  0.27711527014E+02  0.37614720289E+04  0.37613699492E+04 0.  0.
        3    1    3    3  502    0 -0.35299703832E+03 -0.17657070278E+04  0.55668514694E+03  0.18847351485E+04  0.10100000352E+00 0. -1.
       -3    1    3    3    0  502  0.35299703832E+03  0.17657070278E+04 -0.52897361993E+03  0.18767368803E+04  0.10100000352E+00 0.  1.
</event>
<event>
 5   0  0.2081337E-07  0.4085714E+04  0.7818609E-02  0.7987475E-01
       -2   -1    0    0    0  501  0.00000000000E+00  0.00000000000E+00  0.22460521140E+04  0.22460521140E+04  0.25500000920E-02 0.  1.
        2   -1    0    0  501    0  0.00000000000E+00  0.00000000000E+00 -0.18580445965E+04  0.18580445965E+04  0.25500000920E-02 0. -1.
    10030    2    1    2    0    0  0.00000000000E+00  0.00000000000E+00  0.38800751746E+03  0.41040967104E+04  0.40857141328E+04 0.  0.
        1    1    3    3  502    0 -0.14409246885E+04 -0.89757282911E+02 -0.12578172523E+04  0.19147909985E+04  0.50400001928E-02 0. -1.
       -1    1    3    3    0  502  0.14409246885E+04  0.89757282911E+02  0.16458247698E+04  0.21893057120E+04  0.50400001928E-02 0.  1.
</event>
<event>
 5   0  0.6661000E-08  0.3772477E+04  0.7818609E-02  0.8052087E-01
        1   -1    0    0  501    0  0.00000000000E+00  0.00000000000E+00  0.20756114372E+04  0.20756114372E+04  0.50400001928E-02 0.  1.
       -1   -1    0    0    0  501  0.00000000000E+00  0.00000000000E+00 -0.17141431534E+04  0.17141431534E+04  0.50400001928E-02 0. -1.
    10030    2    1    2    0    0  0.00000000000E+00  0.00000000000E+00  0.36146828380E+03  0.37897545906E+04  0.37724767112E+04 0.  0.
        1    1    3    3  502    0  0.98744117173E+03 -0.12598888719E+04  0.11830689399E+04  0.19904803826E+04  0.50400001928E-02 0.  1.
       -1    1    3    3    0  502 -0.98744117173E+03  0.12598888719E+04 -0.82160065610E+03  0.17992742079E+04  0.50400001928E-02 0. -1.
</event>
<event>
 5   0  0.2205204E-07  0.3784559E+04  0.7818609E-02  0.8049477E-01
       -2   -1    0    0    0  501  0.00000000000E+00  0.00000000000E+00  0.16939672329E+04  0.16939672329E+04  0.25500000920E-02 0. -1.
        2   -1    0    0  501    0  0.00000000000E+00  0.00000000000E+00 -0.21138083078E+04  0.21138083078E+04  0.25500000920E-02 0.  1.
    10030    2    1    2    0    0  0.00000000000E+00  0.00000000000E+00 -0.41984107485E+03  0.38077755407E+04  0.37845591606E+04 0.  0.
        2    1    3    3  502    0  0.46702880337E+03  0.18169582016E+04 -0.45896474181E+03  0.19313471059E+04  0.25500000920E-02 0. -1.
       -2    1    3    3    0  502 -0.46702880337E+03 -0.18169582016E+04  0.39123666952E+02  0.18764284348E+04  0.25500000920E-02 0.  1.
</event>
<event>
 5   0  0.6661000E-08  0.3897822E+04  0.7818609E-02  0.8025482E-01
        1   -1    0    0  501    0  0.00000000000E+00  0.00000000000E+00  0.21630053117E+04  0.21630053117E+04  0.50400001928E-02 0.  1.
       -1   -1    0    0    0  501  0.00000000000E+00  0.00000000000E+00 -0.17560078494E+04  0.17560078494E+04  0.50400001928E-02 0. -1.
    10030    2    1    2    0    0  0.00000000000E+00  0.00000000000E+00  0.40699746223E+03  0.39190131611E+04  0.38978221127E+04 0.  0.
        3    1    3    3  502    0 -0.14669535720E+04  0.85927158430E+03 -0.75454778499E+03  0.18600115075E+04  0.10100000352E+00 0. -1.
       -3    1    3    3    0  502  0.14669535720E+04 -0.85927158430E+03  0.11615452472E+04  0.20590016536E+04  0.10100000352E+00 0.  1.
</event>
<event>
 5   0  0.2135314E-07  0.3896700E+04  0.7818609E-02  0.8025716E-01
        2   -1    0    0  501    0  0.00000000000E+00  0.00000000000E+00  0.16254710433E+04  0.16254710433E+04  0.25500000920E-02 0. -1.
       -2   -1    0    0    0  501  0.00000000000E+00  0.00000000000E+00 -0.23353650370E+04  0.23353650370E+04  0.25500000920E-02 0.  1.
    10030    2    1    2    0    0  0.00000000000E+00  0.00000000000E+00 -0.70989399361E+03  0.39608360803E+04  0.38967002673E+04 0.  0.
        4    1    3    3  502    0 -0.98650611428E+03  0.67965208618E+03 -0.19167736721E+04  0.22603416102E+04  0.12699999809E+01 0.  1.
       -4    1    3    3    0  502  0.98650611428E+03 -0.67965208618E+03  0.12068796785E+04  0.17004944701E+04  0.12699999809E+01 0. -1.
</event>
<event>
 5   0  0.2081337E-07  0.3796839E+04  0.7818609E-02  0.8046834E-01
       -2   -1    0    0    0  501  0.00000000000E+00  0.00000000000E+00  0.13285271106E+04  0.13285271106E+04  0.25500000920E-02 0. -1.
        2   -1    0    0  501    0  0.00000000000E+00  0.00000000000E+00 -0.27127758347E+04  0.27127758347E+04  0.25500000920E-02 0.  1.
    10030    2    1    2    0    0  0.00000000000E+00  0.00000000000E+00 -0.13842487241E+04  0.40413029453E+04  0.37968388122E+04 0.  0.
        1    1    3    3  502    0  0.19215620981E+03  0.15168292531E+04 -0.18898787337E+04  0.24309127134E+04  0.50400001928E-02 0.  1.
       -1    1    3    3    0  502 -0.19215620981E+03 -0.15168292531E+04  0.50563000967E+03  0.16103902319E+04  0.50400001928E-02 0. -1.
</event>
<event>
 5   0  0.6661000E-08  0.3791812E+04  0.7818609E-02  0.8047914E-01
       -1   -1    0    0    0  501  0.00000000000E+00  0.00000000000E+00  0.15208120150E+04  0.15208120150E+04  0.50400001928E-02 0.  1.
        1   -1    0    0  501    0  0.00000000000E+00  0.00000000000E+00 -0.23635133900E+04  0.23635133900E+04  0.50400001928E-02 0. -1.
    10030    2    1    2    0    0  0.00000000000E+00  0.00000000000E+00 -0.84270137499E+03  0.38843254050E+04  0.37918120001E+04 0.  0.
        3    1    3    3  502    0  0.15099900712E+04 -0.43126889979E+03 -0.15095280999E+04  0.21782419456E+04  0.10100000352E+00 0.  1.
       -3    1    3    3    0  502 -0.15099900712E+04  0.43126889979E+03  0.66682672487E+03  0.17060834594E+04  0.10100000352E+00 0. -1.
</event>
<event>
 5   0  0.6725199E-08  0.3802543E+04  0.7818609E-02  0.8045609E-01
       -1   -1    0    0    0  501  0.00000000000E+00  0.00000000000E+00  0.18395601593E+04  0.18395601593E+04  0.50400001928E-02 0. -1.
        1   -1    0    0  501    0  0.00000000000E+00  0.00000000000E+00 -0.19650533375E+04  0.19650533375E+04  0.50400001928E-02 0.  1.
    10030    2    1    2    0    0  0.00000000000E+00  0.00000000000E+00 -0.12549317812E+03  0.38046134968E+04  0.38025432703E+04 0.  0.
        5    1    3    3  502    0 -0.60686128351E+03  0.11268958302E+04  0.13439480423E+04  0.18559076647E+04  0.46999998093E+01 0. -1.
       -5    1    3    3    0  502  0.60686128351E+03 -0.11268958302E+04 -0.14694412204E+04  0.19487058321E+04  0.46999998093E+01 0.  1.
</event>
<event>
 5   0  0.6661000E-08  0.3804012E+04  0.7818609E-02  0.8045295E-01
        1   -1    0    0  501    0  0.00000000000E+00  0.00000000000E+00  0.12952797018E+04  0.12952797018E+04  0.50400001928E-02 0.  1.
       -1   -1    0    0    0  501  0.00000000000E+00  0.00000000000E+00 -0.27929305092E+04  0.27929305092E+04  0.50400001928E-02 0. -1.
    10030    2    1    2    0    0  0.00000000000E+00  0.00000000000E+00 -0.14976508074E+04  0.40882102110E+04  0.38040116704E+04 0.  0.
        3    1    3    3  502    0 -0.83733596310E+03 -0.14447717146E+04  0.22976854564E+03  0.16856127720E+04  0.10100000352E+00 0.  1.
       -3    1    3    3    0  502  0.83733596310E+03  0.14447717146E+04 -0.17274193530E+04  0.24025974390E+04  0.10100000352E+00 0. -1.
</event>
<event>
 5   0  0.6725199E-08  0.3812876E+04  0.7818609E-02  0.8043397E-01
        1   -1    0    0  501    0  0.00000000000E+00  0.00000000000E+00  0.14327975670E+04  0.14327975670E+04  0.50400001928E-02 0. -1.
       -1   -1    0    0    0  501  0.00000000000E+00  0.00000000000E+00 -0.25366494490E+04  0.25366494490E+04  0.50400001928E-02 0.  1.
    10030    2    1    2    0    0  0.00000000000E+00  0.00000000000E+00 -0.11038518820E+04  0.39694470161E+04  0.38128756387E+04 0.  0.
        5    1    3    3  502    0 -0.77508479007E+03  0.10965821340E+03  0.12577597993E+04  0.14814733066E+04  0.46999998093E+01 0. -1.
       -5    1    3    3    0  502  0.77508479007E+03 -0.10965821340E+03 -0.23616116813E+04  0.24879737094E+04  0.46999998093E+01 0.  1.
</event>
<event>
 5   0  0.2205204E-07  0.3811145E+04  0.7818609E-02  0.8043767E-01
        2   -1    0    0  501    0  0.00000000000E+00  0.00000000000E+00  0.13074202977E+04  0.13074202977E+04  0.25500000920E-02 0. -1.
       -2   -1    0    0    0  501  0.00000000000E+00  0.00000000000E+00 -0.27773830477E+04  0.27773830477E+04  0.25500000920E-02 0.  1.
    10030    2    1    2    0    0  0.00000000000E+00  0.00000000000E+00 -0.14699627500E+04  0.40848033455E+04  0.38111452196E+04 0.  0.
        2    1    3    3  502    0  0.10927971122E+04  0.50400082354E+03 -0.23185649660E+04  0.26122721642E+04  0.25500000920E-02 0.  1.
       -2    1    3    3    0  502 -0.10927971122E+04 -0.50400082354E+03  0.84860221601E+03  0.14725311812E+04  0.25500000920E-02 0. -1.
</event>
<event>
 5   0  0.6661000E-08  0.3808234E+04  0.7818609E-02  0.8044390E-01
        1   -1    0    0  501    0  0.00000000000E+00  0.00000000000E+00  0.16456094683E+04  0.16456094684E+04  0.50400001928E-02 0. -1.
       -1   -1    0    0    0  501  0.00000000000E+00  0.00000000000E+00 -0.22032329341E+04  0.22032329341E+04  0.50400001928E-02 0.  1.
    10030    2    1    2    0    0  0.00000000000E+00  0.00000000000E+00 -0.55762346579E+03  0.38488424025E+04  0.38082336994E+04 0.  0.
        1    1    3    3  502    0  0.50574331629E+02 -0.11328533622E+04 -0.18247456924E+04  0.21483973900E+04  0.50400001928E-02 0.  1.
       -1    1    3    3    0  502 -0.50574331629E+02  0.11328533622E+04  0.12671222266E+04  0.17004450125E+04  0.50400001928E-02 0. -1.
</event>
<event>
 5   0  0.2081337E-07  0.3799738E+04  0.7818609E-02  0.8046211E-01
       -2   -1    0    0    0  501  0.00000000000E+00  0.00000000000E+00  0.19202983407E+04  0.19202983407E+04  0.25500000920E-02 0. -1.
        2   -1    0    0  501    0  0.00000000000E+00  0.00000000000E+00 -0.18796567132E+04  0.18796567132E+04  0.25500000920E-02 0.  1.
    10030    2    1    2    0    0  0.00000000000E+00  0.00000000000E+00  0.40641627504E+02  0.37999550540E+04  0.37997377107E+04 0.  0.
        1    1    3    3  502    0  0.39243413672E+03  0.11174730142E+04 -0.14652779329E+04  0.18840886151E+04  0.50400001928E-02 0.  1.
       -1    1    3    3    0  502 -0.39243413672E+03 -0.11174730142E+04  0.15059195604E+04  0.19158664388E+04  0.50400001928E-02 0. -1.
</event>
<event>
 5   0  0.2135314E-07  0.3786699E+04  0.7818609E-02  0.8049015E-01
       -2   -1    0    0    0  501  0.00000000000E+00  0.00000000000E+00  0.16321835066E+04  0.16321835066E+04  0.25500000920E-02 0.  1.
        2   -1    0    0  501    0  0.00000000000E+00  0.00000000000E+00 -0.21963052734E+04  0.21963052734E+04  0.25500000920E-02 0. -1.
    10030    2    1    2    0    0  0.00000000000E+00  0.00000000000E+00 -0.56412176686E+03  0.38284887800E+04  0.37866994825E+04 0.  0.
        4    1    3    3  502    0  0.18783264846E+04 -0.54640328882E+02 -0.47823978064E+02  0.18797299524E+04  0.12699999809E+01 0.  1.
       -4    1    3    3    0  502 -0.18783264846E+04  0.54640328882E+02 -0.51629778880E+03  0.19487588276E+04  0.12699999809E+01 0. -1.
</event>
<event>
 5   0  0.6661000E-08  0.3833175E+04  0.7818609E-02  0.8039073E-01
        1   -1    0    0  501    0  0.00000000000E+00  0.00000000000E+00  0.25183737381E+04  0.25183737381E+04  0.50400001928E-02 0.  1.
       -1   -1    0    0    0  501  0.00000000000E+00  0.00000000000E+00 -0.14586028618E+04  0.14586028618E+04  0.50400001928E-02 0. -1.
    10030    2    1    2    0    0  0.00000000000E+00  0.00000000000E+00  0.10597708763E+04  0.39769765999E+04  0.38331747372E+04 0.  0.
        3    1    3    3  502    0 -0.16448363268E+04  0.92963223904E+03  0.86383717450E+03  0.20774785958E+04  0.10100000352E+00 0. -1.
       -3    1    3    3    0  502  0.16448363268E+04 -0.92963223904E+03  0.19593370176E+03  0.18994980041E+04  0.10100000352E+00 0.  1.
</event>
<event>
 5   0  0.2203998E-07  0.3770512E+04  0.7818609E-02  0.8052513E-01
        2   -1    0    0  501    0  0.00000000000E+00  0.00000000000E+00  0.25762663941E+04  0.25762663941E+04  0.25500000920E-02 0. -1.
       -2   -1    0    0    0  501  0.00000000000E+00  0.00000000000E+00 -0.13795896672E+04  0.13795896672E+04  0.25500000920E-02 0.  1.
    10030    2    1    2    0    0  0.00000000000E+00  0.00000000000E+00  0.11966767269E+04  0.39558560613E+04  0.37705121653E+04 0.  0.
        3    1    3    3  502    0 -0.10289359832E+03 -0.75482215640E+03 -0.12109152063E+04  0.14306149822E+04  0.10100000352E+00 0.  1.
       -3    1    3    3    0  502  0.10289359832E+03  0.75482215640E+03  0.24075919332E+04  0.25252410790E+04  0.10100000352E+00 0. -1.
</event>
<event>
 5   0  0.2203998E-07  0.3798304E+04  0.7818609E-02  0.8046519E-01
        2   -1    0    0  501    0  0.00000000000E+00  0.00000000000E+00  0.18159144167E+04  0.18159144167E+04  0.25500000920E-02 0.  1.
       -2   -1    0    0    0  501  0.00000000000E+00  0.00000000000E+00 -0.19862054473E+04  0.19862054473E+04  0.25500000920E-02 0. -1.
    10030    2    1    2    0    0  0.00000000000E+00  0.00000000000E+00 -0.17029103062E+03  0.38021198640E+04  0.37983044145E+04 0.  0.
        3    1    3    3  502    0  0.25409547073E+03 -0.18517215722E+04  0.25185541662E+03  0.18859661848E+04  0.10100000352E+00 0.  1.
       -3    1    3    3    0  502 -0.25409547073E+03  0.18517215722E+04 -0.42214644724E+03  0.19161536792E+04  0.10100000352E+00 0. -1.
</event>
<event>
 5   0  0.6661000E-08  0.3817247E+04  0.7818609E-02  0.8042464E-01
        1   -1    0    0  501    0  0.00000000000E+00  0.00000000000E+00  0.22717845344E+04  0.22717845344E+04  0.50400001928E-02 0. -1.
       -1   -1    0    0    0  501  0.00000000000E+00  0.00000000000E+00 -0.16035166236E+04  0.16035166236E+04  0.50400001928E-02 0.  1.
    10030    2    1    2    0    0  0.00000000000E+00  0.00000000000E+00  0.66826791074E+03  0.38753011580E+04  0.38172473151E+04 0.  0.
        2    1    3    3  502    0 -0.70819590285E+03 -0.16085399572E+04  0.10896986221E+04  0.20679422907E+04  0.25500000920E-02 0. -1.
       -2    1    3    3    0  502  0.70819590285E+03  0.16085399572E+04 -0.42143071139E+03  0.18073588673E+04  0.25500000920E-02 0.  1.
</event>
<event>
 5   0  0.6661000E-08  0.3796965E+04  0.7818609E-02  0.8046807E-01
        1   -1    0    0  501    0  0.00000000000E+00  0.00000000000E+00  0.19788054200E+04  0.19788054201E+04  0.50400001928E-02 0.  1.
       -1   -1    0    0    0  501  0.00000000000E+00  0.00000000000E+00 -0.18214198571E+04  0.18214198571E+04  0.50400001928E-02 0. -1.
    10030    2    1    2    0    0  0.00000000000E+00  0.00000000000E+00  0.15738556292E+03  0.38002252772E+04  0.37969648329E+04 0.  0.
        3    1    3    3  502    0  0.11274882017E+04  0.18177690353E+03  0.15965579364E+04  0.19629747177E+04  0.10100000352E+00 0.  1.
       -3    1    3    3    0  502 -0.11274882017E+04 -0.18177690353E+03 -0.14391723735E+04  0.18372505595E+04  0.10100000352E+00 0. -1.
</event>
<event>
 5   0  0.6661000E-08  0.3791245E+04  0.7818609E-02  0.8048036E-01
       -1   -1    0    0    0  501  0.00000000000E+00  0.00000000000E+00  0.13002846844E+04  0.13002846844E+04  0.50400001928E-02 0.  1.
        1   -1    0    0  501    0  0.00000000000E+00  0.00000000000E+00 -0.27635363241E+04  0.27635363241E+04  0.50400001928E-02 0. -1.
    10030    2    1    2    0    0  0.00000000000E+00  0.00000000000E+00 -0.14632516397E+04  0.40638210086E+04  0.37912446279E+04 0.  0.
        4    1    3    3  502    0 -0.10208786342E+04  0.15813848378E+04 -0.97229256240E+03  0.21185668813E+04  0.12699999809E+01 0.  1.
       -4    1    3    3    0  502  0.10208786342E+04 -0.15813848378E+04 -0.49095907731E+03  0.19452541272E+04  0.12699999809E+01 0. -1.
</event>
<event>
 5   0  0.1370688E-07  0.3735005E+04  0.7818609E-02  0.8060248E-01
        2   -1    0    0  501    0  0.00000000000E+00  0.00000000000E+00  0.11074794378E+04  0.11074794378E+04  0.25500000920E-02 0. -1.
       -2   -1    0    0    0  501  0.00000000000E+00  0.00000000000E+00 -0.31491021805E+04  0.31491021805E+04  0.25500000920E-02 0.  1.
    10030    2    1    2    0    0  0.00000000000E+00  0.00000000000E+00 -0.20416227427E+04  0.42565816183E+04  0.37350051740E+04 0.  0.
        5    1    3    3  502    0  0.12515979739E+04 -0.13496899036E+04 -0.66153645515E+03  0.19559685314E+04  0.46999998093E+01 0. -1.
       -5    1    3    3    0  502 -0.12515979739E+04  0.13496899036E+04 -0.13800862876E+04  0.23006130869E+04  0.46999998093E+01 0.  1.
</event>
<event>
 5   0  0.2203998E-07  0.3819972E+04  0.7818609E-02  0.8041882E-01
       -2   -1    0    0    0  501  0.00000000000E+00  0.00000000000E+00  0.24585642193E+04  0.24585642193E+04  0.25500000920E-02 0.  1.
        2   -1    0    0  501    0  0.00000000000E+00  0.00000000000E+00 -0.14838120996E+04  0.14838120996E+04  0.25500000920E-02 0. -1.
    10030    2    1    2    0    0  0.00000000000E+00  0.00000000000E+00  0.97475211968E+03  0.39423763190E+04  0.38199724273E+04 0.  0.
        3    1    3    3  502    0  0.18872996229E+03  0.47113591816E+03  0.23876977058E+04  0.24410424815E+04  0.10100000352E+00 0.  1.
       -3    1    3    3    0  502 -0.18872996229E+03 -0.47113591816E+03 -0.14129455861E+04  0.15013338375E+04  0.10100000352E+00 0. -1.
</event>
<event>
 5   0  0.2135314E-07  0.3784298E+04  0.7818609E-02  0.8049533E-01
        2   -1    0    0  501    0  0.00000000000E+00  0.00000000000E+00  0.22667973574E+04  0.22667973574E+04  0.25500000920E-02 0. -1.
       -2   -1    0    0    0  501  0.00000000000E+00  0.00000000000E+00 -0.15794214373E+04  0.15794214373E+04  0.25500000920E-02 0.  1.
    10030    2    1    2    0    0  0.00000000000E+00  0.00000000000E+00  0.68737592012E+03  0.38462187947E+04  0.37842982653E+04 0.  0.
        4    1    3    3  502    0  0.30145230671E+03  0.18678646310E+04  0.32249115570E+03  0.19193212163E+04  0.12699999809E+01 0.  1.
       -4    1    3    3    0  502 -0.30145230671E+03 -0.18678646310E+04  0.36488476442E+03  0.19268975783E+04  0.12699999809E+01 0. -1.
</event>
<event>
 5   0  0.2203998E-07  0.3890037E+04  0.7818609E-02  0.8027104E-01
        2   -1    0    0  501    0  0.00000000000E+00  0.00000000000E+00  0.25390338360E+04  0.25390338360E+04  0.25500000920E-02 0. -1.
       -2   -1    0    0    0  501  0.00000000000E+00  0.00000000000E+00 -0.14899751306E+04  0.14899751306E+04  0.25500000920E-02 0.  1.
    10030    2    1    2    0    0  0.00000000000E+00  0.00000000000E+00  0.10490587054E+04  0.40290089666E+04  0.38900371574E+04 0.  0.
        3    1    3    3  502    0  0.15756851804E+04  0.54046398509E+03 -0.51543977841E+03  0.17437211022E+04  0.10100000352E+00 0.  1.
       -3    1    3    3    0  502 -0.15756851804E+04 -0.54046398509E+03  0.15644984838E+04  0.22852878644E+04  0.10100000352E+00 0. -1.
</event>
<event>
 5   0  0.6725199E-08  0.3808889E+04  0.7818609E-02  0.8044250E-01
        1   -1    0    0  501    0  0.00000000000E+00  0.00000000000E+00  0.29668647187E+04  0.29668647187E+04  0.50400001928E-02 0. -1.
       -1   -1    0    0    0  501  0.00000000000E+00  0.00000000000E+00 -0.12224717508E+04  0.12224717508E+04  0.50400001928E-02 0.  1.
    10030    2    1    2    0    0  0.00000000000E+00  0.00000000000E+00  0.17443929679E+04  0.41893364695E+04  0.38088887130E+04 0.  0.
        5    1    3    3  502    0 -0.16341142683E+03  0.18972485596E+04  0.89982144508E+03  0.21061709604E+04  0.46999998093E+01 0. -1.
       -5    1    3    3    0  502  0.16341142683E+03 -0.18972485596E+04  0.84457152282E+03  0.20831655091E+04  0.46999998093E+01 0.  1.
</event>
<event>
 5   0  0.6661000E-08  0.3792419E+04  0.7818609E-02  0.8047784E-01
       -1   -1    0    0    0  501  0.00000000000E+00  0.00000000000E+00  0.16661078634E+04  0.16661078634E+04  0.50400001928E-02 0. -1.
        1   -1    0    0  501    0  0.00000000000E+00  0.00000000000E+00 -0.21580902274E+04  0.21580902275E+04  0.50400001928E-02 0.  1.
    10030    2    1    2    0    0  0.00000000000E+00  0.00000000000E+00 -0.49198236408E+03  0.38241980908E+04  0.37924193322E+04 0.  0.
        4    1    3    3  502    0  0.16614534939E+03  0.18233783521E+04  0.25139308311E+03  0.18481106534E+04  0.12699999809E+01 0. -1.
       -4    1    3    3    0  502 -0.16614534939E+03 -0.18233783521E+04 -0.74337544720E+03  0.19760874374E+04  0.12699999809E+01 0.  1.
</event>
<event>
 5   0  0.6725199E-08  0.3814415E+04  0.7818609E-02  0.8043069E-01
        1   -1    0    0  501    0  0.00000000000E+00  0.00000000000E+00  0.15659042968E+04  0.15659042968E+04  0.50400001928E-02 0. -1.
       -1   -1    0    0    0  501  0.00000000000E+00  0.00000000000E+00 -0.23229006557E+04  0.23229006557E+04  0.50400001928E-02 0.  1.
    10030    2    1    2    0    0  0.00000000000E+00  0.00000000000E+00 -0.75699635894E+03  0.38888049525E+04  0.38144148268E+04 0.  0.
        5    1    3    3  502    0 -0.74656563770E+03  0.99995015546E+03 -0.18489010603E+04  0.22306317010E+04  0.46999998093E+01 0.  1.
       -5    1    3    3    0  502  0.74656563770E+03 -0.99995015546E+03  0.10919047014E+04  0.16581732514E+04  0.46999998093E+01 0. -1.
</event>
<event>
 5   0  0.6661000E-08  0.3800963E+04  0.7818609E-02  0.8045948E-01
       -1   -1    0    0    0  501  0.00000000000E+00  0.00000000000E+00  0.22556470521E+04  0.22556470521E+04  0.50400001928E-02 0.  1.
        1   -1    0    0  501    0  0.00000000000E+00  0.00000000000E+00 -0.16012389678E+04  0.16012389678E+04  0.50400001928E-02 0. -1.
    10030    2    1    2    0    0  0.00000000000E+00  0.00000000000E+00  0.65440808430E+03  0.38568860199E+04  0.38009630135E+04 0.  0.
        4    1    3    3  502    0 -0.75109529504E+03  0.56940270884E+03  0.20017768738E+04  0.22125722254E+04  0.12699999809E+01 0.  1.
       -4    1    3    3    0  502  0.75109529504E+03 -0.56940270884E+03 -0.13473687895E+04  0.16443137945E+04  0.12699999809E+01 0. -1.
</event>
<event>
 5   0  0.2203998E-07  0.3822873E+04  0.7818609E-02  0.8041264E-01
       -2   -1    0    0    0  501  0.00000000000E+00  0.00000000000E+00  0.24501668634E+04  0.24501668634E+04  0.25500000920E-02 0.  1.
        2   -1    0    0  501    0  0.00000000000E+00  0.00000000000E+00 -0.14911593683E+04  0.14911593683E+04  0.25500000920E-02 0. -1.
    10030    2    1    2    0    0  0.00000000000E+00  0.00000000000E+00  0.95900749505E+03  0.39413262317E+04  0.38228728843E+04 0.  0.
        3    1    3    3  502    0  0.45367329092E+03  0.67234300921E+03  0.22639500162E+04  0.24048563913E+04  0.10100000352E+00 0.  1.
       -3    1    3    3    0  502 -0.45367329092E+03 -0.67234300921E+03 -0.13049425211E+04  0.15364698404E+04  0.10100000352E+00 0. -1.
</event>
<event>
 5   0  0.6661000E-08  0.3811132E+04  0.7818609E-02  0.8043770E-01
        1   -1    0    0  501    0  0.00000000000E+00  0.00000000000E+00  0.24358480823E+04  0.24358480823E+04  0.50400001928E-02 0. -1.
       -1   -1    0    0    0  501  0.00000000000E+00  0.00000000000E+00 -0.14907262126E+04  0.14907262126E+04  0.50400001928E-02 0.  1.
    10030    2    1    2    0    0  0.00000000000E+00  0.00000000000E+00  0.94512186970E+03  0.39265742950E+04  0.38111324230E+04 0.  0.
        1    1    3    3  502    0  0.42069447418E+03  0.15074767845E+04  0.15925549266E+04  0.22328683998E+04  0.50400001928E-02 0. -1.
       -1    1    3    3    0  502 -0.42069447418E+03 -0.15074767845E+04 -0.64743305693E+03  0.16937058952E+04  0.50400001928E-02 0.  1.
</event>
<event>
 5   0  0.1370688E-07  0.3786770E+04  0.7818609E-02  0.8049000E-01
        2   -1    0    0  501    0  0.00000000000E+00  0.00000000000E+00  0.23921810128E+04  0.23921810128E+04  0.25500000920E-02 0.  1.
       -2   -1    0    0    0  501  0.00000000000E+00  0.00000000000E+00 -0.14985936414E+04  0.14985936414E+04  0.25500000920E-02 0. -1.
    10030    2    1    2    0    0  0.00000000000E+00  0.00000000000E+00  0.89358737134E+03  0.38907746542E+04  0.37867702623E+04 0.  0.
        5    1    3    3  502    0 -0.10711166578E+04  0.15430740778E+04  0.69105538124E+03  0.20014864811E+04  0.46999998093E+01 0.  1.
       -5    1    3    3    0  502  0.10711166578E+04 -0.15430740778E+04  0.20253199010E+03  0.18892881731E+04  0.46999998093E+01 0. -1.
</event>
<event>
 5   0  0.2203998E-07  0.3778021E+04  0.7818609E-02  0.8050888E-01
       -2   -1    0    0    0  501  0.00000000000E+00  0.00000000000E+00  0.18216090918E+04  0.18216090918E+04  0.25500000920E-02 0.  1.
        2   -1    0    0  501    0  0.00000000000E+00  0.00000000000E+00 -0.19589054835E+04  0.19589054835E+04  0.25500000920E-02 0. -1.
    10030    2    1    2    0    0  0.00000000000E+00  0.00000000000E+00 -0.13729639177E+03  0.37805145753E+04  0.37780206663E+04 0.  0.
        3    1    3    3  502    0 -0.17989656133E+04 -0.54232327250E+03  0.12633478230E+03  0.18831761195E+04  0.10100000352E+00 0.  1.
       -3    1    3    3    0  502  0.17989656133E+04  0.54232327250E+03 -0.26363117408E+03  0.18973384558E+04  0.10100000352E+00 0. -1.
</event>
<event>
 5   0  0.6661000E-08  0.3828389E+04  0.7818609E-02  0.8040090E-01
        1   -1    0    0  501    0  0.00000000000E+00  0.00000000000E+00  0.20866749383E+04  0.20866749383E+04  0.50400001928E-02 0.  1.
       -1   -1    0    0    0  501  0.00000000000E+00  0.00000000000E+00 -0.17559706082E+04  0.17559706082E+04  0.50400001928E-02 0. -1.
    10030    2    1    2    0    0  0.00000000000E+00  0.00000000000E+00  0.33070433017E+03  0.38426455465E+04  0.38283886221E+04 0.  0.
        3    1    3    3  502    0 -0.42646099683E+03 -0.25113144005E+02 -0.17075118845E+04  0.17601410448E+04  0.10100000352E+00 0. -1.
       -3    1    3    3    0  502  0.42646099683E+03  0.25113144005E+02  0.20382162146E+04  0.20825045017E+04  0.10100000352E+00 0.  1.
</event>
<event>
 5   0  0.2135314E-07  0.3789220E+04  0.7818609E-02  0.8048472E-01
        2   -1    0    0  501    0  0.00000000000E+00  0.00000000000E+00  0.20916090970E+04  0.20916090971E+04  0.25500000920E-02 0.  1.
       -2   -1    0    0    0  501  0.00000000000E+00  0.00000000000E+00 -0.17161652535E+04  0.17161652535E+04  0.25500000920E-02 0. -1.
    10030    2    1    2    0    0  0.00000000000E+00  0.00000000000E+00  0.37544384355E+03  0.38077743505E+04  0.37892198966E+04 0.  0.
        4    1    3    3  502    0  0.13134069016E+04 -0.11308498795E+04 -0.58132680091E+03  0.18280595180E+04  0.12699999809E+01 0. -1.
       -4    1    3    3    0  502 -0.13134069016E+04  0.11308498795E+04  0.95677064446E+03  0.19797148325E+04  0.12699999809E+01 0.  1.
</event>
<event>
 5   0  0.1370688E-07  0.3766314E+04  0.7818609E-02  0.8053423E-01
        2   -1    0    0  501    0  0.00000000000E+00  0.00000000000E+00  0.22571501177E+04  0.22571501177E+04  0.25500000920E-02 0. -1.
       -2   -1    0    0    0  501  0.00000000000E+00  0.00000000000E+00 -0.15711319176E+04  0.15711319176E+04  0.25500000920E-02 0.  1.
    10030    2    1    2    0    0  0.00000000000E+00  0.00000000000E+00  0.68601820010E+03  0.38282820354E+04  0.37663141626E+04 0.  0.
        5    1    3    3  502    0 -0.26610042163E+03  0.78273698614E+03  0.20628202225E+04  0.22223267051E+04  0.46999998093E+01 0. -1.
       -5    1    3    3    0  502  0.26610042163E+03 -0.78273698614E+03 -0.13768020224E+04  0.16059553303E+04  0.46999998093E+01 0.  1.
</event>
<event>
 5   0  0.6661000E-08  0.3718989E+04  0.7818609E-02  0.8063767E-01
        1   -1    0    0  501    0  0.00000000000E+00  0.00000000000E+00  0.24877807984E+04  0.24877807984E+04  0.50400001928E-02 0. -1.
       -1   -1    0    0    0  501  0.00000000000E+00  0.00000000000E+00 -0.13898812935E+04  0.13898812936E+04  0.50400001928E-02 0.  1.
    10030    2    1    2    0    0  0.00000000000E+00  0.00000000000E+00  0.10978995048E+04  0.38776620919E+04  0.37189891068E+04 0.  0.
        2    1    3    3  502    0  0.17150669533E+04 -0.55818525500E+03  0.77214636771E+02  0.18052666101E+04  0.25500000920E-02 0.  1.
       -2    1    3    3    0  502 -0.17150669533E+04  0.55818525500E+03  0.10206848680E+04  0.20723954819E+04  0.25500000920E-02 0. -1.
</event>
<event>
 5   0  0.6661000E-08  0.3794421E+04  0.7818609E-02  0.8047353E-01
        1   -1    0    0  501    0  0.00000000000E+00  0.00000000000E+00  0.30525561888E+04  0.30525561888E+04  0.50400001928E-02 0.  1.
       -1   -1    0    0    0  501  0.00000000000E+00  0.00000000000E+00 -0.11791453929E+04  0.11791453929E+04  0.50400001928E-02 0. -1.
    10030    2    1    2    0    0  0.00000000000E+00  0.00000000000E+00  0.18734107959E+04  0.42317015817E+04  0.37944209396E+04 0.  0.
        4    1    3    3  502    0 -0.11623818016E+04 -0.96891588402E+03 -0.33949354851E+03  0.15508665079E+04  0.12699999809E+01 0. -1.
       -4    1    3    3    0  502  0.11623818016E+04  0.96891588402E+03  0.22129043444E+04  0.26808350738E+04  0.12699999809E+01 0.  1.
</event>
<event>
 5   0  0.6661000E-08  0.3778246E+04  0.7818609E-02  0.8050840E-01
        1   -1    0    0  501    0  0.00000000000E+00  0.00000000000E+00  0.23119412017E+04  0.23119412017E+04  0.50400001928E-02 0. -1.
       -1   -1    0    0    0  501  0.00000000000E+00  0.00000000000E+00 -0.15436312956E+04  0.15436312956E+04  0.50400001928E-02 0.  1.
    10030    2    1    2    0    0  0.00000000000E+00  0.00000000000E+00  0.76830990614E+03  0.38555724973E+04  0.37782455148E+04 0.  0.
        1    1    3    3  502    0  0.13182612914E+04  0.11177660872E+04  0.11623707546E+04  0.20828633247E+04  0.50400001928E-02 0. -1.
       -1    1    3    3    0  502 -0.13182612914E+04 -0.11177660872E+04 -0.39406084846E+03  0.17727091726E+04  0.50400001928E-02 0.  1.
</event>
<event>
 5   0  0.6725199E-08  0.3788108E+04  0.7818609E-02  0.8048712E-01
        1   -1    0    0  501    0  0.00000000000E+00  0.00000000000E+00  0.18198415483E+04  0.18198415483E+04  0.50400001928E-02 0.  1.
       -1   -1    0    0    0  501  0.00000000000E+00  0.00000000000E+00 -0.19712928777E+04  0.19712928778E+04  0.50400001928E-02 0. -1.
    10030    2    1    2    0    0  0.00000000000E+00  0.00000000000E+00 -0.15145132941E+03  0.37911344261E+04  0.37881080676E+04 0.  0.
        5    1    3    3  502    0  0.15545553226E+04  0.68997144371E+03  0.75843632392E+03  0.18622434297E+04  0.46999998093E+01 0. -1.
       -5    1    3    3    0  502 -0.15545553226E+04 -0.68997144371E+03 -0.90988765334E+03  0.19288909964E+04  0.46999998093E+01 0.  1.
</event>
<event>
 5   0  0.2203998E-07  0.3792169E+04  0.7818609E-02  0.8047838E-01
       -2   -1    0    0    0  501  0.00000000000E+00  0.00000000000E+00  0.11762055703E+04  0.11762055703E+04  0.25500000920E-02 0. -1.
        2   -1    0    0  501    0  0.00000000000E+00  0.00000000000E+00 -0.30565538736E+04  0.30565538736E+04  0.25500000920E-02 0.  1.
    10030    2    1    2    0    0  0.00000000000E+00  0.00000000000E+00 -0.18803483034E+04  0.42327594439E+04  0.37921686102E+04 0.  0.
        3    1    3    3  502    0 -0.33899636868E+03  0.17391067124E+04 -0.18666701702E+03  0.17816439825E+04  0.10100000352E+00 0. -1.
       -3    1    3    3    0  502  0.33899636868E+03 -0.17391067124E+04 -0.16936812864E+04  0.24511154614E+04  0.10100000352E+00 0.  1.
</event>
<event>
 5   0  0.6661000E-08  0.3795498E+04  0.7818609E-02  0.8047122E-01
       -1   -1    0    0    0  501  0.00000000000E+00  0.00000000000E+00  0.16991198565E+04  0.16991198565E+04  0.50400001928E-02 0. -1.
        1   -1    0    0  501    0  0.00000000000E+00  0.00000000000E+00 -0.21195986558E+04  0.21195986558E+04  0.50400001928E-02 0.  1.
    10030    2    1    2    0    0  0.00000000000E+00  0.00000000000E+00 -0.42047879924E+03  0.38187185123E+04  0.37954984726E+04 0.  0.
        1    1    3    3  502    0 -0.17959581789E+04 -0.60249131476E+03 -0.95565806670E+02  0.18967325557E+04  0.50400001928E-02 0.  1.
       -1    1    3    3    0  502  0.17959581789E+04  0.60249131476E+03 -0.32491299257E+03  0.19219859566E+04  0.50400001928E-02 0. -1.
</event>
<event>
 5   0  0.2081337E-07  0.3778723E+04  0.7818609E-02  0.8050736E-01
       -2   -1    0    0    0  501  0.00000000000E+00  0.00000000000E+00  0.17545140369E+04  0.17545140369E+04  0.25500000920E-02 0. -1.
        2   -1    0    0  501    0  0.00000000000E+00  0.00000000000E+00 -0.20345728559E+04  0.20345728559E+04  0.25500000920E-02 0.  1.
    10030    2    1    2    0    0  0.00000000000E+00  0.00000000000E+00 -0.28005881905E+03  0.37890868928E+04  0.37787228714E+04 0.  0.
        1    1    3    3  502    0 -0.67304218234E+02 -0.17361751855E+04 -0.88425943239E+03  0.19495509422E+04  0.50400001928E-02 0. -1.
       -1    1    3    3    0  502  0.67304218234E+02  0.17361751855E+04  0.60420061334E+03  0.18395359506E+04  0.50400001928E-02 0.  1.
</event>
<event>
 5   0  0.6661000E-08  0.3803232E+04  0.7818609E-02  0.8045462E-01
       -1   -1    0    0    0  501  0.00000000000E+00  0.00000000000E+00  0.19178243518E+04  0.19178243518E+04  0.50400001928E-02 0.  1.
        1   -1    0    0  501    0  0.00000000000E+00  0.00000000000E+00 -0.18855444386E+04  0.18855444386E+04  0.50400001928E-02 0. -1.
    10030    2    1    2    0    0  0.00000000000E+00  0.00000000000E+00  0.32279913130E+02  0.38033687904E+04  0.38032318051E+04 0.  0.
        3    1    3    3  502    0  0.11974976183E+04 -0.14146016313E+04  0.44164877139E+03  0.19052957693E+04  0.10100000352E+00 0.  1.
       -3    1    3    3    0  502 -0.11974976183E+04  0.14146016313E+04 -0.40936885826E+03  0.18980730211E+04  0.10100000352E+00 0. -1.
</event>
<event>
 5   0  0.1370688E-07  0.3789978E+04  0.7818609E-02  0.8048309E-01
       -2   -1    0    0    0  501  0.00000000000E+00  0.00000000000E+00  0.12332096051E+04  0.12332096051E+04  0.25500000920E-02 0. -1.
        2   -1    0    0  501    0  0.00000000000E+00  0.00000000000E+00 -0.29118995698E+04  0.29118995698E+04  0.25500000920E-02 0.  1.
    10030    2    1    2    0    0  0.00000000000E+00  0.00000000000E+00 -0.16786899647E+04  0.41451091748E+04  0.37899775822E+04 0.  0.
        5    1    3    3  502    0  0.52135897615E+03  0.17599303177E+04 -0.13544204023E+04  0.22811502847E+04  0.46999998093E+01 0. -1.
       -5    1    3    3    0  502 -0.52135897615E+03 -0.17599303177E+04 -0.32426956242E+03  0.18639588902E+04  0.46999998093E+01 0.  1.
</event>
<event>
 5   0  0.6725199E-08  0.3791023E+04  0.7818609E-02  0.8048084E-01
        1   -1    0    0  501    0  0.00000000000E+00  0.00000000000E+00  0.18317145929E+04  0.18317145929E+04  0.50400001928E-02 0.  1.
       -1   -1    0    0    0  501  0.00000000000E+00  0.00000000000E+00 -0.19615301599E+04  0.19615301599E+04  0.50400001928E-02 0. -1.
    10030    2    1    2    0    0  0.00000000000E+00  0.00000000000E+00 -0.12981556691E+03  0.37932447528E+04  0.37910227740E+04 0.  0.
        5    1    3    3  502    0  0.11647974574E+04  0.14953191601E+04 -0.50448677082E+02  0.18961275449E+04  0.46999998093E+01 0.  1.
       -5    1    3    3    0  502 -0.11647974574E+04 -0.14953191601E+04 -0.79366889833E+02  0.18971172079E+04  0.46999998093E+01 0. -1.
</event>
<event>
 5   0  0.1370688E-07  0.3829163E+04  0.7818609E-02  0.8039925E-01
        2   -1    0    0  501    0  0.00000000000E+00  0.00000000000E+00  0.26229782801E+04  0.26229782801E+04  0.25500000920E-02 0.  1.
       -2   -1    0    0    0  501  0.00000000000E+00  0.00000000000E+00 -0.13975042245E+04  0.13975042245E+04  0.25500000920E-02 0. -1.
    10030    2    1    2    0    0  0.00000000000E+00  0.00000000000E+00  0.12254740556E+04  0.40204825047E+04  0.38291634738E+04 0.  0.
        5    1    3    3  502    0 -0.62726233309E+03 -0.35385223516E+03 -0.12498558054E+04  0.14425086007E+04  0.46999998093E+01 0. -1.
       -5    1    3    3    0  502  0.62726233309E+03  0.35385223516E+03  0.24753298610E+04  0.25779739040E+04  0.46999998093E+01 0.  1.
</event>
<event>
 5   0  0.1370688E-07  0.3905499E+04  0.7818609E-02  0.8023887E-01
       -2   -1    0    0    0  501  0.00000000000E+00  0.00000000000E+00  0.13519538611E+04  0.13519538611E+04  0.25500000920E-02 0. -1.
        2   -1    0    0  501    0  0.00000000000E+00  0.00000000000E+00 -0.28205330401E+04  0.28205330401E+04  0.25500000920E-02 0.  1.
    10030    2    1    2    0    0  0.00000000000E+00  0.00000000000E+00 -0.14685791790E+04  0.41724869012E+04  0.39054989612E+04 0.  0.
        5    1    3    3  502    0 -0.11208493542E+04 -0.14468779660E+04 -0.14615996252E+04  0.23422328402E+04  0.46999998093E+01 0.  1.
       -5    1    3    3    0  502  0.11208493542E+04  0.14468779660E+04 -0.69795537359E+01  0.18302540609E+04  0.46999998093E+01 0. -1.
</event>
<event>
 5   0  0.1370688E-07  0.3802744E+04  0.7818609E-02  0.8045566E-01
        2   -1    0    0  501    0  0.00000000000E+00  0.00000000000E+00  0.20629397640E+04  0.20629397640E+04  0.25500000920E-02 0.  1.
       -2   -1    0    0    0  501  0.00000000000E+00  0.00000000000E+00 -0.17524585434E+04  0.17524585434E+04  0.25500000920E-02 0. -1.
    10030    2    1    2    0    0  0.00000000000E+00  0.00000000000E+00  0.31048122067E+03  0.38153983074E+04  0.38027444899E+04 0.  0.
        5    1    3    3  502    0 -0.65907129124E+03  0.45676087128E+02 -0.16335922569E+04  0.17621313866E+04  0.46999998093E+01 0. -1.
       -5    1    3    3    0  502  0.65907129124E+03 -0.45676087128E+02  0.19440734776E+04  0.20532669208E+04  0.46999998093E+01 0.  1.
</event>
<event>
 5   0  0.6661000E-08  0.3907129E+04  0.7818609E-02  0.8023548E-01
        1   -1    0    0  501    0  0.00000000000E+00  0.00000000000E+00  0.23268604701E+04  0.23268604701E+04  0.50400001928E-02 0.  1.
       -1   -1    0    0    0  501  0.00000000000E+00  0.00000000000E+00 -0.16401557159E+04  0.16401557159E+04  0.50400001928E-02 0. -1.
    10030    2    1    2    0    0  0.00000000000E+00  0.00000000000E+00  0.68670475421E+03  0.39670161860E+04  0.39071286133E+04 0.  0.
        4    1    3    3  502    0 -0.37447925033E+03  0.18235800797E+04  0.94465694133E+03  0.20875960734E+04  0.12699999809E+01 0.  1.
       -4    1    3    3    0  502  0.37447925033E+03 -0.18235800797E+04 -0.25795218713E+03  0.18794201126E+04  0.12699999809E+01 0. -1.
</event>
<event>
 5   0  0.2205204E-07  0.3714287E+04  0.7818609E-02  0.8064803E-01
        2   -1    0    0  501    0  0.00000000000E+00  0.00000000000E+00  0.12378557884E+04  0.12378557884E+04  0.25500000920E-02 0. -1.
       -2   -1    0    0    0  501  0.00000000000E+00  0.00000000000E+00 -0.27862558231E+04  0.27862558231E+04  0.25500000920E-02 0.  1.
    10030    2    1    2    0    0  0.00000000000E+00  0.00000000000E+00 -0.15484000346E+04  0.40241116115E+04  0.37142874949E+04 0.  0.
        2    1    3    3  502    0  0.18698806918E+03  0.34521161322E+03 -0.27407824154E+04  0.27687585385E+04  0.25500000920E-02 0.  1.
       -2    1    3    3    0  502 -0.18698806918E+03 -0.34521161322E+03  0.11923823808E+04  0.12553530730E+04  0.25500000920E-02 0. -1.
</event>
<event>
 5   0  0.2203998E-07  0.3780783E+04  0.7818609E-02  0.8050291E-01
       -2   -1    0    0    0  501  0.00000000000E+00  0.00000000000E+00  0.25866457948E+04  0.25866457948E+04  0.25500000920E-02 0. -1.
        2   -1    0    0  501    0  0.00000000000E+00  0.00000000000E+00 -0.13815498031E+04  0.13815498031E+04  0.25500000920E-02 0.  1.
    10030    2    1    2    0    0  0.00000000000E+00  0.00000000000E+00  0.12050959917E+04  0.39681955979E+04  0.37807829816E+04 0.  0.
        3    1    3    3  502    0 -0.79604686412E+03 -0.13360062924E+04  0.17305189224E+04  0.23266497747E+04  0.10100000352E+00 0. -1.
       -3    1    3    3    0  502  0.79604686412E+03  0.13360062924E+04 -0.52542293070E+03  0.16415458232E+04  0.10100000352E+00 0.  1.
</event>
<event>
 5   0  0.6661000E-08  0.3804215E+04  0.7818609E-02  0.8045251E-01
        1   -1    0    0  501    0  0.00000000000E+00  0.00000000000E+00  0.32576785208E+04  0.32576785208E+04  0.50400001928E-02 0.  1.
       -1   -1    0    0    0  501  0.00000000000E+00  0.00000000000E+00 -0.11106108272E+04  0.11106108272E+04  0.50400001928E-02 0. -1.
    10030    2    1    2    0    0  0.00000000000E+00  0.00000000000E+00  0.21470676936E+04  0.43682893479E+04  0.38042150500E+04 0.  0.
        1    1    3    3  502    0 -0.71402010475E+03  0.30158158431E+03  0.30681119252E+04  0.31645042182E+04  0.50400001928E-02 0.  1.
       -1    1    3    3    0  502  0.71402010475E+03 -0.30158158431E+03 -0.92104423155E+03  0.12037851297E+04  0.50400001928E-02 0. -1.
</event>
<event>
 5   0  0.2203998E-07  0.3808437E+04  0.7818609E-02  0.8044347E-01
        2   -1    0    0  501    0  0.00000000000E+00  0.00000000000E+00  0.13239000300E+04  0.13239000300E+04  0.25500000920E-02 0. -1.
       -2   -1    0    0    0  501  0.00000000000E+00  0.00000000000E+00 -0.27389136514E+04  0.27389136514E+04  0.25500000920E-02 0.  1.
    10030    2    1    2    0    0  0.00000000000E+00  0.00000000000E+00 -0.14150136214E+04  0.40628136814E+04  0.38084368790E+04 0.  0.
        3    1    3    3  502    0  0.58479895716E+02  0.17903717999E+04 -0.18457003313E+02  0.17914217122E+04  0.10100000352E+00 0. -1.
       -3    1    3    3    0  502 -0.58479895716E+02 -0.17903717999E+04 -0.13965566180E+04  0.22713919692E+04  0.10100000352E+00 0.  1.
</event>
<event>
 5   0  0.6661000E-08  0.3804969E+04  0.7818609E-02  0.8045089E-01
       -1   -1    0    0    0  501  0.00000000000E+00  0.00000000000E+00  0.12891600455E+04  0.12891600455E+04  0.50400001928E-02 0.  1.
        1   -1    0    0  501    0  0.00000000000E+00  0.00000000000E+00 -0.28076013833E+04  0.28076013833E+04  0.50400001928E-02 0. -1.
    10030    2    1    2    0    0  0.00000000000E+00  0.00000000000E+00 -0.15184413378E+04  0.40967614289E+04  0.38049691337E+04 0.  0.
        4    1    3    3  502    0  0.75682832213E+03 -0.18035598392E+03 -0.26284837104E+04  0.27412124360E+04  0.12699999809E+01 0. -1.
       -4    1    3    3    0  502 -0.75682832213E+03  0.18035598392E+03  0.11100423727E+04  0.13555489929E+04  0.12699999809E+01 0.  1.
</event>
<event>
 5   0  0.1370688E-07  0.4221515E+04  0.7818609E-02  0.7961292E-01
        2   -1    0    0  501    0  0.00000000000E+00  0.00000000000E+00  0.18377261261E+04  0.18377261261E+04  0.25500000920E-02 0.  1.
       -2   -1    0    0    0  501  0.00000000000E+00  0.00000000000E+00 -0.24243532044E+04  0.24243532044E+04  0.25500000920E-02 0. -1.
    10030    2    1    2    0    0  0.00000000000E+00  0.00000000000E+00 -0.58662707825E+03  0.42620793305E+04  0.42215149995E+04 0.  0.
        5    1    3    3  502    0  0.18725602676E+04  0.52707861398E+03 -0.11203190516E+04  0.22448676328E+04  0.46999998093E+01 0. -1.
       -5    1    3    3    0  502 -0.18725602676E+04 -0.52707861398E+03  0.53369197336E+03  0.20172116978E+04  0.46999998093E+01 0.  1.
</event>
<event>
 5   0  0.6661000E-08  0.3779333E+04  0.7818609E-02  0.8050604E-01
        1   -1    0    0  501    0  0.00000000000E+00  0.00000000000E+00  0.17361712062E+04  0.17361712063E+04  0.50400001928E-02 0. -1.
       -1   -1    0    0    0  501  0.00000000000E+00  0.00000000000E+00 -0.20567327695E+04  0.20567327696E+04  0.50400001928E-02 0.  1.
    10030    2    1    2    0    0  0.00000000000E+00  0.00000000000E+00 -0.32056156330E+03  0.37929039758E+04  0.37793333875E+04 0.  0.
        3    1    3    3  502    0  0.18314504737E+03 -0.33895282386E+02 -0.20474981920E+04  0.20559522988E+04  0.10100000352E+00 0.  1.
       -3    1    3    3    0  502 -0.18314504737E+03  0.33895282386E+02  0.17269366287E+04  0.17369516770E+04  0.10100000352E+00 0. -1.
</event>
<event>
 5   0  0.2205204E-07  0.3544004E+04  0.7818609E-02  0.8103440E-01
        2   -1    0    0  501    0  0.00000000000E+00  0.00000000000E+00  0.10423528310E+04  0.10423528310E+04  0.25500000920E-02 0. -1.
       -2   -1    0    0    0  501  0.00000000000E+00  0.00000000000E+00 -0.30124070690E+04  0.30124070690E+04  0.25500000920E-02 0.  1.
    10030    2    1    2    0    0  0.00000000000E+00  0.00000000000E+00 -0.19700542380E+04  0.40547599000E+04  0.35440039709E+04 0.  0.
        2    1    3    3  502    0  0.23258996148E+03  0.34428063882E+03  0.98583544044E+03  0.10698124901E+04  0.25500000920E-02 0. -1.
       -2    1    3    3    0  502 -0.23258996148E+03 -0.34428063882E+03 -0.29558896784E+04  0.29849474098E+04  0.25500000920E-02 0.  1.
</event>
<event>
 5   0  0.6725199E-08  0.3792305E+04  0.7818609E-02  0.8047808E-01
       -1   -1    0    0    0  501  0.00000000000E+00  0.00000000000E+00  0.17799987791E+04  0.17799987792E+04  0.50400001928E-02 0.  1.
        1   -1    0    0  501    0  0.00000000000E+00  0.00000000000E+00 -0.20198861729E+04  0.20198861729E+04  0.50400001928E-02 0. -1.
    10030    2    1    2    0    0  0.00000000000E+00  0.00000000000E+00 -0.23988739379E+03  0.37998849521E+04  0.37923053262E+04 0.  0.
        5    1    3    3  502    0 -0.13865309417E+04 -0.45214374894E+03  0.10942830936E+04  0.18232881289E+04  0.46999998093E+01 0.  1.
       -5    1    3    3    0  502  0.13865309417E+04  0.45214374894E+03 -0.13341704874E+04  0.19765968232E+04  0.46999998093E+01 0. -1.
</event>
<event>
 5   0  0.6661000E-08  0.3712054E+04  0.7818609E-02  0.8065296E-01
       -1   -1    0    0    0  501  0.00000000000E+00  0.00000000000E+00  0.15456235716E+04  0.15456235716E+04  0.50400001928E-02 0. -1.
        1   -1    0    0  501    0  0.00000000000E+00  0.00000000000E+00 -0.22287682676E+04  0.22287682676E+04  0.50400001928E-02 0.  1.
    10030    2    1    2    0    0  0.00000000000E+00  0.00000000000E+00 -0.68314469598E+03  0.37743918392E+04  0.37120542938E+04 0.  0.
        2    1    3    3  502    0 -0.47172875216E+03 -0.91822456251E+03  0.12267871632E+04  0.16033312529E+04  0.25500000920E-02 0. -1.
       -2    1    3    3    0  502  0.47172875216E+03  0.91822456251E+03 -0.19099318592E+04  0.21710605863E+04  0.25500000920E-02 0.  1.
</event>
<event>
 5   0  0.6725199E-08  0.3780562E+04  0.7818609E-02  0.8050339E-01
        1   -1    0    0  501    0  0.00000000000E+00  0.00000000000E+00  0.10655883261E+04  0.10655883261E+04  0.50400001928E-02 0.  1.
       -1   -1    0    0    0  501  0.00000000000E+00  0.00000000000E+00 -0.33532299747E+04  0.33532299747E+04  0.50400001928E-02 0. -1.
    10030    2    1    2    0    0  0.00000000000E+00  0.00000000000E+00 -0.22876416486E+04  0.44188183008E+04  0.37805622417E+04 0.  0.
        5    1    3    3  502    0 -0.83953900725E+03 -0.13628534010E+04  0.31384149207E+02  0.16010003723E+04  0.46999998093E+01 0.  1.
       -5    1    3    3    0  502  0.83953900725E+03  0.13628534010E+04 -0.23190257978E+04  0.28178179285E+04  0.46999998093E+01 0. -1.
</event>
<event>
 5   0  0.1370688E-07  0.3731857E+04  0.7818609E-02  0.8060938E-01
       -2   -1    0    0    0  501  0.00000000000E+00  0.00000000000E+00  0.19138183980E+04  0.19138183980E+04  0.25500000920E-02 0.  1.
        2   -1    0    0  501    0  0.00000000000E+00  0.00000000000E+00 -0.18192366814E+04  0.18192366814E+04  0.25500000920E-02 0. -1.
    10030    2    1    2    0    0  0.00000000000E+00  0.00000000000E+00  0.94581716679E+02  0.37330550794E+04  0.37318567128E+04 0.  0.
        5    1    3    3  502    0  0.12660017233E+04 -0.54198130504E+03  0.13067275002E+04  0.18984369750E+04  0.46999998093E+01 0.  1.
       -5    1    3    3    0  502 -0.12660017233E+04  0.54198130504E+03 -0.12121457835E+04  0.18346181044E+04  0.46999998093E+01 0. -1.
</event>
<event>
 5   0  0.6725199E-08  0.3818009E+04  0.7818609E-02  0.8042301E-01
       -1   -1    0    0    0  501  0.00000000000E+00  0.00000000000E+00  0.17112972953E+04  0.17112972953E+04  0.50400001928E-02 0. -1.
        1   -1    0    0  501    0  0.00000000000E+00  0.00000000000E+00 -0.21295534928E+04  0.21295534928E+04  0.50400001928E-02 0.  1.
    10030    2    1    2    0    0  0.00000000000E+00  0.00000000000E+00 -0.41825619754E+03  0.38408507882E+04  0.38180094984E+04 0.  0.
        5    1    3    3  502    0 -0.17539210393E+04  0.27713416458E+03  0.49594629596E+03  0.18436450786E+04  0.46999998093E+01 0. -1.
       -5    1    3    3    0  502  0.17539210393E+04 -0.27713416458E+03 -0.91420249350E+03  0.19972057096E+04  0.46999998093E+01 0.  1.
</event>
<event>
 5   0  0.2081337E-07  0.3830056E+04  0.7818609E-02  0.8039736E-01
       -2   -1    0    0    0  501  0.00000000000E+00  0.00000000000E+00  0.14428531988E+04  0.14428531988E+04  0.25500000920E-02 0.  1.
        2   -1    0    0  501    0  0.00000000000E+00  0.00000000000E+00 -0.25417225753E+04  0.25417225753E+04  0.25500000920E-02 0. -1.
    10030    2    1    2    0    0  0.00000000000E+00  0.00000000000E+00 -0.10988693765E+04  0.39845757741E+04  0.38300561605E+04 0.  0.
        1    1    3    3  502    0  0.17897962109E+04 -0.66595614295E+03 -0.69826019947E+03  0.20333311012E+04  0.50400001928E-02 0. -1.
       -1    1    3    3    0  502 -0.17897962109E+04  0.66595614295E+03 -0.40060917701E+03  0.19512446729E+04  0.50400001928E-02 0.  1.
</event>
<event>
 5   0  0.1370688E-07  0.3779128E+04  0.7818609E-02  0.8050649E-01
       -2   -1    0    0    0  501  0.00000000000E+00  0.00000000000E+00  0.21064738324E+04  0.21064738324E+04  0.25500000920E-02 0. -1.
        2   -1    0    0  501    0  0.00000000000E+00  0.00000000000E+00 -0.16949901909E+04  0.16949901909E+04  0.25500000920E-02 0.  1.
    10030    2    1    2    0    0  0.00000000000E+00  0.00000000000E+00  0.41148364151E+03  0.38014640234E+04  0.37791281976E+04 0.  0.
        5    1    3    3  502    0 -0.15227939156E+03 -0.17554441027E+04 -0.48068225326E+03  0.18264310908E+04  0.46999998093E+01 0. -1.
       -5    1    3    3    0  502  0.15227939156E+03  0.17554441027E+04  0.89216589477E+03  0.19750329326E+04  0.46999998093E+01 0.  1.
</event>
<event>
 5   0  0.1370688E-07  0.3786276E+04  0.7818609E-02  0.8049107E-01
       -2   -1    0    0    0  501  0.00000000000E+00  0.00000000000E+00  0.13206175836E+04  0.13206175836E+04  0.25500000920E-02 0.  1.
        2   -1    0    0  501    0  0.00000000000E+00  0.00000000000E+00 -0.27138596483E+04  0.27138596483E+04  0.25500000920E-02 0. -1.
    10030    2    1    2    0    0  0.00000000000E+00  0.00000000000E+00 -0.13932420647E+04  0.40344772318E+04  0.37862756217E+04 0.  0.
        5    1    3    3  502    0  0.67605461200E+02  0.22463612447E+03  0.13050640517E+04  0.13259887465E+04  0.46999998093E+01 0.  1.
       -5    1    3    3    0  502 -0.67605461200E+02 -0.22463612447E+03 -0.26983061165E+04  0.27084884853E+04  0.46999998093E+01 0. -1.
</event>
<event>
 5   0  0.6661000E-08  0.3775889E+04  0.7818609E-02  0.8051349E-01
       -1   -1    0    0    0  501  0.00000000000E+00  0.00000000000E+00  0.22620844269E+04  0.22620844269E+04  0.50400001928E-02 0. -1.
        1   -1    0    0  501    0  0.00000000000E+00  0.00000000000E+00 -0.15756860055E+04  0.15756860055E+04  0.50400001928E-02 0.  1.
    10030    2    1    2    0    0  0.00000000000E+00  0.00000000000E+00  0.68639842141E+03  0.38377704324E+04  0.37758891799E+04 0.  0.
        3    1    3    3  502    0  0.11785269328E+03  0.59606435207E+03  0.21599927162E+04  0.22438249738E+04  0.10100000352E+00 0. -1.
       -3    1    3    3    0  502 -0.11785269328E+03 -0.59606435207E+03 -0.14735942948E+04  0.15939454586E+04  0.10100000352E+00 0.  1.
</event>
<event>
 5   0  0.6725199E-08  0.3815062E+04  0.7818609E-02  0.8042930E-01
        1   -1    0    0  501    0  0.00000000000E+00  0.00000000000E+00  0.18742835531E+04  0.18742835531E+04  0.50400001928E-02 0.  1.
       -1   -1    0    0    0  501  0.00000000000E+00  0.00000000000E+00 -0.19413679040E+04  0.19413679040E+04  0.50400001928E-02 0. -1.
    10030    2    1    2    0    0  0.00000000000E+00  0.00000000000E+00 -0.67084350932E+02  0.38156514571E+04  0.38150616944E+04 0.  0.
        5    1    3    3  502    0 -0.24435776460E+03 -0.74143969737E+02  0.18571055194E+04  0.18745855663E+04  0.46999998093E+01 0.  1.
       -5    1    3    3    0  502  0.24435776460E+03  0.74143969737E+02 -0.19241898703E+04  0.19410658908E+04  0.46999998093E+01 0. -1.
</event>
<event>
 5   0  0.1370688E-07  0.3794828E+04  0.7818609E-02  0.8047266E-01
       -2   -1    0    0    0  501  0.00000000000E+00  0.00000000000E+00  0.10322202247E+04  0.10322202247E+04  0.25500000920E-02 0. -1.
        2   -1    0    0  501    0  0.00000000000E+00  0.00000000000E+00 -0.34878024655E+04  0.34878024655E+04  0.25500000920E-02 0.  1.
    10030    2    1    2    0    0  0.00000000000E+00  0.00000000000E+00 -0.24555822408E+04  0.45200226902E+04  0.37948281883E+04 0.  0.
        5    1    3    3  502    0  0.12545933094E+04 -0.84768934146E+03 -0.25898066547E+04  0.29999503646E+04  0.46999998093E+01 0.  1.
       -5    1    3    3    0  502 -0.12545933094E+04  0.84768934146E+03  0.13422441387E+03  0.15200723256E+04  0.46999998093E+01 0. -1.
</event>
<event>
 5   0  0.6661000E-08  0.3667020E+04  0.7818609E-02  0.8075310E-01
       -1   -1    0    0    0  501  0.00000000000E+00  0.00000000000E+00  0.22321649561E+04  0.22321649561E+04  0.50400001928E-02 0.  1.
        1   -1    0    0  501    0  0.00000000000E+00  0.00000000000E+00 -0.15060529361E+04  0.15060529361E+04  0.50400001928E-02 0. -1.
    10030    2    1    2    0    0  0.00000000000E+00  0.00000000000E+00  0.72611202005E+03  0.37382178922E+04  0.36670198177E+04 0.  0.
        2    1    3    3  502    0 -0.10288956889E+04 -0.13986495204E+04  0.96348391762E+03  0.19857361555E+04  0.25500000920E-02 0.  1.
       -2    1    3    3    0  502  0.10288956889E+04  0.13986495204E+04 -0.23737189756E+03  0.17524817367E+04  0.25500000920E-02 0. -1.
</event>
<event>
 5   0  0.2081337E-07  0.3790222E+04  0.7818609E-02  0.8048256E-01
        2   -1    0    0  501    0  0.00000000000E+00  0.00000000000E+00  0.12250799841E+04  0.12250799841E+04  0.25500000920E-02 0. -1.
       -2   -1    0    0    0  501  0.00000000000E+00  0.00000000000E+00 -0.29316017341E+04  0.29316017341E+04  0.25500000920E-02 0.  1.
    10030    2    1    2    0    0  0.00000000000E+00  0.00000000000E+00 -0.17065217501E+04  0.41566817182E+04  0.37902224767E+04 0.  0.
        1    1    3    3  502    0  0.10980844091E+04  0.26126002186E+03 -0.25227462193E+04  0.27637464890E+04  0.50400001928E-02 0.  1.
       -1    1    3    3    0  502 -0.10980844091E+04 -0.26126002186E+03  0.81622446925E+03  0.13929352292E+04  0.50400001928E-02 0. -1.
</event>
<event>
 5   0  0.6725199E-08  0.3804497E+04  0.7818609E-02  0.8045190E-01
        1   -1    0    0  501    0  0.00000000000E+00  0.00000000000E+00  0.22398785122E+04  0.22398785122E+04  0.50400001928E-02 0.  1.
       -1   -1    0    0    0  501  0.00000000000E+00  0.00000000000E+00 -0.16155115984E+04  0.16155115985E+04  0.50400001928E-02 0. -1.
    10030    2    1    2    0    0  0.00000000000E+00  0.00000000000E+00  0.62436691375E+03  0.38553901107E+04  0.38044971892E+04 0.  0.
        5    1    3    3  502    0  0.76436769224E+03  0.14992589111E+04 -0.58652394684E+03  0.17821525416E+04  0.46999998093E+01 0. -1.
       -5    1    3    3    0  502 -0.76436769224E+03 -0.14992589111E+04  0.12108908606E+04  0.20732375690E+04  0.46999998093E+01 0.  1.
</event>
<event>
 5   0  0.6661000E-08  0.3815947E+04  0.7818609E-02  0.8042741E-01
       -1   -1    0    0    0  501  0.00000000000E+00  0.00000000000E+00  0.15770225749E+04  0.15770225749E+04  0.50400001928E-02 0.  1.
        1   -1    0    0  501    0  0.00000000000E+00  0.00000000000E+00 -0.23083771116E+04  0.23083771116E+04  0.50400001928E-02 0. -1.
    10030    2    1    2    0    0  0.00000000000E+00  0.00000000000E+00 -0.73135453670E+03  0.38853996866E+04  0.38159469685E+04 0.  0.
        1    1    3    3  502    0  0.17835231057E+04  0.67762301277E+03 -0.35006189411E+03  0.19397605383E+04  0.50400001928E-02 0.  1.
       -1    1    3    3    0  502 -0.17835231057E+04 -0.67762301277E+03 -0.38129264259E+03  0.19456391483E+04  0.50400001928E-02 0. -1.
</event>
<event>
 5   0  0.6661000E-08  0.3801291E+04  0.7818609E-02  0.8045878E-01
        1   -1    0    0  501    0  0.00000000000E+00  0.00000000000E+00  0.16983055819E+04  0.16983055819E+04  0.50400001928E-02 0. -1.
       -1   -1    0    0    0  501  0.00000000000E+00  0.00000000000E+00 -0.21270932036E+04  0.21270932036E+04  0.50400001928E-02 0.  1.
    10030    2    1    2    0    0  0.00000000000E+00  0.00000000000E+00 -0.42878762176E+03  0.38253987855E+04  0.38012914968E+04 0.  0.
        1    1    3    3  502    0 -0.41606333390E+02  0.85475976668E+03  0.14934572634E+04  0.17212669588E+04  0.50400001928E-02 0. -1.
       -1    1    3    3    0  502  0.41606333390E+02 -0.85475976668E+03 -0.19222448852E+04  0.21041318267E+04  0.50400001928E-02 0.  1.
</event>
<event>
 5   0  0.6661000E-08  0.3803184E+04  0.7818609E-02  0.8045472E-01
       -1   -1    0    0    0  501  0.00000000000E+00  0.00000000000E+00  0.14601353416E+04  0.14601353416E+04  0.50400001928E-02 0. -1.
        1   -1    0    0  501    0  0.00000000000E+00  0.00000000000E+00 -0.24765181680E+04  0.24765181680E+04  0.50400001928E-02 0.  1.
    10030    2    1    2    0    0  0.00000000000E+00  0.00000000000E+00 -0.10163828264E+04  0.39366535097E+04  0.38031837722E+04 0.  0.
        2    1    3    3  502    0  0.19811954500E+03 -0.15215990553E+04  0.65440724727E+03  0.16681618281E+04  0.25500000920E-02 0. -1.
       -2    1    3    3    0  502 -0.19811954500E+03  0.15215990553E+04 -0.16707900736E+04  0.22684916816E+04  0.25500000920E-02 0.  1.
</event>
<event>
 5   0  0.2135314E-07  0.3768391E+04  0.7818609E-02  0.8052972E-01
        2   -1    0    0  501    0  0.00000000000E+00  0.00000000000E+00  0.24589433953E+04  0.24589433953E+04  0.25500000920E-02 0.  1.
       -2   -1    0    0    0  501  0.00000000000E+00  0.00000000000E+00 -0.14437881326E+04  0.14437881326E+04  0.25500000920E-02 0. -1.
    10030    2    1    2    0    0  0.00000000000E+00  0.00000000000E+00  0.10151552627E+04  0.39027315280E+04  0.37683913241E+04 0.  0.
        4    1    3    3  502    0 -0.12820019116E+02  0.13905350258E+04 -0.80913933484E+03  0.16088691951E+04  0.12699999809E+01 0. -1.
       -4    1    3    3    0  502  0.12820019116E+02 -0.13905350258E+04  0.18242945975E+04  0.22938623329E+04  0.12699999809E+01 0.  1.
</event>
<event>
 5   0  0.2203998E-07  0.3815842E+04  0.7818609E-02  0.8042764E-01
       -2   -1    0    0    0  501  0.00000000000E+00  0.00000000000E+00  0.11297075447E+04  0.11297075447E+04  0.25500000920E-02 0.  1.
        2   -1    0    0  501    0  0.00000000000E+00  0.00000000000E+00 -0.32222173052E+04  0.32222173052E+04  0.25500000920E-02 0. -1.
    10030    2    1    2    0    0  0.00000000000E+00  0.00000000000E+00 -0.20925097605E+04  0.43519248499E+04  0.38158423449E+04 0.  0.
        3    1    3    3  502    0  0.29632542461E+03 -0.76367389809E+03  0.91894856490E+03  0.12310455130E+04  0.10100000352E+00 0.  1.
       -3    1    3    3    0  502 -0.29632542461E+03  0.76367389809E+03 -0.30114583254E+04  0.31208793369E+04  0.10100000352E+00 0. -1.
</event>
<event>
 5   0  0.6661000E-08  0.3795195E+04  0.7818609E-02  0.8047187E-01
        1   -1    0    0  501    0  0.00000000000E+00  0.00000000000E+00  0.12131363810E+04  0.12131363810E+04  0.50400001928E-02 0. -1.
       -1   -1    0    0    0  501  0.00000000000E+00  0.00000000000E+00 -0.29682371950E+04  0.29682371950E+04  0.50400001928E-02 0.  1.
    10030    2    1    2    0    0  0.00000000000E+00  0.00000000000E+00 -0.17551008139E+04  0.41813735760E+04  0.37951951353E+04 0.  0.
        4    1    3    3  502    0  0.18234670448E+04  0.17598302250E+03 -0.14227495422E+04  0.23195301163E+04  0.12699999809E+01 0.  1.
       -4    1    3    3    0  502 -0.18234670448E+04 -0.17598302250E+03 -0.33235127178E+03  0.18618434597E+04  0.12699999809E+01 0. -1.
</event>
<event>
 5   0  0.1370688E-07  0.3816448E+04  0.7818609E-02  0.8042634E-01
       -2   -1    0    0    0  501  0.00000000000E+00  0.00000000000E+00  0.13248621014E+04  0.13248621014E+04  0.25500000920E-02 0.  1.
        2   -1    0    0  501    0  0.00000000000E+00  0.00000000000E+00 -0.27484513395E+04  0.27484513395E+04  0.25500000920E-02 0. -1.
    10030    2    1    2    0    0  0.00000000000E+00  0.00000000000E+00 -0.14235892381E+04  0.40733134410E+04  0.38164480960E+04 0.  0.
        5    1    3    3  502    0  0.13638523825E+04  0.13119736051E+04 -0.45051442003E+03  0.19453414596E+04  0.46999998093E+01 0.  1.
       -5    1    3    3    0  502 -0.13638523825E+04 -0.13119736051E+04 -0.97307481804E+03  0.21279719813E+04  0.46999998093E+01 0. -1.
</event>
<event>
 5   0  0.2203998E-07  0.3796694E+04  0.7818609E-02  0.8046865E-01
        2   -1    0    0  501    0  0.00000000000E+00  0.00000000000E+00  0.17499108857E+04  0.17499108857E+04  0.25500000920E-02 0. -1.
       -2   -1    0    0    0  501  0.00000000000E+00  0.00000000000E+00 -0.20593737226E+04  0.20593737226E+04  0.25500000920E-02 0.  1.
    10030    2    1    2    0    0  0.00000000000E+00  0.00000000000E+00 -0.30946283691E+03  0.38092846083E+04  0.37966935589E+04 0.  0.
        3    1    3    3  502    0 -0.15836941645E+04  0.74917543150E+03  0.57869861080E+03  0.18450591118E+04  0.10100000352E+00 0.  1.
       -3    1    3    3    0  502  0.15836941645E+04 -0.74917543150E+03 -0.88816144771E+03  0.19642254965E+04  0.10100000352E+00 0. -1.
</event>
<event>
 5   0  0.2135314E-07  0.3524788E+04  0.7818609E-02  0.8107940E-01
       -2   -1    0    0    0  501  0.00000000000E+00  0.00000000000E+00  0.14357969251E+04  0.14357969251E+04  0.25500000920E-02 0. -1.
        2   -1    0    0  501    0  0.00000000000E+00  0.00000000000E+00 -0.21632816677E+04  0.21632816677E+04  0.25500000920E-02 0.  1.
    10030    2    1    2    0    0  0.00000000000E+00  0.00000000000E+00 -0.72748474257E+03  0.35990785927E+04  0.35247883151E+04 0.  0.
        4    1    3    3  502    0  0.20739361416E+03  0.10863036519E+04 -0.17648751001E+04  0.20827514176E+04  0.12699999809E+01 0.  1.
       -4    1    3    3    0  502 -0.20739361416E+03 -0.10863036519E+04  0.10373903576E+04  0.15163271752E+04  0.12699999809E+01 0. -1.
</event>
<event>
 5   0  0.2205204E-07  0.3798239E+04  0.7818609E-02  0.8046533E-01
       -2   -1    0    0    0  501  0.00000000000E+00  0.00000000000E+00  0.15866770176E+04  0.15866770176E+04  0.25500000920E-02 0.  1.
        2   -1    0    0  501    0  0.00000000000E+00  0.00000000000E+00 -0.22730866485E+04  0.22730866485E+04  0.25500000920E-02 0. -1.
    10030    2    1    2    0    0  0.00000000000E+00  0.00000000000E+00 -0.68640963085E+03  0.38597636661E+04  0.37982387204E+04 0.  0.
        2    1    3    3  502    0  0.78049092899E+03 -0.13222944574E+04 -0.14789061352E+04  0.21318517958E+04  0.25500000920E-02 0. -1.
       -2    1    3    3    0  502 -0.78049092899E+03  0.13222944574E+04  0.79249650439E+03  0.17279118704E+04  0.25500000920E-02 0.  1.
</event>
<event>
 5   0  0.2205204E-07  0.3786646E+04  0.7818609E-02  0.8049027E-01
       -2   -1    0    0    0  501  0.00000000000E+00  0.00000000000E+00  0.18225725428E+04  0.18225725428E+04  0.25500000920E-02 0. -1.
        2   -1    0    0  501    0  0.00000000000E+00  0.00000000000E+00 -0.19668200214E+04  0.19668200214E+04  0.25500000920E-02 0.  1.
    10030    2    1    2    0    0  0.00000000000E+00  0.00000000000E+00 -0.14424747860E+03  0.37893925641E+04  0.37866460978E+04 0.  0.
        2    1    3    3  502    0  0.13401881388E+03 -0.36839651454E+03 -0.19257617733E+04  0.19652570931E+04  0.25500000920E-02 0.  1.
       -2    1    3    3    0  502 -0.13401881388E+03  0.36839651454E+03  0.17815142947E+04  0.18241354710E+04  0.25500000920E-02 0. -1.
</event>
<event>
 5   0  0.2205204E-07  0.3806194E+04  0.7818609E-02  0.8044827E-01
       -2   -1    0    0    0  501  0.00000000000E+00  0.00000000000E+00  0.19631993582E+04  0.19631993582E+04  0.25500000920E-02 0. -1.
        2   -1    0    0  501    0  0.00000000000E+00  0.00000000000E+00 -0.18448344473E+04  0.18448344473E+04  0.25500000920E-02 0.  1.
    10030    2    1    2    0    0  0.00000000000E+00  0.00000000000E+00  0.11836491090E+03  0.38080338056E+04  0.38061937959E+04 0.  0.
        2    1    3    3  502    0  0.94419415838E+03  0.79619561677E+03 -0.13893944594E+04  0.18589908641E+04  0.25500000920E-02 0.  1.
       -2    1    3    3    0  502 -0.94419415838E+03 -0.79619561677E+03  0.15077593703E+04  0.19490429415E+04  0.25500000920E-02 0. -1.
</event>
<event>
 5   0  0.2203998E-07  0.3766083E+04  0.7818609E-02  0.8053473E-01
       -2   -1    0    0    0  501  0.00000000000E+00  0.00000000000E+00  0.18810170232E+04  0.18810170232E+04  0.25500000920E-02 0. -1.
        2   -1    0    0  501    0  0.00000000000E+00  0.00000000000E+00 -0.18850684157E+04  0.18850684158E+04  0.25500000920E-02 0.  1.
    10030    2    1    2    0    0  0.00000000000E+00  0.00000000000E+00 -0.40513925695E+01  0.37660854389E+04  0.37660832598E+04 0.  0.
        3    1    3    3  502    0  0.17773136816E+04 -0.18441974605E+03 -0.59615666878E+03  0.18836818600E+04  0.10100000352E+00 0.  1.
       -3    1    3    3    0  502 -0.17773136816E+04  0.18441974605E+03  0.59210527621E+03  0.18824035789E+04  0.10100000352E+00 0. -1.
</event>
<event>
 5   0  0.2135314E-07  0.3843892E+04  0.7818609E-02  0.8036801E-01
       -2   -1    0    0    0  501  0.00000000000E+00  0.00000000000E+00  0.13675124118E+04  0.13675124118E+04  0.25500000920E-02 0. -1.
        2   -1    0    0  501    0  0.00000000000E+00  0.00000000000E+00 -0.27011651396E+04  0.27011651397E+04  0.25500000920E-02 0.  1.
    10030    2    1    2    0    0  0.00000000000E+00  0.00000000000E+00 -0.13336527279E+04  0.40686775514E+04  0.38438922226E+04 0.  0.
        4    1    3    3  502    0  0.13587948296E+04 -0.10477400720E+04  0.24971621197E+03  0.17339095844E+04  0.12699999809E+01 0. -1.
       -4    1    3    3    0  502 -0.13587948296E+04  0.10477400720E+04 -0.15833689399E+04  0.23347679670E+04  0.12699999809E+01 0.  1.
</event>
<event>
 5   0  0.2081337E-07  0.3801446E+04  0.7818609E-02  0.8045845E-01
        2   -1    0    0  501    0  0.00000000000E+00  0.00000000000E+00  0.15844161902E+04  0.15844161902E+04  0.25500000920E-02 0. -1.
       -2   -1    0    0    0  501  0.00000000000E+00  0.00000000000E+00 -0.22801758927E+04  0.22801758927E+04  0.25500000920E-02 0.  1.
    10030    2    1    2    0    0  0.00000000000E+00  0.00000000000E+00 -0.69575970249E+03  0.38645920829E+04  0.38014458307E+04 0.  0.
        1    1    3    3  502    0 -0.18957293671E+04 -0.46587715120E+02 -0.47959810268E+03  0.19560098641E+04  0.50400001928E-02 0.  1.
       -1    1    3    3    0  502  0.18957293671E+04  0.46587715120E+02 -0.21616159981E+03  0.19085822187E+04  0.50400001928E-02 0. -1.
</event>
<event>
 5   0  0.6661000E-08  0.3811417E+04  0.7818609E-02  0.8043709E-01
       -1   -1    0    0    0  501  0.00000000000E+00  0.00000000000E+00  0.16028889226E+04  0.16028889226E+04  0.50400001928E-02 0.  1.
        1   -1    0    0  501    0  0.00000000000E+00  0.00000000000E+00 -0.22657365890E+04  0.22657365890E+04  0.50400001928E-02 0. -1.
    10030    2    1    2    0    0  0.00000000000E+00  0.00000000000E+00 -0.66284766639E+03  0.38686255117E+04  0.38114165766E+04 0.  0.
        4    1    3    3  502    0  0.98137594772E+02  0.12178367711E+04 -0.18158962082E+04  0.21886612438E+04  0.12699999809E+01 0. -1.
       -4    1    3    3    0  502 -0.98137594772E+02 -0.12178367711E+04  0.11530485418E+04  0.16799642678E+04  0.12699999809E+01 0.  1.
</event>
<event>
 5   0  0.6661000E-08  0.3810183E+04  0.7818609E-02  0.8043973E-01
        1   -1    0    0  501    0  0.00000000000E+00  0.00000000000E+00  0.17684219832E+04  0.17684219832E+04  0.50400001928E-02 0.  1.
       -1   -1    0    0    0  501  0.00000000000E+00  0.00000000000E+00 -0.20523231900E+04  0.20523231900E+04  0.50400001928E-02 0. -1.
    10030    2    1    2    0    0  0.00000000000E+00  0.00000000000E+00 -0.28390120675E+03  0.38207451732E+04  0.38101829068E+04 0.  0.
        3    1    3    3  502    0 -0.10223000143E+03  0.26920339032E+03 -0.20303736487E+04  0.20506922251E+04  0.10100000352E+00 0. -1.
       -3    1    3    3    0  502  0.10223000143E+03 -0.26920339032E+03  0.17464724419E+04  0.17700529481E+04  0.10100000352E+00 0.  1.
</event>
<event>
 5   0  0.6661000E-08  0.3815630E+04  0.7818609E-02  0.8042809E-01
       -1   -1    0    0    0  501  0.00000000000E+00  0.00000000000E+00  0.25400176253E+04  0.25400176253E+04  0.50400001928E-02 0. -1.
        1   -1    0    0  501    0  0.00000000000E+00  0.00000000000E+00 -0.14329658266E+04  0.14329658266E+04  0.50400001928E-02 0.  1.
    10030    2    1    2    0    0  0.00000000000E+00  0.00000000000E+00  0.11070517987E+04  0.39729834519E+04  0.38156302001E+04 0.  0.
        4    1    3    3  502    0 -0.46602369659E+03 -0.13538249028E+04 -0.75931804332E+03  0.16206743834E+04  0.12699999809E+01 0.  1.
       -4    1    3    3    0  502  0.46602369659E+03  0.13538249028E+04  0.18663698420E+04  0.23523090685E+04  0.12699999809E+01 0. -1.
</event>
<event>
 5   0  0.2135314E-07  0.3837030E+04  0.7818609E-02  0.8038255E-01
        2   -1    0    0  501    0  0.00000000000E+00  0.00000000000E+00  0.23979861327E+04  0.23979861327E+04  0.25500000920E-02 0. -1.
       -2   -1    0    0    0  501  0.00000000000E+00  0.00000000000E+00 -0.15349126614E+04  0.15349126614E+04  0.25500000920E-02 0.  1.
    10030    2    1    2    0    0  0.00000000000E+00  0.00000000000E+00  0.86307347127E+03  0.39328987941E+04  0.38370297246E+04 0.  0.
        4    1    3    3  502    0  0.56576418111E+03  0.16172568974E+04 -0.45321534129E+03  0.17722908168E+04  0.12699999809E+01 0.  1.
       -4    1    3    3    0  502 -0.56576418111E+03 -0.16172568974E+04  0.13162888126E+04  0.21606079773E+04  0.12699999809E+01 0. -1.
</event>
<event>
 5   0  0.2205204E-07  0.3805148E+04  0.7818609E-02  0.8045051E-01
       -2   -1    0    0    0  501  0.00000000000E+00  0.00000000000E+00  0.16565131490E+04  0.16565131490E+04  0.25500000920E-02 0.  1.
        2   -1    0    0  501    0  0.00000000000E+00  0.00000000000E+00 -0.21851845242E+04  0.21851845242E+04  0.25500000920E-02 0. -1.
    10030    2    1    2    0    0  0.00000000000E+00  0.00000000000E+00 -0.52867137529E+03  0.38416976732E+04  0.38051475122E+04 0.  0.
        2    1    3    3  502    0  0.51529949266E+03  0.28160499710E+03  0.15627299665E+04  0.16694190276E+04  0.25500000920E-02 0.  1.
       -2    1    3    3    0  502 -0.51529949266E+03 -0.28160499710E+03 -0.20914013418E+04  0.21722786456E+04  0.25500000920E-02 0. -1.
</event>
<event>
 5   0  0.2205204E-07  0.3732351E+04  0.7818609E-02  0.8060830E-01
       -2   -1    0    0    0  501  0.00000000000E+00  0.00000000000E+00  0.20848735936E+04  0.20848735937E+04  0.25500000920E-02 0.  1.
        2   -1    0    0  501    0  0.00000000000E+00  0.00000000000E+00 -0.16704186621E+04  0.16704186621E+04  0.25500000920E-02 0. -1.
    10030    2    1    2    0    0  0.00000000000E+00  0.00000000000E+00  0.41445493155E+03  0.37552922557E+04  0.37323514084E+04 0.  0.
        2    1    3    3  502    0  0.19930533738E+03 -0.15782957666E+04 -0.77440836669E+03  0.17693073398E+04  0.25500000920E-02 0. -1.
       -2    1    3    3    0  502 -0.19930533738E+03  0.15782957666E+04  0.11888632982E+04  0.19859849159E+04  0.25500000920E-02 0.  1.
</event>
<event>
 5   0  0.2081337E-07  0.3791938E+04  0.7818609E-02  0.8047887E-01
        2   -1    0    0  501    0  0.00000000000E+00  0.00000000000E+00  0.20699140946E+04  0.20699140946E+04  0.25500000920E-02 0.  1.
       -2   -1    0    0    0  501  0.00000000000E+00  0.00000000000E+00 -0.17366409898E+04  0.17366409898E+04  0.25500000920E-02 0. -1.
    10030    2    1    2    0    0  0.00000000000E+00  0.00000000000E+00  0.33327310481E+03  0.38065550844E+04  0.37919375849E+04 0.  0.
        1    1    3    3  502    0 -0.19136384001E+03 -0.16445750642E+04 -0.76074847930E+03  0.18220827395E+04  0.50400001928E-02 0. -1.
       -1    1    3    3    0  502  0.19136384001E+03  0.16445750642E+04  0.10940215841E+04  0.19844723448E+04  0.50400001928E-02 0.  1.
</event>
<event>
 5   0  0.1370688E-07  0.3808544E+04  0.7818609E-02  0.8044324E-01
        2   -1    0    0  501    0  0.00000000000E+00  0.00000000000E+00  0.16169834478E+04  0.16169834478E+04  0.25500000920E-02 0.  1.
       -2   -1    0    0    0  501  0.00000000000E+00  0.00000000000E+00 -0.22426034141E+04  0.22426034141E+04  0.25500000920E-02 0. -1.
    10030    2    1    2    0    0  0.00000000000E+00  0.00000000000E+00 -0.62561996634E+03  0.38595868619E+04  0.38085443942E+04 0.  0.
        5    1    3    3  502    0 -0.11814458488E+04  0.13550970802E+04  0.32340004190E+03  0.18266669284E+04  0.46999998093E+01 0. -1.
       -5    1    3    3    0  502  0.11814458488E+04 -0.13550970802E+04 -0.94902000824E+03  0.20329199336E+04  0.46999998093E+01 0.  1.
</event>
<event>
 5   0  0.6661000E-08  0.3790615E+04  0.7818609E-02  0.8048172E-01
       -1   -1    0    0    0  501  0.00000000000E+00  0.00000000000E+00  0.18419630485E+04  0.18419630485E+04  0.50400001928E-02 0. -1.
        1   -1    0    0  501    0  0.00000000000E+00  0.00000000000E+00 -0.19501963323E+04  0.19501963323E+04  0.50400001928E-02 0.  1.
    10030    2    1    2    0    0  0.00000000000E+00  0.00000000000E+00 -0.10823328380E+03  0.37921593809E+04  0.37906145051E+04 0.  0.
        2    1    3    3  502    0  0.11902003825E+04  0.14557593364E+04  0.18341935234E+03  0.18893000965E+04  0.25500000920E-02 0. -1.
       -2    1    3    3    0  502 -0.11902003825E+04 -0.14557593364E+04 -0.29165263614E+03  0.19028592844E+04  0.25500000920E-02 0.  1.
</event>
<event>
 5   0  0.6661000E-08  0.3721618E+04  0.7818609E-02  0.8063188E-01
       -1   -1    0    0    0  501  0.00000000000E+00  0.00000000000E+00  0.16290504345E+04  0.16290504345E+04  0.50400001928E-02 0. -1.
        1   -1    0    0  501    0  0.00000000000E+00  0.00000000000E+00 -0.21255392717E+04  0.21255392717E+04  0.50400001928E-02 0.  1.
    10030    2    1    2    0    0  0.00000000000E+00  0.00000000000E+00 -0.49648883721E+03  0.37545897062E+04  0.37216182900E+04 0.  0.
        3    1    3    3  502    0  0.10285179377E+04 -0.12048928496E+04 -0.12331076157E+04  0.20075284130E+04  0.10100000352E+00 0.  1.
       -3    1    3    3    0  502 -0.10285179377E+04  0.12048928496E+04  0.73661877845E+03  0.17470612932E+04  0.10100000352E+00 0. -1.
</event>
<event>
 5   0  0.6661000E-08  0.3750633E+04  0.7818609E-02  0.8056833E-01
       -1   -1    0    0    0  501  0.00000000000E+00  0.00000000000E+00  0.25221886442E+04  0.25221886442E+04  0.50400001928E-02 0. -1.
        1   -1    0    0  501    0  0.00000000000E+00  0.00000000000E+00 -0.13943492943E+04  0.13943492943E+04  0.50400001928E-02 0.  1.
    10030    2    1    2    0    0  0.00000000000E+00  0.00000000000E+00  0.11278393500E+04  0.39165379385E+04  0.37506329898E+04 0.  0.
        1    1    3    3  502    0 -0.10383662466E+04 -0.50928094689E+03  0.21054438516E+04  0.24021792933E+04  0.50400001928E-02 0. -1.
       -1    1    3    3    0  502  0.10383662466E+04  0.50928094689E+03 -0.97760450158E+03  0.15143586452E+04  0.50400001928E-02 0.  1.
</event>
<event>
 5   0  0.6661000E-08  0.3791495E+04  0.7818609E-02  0.8047982E-01
        1   -1    0    0  501    0  0.00000000000E+00  0.00000000000E+00  0.14761468232E+04  0.14761468233E+04  0.50400001928E-02 0.  1.
       -1   -1    0    0    0  501  0.00000000000E+00  0.00000000000E+00 -0.24346214779E+04  0.24346214780E+04  0.50400001928E-02 0. -1.
    10030    2    1    2    0    0  0.00000000000E+00  0.00000000000E+00 -0.95847465470E+03  0.39107683012E+04  0.37914950932E+04 0.  0.
        2    1    3    3  502    0  0.23624174037E+03  0.14111417284E+04  0.80356136606E+03  0.16409881189E+04  0.25500000920E-02 0.  1.
       -2    1    3    3    0  502 -0.23624174037E+03 -0.14111417284E+04 -0.17620360208E+04  0.22697801823E+04  0.25500000920E-02 0. -1.
</event>
<event>
 5   0  0.2203998E-07  0.3563761E+04  0.7818609E-02  0.8098843E-01
        2   -1    0    0  501    0  0.00000000000E+00  0.00000000000E+00  0.19577295682E+04  0.19577295683E+04  0.25500000920E-02 0. -1.
       -2   -1    0    0    0  501  0.00000000000E+00  0.00000000000E+00 -0.16218267140E+04  0.16218267140E+04  0.25500000920E-02 0.  1.
    10030    2    1    2    0    0  0.00000000000E+00  0.00000000000E+00  0.33590285426E+03  0.35795562822E+04  0.35637609979E+04 0.  0.
        3    1    3    3  502    0  0.50551803038E+03  0.71802869313E+03 -0.13893993684E+04  0.16436375203E+04  0.10100000352E+00 0.  1.
       -3    1    3    3    0  502 -0.50551803038E+03 -0.71802869313E+03  0.17253022226E+04  0.19359187619E+04  0.10100000352E+00 0. -1.
</event>
<event>
 5   0  0.6661000E-08  0.3693227E+04  0.7818609E-02  0.8069465E-01
        1   -1    0    0  501    0  0.00000000000E+00  0.00000000000E+00  0.27851567026E+04  0.27851567026E+04  0.50400001928E-02 0.  1.
       -1   -1    0    0    0  501  0.00000000000E+00  0.00000000000E+00 -0.12243408052E+04  0.12243408052E+04  0.50400001928E-02 0. -1.
    10030    2    1    2    0    0  0.00000000000E+00  0.00000000000E+00  0.15608158974E+04  0.40094975078E+04  0.36932267734E+04 0.  0.
        2    1    3    3  502    0  0.78219484441E+03 -0.96808999021E+03 -0.70058090954E+03  0.14282298886E+04  0.25500000920E-02 0. -1.
       -2    1    3    3    0  502 -0.78219484441E+03  0.96808999021E+03  0.22613968070E+04  0.25812676193E+04  0.25500000920E-02 0.  1.
</event>
<event>
 5   0  0.1370688E-07  0.3797805E+04  0.7818609E-02  0.8046626E-01
        2   -1    0    0  501    0  0.00000000000E+00  0.00000000000E+00  0.15726759675E+04  0.15726759675E+04  0.25500000920E-02 0.  1.
       -2   -1    0    0    0  501  0.00000000000E+00  0.00000000000E+00 -0.22927999607E+04  0.22927999607E+04  0.25500000920E-02 0. -1.
    10030    2    1    2    0    0  0.00000000000E+00  0.00000000000E+00 -0.72012399317E+03  0.38654759282E+04  0.37978053644E+04 0.  0.
        5    1    3    3  502    0  0.54503053062E+03 -0.63634265432E+02 -0.22103375122E+04  0.22774375089E+04  0.46999998093E+01 0. -1.
       -5    1    3    3    0  502 -0.54503053062E+03  0.63634265432E+02  0.14902135190E+04  0.15880384193E+04  0.46999998093E+01 0.  1.
</event>
<event>
 5   0  0.2081337E-07  0.3799418E+04  0.7818609E-02  0.8046280E-01
        2   -1    0    0  501    0  0.00000000000E+00  0.00000000000E+00  0.21592621075E+04  0.21592621075E+04  0.25500000920E-02 0. -1.
       -2   -1    0    0    0  501  0.00000000000E+00  0.00000000000E+00 -0.16713553381E+04  0.16713553381E+04  0.25500000920E-02 0.  1.
    10030    2    1    2    0    0  0.00000000000E+00  0.00000000000E+00  0.48790676943E+03  0.38306174457E+04  0.37994179817E+04 0.  0.
        1    1    3    3  502    0  0.12354676971E+04  0.99281252817E+03 -0.81194657900E+03  0.17808184618E+04  0.50400001928E-02 0.  1.
       -1    1    3    3    0  502 -0.12354676971E+04 -0.99281252817E+03  0.12998533484E+04  0.20497989839E+04  0.50400001928E-02 0. -1.
</event>
<event>
 5   0  0.6725199E-08  0.3814828E+04  0.7818609E-02  0.8042980E-01
       -1   -1    0    0    0  501  0.00000000000E+00  0.00000000000E+00  0.14326517675E+04  0.14326517675E+04  0.50400001928E-02 0.  1.
        1   -1    0    0  501    0  0.00000000000E+00  0.00000000000E+00 -0.25395063738E+04  0.25395063738E+04  0.50400001928E-02 0. -1.
    10030    2    1    2    0    0  0.00000000000E+00  0.00000000000E+00 -0.11068546063E+04  0.39721581412E+04  0.38148280668E+04 0.  0.
        5    1    3    3  502    0 -0.29090892725E+02 -0.41284843486E+03  0.13853290181E+04  0.14458384034E+04  0.46999998093E+01 0.  1.
       -5    1    3    3    0  502  0.29090892725E+02  0.41284843486E+03 -0.24921836244E+04  0.25263197379E+04  0.46999998093E+01 0. -1.
</event>
<event>
 5   0  0.6661000E-08  0.3793496E+04  0.7818609E-02  0.8047552E-01
       -1   -1    0    0    0  501  0.00000000000E+00  0.00000000000E+00  0.14937585691E+04  0.14937585691E+04  0.50400001928E-02 0. -1.
        1   -1    0    0  501    0  0.00000000000E+00  0.00000000000E+00 -0.24084573439E+04  0.24084573439E+04  0.50400001928E-02 0.  1.
    10030    2    1    2    0    0  0.00000000000E+00  0.00000000000E+00 -0.91469877485E+03  0.39022159130E+04  0.37934964325E+04 0.  0.
        3    1    3    3  502    0 -0.18567305094E+04  0.74427012080E+02 -0.66098636438E+02  0.18593968389E+04  0.10100000352E+00 0. -1.
       -3    1    3    3    0  502  0.18567305094E+04 -0.74427012080E+02 -0.84860013841E+03  0.20428190741E+04  0.10100000352E+00 0.  1.
</event>
<event>
 5   0  0.6661000E-08  0.3792227E+04  0.7818609E-02  0.8047825E-01
        1   -1    0    0  501    0  0.00000000000E+00  0.00000000000E+00  0.28899149449E+04  0.28899149449E+04  0.50400001928E-02 0. -1.
       -1   -1    0    0    0  501  0.00000000000E+00  0.00000000000E+00 -0.12440663803E+04  0.12440663803E+04  0.50400001928E-02 0.  1.
    10030    2    1    2    0    0  0.00000000000E+00  0.00000000000E+00  0.16458485646E+04  0.41339813252E+04  0.37922267996E+04 0.  0.
        4    1    3    3  502    0  0.15154099739E+03 -0.52171975175E+03 -0.11574030588E+04  0.12785693672E+04  0.12699999809E+01 0.  1.
       -4    1    3    3    0  502 -0.15154099739E+03  0.52171975175E+03  0.28032516234E+04  0.28554119581E+04  0.12699999809E+01 0. -1.
</event>
<event>
 5   0  0.6725199E-08  0.3700390E+04  0.7818609E-02  0.8067875E-01
        1   -1    0    0  501    0  0.00000000000E+00  0.00000000000E+00  0.12986139827E+04  0.12986139827E+04  0.50400001928E-02 0.  1.
       -1   -1    0    0    0  501  0.00000000000E+00  0.00000000000E+00 -0.26360579350E+04  0.26360579350E+04  0.50400001928E-02 0. -1.
    10030    2    1    2    0    0  0.00000000000E+00  0.00000000000E+00 -0.13374439522E+04  0.39346719177E+04  0.37003900841E+04 0.  0.
        5    1    3    3  502    0  0.54549410923E+03  0.14519317371E+04 -0.17413141673E+04  0.23319233932E+04  0.46999998093E+01 0. -1.
       -5    1    3    3    0  502 -0.54549410923E+03 -0.14519317371E+04  0.40387021511E+03  0.16027485245E+04  0.46999998093E+01 0.  1.
</event>
<event>
 5   0  0.2205204E-07  0.3551852E+04  0.7818609E-02  0.8101610E-01
        2   -1    0    0  501    0  0.00000000000E+00  0.00000000000E+00  0.14730279213E+04  0.14730279213E+04  0.25500000920E-02 0.  1.
       -2   -1    0    0    0  501  0.00000000000E+00  0.00000000000E+00 -0.21411094405E+04  0.21411094405E+04  0.25500000920E-02 0. -1.
    10030    2    1    2    0    0  0.00000000000E+00  0.00000000000E+00 -0.66808151918E+03  0.36141373619E+04  0.35518524680E+04 0.  0.
        2    1    3    3  502    0 -0.13761357489E+04 -0.64651644767E+03 -0.12678376492E+04  0.19796831618E+04  0.25500000920E-02 0.  1.
       -2    1    3    3    0  502  0.13761357489E+04  0.64651644767E+03  0.59975613003E+03  0.16344542000E+04  0.25500000920E-02 0. -1.
</event>
<event>
 5   0  0.6661000E-08  0.3799363E+04  0.7818609E-02  0.8046292E-01
        1   -1    0    0  501    0  0.00000000000E+00  0.00000000000E+00  0.21855109706E+04  0.21855109706E+04  0.50400001928E-02 0.  1.
       -1   -1    0    0    0  501  0.00000000000E+00  0.00000000000E+00 -0.16512337381E+04  0.16512337381E+04  0.50400001928E-02 0. -1.
    10030    2    1    2    0    0  0.00000000000E+00  0.00000000000E+00  0.53427723253E+03  0.38367447087E+04  0.37993628148E+04 0.  0.
        2    1    3    3  502    0 -0.39966759949E+03 -0.57975926047E+03  0.20488490510E+04  0.21664804231E+04  0.25500000920E-02 0.  1.
       -2    1    3    3    0  502  0.39966759949E+03  0.57975926047E+03 -0.15145718185E+04  0.16702642855E+04  0.25500000920E-02 0. -1.
</event>
<event>
 5   0  0.1370688E-07  0.3800915E+04  0.7818609E-02  0.8045959E-01
       -2   -1    0    0    0  501  0.00000000000E+00  0.00000000000E+00  0.21527358606E+04  0.21527358606E+04  0.25500000920E-02 0.  1.
        2   -1    0    0  501    0  0.00000000000E+00  0.00000000000E+00 -0.16777432140E+04  0.16777432140E+04  0.25500000920E-02 0. -1.
    10030    2    1    2    0    0  0.00000000000E+00  0.00000000000E+00  0.47499264663E+03  0.38304790746E+04  0.38009146171E+04 0.  0.
        5    1    3    3  502    0  0.53553324795E+03 -0.67099236581E+03  0.19461751383E+04  0.21271216170E+04  0.46999998093E+01 0.  1.
       -5    1    3    3    0  502 -0.53553324795E+03  0.67099236581E+03 -0.14711824917E+04  0.17033574576E+04  0.46999998093E+01 0. -1.
</event>
<event>
 5   0  0.6661000E-08  0.3805081E+04  0.7818609E-02  0.8045065E-01
       -1   -1    0    0    0  501  0.00000000000E+00  0.00000000000E+00  0.20047020429E+04  0.20047020429E+04  0.50400001928E-02 0.  1.
        1   -1    0    0  501    0  0.00000000000E+00  0.00000000000E+00 -0.18055852889E+04  0.18055852889E+04  0.50400001928E-02 0. -1.
    10030    2    1    2    0    0  0.00000000000E+00  0.00000000000E+00  0.19911675402E+03  0.38102873318E+04  0.38050810858E+04 0.  0.
        1    1    3    3  502    0  0.78944364407E+03 -0.10536067140E+04  0.14748829280E+04  0.19770149282E+04  0.50400001928E-02 0.  1.
       -1    1    3    3    0  502 -0.78944364407E+03  0.10536067140E+04 -0.12757661740E+04  0.18332724036E+04  0.50400001928E-02 0. -1.
</event>
<event>
 5   0  0.2203998E-07  0.3796305E+04  0.7818609E-02  0.8046948E-01
       -2   -1    0    0    0  501  0.00000000000E+00  0.00000000000E+00  0.27463698305E+04  0.27463698305E+04  0.25500000920E-02 0. -1.
        2   -1    0    0  501    0  0.00000000000E+00  0.00000000000E+00 -0.13119073154E+04  0.13119073154E+04  0.25500000920E-02 0.  1.
    10030    2    1    2    0    0  0.00000000000E+00  0.00000000000E+00  0.14344625150E+04  0.40582771459E+04  0.37963048726E+04 0.  0.
        3    1    3    3  502    0  0.69192162265E+03  0.98598426329E+03 -0.85099248910E+03  0.14748249815E+04  0.10100000352E+00 0.  1.
       -3    1    3    3    0  502 -0.69192162265E+03 -0.98598426329E+03  0.22854550041E+04  0.25834521644E+04  0.10100000352E+00 0. -1.
</event>
<event>
 5   0  0.1370688E-07  0.3805783E+04  0.7818609E-02  0.8044915E-01
       -2   -1    0    0    0  501  0.00000000000E+00  0.00000000000E+00  0.21857133031E+04  0.21857133031E+04  0.25500000920E-02 0.  1.
        2   -1    0    0  501    0  0.00000000000E+00  0.00000000000E+00 -0.16566656450E+04  0.16566656450E+04  0.25500000920E-02 0. -1.
    10030    2    1    2    0    0  0.00000000000E+00  0.00000000000E+00  0.52904765812E+03  0.38423789480E+04  0.38057830411E+04 0.  0.
        5    1    3    3  502    0  0.71036566542E+03  0.10878656370E+04  0.16681814911E+04  0.21144556273E+04  0.46999998093E+01 0.  1.
       -5    1    3    3    0  502 -0.71036566542E+03 -0.10878656370E+04 -0.11391338330E+04  0.17279233207E+04  0.46999998093E+01 0. -1.
</event>
<event>
 5   0  0.1370688E-07  0.3778369E+04  0.7818609E-02  0.8050813E-01
        2   -1    0    0  501    0  0.00000000000E+00  0.00000000000E+00  0.27989949566E+04  0.27989949566E+04  0.25500000920E-02 0.  1.
       -2   -1    0    0    0  501  0.00000000000E+00  0.00000000000E+00 -0.12751072830E+04  0.12751072830E+04  0.25500000920E-02 0. -1.
    10030    2    1    2    0    0  0.00000000000E+00  0.00000000000E+00  0.15238876736E+04  0.40741022397E+04  0.37783694125E+04 0.  0.
        5    1    3    3  502    0 -0.14362969149E+04 -0.26397047939E+03  0.20542347634E+04  0.25204229396E+04  0.46999998093E+01 0.  1.
       -5    1    3    3    0  502  0.14362969149E+04  0.26397047939E+03 -0.53034708974E+03  0.15536793000E+04  0.46999998093E+01 0. -1.
</event>
<event>
 5   0  0.2203998E-07  0.3794287E+04  0.7818609E-02  0.8047382E-01
        2   -1    0    0  501    0  0.00000000000E+00  0.00000000000E+00  0.18255131933E+04  0.18255131933E+04  0.25500000920E-02 0. -1.
       -2   -1    0    0    0  501  0.00000000000E+00  0.00000000000E+00 -0.19715845732E+04  0.19715845732E+04  0.25500000920E-02 0.  1.
    10030    2    1    2    0    0  0.00000000000E+00  0.00000000000E+00 -0.14607137994E+03  0.37970977666E+04  0.37942871005E+04 0.  0.
        3    1    3    3  502    0 -0.18075805254E+04  0.34053874372E+03  0.39189391588E+03  0.18806634051E+04  0.10100000352E+00 0. -1.
       -3    1    3    3    0  502  0.18075805254E+04 -0.34053874372E+03 -0.53796529581E+03  0.19164343614E+04  0.10100000352E+00 0.  1.
</event>
<event>
 5   0  0.6661000E-08  0.3829272E+04  0.7818609E-02  0.8039902E-01
       -1   -1    0    0    0  501  0.00000000000E+00  0.00000000000E+00  0.23319060980E+04  0.23319060980E+04  0.50400001928E-02 0.  1.
        1   -1    0    0  501    0  0.00000000000E+00  0.00000000000E+00 -0.15720323888E+04  0.15720323888E+04  0.50400001928E-02 0. -1.
    10030    2    1    2    0    0  0.00000000000E+00  0.00000000000E+00  0.75987370924E+03  0.39039384868E+04  0.38292724707E+04 0.  0.
        1    1    3    3  502    0 -0.73700215463E+03  0.16309232291E+04 -0.31358398444E+03  0.18169803715E+04  0.50400001928E-02 0. -1.
       -1    1    3    3    0  502  0.73700215463E+03 -0.16309232291E+04  0.10734576937E+04  0.20869581154E+04  0.50400001928E-02 0.  1.
</event>
<event>
 5   0  0.6661000E-08  0.3801121E+04  0.7818609E-02  0.8045914E-01
       -1   -1    0    0    0  501  0.00000000000E+00  0.00000000000E+00  0.11649718484E+04  0.11649718484E+04  0.50400001928E-02 0.  1.
        1   -1    0    0  501    0  0.00000000000E+00  0.00000000000E+00 -0.31006162446E+04  0.31006162446E+04  0.50400001928E-02 0. -1.
    10030    2    1    2    0    0  0.00000000000E+00  0.00000000000E+00 -0.19356443962E+04  0.42655880930E+04  0.38011212228E+04 0.  0.
        2    1    3    3  502    0  0.32074237156E+03 -0.66648314360E+02 -0.30686943248E+04  0.30861306722E+04  0.25500000920E-02 0. -1.
       -2    1    3    3    0  502 -0.32074237156E+03  0.66648314360E+02  0.11330499286E+04  0.11794574208E+04  0.25500000920E-02 0.  1.
</event>
<event>
 5   0  0.6725199E-08  0.3726380E+04  0.7818609E-02  0.8062141E-01
       -1   -1    0    0    0  501  0.00000000000E+00  0.00000000000E+00  0.25922332209E+04  0.25922332209E+04  0.50400001928E-02 0. -1.
        1   -1    0    0  501    0  0.00000000000E+00  0.00000000000E+00 -0.13391835713E+04  0.13391835713E+04  0.50400001928E-02 0.  1.
    10030    2    1    2    0    0  0.00000000000E+00  0.00000000000E+00  0.12530496496E+04  0.39314167922E+04  0.37263795525E+04 0.  0.
        5    1    3    3  502    0 -0.96745746905E+03  0.14076774826E+04  0.14117372639E+04  0.22159769948E+04  0.46999998093E+01 0. -1.
       -5    1    3    3    0  502  0.96745746905E+03 -0.14076774826E+04 -0.15868761435E+03  0.17154397973E+04  0.46999998093E+01 0.  1.
</event>
<event>
 5   0  0.2205204E-07  0.3803104E+04  0.7818609E-02  0.8045489E-01
        2   -1    0    0  501    0  0.00000000000E+00  0.00000000000E+00  0.30042267778E+04  0.30042267778E+04  0.25500000920E-02 0. -1.
       -2   -1    0    0    0  501  0.00000000000E+00  0.00000000000E+00 -0.12036042060E+04  0.12036042060E+04  0.25500000920E-02 0.  1.
    10030    2    1    2    0    0  0.00000000000E+00  0.00000000000E+00  0.18006225718E+04  0.42078309837E+04  0.38031039878E+04 0.  0.
        2    1    3    3  502    0  0.47802144635E+03  0.32947085459E+03  0.29037704416E+04  0.29612393225E+04  0.25500000920E-02 0. -1.
       -2    1    3    3    0  502 -0.47802144635E+03 -0.32947085459E+03 -0.11031478698E+04  0.12465916613E+04  0.25500000920E-02 0.  1.
</event>
<event>
 5   0  0.6661000E-08  0.3825720E+04  0.7818609E-02  0.8040658E-01
       -1   -1    0    0    0  501  0.00000000000E+00  0.00000000000E+00  0.17358286321E+04  0.17358286321E+04  0.50400001928E-02 0.  1.
        1   -1    0    0  501    0  0.00000000000E+00  0.00000000000E+00 -0.21079467280E+04  0.21079467280E+04  0.50400001928E-02 0. -1.
    10030    2    1    2    0    0  0.00000000000E+00  0.00000000000E+00 -0.37211809593E+03  0.38437753600E+04  0.38257204735E+04 0.  0.
        3    1    3    3  502    0  0.10547565486E+04 -0.37798606795E+02 -0.17889231072E+04  0.20770618684E+04  0.10100000352E+00 0. -1.
       -3    1    3    3    0  502 -0.10547565486E+04  0.37798606795E+02  0.14168050113E+04  0.17667134917E+04  0.10100000352E+00 0.  1.
</event>
<event>
 5   0  0.6661000E-08  0.3790643E+04  0.7818609E-02  0.8048166E-01
       -1   -1    0    0    0  501  0.00000000000E+00  0.00000000000E+00  0.26827749730E+04  0.26827749730E+04  0.50400001928E-02 0. -1.
        1   -1    0    0  501    0  0.00000000000E+00  0.00000000000E+00 -0.13390027512E+04  0.13390027512E+04  0.50400001928E-02 0.  1.
    10030    2    1    2    0    0  0.00000000000E+00  0.00000000000E+00  0.13437722218E+04  0.40217777242E+04  0.37906427263E+04 0.  0.
        4    1    3    3  502    0  0.83526959330E+03 -0.12843169776E+04 -0.51199104649E+03  0.16153271610E+04  0.12699999809E+01 0.  1.
       -4    1    3    3    0  502 -0.83526959330E+03  0.12843169776E+04  0.18557632683E+04  0.24064505632E+04  0.12699999809E+01 0. -1.
</event>
<event>
 5   0  0.2135314E-07  0.3821633E+04  0.7818609E-02  0.8041528E-01
        2   -1    0    0  501    0  0.00000000000E+00  0.00000000000E+00  0.13848761330E+04  0.13848761330E+04  0.25500000920E-02 0.  1.
       -2   -1    0    0    0  501  0.00000000000E+00  0.00000000000E+00 -0.26364955895E+04  0.26364955895E+04  0.25500000920E-02 0. -1.
    10030    2    1    2    0    0  0.00000000000E+00  0.00000000000E+00 -0.12516194565E+04  0.40213717226E+04  0.38216330628E+04 0.  0.
        4    1    3    3  502    0 -0.12538375176E+04  0.10186037286E+04 -0.16997164811E+04  0.23449306611E+04  0.12699999809E+01 0. -1.
       -4    1    3    3    0  502  0.12538375176E+04 -0.10186037286E+04  0.44809702455E+03  0.16764410615E+04  0.12699999809E+01 0.  1.
</event>
<event>
 5   0  0.6661000E-08  0.3790684E+04  0.7818609E-02  0.8048157E-01
        3   -1    0    0  501    0  0.00000000000E+00  0.00000000000E+00  0.26930439163E+04  0.26930439182E+04  0.10100000352E+00 0. -1.
       -3   -1    0    0    0  501  0.00000000000E+00  0.00000000000E+00 -0.13339260024E+04  0.13339260062E+04  0.10100000352E+00 0.  1.
    10030    2    1    2    0    0  0.00000000000E+00  0.00000000000E+00  0.13591179139E+04  0.40269699244E+04  0.37906840106E+04 0.  0.
        5    1    3    3  502    0 -0.12488883337E+03  0.76795755296E+03 -0.11564478414E+04  0.13938255715E+04  0.46999998093E+01 0.  1.
       -5    1    3    3    0  502  0.12488883337E+03 -0.76795755296E+03  0.25155657553E+04  0.26331443529E+04  0.46999998093E+01 0. -1.
</event>
<event>
 5   0  0.6661000E-08  0.3802357E+04  0.7818609E-02  0.8045649E-01
        1   -1    0    0  501    0  0.00000000000E+00  0.00000000000E+00  0.26396991683E+04  0.26396991683E+04  0.50400001928E-02 0. -1.
       -1   -1    0    0    0  501  0.00000000000E+00  0.00000000000E+00 -0.13692770234E+04  0.13692770234E+04  0.50400001928E-02 0.  1.
    10030    2    1    2    0    0  0.00000000000E+00  0.00000000000E+00  0.12704221449E+04  0.40089761917E+04  0.38023568585E+04 0.  0.
        4    1    3    3  502    0  0.15533737341E+04  0.93043904444E+03  0.12461744114E+04  0.21980989627E+04  0.12699999809E+01 0. -1.
       -4    1    3    3    0  502 -0.15533737341E+04 -0.93043904444E+03  0.24247733487E+02  0.18108772290E+04  0.12699999809E+01 0.  1.
</event>
<event>
 5   0  0.6661000E-08  0.3903089E+04  0.7818609E-02  0.8024387E-01
        1   -1    0    0  501    0  0.00000000000E+00  0.00000000000E+00  0.27233814545E+04  0.27233814545E+04  0.50400001928E-02 0.  1.
       -1   -1    0    0    0  501  0.00000000000E+00  0.00000000000E+00 -0.13984550374E+04  0.13984550374E+04  0.50400001928E-02 0. -1.
    10030    2    1    2    0    0  0.00000000000E+00  0.00000000000E+00  0.13249264171E+04  0.41218364920E+04  0.39030892964E+04 0.  0.
        4    1    3    3  502    0  0.17649205247E+04  0.68479178559E+01  0.15419230429E+04  0.23436125182E+04  0.12699999809E+01 0.  1.
       -4    1    3    3    0  502 -0.17649205247E+04 -0.68479178559E+01 -0.21699662578E+03  0.17782239738E+04  0.12699999809E+01 0. -1.
</event>
<event>
 5   0  0.6661000E-08  0.3794343E+04  0.7818609E-02  0.8047370E-01
        1   -1    0    0  501    0  0.00000000000E+00  0.00000000000E+00  0.16293386031E+04  0.16293386031E+04  0.50400001928E-02 0. -1.
       -1   -1    0    0    0  501  0.00000000000E+00  0.00000000000E+00 -0.22090307777E+04  0.22090307777E+04  0.50400001928E-02 0.  1.
    10030    2    1    2    0    0  0.00000000000E+00  0.00000000000E+00 -0.57969217459E+03  0.38383693808E+04  0.37943426949E+04 0.  0.
        1    1    3    3  502    0  0.75348686080E+02  0.79665764655E+03  0.14502639008E+04  0.16563834738E+04  0.50400001928E-02 0. -1.
       -1    1    3    3    0  502 -0.75348686080E+02 -0.79665764655E+03 -0.20299560754E+04  0.21819859070E+04  0.50400001928E-02 0.  1.
</event>
<event>
 5   0  0.2081337E-07  0.3799939E+04  0.7818609E-02  0.8046168E-01
        2   -1    0    0  501    0  0.00000000000E+00  0.00000000000E+00  0.20774292493E+04  0.20774292493E+04  0.25500000920E-02 0. -1.
       -2   -1    0    0    0  501  0.00000000000E+00  0.00000000000E+00 -0.17376684358E+04  0.17376684358E+04  0.25500000920E-02 0.  1.
    10030    2    1    2    0    0  0.00000000000E+00  0.00000000000E+00  0.33976081356E+03  0.38150976851E+04  0.37999385438E+04 0.  0.
        1    1    3    3  502    0 -0.76703173164E+03  0.10023169336E+04  0.15957242123E+04  0.20345300869E+04  0.50400001928E-02 0. -1.
       -1    1    3    3    0  502  0.76703173164E+03 -0.10023169336E+04 -0.12559633988E+04  0.17805675982E+04  0.50400001928E-02 0.  1.
</event>
<event>
 5   0  0.6661000E-08  0.3797201E+04  0.7818609E-02  0.8046756E-01
        1   -1    0    0  501    0  0.00000000000E+00  0.00000000000E+00  0.21717886592E+04  0.21717886592E+04  0.50400001928E-02 0.  1.
       -1   -1    0    0    0  501  0.00000000000E+00  0.00000000000E+00 -0.16597763958E+04  0.16597763958E+04  0.50400001928E-02 0. -1.
    10030    2    1    2    0    0  0.00000000000E+00  0.00000000000E+00  0.51201226345E+03  0.38315650550E+04  0.37972008391E+04 0.  0.
        3    1    3    3  502    0  0.58413226058E+03  0.16490710979E+04 -0.48825797904E+03  0.18163264706E+04  0.10100000352E+00 0. -1.
       -3    1    3    3    0  502 -0.58413226058E+03 -0.16490710979E+04  0.10002702425E+04  0.20152385843E+04  0.10100000352E+00 0.  1.
</event>
<event>
 5   0  0.2205204E-07  0.3847456E+04  0.7818609E-02  0.8036047E-01
       -2   -1    0    0    0  501  0.00000000000E+00  0.00000000000E+00  0.29141152680E+04  0.29141152680E+04  0.25500000920E-02 0. -1.
        2   -1    0    0  501    0  0.00000000000E+00  0.00000000000E+00 -0.12699325484E+04  0.12699325484E+04  0.25500000920E-02 0.  1.
    10030    2    1    2    0    0  0.00000000000E+00  0.00000000000E+00  0.16441827196E+04  0.41840478165E+04  0.38474562135E+04 0.  0.
        2    1    3    3  502    0  0.37203860031E+03  0.14433699990E+04  0.21446260207E+04  0.26117332259E+04  0.25500000920E-02 0. -1.
       -2    1    3    3    0  502 -0.37203860031E+03 -0.14433699990E+04 -0.50044330113E+03  0.15723145906E+04  0.25500000920E-02 0.  1.
</event>
<event>
 5   0  0.2203998E-07  0.3787714E+04  0.7818609E-02  0.8048797E-01
        2   -1    0    0  501    0  0.00000000000E+00  0.00000000000E+00  0.18614368475E+04  0.18614368475E+04  0.25500000920E-02 0. -1.
       -2   -1    0    0    0  501  0.00000000000E+00  0.00000000000E+00 -0.19268420428E+04  0.19268420428E+04  0.25500000920E-02 0.  1.
    10030    2    1    2    0    0  0.00000000000E+00  0.00000000000E+00 -0.65405195325E+02  0.37882788903E+04  0.37877142330E+04 0.  0.
        3    1    3    3  502    0  0.67105522682E+03  0.70957169756E+03  0.15901568280E+04  0.18661205372E+04  0.10100000352E+00 0. -1.
       -3    1    3    3    0  502 -0.67105522682E+03 -0.70957169756E+03 -0.16555620233E+04  0.19221583532E+04  0.10100000352E+00 0.  1.
</event>
<event>
 5   0  0.6725199E-08  0.3758906E+04  0.7818609E-02  0.8055032E-01
        1   -1    0    0  501    0  0.00000000000E+00  0.00000000000E+00  0.14840551485E+04  0.14840551485E+04  0.50400001928E-02 0.  1.
       -1   -1    0    0    0  501  0.00000000000E+00  0.00000000000E+00 -0.23801966475E+04  0.23801966475E+04  0.50400001928E-02 0. -1.
    10030    2    1    2    0    0  0.00000000000E+00  0.00000000000E+00 -0.89614149903E+03  0.38642517961E+04  0.37589057393E+04 0.  0.
        5    1    3    3  502    0 -0.15419107511E+04 -0.93426277762E+03 -0.99397592868E+03  0.20587243475E+04  0.46999998093E+01 0. -1.
       -5    1    3    3    0  502  0.15419107511E+04  0.93426277762E+03  0.97834429652E+02  0.18055274486E+04  0.46999998093E+01 0.  1.
</event>
<event>
 5   0  0.6725199E-08  0.3741982E+04  0.7818609E-02  0.8058721E-01
        1   -1    0    0  501    0  0.00000000000E+00  0.00000000000E+00  0.21415184824E+04  0.21415184824E+04  0.50400001928E-02 0.  1.
       -1   -1    0    0    0  501  0.00000000000E+00  0.00000000000E+00 -0.16346379068E+04  0.16346379068E+04  0.50400001928E-02 0. -1.
    10030    2    1    2    0    0  0.00000000000E+00  0.00000000000E+00  0.50688057559E+03  0.37761563892E+04  0.37419819826E+04 0.  0.
        5    1    3    3  502    0  0.74946458807E+03 -0.81648502162E+03 -0.12677214871E+04  0.16838897880E+04  0.46999998093E+01 0. -1.
       -5    1    3    3    0  502 -0.74946458807E+03  0.81648502162E+03  0.17746020627E+04  0.20922666012E+04  0.46999998093E+01 0.  1.
</event>
<event>
 5   0  0.2135314E-07  0.3807326E+04  0.7818609E-02  0.8044585E-01
        2   -1    0    0  501    0  0.00000000000E+00  0.00000000000E+00  0.12085527049E+04  0.12085527049E+04  0.25500000920E-02 0. -1.
       -2   -1    0    0    0  501  0.00000000000E+00  0.00000000000E+00 -0.29985717454E+04  0.29985717454E+04  0.25500000920E-02 0.  1.
    10030    2    1    2    0    0  0.00000000000E+00  0.00000000000E+00 -0.17900190405E+04  0.42071244503E+04  0.38073255673E+04 0.  0.
        4    1    3    3  502    0  0.79632196317E+03 -0.10223742463E+04  0.64589309686E+03  0.14479493340E+04  0.12699999809E+01 0. -1.
       -4    1    3    3    0  502 -0.79632196317E+03  0.10223742463E+04 -0.24359121374E+04  0.27591751163E+04  0.12699999809E+01 0.  1.
</event>
<event>
 5   0  0.2135314E-07  0.3859524E+04  0.7818609E-02  0.8033500E-01
        2   -1    0    0  501    0  0.00000000000E+00  0.00000000000E+00  0.22391919860E+04  0.22391919860E+04  0.25500000920E-02 0. -1.
       -2   -1    0    0    0  501  0.00000000000E+00  0.00000000000E+00 -0.16630916563E+04  0.16630916563E+04  0.25500000920E-02 0.  1.
    10030    2    1    2    0    0  0.00000000000E+00  0.00000000000E+00  0.57610032964E+03  0.39022836423E+04  0.38595240685E+04 0.  0.
        4    1    3    3  502    0  0.19014833508E+04  0.28940105408E+03  0.44659299789E+03  0.19745477513E+04  0.12699999809E+01 0.  1.
       -4    1    3    3    0  502 -0.19014833508E+04 -0.28940105408E+03  0.12950733175E+03  0.19277358910E+04  0.12699999809E+01 0. -1.
</event>
<event>
 5   0  0.2205204E-07  0.3774621E+04  0.7818609E-02  0.8051623E-01
        2   -1    0    0  501    0  0.00000000000E+00  0.00000000000E+00  0.11276333012E+04  0.11276333012E+04  0.25500000920E-02 0. -1.
       -2   -1    0    0    0  501  0.00000000000E+00  0.00000000000E+00 -0.31587766688E+04  0.31587766688E+04  0.25500000920E-02 0.  1.
    10030    2    1    2    0    0  0.00000000000E+00  0.00000000000E+00 -0.20311433675E+04  0.42864099700E+04  0.37746214448E+04 0.  0.
        2    1    3    3  502    0 -0.66997687420E+03 -0.11187646040E+04 -0.25649042546E+04  0.28773663455E+04  0.25500000920E-02 0.  1.
       -2    1    3    3    0  502  0.66997687420E+03  0.11187646040E+04  0.53376088709E+03  0.14090436245E+04  0.25500000920E-02 0. -1.
</event>
<event>
 5   0  0.6661000E-08  0.3804395E+04  0.7818609E-02  0.8045212E-01
       -1   -1    0    0    0  501  0.00000000000E+00  0.00000000000E+00  0.12331156680E+04  0.12331156680E+04  0.50400001928E-02 0.  1.
        1   -1    0    0  501    0  0.00000000000E+00  0.00000000000E+00 -0.29343199167E+04  0.29343199167E+04  0.50400001928E-02 0. -1.
    10030    2    1    2    0    0  0.00000000000E+00  0.00000000000E+00 -0.17012042487E+04  0.41674355848E+04  0.38043952814E+04 0.  0.
        3    1    3    3  502    0  0.11133956959E+04 -0.91833780528E+02 -0.25370867809E+04  0.27721639135E+04  0.10100000352E+00 0. -1.
       -3    1    3    3    0  502 -0.11133956959E+04  0.91833780528E+02  0.83588253223E+03  0.13952716713E+04  0.10100000352E+00 0.  1.
</event>
<event>
 5   0  0.2203998E-07  0.3809471E+04  0.7818609E-02  0.8044126E-01
        2   -1    0    0  501    0  0.00000000000E+00  0.00000000000E+00  0.27290401426E+04  0.27290401426E+04  0.25500000920E-02 0.  1.
       -2   -1    0    0    0  501  0.00000000000E+00  0.00000000000E+00 -0.13294112559E+04  0.13294112559E+04  0.25500000920E-02 0. -1.
    10030    2    1    2    0    0  0.00000000000E+00  0.00000000000E+00  0.13996288867E+04  0.40584513985E+04  0.38094706632E+04 0.  0.
        3    1    3    3  502    0  0.15307288543E+04  0.10564545627E+04  0.26212248834E+03  0.18782798720E+04  0.10100000352E+00 0.  1.
       -3    1    3    3    0  502 -0.15307288543E+04 -0.10564545627E+04  0.11375063984E+04  0.21801715265E+04  0.10100000352E+00 0. -1.
</event>
<event>
 5   0  0.6725199E-08  0.3885344E+04  0.7818609E-02  0.8028084E-01
        1   -1    0    0  501    0  0.00000000000E+00  0.00000000000E+00  0.30583795367E+04  0.30583795367E+04  0.50400001928E-02 0.  1.
       -1   -1    0    0    0  501  0.00000000000E+00  0.00000000000E+00 -0.12339784352E+04  0.12339784352E+04  0.50400001928E-02 0. -1.
    10030    2    1    2    0    0  0.00000000000E+00  0.00000000000E+00  0.18244011015E+04  0.42923579720E+04  0.38853439462E+04 0.  0.
        5    1    3    3  502    0  0.13309495576E+04 -0.61696622336E+03 -0.49473949041E+03  0.15481806416E+04  0.46999998093E+01 0. -1.
       -5    1    3    3    0  502 -0.13309495576E+04  0.61696622336E+03  0.23191405919E+04  0.27441773304E+04  0.46999998093E+01 0.  1.
</event>
<event>
 5   0  0.6661000E-08  0.3805339E+04  0.7818609E-02  0.8045010E-01
       -1   -1    0    0    0  501  0.00000000000E+00  0.00000000000E+00  0.22174244067E+04  0.22174244067E+04  0.50400001928E-02 0.  1.
        1   -1    0    0  501    0  0.00000000000E+00  0.00000000000E+00 -0.16325926091E+04  0.16325926091E+04  0.50400001928E-02 0. -1.
    10030    2    1    2    0    0  0.00000000000E+00  0.00000000000E+00  0.58483179762E+03  0.38500170159E+04  0.38053387222E+04 0.  0.
        3    1    3    3  502    0 -0.14535236512E+04 -0.81489919929E+03 -0.63671213711E+03  0.17838705293E+04  0.10100000352E+00 0. -1.
       -3    1    3    3    0  502  0.14535236512E+04  0.81489919929E+03  0.12215439347E+04  0.20661464866E+04  0.10100000352E+00 0.  1.
</event>
<event>
 5   0  0.6725199E-08  0.3800943E+04  0.7818609E-02  0.8045953E-01
       -1   -1    0    0    0  501  0.00000000000E+00  0.00000000000E+00  0.17306611755E+04  0.17306611755E+04  0.50400001928E-02 0. -1.
        1   -1    0    0  501    0  0.00000000000E+00  0.00000000000E+00 -0.20869434343E+04  0.20869434343E+04  0.50400001928E-02 0.  1.
    10030    2    1    2    0    0  0.00000000000E+00  0.00000000000E+00 -0.35628225883E+03  0.38176046098E+04  0.38009430289E+04 0.  0.
        5    1    3    3  502    0  0.45593445367E+03  0.14160257954E+04  0.10097370476E+04  0.17979422334E+04  0.46999998093E+01 0. -1.
       -5    1    3    3    0  502 -0.45593445367E+03 -0.14160257954E+04 -0.13660193064E+04  0.20196623764E+04  0.46999998093E+01 0.  1.
</event>
<event>
 5   0  0.2135314E-07  0.3820801E+04  0.7818609E-02  0.8041706E-01
       -2   -1    0    0    0  501  0.00000000000E+00  0.00000000000E+00  0.17266262309E+04  0.17266262309E+04  0.25500000920E-02 0. -1.
        2   -1    0    0  501    0  0.00000000000E+00  0.00000000000E+00 -0.21137349654E+04  0.21137349654E+04  0.25500000920E-02 0.  1.
    10030    2    1    2    0    0  0.00000000000E+00  0.00000000000E+00 -0.38710873454E+03  0.38403611964E+04  0.38208010870E+04 0.  0.
        4    1    3    3  502    0 -0.15899248982E+04  0.10531651395E+04 -0.80682412598E+02  0.19088030956E+04  0.12699999809E+01 0.  1.
       -4    1    3    3    0  502  0.15899248982E+04 -0.10531651395E+04 -0.30642632194E+03  0.19315581008E+04  0.12699999809E+01 0. -1.
</event>
<event>
 5   0  0.6661000E-08  0.3806274E+04  0.7818609E-02  0.8044810E-01
       -1   -1    0    0    0  501  0.00000000000E+00  0.00000000000E+00  0.16921390780E+04  0.16921390780E+04  0.50400001928E-02 0. -1.
        1   -1    0    0  501    0  0.00000000000E+00  0.00000000000E+00 -0.21404448567E+04  0.21404448567E+04  0.50400001928E-02 0.  1.
    10030    2    1    2    0    0  0.00000000000E+00  0.00000000000E+00 -0.44830577867E+03  0.38325839347E+04  0.38062739714E+04 0.  0.
        2    1    3    3  502    0  0.31816807626E+03  0.18688752846E+04 -0.39265547389E+03  0.19360020856E+04  0.25500000920E-02 0.  1.
       -2    1    3    3    0  502 -0.31816807626E+03 -0.18688752846E+04 -0.55650304780E+02  0.18965818492E+04  0.25500000920E-02 0. -1.
</event>
<event>
 5   0  0.6661000E-08  0.3801562E+04  0.7818609E-02  0.8045820E-01
        1   -1    0    0  501    0  0.00000000000E+00  0.00000000000E+00  0.13552699146E+04  0.13552699146E+04  0.50400001928E-02 0. -1.
       -1   -1    0    0    0  501  0.00000000000E+00  0.00000000000E+00 -0.26658664682E+04  0.26658664682E+04  0.50400001928E-02 0.  1.
    10030    2    1    2    0    0  0.00000000000E+00  0.00000000000E+00 -0.13105965536E+04  0.40211363828E+04  0.38015621109E+04 0.  0.
        3    1    3    3  502    0  0.35900914374E+03 -0.86587945823E+03  0.10937930199E+04  0.14404922708E+04  0.10100000352E+00 0. -1.
       -3    1    3    3    0  502 -0.35900914374E+03  0.86587945823E+03 -0.24043895735E+04  0.25806441120E+04  0.10100000352E+00 0.  1.
</event>
<event>
 5   0  0.2205204E-07  0.3799200E+04  0.7818609E-02  0.8046327E-01
       -2   -1    0    0    0  501  0.00000000000E+00  0.00000000000E+00  0.16720045117E+04  0.16720045117E+04  0.25500000920E-02 0.  1.
        2   -1    0    0  501    0  0.00000000000E+00  0.00000000000E+00 -0.21581757853E+04  0.21581757853E+04  0.25500000920E-02 0. -1.
    10030    2    1    2    0    0  0.00000000000E+00  0.00000000000E+00 -0.48617127356E+03  0.38301802970E+04  0.37991997316E+04 0.  0.
        2    1    3    3  502    0  0.14374591925E+04 -0.26693625141E+03 -0.14657969900E+04  0.20702909719E+04  0.25500000920E-02 0.  1.
       -2    1    3    3    0  502 -0.14374591925E+04  0.26693625141E+03  0.97962571639E+03  0.17598893251E+04  0.25500000920E-02 0. -1.
</event>
<event>
 5   0  0.6661000E-08  0.3788265E+04  0.7818609E-02  0.8048678E-01
       -1   -1    0    0    0  501  0.00000000000E+00  0.00000000000E+00  0.14095800787E+04  0.14095800787E+04  0.50400001928E-02 0.  1.
        1   -1    0    0  501    0  0.00000000000E+00  0.00000000000E+00 -0.25452532367E+04  0.25452532367E+04  0.50400001928E-02 0. -1.
    10030    2    1    2    0    0  0.00000000000E+00  0.00000000000E+00 -0.11356731580E+04  0.39548333155E+04  0.37882651744E+04 0.  0.
        3    1    3    3  502    0 -0.34900859191E+03  0.18261944454E+04 -0.94561090122E+03  0.20858986400E+04  0.10100000352E+00 0.  1.
       -3    1    3    3    0  502  0.34900859191E+03 -0.18261944454E+04 -0.19006225681E+03  0.18689346755E+04  0.10100000352E+00 0. -1.
</event>
<event>
 5   0  0.2081337E-07  0.3784257E+04  0.7818609E-02  0.8049542E-01
        2   -1    0    0  501    0  0.00000000000E+00  0.00000000000E+00  0.17533942308E+04  0.17533942308E+04  0.25500000920E-02 0.  1.
       -2   -1    0    0    0  501  0.00000000000E+00  0.00000000000E+00 -0.20418401687E+04  0.20418401687E+04  0.25500000920E-02 0. -1.
    10030    2    1    2    0    0  0.00000000000E+00  0.00000000000E+00 -0.28844593783E+03  0.37952343995E+04  0.37842572703E+04 0.  0.
        1    1    3    3  502    0 -0.10630720786E+04  0.37864419270E+03 -0.16673967987E+04  0.20133816711E+04  0.50400001928E-02 0. -1.
       -1    1    3    3    0  502  0.10630720786E+04 -0.37864419270E+03  0.13789508609E+04  0.17818527284E+04  0.50400001928E-02 0.  1.
</event>
<event>
 5   0  0.2081337E-07  0.3751058E+04  0.7818609E-02  0.8056740E-01
        2   -1    0    0  501    0  0.00000000000E+00  0.00000000000E+00  0.15409526694E+04  0.15409526694E+04  0.25500000920E-02 0. -1.
       -2   -1    0    0    0  501  0.00000000000E+00  0.00000000000E+00 -0.22827499452E+04  0.22827499452E+04  0.25500000920E-02 0.  1.
    10030    2    1    2    0    0  0.00000000000E+00  0.00000000000E+00 -0.74179727579E+03  0.38237026146E+04  0.37510583155E+04 0.  0.
        1    1    3    3  502    0  0.52311535512E+03  0.24122339809E+03 -0.21903379925E+04  0.22648220513E+04  0.50400001928E-02 0.  1.
       -1    1    3    3    0  502 -0.52311535512E+03 -0.24122339809E+03  0.14485407167E+04  0.15588805633E+04  0.50400001928E-02 0. -1.
</event>
<event>
 5   0  0.2203998E-07  0.3788572E+04  0.7818609E-02  0.8048612E-01
       -2   -1    0    0    0  501  0.00000000000E+00  0.00000000000E+00  0.15625355516E+04  0.15625355516E+04  0.25500000920E-02 0.  1.
        2   -1    0    0  501    0  0.00000000000E+00  0.00000000000E+00 -0.22964722957E+04  0.22964722957E+04  0.25500000920E-02 0. -1.
    10030    2    1    2    0    0  0.00000000000E+00  0.00000000000E+00 -0.73393674405E+03  0.38590078473E+04  0.37885720821E+04 0.  0.
        3    1    3    3  502    0 -0.14508308538E+04  0.10302668770E+04 -0.10286293743E+04  0.20553438651E+04  0.10100000352E+00 0. -1.
       -3    1    3    3    0  502  0.14508308538E+04 -0.10302668770E+04  0.29469263027E+03  0.18036639822E+04  0.10100000352E+00 0.  1.
</event>
<event>
 5   0  0.2203998E-07  0.3514061E+04  0.7818609E-02  0.8110466E-01
        2   -1    0    0  501    0  0.00000000000E+00  0.00000000000E+00  0.13667950535E+04  0.13667950535E+04  0.25500000920E-02 0. -1.
       -2   -1    0    0    0  501  0.00000000000E+00  0.00000000000E+00 -0.22586820250E+04  0.22586820250E+04  0.25500000920E-02 0.  1.
    10030    2    1    2    0    0  0.00000000000E+00  0.00000000000E+00 -0.89188697150E+03  0.36254770786E+04  0.35140605683E+04 0.  0.
        3    1    3    3  502    0 -0.44414660635E+02 -0.12721493121E+04  0.80357925901E+03  0.15053491854E+04  0.10100000352E+00 0. -1.
       -3    1    3    3    0  502  0.44414660635E+02  0.12721493121E+04 -0.16954662305E+04  0.21201278932E+04  0.10100000352E+00 0.  1.
</event>
<event>
 5   0  0.1370688E-07  0.3802571E+04  0.7818609E-02  0.8045603E-01
        2   -1    0    0  501    0  0.00000000000E+00  0.00000000000E+00  0.24855906378E+04  0.24855906378E+04  0.25500000920E-02 0. -1.
       -2   -1    0    0    0  501  0.00000000000E+00  0.00000000000E+00 -0.14543367655E+04  0.14543367655E+04  0.25500000920E-02 0.  1.
    10030    2    1    2    0    0  0.00000000000E+00  0.00000000000E+00  0.10312538723E+04  0.39399274033E+04  0.38025706297E+04 0.  0.
        5    1    3    3  502    0  0.14648417015E+04 -0.75303504678E+03 -0.46843857864E+03  0.17123900794E+04  0.46999998093E+01 0.  1.
       -5    1    3    3    0  502 -0.14648417015E+04  0.75303504678E+03  0.14996924510E+04  0.22275373239E+04  0.46999998093E+01 0. -1.
</event>
<event>
 5   0  0.6661000E-08  0.3805287E+04  0.7818609E-02  0.8045021E-01
        1   -1    0    0  501    0  0.00000000000E+00  0.00000000000E+00  0.19986542772E+04  0.19986542772E+04  0.50400001928E-02 0.  1.
       -1   -1    0    0    0  501  0.00000000000E+00  0.00000000000E+00 -0.18112445277E+04  0.18112445277E+04  0.50400001928E-02 0. -1.
    10030    2    1    2    0    0  0.00000000000E+00  0.00000000000E+00  0.18740974954E+03  0.38098988049E+04  0.38052866501E+04 0.  0.
        3    1    3    3  502    0 -0.18489249021E+04  0.43995459463E+03  0.18307825363E+03  0.19093456984E+04  0.10100000352E+00 0.  1.
       -3    1    3    3    0  502  0.18489249021E+04 -0.43995459463E+03  0.43314959052E+01  0.19005531066E+04  0.10100000352E+00 0. -1.
</event>
<event>
 5   0  0.6661000E-08  0.3799019E+04  0.7818609E-02  0.8046365E-01
       -1   -1    0    0    0  501  0.00000000000E+00  0.00000000000E+00  0.15591068794E+04  0.15591068794E+04  0.50400001928E-02 0.  1.
        1   -1    0    0  501    0  0.00000000000E+00  0.00000000000E+00 -0.23142331252E+04  0.23142331252E+04  0.50400001928E-02 0. -1.
    10030    2    1    2    0    0  0.00000000000E+00  0.00000000000E+00 -0.75512624583E+03  0.38733400046E+04  0.37990192345E+04 0.  0.
        4    1    3    3  502    0  0.16010450457E+04 -0.52610369348E+03 -0.12710663121E+04  0.21108627424E+04  0.12699999809E+01 0. -1.
       -4    1    3    3    0  502 -0.16010450457E+04  0.52610369348E+03  0.51594006625E+03  0.17624772622E+04  0.12699999809E+01 0.  1.
</event>
<event>
 5   0  0.2135314E-07  0.3812984E+04  0.7818609E-02  0.8043374E-01
        2   -1    0    0  501    0  0.00000000000E+00  0.00000000000E+00  0.12076329422E+04  0.12076329422E+04  0.25500000920E-02 0. -1.
       -2   -1    0    0    0  501  0.00000000000E+00  0.00000000000E+00 -0.30097815576E+04  0.30097815576E+04  0.25500000920E-02 0.  1.
    10030    2    1    2    0    0  0.00000000000E+00  0.00000000000E+00 -0.18021486154E+04  0.42174144998E+04  0.38129837964E+04 0.  0.
        4    1    3    3  502    0  0.39968006206E+03  0.16811088860E+04 -0.10131892164E+02  0.17279975425E+04  0.12699999809E+01 0. -1.
       -4    1    3    3    0  502 -0.39968006206E+03 -0.16811088860E+04 -0.17920167232E+04  0.24894169574E+04  0.12699999809E+01 0.  1.
</event>
<event>
 5   0  0.6661000E-08  0.3799809E+04  0.7818609E-02  0.8046196E-01
        1   -1    0    0  501    0  0.00000000000E+00  0.00000000000E+00  0.32530513029E+04  0.32530513029E+04  0.50400001928E-02 0. -1.
       -1   -1    0    0    0  501  0.00000000000E+00  0.00000000000E+00 -0.11096159987E+04  0.11096159987E+04  0.50400001928E-02 0.  1.
    10030    2    1    2    0    0  0.00000000000E+00  0.00000000000E+00  0.21434353042E+04  0.43626673017E+04  0.37998093481E+04 0.  0.
        1    1    3    3  502    0 -0.53032254778E+03  0.37839045905E+03  0.31208016481E+04  0.31880753239E+04  0.50400001928E-02 0. -1.
       -1    1    3    3    0  502  0.53032254778E+03 -0.37839045905E+03 -0.97736634384E+03  0.11745919778E+04  0.50400001928E-02 0.  1.
</event>
<event>
 5   0  0.6661000E-08  0.3791608E+04  0.7818609E-02  0.8047958E-01
       -1   -1    0    0    0  501  0.00000000000E+00  0.00000000000E+00  0.28721715339E+04  0.28721715339E+04  0.50400001928E-02 0. -1.
        1   -1    0    0  501    0  0.00000000000E+00  0.00000000000E+00 -0.12513431803E+04  0.12513431803E+04  0.50400001928E-02 0.  1.
    10030    2    1    2    0    0  0.00000000000E+00  0.00000000000E+00  0.16208283536E+04  0.41235147142E+04  0.37916077126E+04 0.  0.
        2    1    3    3  502    0 -0.49102041949E+03 -0.84357077480E+03  0.25779080318E+04  0.27565054916E+04  0.25500000920E-02 0. -1.
       -2    1    3    3    0  502  0.49102041949E+03  0.84357077480E+03 -0.95707967818E+03  0.13670092227E+04  0.25500000920E-02 0.  1.
</event>
<event>
 5   0  0.6661000E-08  0.3803125E+04  0.7818609E-02  0.8045485E-01
        1   -1    0    0  501    0  0.00000000000E+00  0.00000000000E+00  0.18082146823E+04  0.18082146823E+04  0.50400001928E-02 0.  1.
       -1   -1    0    0    0  501  0.00000000000E+00  0.00000000000E+00 -0.19997296808E+04  0.19997296808E+04  0.50400001928E-02 0. -1.
    10030    2    1    2    0    0  0.00000000000E+00  0.00000000000E+00 -0.19151499851E+03  0.38079443631E+04  0.38031253303E+04 0.  0.
        3    1    3    3  502    0  0.33597259827E+03  0.17261920827E+04  0.62857042320E+03  0.18675431669E+04  0.10100000352E+00 0. -1.
       -3    1    3    3    0  502 -0.33597259827E+03 -0.17261920827E+04 -0.82008542171E+03  0.19404011962E+04  0.10100000352E+00 0.  1.
</event>
<event>
 5   0  0.6661000E-08  0.3782425E+04  0.7818609E-02  0.8049937E-01
       -1   -1    0    0    0  501  0.00000000000E+00  0.00000000000E+00  0.29993315491E+04  0.29993315491E+04  0.50400001928E-02 0.  1.
        1   -1    0    0  501    0  0.00000000000E+00  0.00000000000E+00 -0.11924940127E+04  0.11924940127E+04  0.50400001928E-02 0. -1.
    10030    2    1    2    0    0  0.00000000000E+00  0.00000000000E+00  0.18068375364E+04  0.41918255619E+04  0.37824251028E+04 0.  0.
        1    1    3    3  502    0 -0.91216627716E+03  0.11073278811E+04  0.22690546170E+04  0.26845541918E+04  0.50400001928E-02 0.  1.
       -1    1    3    3    0  502  0.91216627716E+03 -0.11073278811E+04 -0.46221708060E+03  0.15072713701E+04  0.50400001928E-02 0. -1.
</event>
<event>
 5   0  0.6725199E-08  0.3777042E+04  0.7818609E-02  0.8051100E-01
        1   -1    0    0  501    0  0.00000000000E+00  0.00000000000E+00  0.17546579680E+04  0.17546579680E+04  0.50400001928E-02 0. -1.
       -1   -1    0    0    0  501  0.00000000000E+00  0.00000000000E+00 -0.20325960374E+04  0.20325960374E+04  0.50400001928E-02 0.  1.
    10030    2    1    2    0    0  0.00000000000E+00  0.00000000000E+00 -0.27793806939E+03  0.37872540053E+04  0.37770416109E+04 0.  0.
        5    1    3    3  502    0  0.47772035612E+01  0.12730470759E+03  0.17503387287E+04  0.17549749472E+04  0.46999998093E+01 0. -1.
       -5    1    3    3    0  502 -0.47772035612E+01 -0.12730470759E+03 -0.20282767981E+04  0.20322790581E+04  0.46999998093E+01 0.  1.
</event>
<event>
 5   0  0.1370688E-07  0.3847988E+04  0.7818609E-02  0.8035934E-01
        2   -1    0    0  501    0  0.00000000000E+00  0.00000000000E+00  0.22751379286E+04  0.22751379286E+04  0.25500000920E-02 0.  1.
       -2   -1    0    0    0  501  0.00000000000E+00  0.00000000000E+00 -0.16270457247E+04  0.16270457247E+04  0.25500000920E-02 0. -1.
    10030    2    1    2    0    0  0.00000000000E+00  0.00000000000E+00  0.64809220383E+03  0.39021836533E+04  0.38479882743E+04 0.  0.
        5    1    3    3  502    0  0.16666779919E+04 -0.54780425640E+03 -0.47690464680E+03  0.18180663255E+04  0.46999998093E+01 0. -1.
       -5    1    3    3    0  502 -0.16666779919E+04  0.54780425640E+03  0.11249968506E+04  0.20841173278E+04  0.46999998093E+01 0.  1.
</event>
<event>
 5   0  0.6661000E-08  0.3754224E+04  0.7818609E-02  0.8056050E-01
       -3   -1    0    0    0  501  0.00000000000E+00  0.00000000000E+00  0.19368924124E+04  0.19368924150E+04  0.10100000352E+00 0.  1.
        3   -1    0    0  501    0  0.00000000000E+00  0.00000000000E+00 -0.18191770348E+04  0.18191770376E+04  0.10100000352E+00 0. -1.
    10030    2    1    2    0    0  0.00000000000E+00  0.00000000000E+00  0.11771537753E+03  0.37560694526E+04  0.37542243970E+04 0.  0.
        2    1    3    3  502    0 -0.17746674783E+04 -0.43271681557E+03  0.49134516902E+03  0.18915889025E+04  0.25500000920E-02 0. -1.
       -2    1    3    3    0  502  0.17746674783E+04  0.43271681557E+03 -0.37362979149E+03  0.18644805502E+04  0.25500000920E-02 0.  1.
</event>
<event>
 5   0  0.1370688E-07  0.3956735E+04  0.7818609E-02  0.8013332E-01
        2   -1    0    0  501    0  0.00000000000E+00  0.00000000000E+00  0.20840483380E+04  0.20840483380E+04  0.25500000920E-02 0.  1.
       -2   -1    0    0    0  501  0.00000000000E+00  0.00000000000E+00 -0.18780461330E+04  0.18780461330E+04  0.25500000920E-02 0. -1.
    10030    2    1    2    0    0  0.00000000000E+00  0.00000000000E+00  0.20600220499E+03  0.39620944710E+04  0.39567354838E+04 0.  0.
        5    1    3    3  502    0  0.79684646369E+03 -0.12558187282E+03  0.19118756161E+04  0.20750965170E+04  0.46999998093E+01 0.  1.
       -5    1    3    3    0  502 -0.79684646369E+03  0.12558187282E+03 -0.17058734111E+04  0.18869979540E+04  0.46999998093E+01 0. -1.
</event>
<event>
 5   0  0.1370688E-07  0.3690277E+04  0.7818609E-02  0.8070120E-01
        2   -1    0    0  501    0  0.00000000000E+00  0.00000000000E+00  0.15679121049E+04  0.15679121049E+04  0.25500000920E-02 0. -1.
       -2   -1    0    0    0  501  0.00000000000E+00  0.00000000000E+00 -0.21713823639E+04  0.21713823639E+04  0.25500000920E-02 0.  1.
    10030    2    1    2    0    0  0.00000000000E+00  0.00000000000E+00 -0.60347025899E+03  0.37392944688E+04  0.36902773298E+04 0.  0.
        5    1    3    3  502    0 -0.16400263432E+04 -0.11048874786E+03 -0.11510936533E+04  0.20067219186E+04  0.46999998093E+01 0.  1.
       -5    1    3    3    0  502  0.16400263432E+04  0.11048874786E+03  0.54762339432E+03  0.17325725502E+04  0.46999998093E+01 0. -1.
</event>
<event>
 5   0  0.6661000E-08  0.3646095E+04  0.7818609E-02  0.8080014E-01
       -1   -1    0    0    0  501  0.00000000000E+00  0.00000000000E+00  0.14712083670E+04  0.14712083670E+04  0.50400001928E-02 0.  1.
        1   -1    0    0  501    0  0.00000000000E+00  0.00000000000E+00 -0.22590284516E+04  0.22590284517E+04  0.50400001928E-02 0. -1.
    10030    2    1    2    0    0  0.00000000000E+00  0.00000000000E+00 -0.78782008462E+03  0.37302368187E+04  0.36460946556E+04 0.  0.
        1    1    3    3  502    0  0.14440643355E+04  0.89651553800E+03  0.28042105836E+03  0.17227007531E+04  0.50400001928E-02 0. -1.
       -1    1    3    3    0  502 -0.14440643355E+04 -0.89651553800E+03 -0.10682411430E+04  0.20075360655E+04  0.50400001928E-02 0.  1.
</event>
<event>
 5   0  0.1370688E-07  0.3899038E+04  0.7818609E-02  0.8025229E-01
        2   -1    0    0  501    0  0.00000000000E+00  0.00000000000E+00  0.15741589848E+04  0.15741589848E+04  0.25500000920E-02 0.  1.
       -2   -1    0    0    0  501  0.00000000000E+00  0.00000000000E+00 -0.24143839829E+04  0.24143839829E+04  0.25500000920E-02 0. -1.
    10030    2    1    2    0    0  0.00000000000E+00  0.00000000000E+00 -0.84022499813E+03  0.39885429677E+04  0.38990379528E+04 0.  0.
        5    1    3    3  502    0 -0.79058845549E+03  0.11277429298E+04 -0.18315570305E+04  0.22916058709E+04  0.46999998093E+01 0. -1.
       -5    1    3    3    0  502  0.79058845549E+03 -0.11277429298E+04  0.99133203238E+03  0.16969370967E+04  0.46999998093E+01 0.  1.
</event>
<event>
 5   0  0.6661000E-08  0.3792310E+04  0.7818609E-02  0.8047807E-01
       -1   -1    0    0    0  501  0.00000000000E+00  0.00000000000E+00  0.13262135459E+04  0.13262135460E+04  0.50400001928E-02 0. -1.
        1   -1    0    0  501    0  0.00000000000E+00  0.00000000000E+00 -0.27110288781E+04  0.27110288781E+04  0.50400001928E-02 0.  1.
    10030    2    1    2    0    0  0.00000000000E+00  0.00000000000E+00 -0.13848153321E+04  0.40372424241E+04  0.37923097034E+04 0.  0.
        3    1    3    3  502    0  0.38083004398E+03  0.18546571427E+04 -0.80210955152E+03  0.20562500777E+04  0.10100000352E+00 0. -1.
       -3    1    3    3    0  502 -0.38083004398E+03 -0.18546571427E+04 -0.58270578063E+03  0.19809923463E+04  0.10100000352E+00 0.  1.
</event>
<event>
 5   0  0.2135314E-07  0.3776148E+04  0.7818609E-02  0.8051293E-01
        2   -1    0    0  501    0  0.00000000000E+00  0.00000000000E+00  0.21056366471E+04  0.21056366471E+04  0.25500000920E-02 0. -1.
       -2   -1    0    0    0  501  0.00000000000E+00  0.00000000000E+00 -0.16929906532E+04  0.16929906532E+04  0.25500000920E-02 0.  1.
    10030    2    1    2    0    0  0.00000000000E+00  0.00000000000E+00  0.41264599390E+03  0.37986273003E+04  0.37761478586E+04 0.  0.
        4    1    3    3  502    0 -0.15881083418E+04  0.42551036779E+03  0.11401131328E+04  0.20007515455E+04  0.12699999809E+01 0. -1.
       -4    1    3    3    0  502  0.15881083418E+04 -0.42551036779E+03 -0.72746713889E+03  0.17978757548E+04  0.12699999809E+01 0.  1.
</event>
<event>
 5   0  0.6661000E-08  0.3791385E+04  0.7818609E-02  0.8048006E-01
       -1   -1    0    0    0  501  0.00000000000E+00  0.00000000000E+00  0.13490389044E+04  0.13490389044E+04  0.50400001928E-02 0.  1.
        1   -1    0    0  501    0  0.00000000000E+00  0.00000000000E+00 -0.26638588073E+04  0.26638588073E+04  0.50400001928E-02 0. -1.
    10030    2    1    2    0    0  0.00000000000E+00  0.00000000000E+00 -0.13148199029E+04  0.40128977117E+04  0.37913845317E+04 0.  0.
        2    1    3    3  502    0  0.10005438020E+04 -0.11729528500E+04  0.51009750373E+03  0.16239167932E+04  0.25500000920E-02 0.  1.
       -2    1    3    3    0  502 -0.10005438020E+04  0.11729528500E+04 -0.18249174066E+04  0.23889809185E+04  0.25500000920E-02 0. -1.
</event>
<event>
 5   0  0.2135314E-07  0.3771246E+04  0.7818609E-02  0.8052354E-01
       -2   -1    0    0    0  501  0.00000000000E+00  0.00000000000E+00  0.15093148535E+04  0.15093148535E+04  0.25500000920E-02 0.  1.
        2   -1    0    0  501    0  0.00000000000E+00  0.00000000000E+00 -0.23557538883E+04  0.23557538883E+04  0.25500000920E-02 0. -1.
    10030    2    1    2    0    0  0.00000000000E+00  0.00000000000E+00 -0.84643903483E+03  0.38650687418E+04  0.37712461255E+04 0.  0.
        4    1    3    3  502    0 -0.54921356202E+03  0.20018369861E+03  0.14141058478E+04  0.15301653543E+04  0.12699999809E+01 0.  1.
       -4    1    3    3    0  502  0.54921356202E+03 -0.20018369861E+03 -0.22605448826E+04  0.23349033875E+04  0.12699999809E+01 0. -1.
</event>
<event>
 5   0  0.2205204E-07  0.3828863E+04  0.7818609E-02  0.8039989E-01
       -2   -1    0    0    0  501  0.00000000000E+00  0.00000000000E+00  0.17260940953E+04  0.17260940953E+04  0.25500000920E-02 0.  1.
        2   -1    0    0  501    0  0.00000000000E+00  0.00000000000E+00 -0.21233182154E+04  0.21233182154E+04  0.25500000920E-02 0. -1.
    10030    2    1    2    0    0  0.00000000000E+00  0.00000000000E+00 -0.39722412010E+03  0.38494123107E+04  0.38288625120E+04 0.  0.
        2    1    3    3  502    0  0.20238353051E+03 -0.12719399469E+04  0.12254139125E+04  0.17777597079E+04  0.25500000920E-02 0.  1.
       -2    1    3    3    0  502 -0.20238353051E+03  0.12719399469E+04 -0.16226380326E+04  0.20716526028E+04  0.25500000920E-02 0. -1.
</event>
<event>
 5   0  0.6661000E-08  0.3780660E+04  0.7818609E-02  0.8050318E-01
        1   -1    0    0  501    0  0.00000000000E+00  0.00000000000E+00  0.20510013167E+04  0.20510013167E+04  0.50400001928E-02 0. -1.
       -1   -1    0    0    0  501  0.00000000000E+00  0.00000000000E+00 -0.17422450331E+04  0.17422450331E+04  0.50400001928E-02 0.  1.
    10030    2    1    2    0    0  0.00000000000E+00  0.00000000000E+00  0.30875628362E+03  0.37932463499E+04  0.37806596552E+04 0.  0.
        1    1    3    3  502    0 -0.86828742799E+03 -0.15735684984E+04 -0.43349571900E+03  0.18487724076E+04  0.50400001928E-02 0.  1.
       -1    1    3    3    0  502  0.86828742799E+03  0.15735684984E+04  0.74225200262E+03  0.19444739423E+04  0.50400001928E-02 0. -1.
</event>
<event>
 5   0  0.6725199E-08  0.3812560E+04  0.7818609E-02  0.8043465E-01
        1   -1    0    0  501    0  0.00000000000E+00  0.00000000000E+00  0.26154037386E+04  0.26154037386E+04  0.50400001928E-02 0. -1.
       -1   -1    0    0    0  501  0.00000000000E+00  0.00000000000E+00 -0.13894231702E+04  0.13894231702E+04  0.50400001928E-02 0.  1.
    10030    2    1    2    0    0  0.00000000000E+00  0.00000000000E+00  0.12259805684E+04  0.40048269089E+04  0.38125595361E+04 0.  0.
        5    1    3    3  502    0  0.34752554831E+03 -0.13752791232E+04 -0.72469583648E+03  0.15929133118E+04  0.46999998093E+01 0.  1.
       -5    1    3    3    0  502 -0.34752554831E+03  0.13752791232E+04  0.19506764049E+04  0.24119135971E+04  0.46999998093E+01 0. -1.
</event>
<event>
 5   0  0.6661000E-08  0.3807084E+04  0.7818609E-02  0.8044636E-01
        1   -1    0    0  501    0  0.00000000000E+00  0.00000000000E+00  0.14539180969E+04  0.14539180970E+04  0.50400001928E-02 0. -1.
       -1   -1    0    0    0  501  0.00000000000E+00  0.00000000000E+00 -0.24922124444E+04  0.24922124444E+04  0.50400001928E-02 0.  1.
    10030    2    1    2    0    0  0.00000000000E+00  0.00000000000E+00 -0.10382943474E+04  0.39461305413E+04  0.38070843302E+04 0.  0.
        1    1    3    3  502    0 -0.16949375926E+04  0.83142575989E+03 -0.26654471203E+03  0.19066012484E+04  0.50400001928E-02 0. -1.
       -1    1    3    3    0  502  0.16949375926E+04 -0.83142575989E+03 -0.77174963538E+03  0.20395292929E+04  0.50400001928E-02 0.  1.
</event>
<event>
 5   0  0.1370688E-07  0.3711703E+04  0.7818609E-02  0.8065373E-01
       -2   -1    0    0    0  501  0.00000000000E+00  0.00000000000E+00  0.16746546256E+04  0.16746546256E+04  0.25500000920E-02 0.  1.
        2   -1    0    0  501    0  0.00000000000E+00  0.00000000000E+00 -0.20566539953E+04  0.20566539953E+04  0.25500000920E-02 0. -1.
    10030    2    1    2    0    0  0.00000000000E+00  0.00000000000E+00 -0.38199936964E+03  0.37313086209E+04  0.37117031813E+04 0.  0.
        5    1    3    3  502    0 -0.75407711953E+02  0.95422400538E+03  0.14073460794E+04  0.17020208144E+04  0.46999998093E+01 0.  1.
       -5    1    3    3    0  502  0.75407711953E+02 -0.95422400538E+03 -0.17893454491E+04  0.20292878065E+04  0.46999998093E+01 0. -1.
</event>
<event>
 5   0  0.2203998E-07  0.3825521E+04  0.7818609E-02  0.8040700E-01
       -2   -1    0    0    0  501  0.00000000000E+00  0.00000000000E+00  0.23377483302E+04  0.23377483302E+04  0.25500000920E-02 0.  1.
        2   -1    0    0  501    0  0.00000000000E+00  0.00000000000E+00 -0.15650328014E+04  0.15650328014E+04  0.25500000920E-02 0. -1.
    10030    2    1    2    0    0  0.00000000000E+00  0.00000000000E+00  0.77271552882E+03  0.39027811315E+04  0.38255210458E+04 0.  0.
        3    1    3    3  502    0  0.95643801206E+03  0.16189440635E+04  0.74400776375E+03  0.20222020459E+04  0.10100000352E+00 0. -1.
       -3    1    3    3    0  502 -0.95643801206E+03 -0.16189440635E+04  0.28707765077E+02  0.18805790857E+04  0.10100000352E+00 0.  1.
</event>
<event>
 5   0  0.1370688E-07  0.3805377E+04  0.7818609E-02  0.8045002E-01
        2   -1    0    0  501    0  0.00000000000E+00  0.00000000000E+00  0.18487041668E+04  0.18487041668E+04  0.25500000920E-02 0.  1.
       -2   -1    0    0    0  501  0.00000000000E+00  0.00000000000E+00 -0.19582493506E+04  0.19582493506E+04  0.25500000920E-02 0. -1.
    10030    2    1    2    0    0  0.00000000000E+00  0.00000000000E+00 -0.10954518380E+03  0.38069535175E+04  0.38053771084E+04 0.  0.
        5    1    3    3  502    0  0.93525446593E+03 -0.68516246007E+03  0.14545117650E+04  0.18600470632E+04  0.46999998093E+01 0.  1.
       -5    1    3    3    0  502 -0.93525446593E+03  0.68516246007E+03 -0.15640569488E+04  0.19469064543E+04  0.46999998093E+01 0. -1.
</event>
<event>
 5   0  0.6661000E-08  0.3816002E+04  0.7818609E-02  0.8042730E-01
        1   -1    0    0  501    0  0.00000000000E+00  0.00000000000E+00  0.22636400265E+04  0.22636400265E+04  0.50400001928E-02 0.  1.
       -1   -1    0    0    0  501  0.00000000000E+00  0.00000000000E+00 -0.16082363654E+04  0.16082363654E+04  0.50400001928E-02 0. -1.
    10030    2    1    2    0    0  0.00000000000E+00  0.00000000000E+00  0.65540366116E+03  0.38718763919E+04  0.38160022058E+04 0.  0.
        2    1    3    3  502    0 -0.29795918242E+03 -0.10634547379E+03 -0.15814380763E+04  0.16127725889E+04  0.25500000920E-02 0. -1.
       -2    1    3    3    0  502  0.29795918242E+03  0.10634547379E+03  0.22368417375E+04  0.22591038030E+04  0.25500000920E-02 0.  1.
</event>
<event>
 5   0  0.2135314E-07  0.3713086E+04  0.7818609E-02  0.8065068E-01
       -2   -1    0    0    0  501  0.00000000000E+00  0.00000000000E+00  0.21056459553E+04  0.21056459553E+04  0.25500000920E-02 0.  1.
        2   -1    0    0  501    0  0.00000000000E+00  0.00000000000E+00 -0.16369098182E+04  0.16369098182E+04  0.25500000920E-02 0. -1.
    10030    2    1    2    0    0  0.00000000000E+00  0.00000000000E+00  0.46873613710E+03  0.37425557736E+04  0.37130863378E+04 0.  0.
        4    1    3    3  502    0  0.15730276415E+04  0.96947098740E+03  0.41596728557E+03  0.18940222681E+04  0.12699999809E+01 0. -1.
       -4    1    3    3    0  502 -0.15730276415E+04 -0.96947098740E+03  0.52768851534E+02  0.18485335055E+04  0.12699999809E+01 0.  1.
</event>
<event>
 5   0  0.6661000E-08  0.3579151E+04  0.7818609E-02  0.8095284E-01
       -1   -1    0    0    0  501  0.00000000000E+00  0.00000000000E+00  0.20563499723E+04  0.20563499723E+04  0.50400001928E-02 0. -1.
        1   -1    0    0  501    0  0.00000000000E+00  0.00000000000E+00 -0.15574102801E+04  0.15574102801E+04  0.50400001928E-02 0.  1.
    10030    2    1    2    0    0  0.00000000000E+00  0.00000000000E+00  0.49893969220E+03  0.36137602525E+04  0.35791510650E+04 0.  0.
        1    1    3    3  502    0  0.10850616162E+04 -0.83032175902E+03 -0.91746879253E+03  0.16457648434E+04  0.50400001928E-02 0.  1.
       -1    1    3    3    0  502 -0.10850616162E+04  0.83032175902E+03  0.14164084847E+04  0.19679954091E+04  0.50400001928E-02 0. -1.
</event>
<event>
 5   0  0.2203998E-07  0.3781993E+04  0.7818609E-02  0.8050030E-01
       -2   -1    0    0    0  501  0.00000000000E+00  0.00000000000E+00  0.17906657773E+04  0.17906657773E+04  0.25500000920E-02 0. -1.
        2   -1    0    0  501    0  0.00000000000E+00  0.00000000000E+00 -0.19969483773E+04  0.19969483773E+04  0.25500000920E-02 0.  1.
    10030    2    1    2    0    0  0.00000000000E+00  0.00000000000E+00 -0.20628259995E+03  0.37876141546E+04  0.37819926591E+04 0.  0.
        3    1    3    3  502    0 -0.16426924319E+04  0.89324661943E+03  0.17930477744E+03  0.18784243829E+04  0.10100000352E+00 0. -1.
       -3    1    3    3    0  502  0.16426924319E+04 -0.89324661943E+03 -0.38558737739E+03  0.19091897718E+04  0.10100000352E+00 0.  1.
</event>
<event>
 5   0  0.6661000E-08  0.3796347E+04  0.7818609E-02  0.8046939E-01
        1   -1    0    0  501    0  0.00000000000E+00  0.00000000000E+00  0.15032777560E+04  0.15032777560E+04  0.50400001928E-02 0. -1.
       -1   -1    0    0    0  501  0.00000000000E+00  0.00000000000E+00 -0.23968041599E+04  0.23968041599E+04  0.50400001928E-02 0.  1.
    10030    2    1    2    0    0  0.00000000000E+00  0.00000000000E+00 -0.89352640393E+03  0.39000819159E+04  0.37963468646E+04 0.  0.
        1    1    3    3  502    0  0.15519232894E+04 -0.10899336058E+04 -0.53048367949E+03  0.19692216980E+04  0.50400001928E-02 0. -1.
       -1    1    3    3    0  502 -0.15519232894E+04  0.10899336058E+04 -0.36304272444E+03  0.19308602179E+04  0.50400001928E-02 0.  1.
</event>
<event>
 5   0  0.1370688E-07  0.3775068E+04  0.7818609E-02  0.8051527E-01
       -2   -1    0    0    0  501  0.00000000000E+00  0.00000000000E+00  0.17683821546E+04  0.17683821546E+04  0.25500000920E-02 0. -1.
        2   -1    0    0  501    0  0.00000000000E+00  0.00000000000E+00 -0.20147139124E+04  0.20147139124E+04  0.25500000920E-02 0.  1.
    10030    2    1    2    0    0  0.00000000000E+00  0.00000000000E+00 -0.24633175783E+03  0.37830960671E+04  0.37750677501E+04 0.  0.
        5    1    3    3  502    0  0.11786242306E+03 -0.96984967751E+03 -0.17416119561E+04  0.19969312065E+04  0.46999998093E+01 0.  1.
       -5    1    3    3    0  502 -0.11786242306E+03  0.96984967751E+03  0.14952801983E+04  0.17861648606E+04  0.46999998093E+01 0. -1.
</event>
<event>
 5   0  0.6725199E-08  0.3776901E+04  0.7818609E-02  0.8051130E-01
        1   -1    0    0  501    0  0.00000000000E+00  0.00000000000E+00  0.19101941788E+04  0.19101941788E+04  0.50400001928E-02 0. -1.
       -1   -1    0    0    0  501  0.00000000000E+00  0.00000000000E+00 -0.18669547483E+04  0.18669547483E+04  0.50400001928E-02 0.  1.
    10030    2    1    2    0    0  0.00000000000E+00  0.00000000000E+00  0.43239430440E+02  0.37771489271E+04  0.37769014243E+04 0.  0.
        5    1    3    3  502    0 -0.93628363606E+03  0.79270545221E+03  0.14574070168E+04  0.19050108356E+04  0.46999998093E+01 0. -1.
       -5    1    3    3    0  502  0.93628363606E+03 -0.79270545221E+03 -0.14141675864E+04  0.18721380915E+04  0.46999998093E+01 0.  1.
</event>
<event>
 5   0  0.6661000E-08  0.3786496E+04  0.7818609E-02  0.8049059E-01
       -1   -1    0    0    0  501  0.00000000000E+00  0.00000000000E+00  0.21657457890E+04  0.21657457890E+04  0.50400001928E-02 0.  1.
        1   -1    0    0  501    0  0.00000000000E+00  0.00000000000E+00 -0.16550367721E+04  0.16550367721E+04  0.50400001928E-02 0. -1.
    10030    2    1    2    0    0  0.00000000000E+00  0.00000000000E+00  0.51070901687E+03  0.38207825611E+04  0.37864964914E+04 0.  0.
        2    1    3    3  502    0 -0.18154991525E+04  0.50550698847E+03  0.72566707432E+02  0.18859587522E+04  0.25500000920E-02 0. -1.
       -2    1    3    3    0  502  0.18154991525E+04 -0.50550698847E+03  0.43814230944E+03  0.19348238089E+04  0.25500000920E-02 0.  1.
</event>
<event>
 5   0  0.2205204E-07  0.3817154E+04  0.7818609E-02  0.8042484E-01
        2   -1    0    0  501    0  0.00000000000E+00  0.00000000000E+00  0.18811449462E+04  0.18811449462E+04  0.25500000920E-02 0. -1.
       -2   -1    0    0    0  501  0.00000000000E+00  0.00000000000E+00 -0.19364086748E+04  0.19364086748E+04  0.25500000920E-02 0.  1.
    10030    2    1    2    0    0  0.00000000000E+00  0.00000000000E+00 -0.55263728554E+02  0.38175536210E+04  0.38171535953E+04 0.  0.
        2    1    3    3  502    0  0.73071552575E+03 -0.17629384981E+04 -0.55348750728E+02  0.19091780461E+04  0.25500000920E-02 0.  1.
       -2    1    3    3    0  502 -0.73071552575E+03  0.17629384981E+04  0.85022174047E-01  0.19083755749E+04  0.25500000920E-02 0. -1.
</event>
<event>
 5   0  0.2203998E-07  0.3768298E+04  0.7818609E-02  0.8052993E-01
       -2   -1    0    0    0  501  0.00000000000E+00  0.00000000000E+00  0.16176611011E+04  0.16176611011E+04  0.25500000920E-02 0. -1.
        2   -1    0    0  501    0  0.00000000000E+00  0.00000000000E+00 -0.21945368386E+04  0.21945368386E+04  0.25500000920E-02 0.  1.
    10030    2    1    2    0    0  0.00000000000E+00  0.00000000000E+00 -0.57687573752E+03  0.38121979398E+04  0.37682976946E+04 0.  0.
        3    1    3    3  502    0 -0.75689519728E+03  0.51501061488E+03 -0.19544045836E+04  0.21581991474E+04  0.10100000352E+00 0.  1.
       -3    1    3    3    0  502  0.75689519728E+03 -0.51501061488E+03  0.13775288461E+04  0.16539987924E+04  0.10100000352E+00 0. -1.
</event>
<event>
 5   0  0.6661000E-08  0.3771857E+04  0.7818609E-02  0.8052221E-01
        1   -1    0    0  501    0  0.00000000000E+00  0.00000000000E+00  0.14163797644E+04  0.14163797644E+04  0.50400001928E-02 0.  1.
       -1   -1    0    0    0  501  0.00000000000E+00  0.00000000000E+00 -0.25111388114E+04  0.25111388114E+04  0.50400001928E-02 0. -1.
    10030    2    1    2    0    0  0.00000000000E+00  0.00000000000E+00 -0.10947590470E+04  0.39275185758E+04  0.37718569422E+04 0.  0.
        3    1    3    3  502    0  0.11448977391E+04  0.14494771757E+04 -0.15094264240E+03  0.18532562174E+04  0.10100000352E+00 0.  1.
       -3    1    3    3    0  502 -0.11448977391E+04 -0.14494771757E+04 -0.94381640457E+03  0.20742623584E+04  0.10100000352E+00 0. -1.
</event>
<event>
 5   0  0.1370688E-07  0.3845207E+04  0.7818609E-02  0.8036523E-01
        2   -1    0    0  501    0  0.00000000000E+00  0.00000000000E+00  0.24502492060E+04  0.24502492061E+04  0.25500000920E-02 0. -1.
       -2   -1    0    0    0  501  0.00000000000E+00  0.00000000000E+00 -0.15085827510E+04  0.15085827510E+04  0.25500000920E-02 0.  1.
    10030    2    1    2    0    0  0.00000000000E+00  0.00000000000E+00  0.94166645508E+03  0.39588319570E+04  0.38452067241E+04 0.  0.
        5    1    3    3  502    0  0.30135559852E+03  0.86119203185E+03  0.22131511839E+04  0.23938519514E+04  0.46999998093E+01 0. -1.
       -5    1    3    3    0  502 -0.30135559852E+03 -0.86119203185E+03 -0.12714847288E+04  0.15649800056E+04  0.46999998093E+01 0.  1.
</event>
<event>
 5   0  0.2081337E-07  0.3792296E+04  0.7818609E-02  0.8047810E-01
        2   -1    0    0  501    0  0.00000000000E+00  0.00000000000E+00  0.21490281673E+04  0.21490281673E+04  0.25500000920E-02 0.  1.
       -2   -1    0    0    0  501  0.00000000000E+00  0.00000000000E+00 -0.16730249799E+04  0.16730249799E+04  0.25500000920E-02 0. -1.
    10030    2    1    2    0    0  0.00000000000E+00  0.00000000000E+00  0.47600318742E+03  0.38220531471E+04  0.37922962998E+04 0.  0.
        1    1    3    3  502    0 -0.14946831052E+04 -0.30811524762E+03  0.13721606002E+04  0.20522761275E+04  0.50400001928E-02 0.  1.
       -1    1    3    3    0  502  0.14946831052E+04  0.30811524762E+03 -0.89615741277E+03  0.17697770196E+04  0.50400001928E-02 0. -1.
</event>
<event>
 5   0  0.2205204E-07  0.3804564E+04  0.7818609E-02  0.8045176E-01
       -2   -1    0    0    0  501  0.00000000000E+00  0.00000000000E+00  0.12995199313E+04  0.12995199313E+04  0.25500000920E-02 0.  1.
        2   -1    0    0  501    0  0.00000000000E+00  0.00000000000E+00 -0.27846262854E+04  0.27846262854E+04  0.25500000920E-02 0. -1.
    10030    2    1    2    0    0  0.00000000000E+00  0.00000000000E+00 -0.14851063541E+04  0.40841462168E+04  0.38045642900E+04 0.  0.
        2    1    3    3  502    0 -0.93709969686E+03 -0.10724958057E+03  0.10308179688E+04  0.13972272539E+04  0.25500000920E-02 0.  1.
       -2    1    3    3    0  502  0.93709969686E+03  0.10724958057E+03 -0.25159243229E+04  0.26869189628E+04  0.25500000920E-02 0. -1.
</event>
<event>
 5   0  0.1370688E-07  0.3817517E+04  0.7818609E-02  0.8042406E-01
       -2   -1    0    0    0  501  0.00000000000E+00  0.00000000000E+00  0.27374025147E+04  0.27374025147E+04  0.25500000920E-02 0.  1.
        2   -1    0    0  501    0  0.00000000000E+00  0.00000000000E+00 -0.13309546310E+04  0.13309546310E+04  0.25500000920E-02 0. -1.
    10030    2    1    2    0    0  0.00000000000E+00  0.00000000000E+00  0.14064478836E+04  0.40683571457E+04  0.38175167604E+04 0.  0.
        5    1    3    3  502    0  0.14515633697E+03 -0.18179483524E+04  0.10288901767E+03  0.18266403078E+04  0.46999998093E+01 0. -1.
       -5    1    3    3    0  502 -0.14515633697E+03  0.18179483524E+04  0.13035588659E+04  0.22417168379E+04  0.46999998093E+01 0.  1.
</event>
<event>
 5   0  0.2135314E-07  0.3819527E+04  0.7818609E-02  0.8041977E-01
        2   -1    0    0  501    0  0.00000000000E+00  0.00000000000E+00  0.26022212534E+04  0.26022212534E+04  0.25500000920E-02 0.  1.
       -2   -1    0    0    0  501  0.00000000000E+00  0.00000000000E+00 -0.14015706163E+04  0.14015706163E+04  0.25500000920E-02 0. -1.
    10030    2    1    2    0    0  0.00000000000E+00  0.00000000000E+00  0.12006506370E+04  0.40037918697E+04  0.38195271152E+04 0.  0.
        4    1    3    3  502    0 -0.15047917536E+04 -0.10860186387E+04  0.10730357933E+04  0.21436515883E+04  0.12699999809E+01 0.  1.
       -4    1    3    3    0  502  0.15047917536E+04  0.10860186387E+04  0.12761484373E+03  0.18601402814E+04  0.12699999809E+01 0. -1.
</event>
<event>
 5   0  0.1370688E-07  0.3747722E+04  0.7818609E-02  0.8057467E-01
       -2   -1    0    0    0  501  0.00000000000E+00  0.00000000000E+00  0.17124430454E+04  0.17124430454E+04  0.25500000920E-02 0.  1.
        2   -1    0    0  501    0  0.00000000000E+00  0.00000000000E+00 -0.20504949958E+04  0.20504949958E+04  0.25500000920E-02 0. -1.
    10030    2    1    2    0    0  0.00000000000E+00  0.00000000000E+00 -0.33805195041E+03  0.37629380413E+04  0.37477224525E+04 0.  0.
        5    1    3    3  502    0  0.15595219689E+04 -0.10152544673E+04 -0.39010939985E+03  0.19013305443E+04  0.46999998093E+01 0. -1.
       -5    1    3    3    0  502 -0.15595219689E+04  0.10152544673E+04  0.52057449437E+02  0.18616074970E+04  0.46999998093E+01 0.  1.
</event>
<event>
 5   0  0.2135314E-07  0.3809515E+04  0.7818609E-02  0.8044116E-01
        2   -1    0    0  501    0  0.00000000000E+00  0.00000000000E+00  0.17014087121E+04  0.17014087121E+04  0.25500000920E-02 0. -1.
       -2   -1    0    0    0  501  0.00000000000E+00  0.00000000000E+00 -0.21324099589E+04  0.21324099589E+04  0.25500000920E-02 0.  1.
    10030    2    1    2    0    0  0.00000000000E+00  0.00000000000E+00 -0.43100124679E+03  0.38338186710E+04  0.38095148678E+04 0.  0.
        4    1    3    3  502    0 -0.13813231838E+04  0.32973193026E+03  0.10619764524E+04  0.17732942458E+04  0.12699999809E+01 0. -1.
       -4    1    3    3    0  502  0.13813231838E+04 -0.32973193026E+03 -0.14929776991E+04  0.20605244252E+04  0.12699999809E+01 0.  1.
</event>
<event>
 5   0  0.2205204E-07  0.3811847E+04  0.7818609E-02  0.8043617E-01
       -2   -1    0    0    0  501  0.00000000000E+00  0.00000000000E+00  0.22376065712E+04  0.22376065712E+04  0.25500000920E-02 0. -1.
        2   -1    0    0  501    0  0.00000000000E+00  0.00000000000E+00 -0.16234061986E+04  0.16234061986E+04  0.25500000920E-02 0.  1.
    10030    2    1    2    0    0  0.00000000000E+00  0.00000000000E+00  0.61420037265E+03  0.38610127698E+04  0.38118469946E+04 0.  0.
        2    1    3    3  502    0 -0.10248834174E+04  0.14933409478E+02  0.19346656284E+04  0.21894154745E+04  0.25500000920E-02 0. -1.
       -2    1    3    3    0  502  0.10248834174E+04 -0.14933409478E+02 -0.13204652558E+04  0.16715972953E+04  0.25500000920E-02 0.  1.
</event>
<event>
 5   0  0.1370688E-07  0.3819809E+04  0.7818609E-02  0.8041917E-01
       -2   -1    0    0    0  501  0.00000000000E+00  0.00000000000E+00  0.22378324013E+04  0.22378324013E+04  0.25500000920E-02 0. -1.
        2   -1    0    0  501    0  0.00000000000E+00  0.00000000000E+00 -0.16300303251E+04  0.16300303251E+04  0.25500000920E-02 0.  1.
    10030    2    1    2    0    0  0.00000000000E+00  0.00000000000E+00  0.60780207625E+03  0.38678627264E+04  0.38198087264E+04 0.  0.
        5    1    3    3  502    0 -0.15324993841E+04 -0.64027515069E+03  0.12587410668E+04  0.20839764380E+04  0.46999998093E+01 0. -1.
       -5    1    3    3    0  502  0.15324993841E+04  0.64027515069E+03 -0.65093899050E+03  0.17838862885E+04  0.46999998093E+01 0.  1.
</event>
<event>
 5   0  0.6661000E-08  0.3812546E+04  0.7818609E-02  0.8043468E-01
       -1   -1    0    0    0  501  0.00000000000E+00  0.00000000000E+00  0.16696073039E+04  0.16696073040E+04  0.50400001928E-02 0.  1.
        1   -1    0    0  501    0  0.00000000000E+00  0.00000000000E+00 -0.21764861518E+04  0.21764861518E+04  0.50400001928E-02 0. -1.
    10030    2    1    2    0    0  0.00000000000E+00  0.00000000000E+00 -0.50687884784E+03  0.38460934558E+04  0.38125462232E+04 0.  0.
        4    1    3    3  502    0  0.12428611383E+04 -0.15212881027E+03 -0.17034557013E+04  0.21141451992E+04  0.12699999809E+01 0. -1.
       -4    1    3    3    0  502 -0.12428611383E+04  0.15212881027E+03  0.11965768535E+04  0.17319482565E+04  0.12699999809E+01 0.  1.
</event>
<event>
 5   0  0.2203998E-07  0.3819738E+04  0.7818609E-02  0.8041932E-01
       -2   -1    0    0    0  501  0.00000000000E+00  0.00000000000E+00  0.15929429600E+04  0.15929429600E+04  0.25500000920E-02 0. -1.
        2   -1    0    0  501    0  0.00000000000E+00  0.00000000000E+00 -0.22898490915E+04  0.22898490915E+04  0.25500000920E-02 0.  1.
    10030    2    1    2    0    0  0.00000000000E+00  0.00000000000E+00 -0.69690613153E+03  0.38827920515E+04  0.38197376820E+04 0.  0.
        3    1    3    3  502    0  0.14135440581E+04  0.55015305652E+03  0.83123173068E+03  0.17296593278E+04  0.10100000352E+00 0. -1.
       -3    1    3    3    0  502 -0.14135440581E+04 -0.55015305652E+03 -0.15281378622E+04  0.21531327237E+04  0.10100000352E+00 0.  1.
</event>
<event>
 5   0  0.6661000E-08  0.4061047E+04  0.7818609E-02  0.7992343E-01
       -1   -1    0    0    0  501  0.00000000000E+00  0.00000000000E+00  0.30431915372E+04  0.30431915372E+04  0.50400001928E-02 0. -1.
        1   -1    0    0  501    0  0.00000000000E+00  0.00000000000E+00 -0.13548358485E+04  0.13548358485E+04  0.50400001928E-02 0.  1.
    10030    2    1    2    0    0  0.00000000000E+00  0.00000000000E+00  0.16883556887E+04  0.43980273857E+04  0.40610466574E+04 0.  0.
        4    1    3    3  502    0 -0.14145408202E+04  0.12801165552E+04  0.91216058404E+02  0.19099597140E+04  0.12699999809E+01 0.  1.
       -4    1    3    3    0  502  0.14145408202E+04 -0.12801165552E+04  0.15971396303E+04  0.24880676716E+04  0.12699999809E+01 0. -1.
</event>
<event>
 5   0  0.2205204E-07  0.3776699E+04  0.7818609E-02  0.8051174E-01
        2   -1    0    0  501    0  0.00000000000E+00  0.00000000000E+00  0.19576685720E+04  0.19576685720E+04  0.25500000920E-02 0. -1.
       -2   -1    0    0    0  501  0.00000000000E+00  0.00000000000E+00 -0.18214849798E+04  0.18214849798E+04  0.25500000920E-02 0.  1.
    10030    2    1    2    0    0  0.00000000000E+00  0.00000000000E+00  0.13618359224E+03  0.37791535518E+04  0.37766990345E+04 0.  0.
        2    1    3    3  502    0  0.75202411686E+03  0.15530828319E+04 -0.69938603571E+03  0.18619203479E+04  0.25500000920E-02 0.  1.
       -2    1    3    3    0  502 -0.75202411686E+03 -0.15530828319E+04  0.83556962795E+03  0.19172332039E+04  0.25500000920E-02 0. -1.
</event>
<event>
 5   0  0.1370688E-07  0.3800260E+04  0.7818609E-02  0.8046099E-01
       -2   -1    0    0    0  501  0.00000000000E+00  0.00000000000E+00  0.20913915900E+04  0.20913915900E+04  0.25500000920E-02 0.  1.
        2   -1    0    0  501    0  0.00000000000E+00  0.00000000000E+00 -0.17263595835E+04  0.17263595835E+04  0.25500000920E-02 0. -1.
    10030    2    1    2    0    0  0.00000000000E+00  0.00000000000E+00  0.36503200648E+03  0.38177511736E+04  0.38002599460E+04 0.  0.
        5    1    3    3  502    0  0.77648832324E+03  0.13767865016E+03  0.19192244831E+04  0.20749299345E+04  0.46999998093E+01 0.  1.
       -5    1    3    3    0  502 -0.77648832324E+03 -0.13767865016E+03 -0.15541924766E+04  0.17428212390E+04  0.46999998093E+01 0. -1.
</event>
<event>
 5   0  0.6661000E-08  0.3818577E+04  0.7818609E-02  0.8042180E-01
        1   -1    0    0  501    0  0.00000000000E+00  0.00000000000E+00  0.16873359194E+04  0.16873359194E+04  0.50400001928E-02 0.  1.
       -1   -1    0    0    0  501  0.00000000000E+00  0.00000000000E+00 -0.21604365644E+04  0.21604365644E+04  0.50400001928E-02 0. -1.
    10030    2    1    2    0    0  0.00000000000E+00  0.00000000000E+00 -0.47310064495E+03  0.38477724838E+04  0.38185768117E+04 0.  0.
        1    1    3    3  502    0  0.12882270699E+04  0.12322698824E+04 -0.92541760873E+03  0.20085855215E+04  0.50400001928E-02 0. -1.
       -1    1    3    3    0  502 -0.12882270699E+04 -0.12322698824E+04  0.45231696378E+03  0.18391869623E+04  0.50400001928E-02 0.  1.
</event>
<event>
 5   0  0.6661000E-08  0.3795214E+04  0.7818609E-02  0.8047183E-01
       -1   -1    0    0    0  501  0.00000000000E+00  0.00000000000E+00  0.15689172502E+04  0.15689172502E+04  0.50400001928E-02 0. -1.
        1   -1    0    0  501    0  0.00000000000E+00  0.00000000000E+00 -0.22951578415E+04  0.22951578415E+04  0.50400001928E-02 0.  1.
    10030    2    1    2    0    0  0.00000000000E+00  0.00000000000E+00 -0.72624059129E+03  0.38640750917E+04  0.37952142124E+04 0.  0.
        4    1    3    3  502    0 -0.12391854117E+03  0.11002244334E+04  0.12059655130E+04  0.16371328718E+04  0.12699999809E+01 0. -1.
       -4    1    3    3    0  502  0.12391854117E+03 -0.11002244334E+04 -0.19322061042E+04  0.22269422199E+04  0.12699999809E+01 0.  1.
</event>
<event>
 5   0  0.6661000E-08  0.3783812E+04  0.7818609E-02  0.8049638E-01
        1   -1    0    0  501    0  0.00000000000E+00  0.00000000000E+00  0.25228217795E+04  0.25228217795E+04  0.50400001928E-02 0.  1.
       -1   -1    0    0    0  501  0.00000000000E+00  0.00000000000E+00 -0.14187720684E+04  0.14187720684E+04  0.50400001928E-02 0. -1.
    10030    2    1    2    0    0  0.00000000000E+00  0.00000000000E+00  0.11040497111E+04  0.39415938479E+04  0.37838124025E+04 0.  0.
        3    1    3    3  502    0 -0.40792653878E+03 -0.29992761261E+03 -0.13468838072E+04  0.14389081395E+04  0.10100000352E+00 0. -1.
       -3    1    3    3    0  502  0.40792653878E+03  0.29992761261E+03  0.24509335182E+04  0.25026857083E+04  0.10100000352E+00 0.  1.
</event>
<event>
 5   0  0.6725199E-08  0.3762956E+04  0.7818609E-02  0.8054151E-01
       -1   -1    0    0    0  501  0.00000000000E+00  0.00000000000E+00  0.18389433419E+04  0.18389433419E+04  0.50400001928E-02 0.  1.
        1   -1    0    0  501    0  0.00000000000E+00  0.00000000000E+00 -0.19249967196E+04  0.19249967196E+04  0.50400001928E-02 0. -1.
    10030    2    1    2    0    0  0.00000000000E+00  0.00000000000E+00 -0.86053377635E+02  0.37639400615E+04  0.37629562318E+04 0.  0.
        5    1    3    3  502    0  0.53276815271E+03 -0.17856435717E+04 -0.30304261095E+03  0.18879146653E+04  0.46999998093E+01 0. -1.
       -5    1    3    3    0  502 -0.53276815271E+03  0.17856435717E+04  0.21698923331E+03  0.18760253961E+04  0.46999998093E+01 0.  1.
</event>
<event>
 5   0  0.6725199E-08  0.3806800E+04  0.7818609E-02  0.8044697E-01
       -1   -1    0    0    0  501  0.00000000000E+00  0.00000000000E+00  0.23912988422E+04  0.23912988422E+04  0.50400001928E-02 0.  1.
        1   -1    0    0  501    0  0.00000000000E+00  0.00000000000E+00 -0.15150477152E+04  0.15150477152E+04  0.50400001928E-02 0. -1.
    10030    2    1    2    0    0  0.00000000000E+00  0.00000000000E+00  0.87625112701E+03  0.39063465574E+04  0.38068001509E+04 0.  0.
        5    1    3    3  502    0 -0.23244981285E+03 -0.15126302315E+03  0.23704490536E+04  0.23866219272E+04  0.46999998093E+01 0.  1.
       -5    1    3    3    0  502  0.23244981285E+03  0.15126302315E+03 -0.14941979266E+04  0.15197246302E+04  0.46999998093E+01 0. -1.
</event>
<event>
 5   0  0.6661000E-08  0.3841915E+04  0.7818609E-02  0.8037219E-01
        1   -1    0    0  501    0  0.00000000000E+00  0.00000000000E+00  0.15864774738E+04  0.15864774738E+04  0.50400001928E-02 0.  1.
       -1   -1    0    0    0  501  0.00000000000E+00  0.00000000000E+00 -0.23259564182E+04  0.23259564182E+04  0.50400001928E-02 0. -1.
    10030    2    1    2    0    0  0.00000000000E+00  0.00000000000E+00 -0.73947894442E+03  0.39124338921E+04  0.38419148677E+04 0.  0.
        1    1    3    3  502    0 -0.68839945856E+01  0.33837398480E+03 -0.22953554366E+04  0.23201726064E+04  0.50400001928E-02 0. -1.
       -1    1    3    3    0  502  0.68839945856E+01 -0.33837398480E+03  0.15558764922E+04  0.15922612857E+04  0.50400001928E-02 0.  1.
</event>
<event>
 5   0  0.1370688E-07  0.3808015E+04  0.7818609E-02  0.8044437E-01
       -2   -1    0    0    0  501  0.00000000000E+00  0.00000000000E+00  0.17482744832E+04  0.17482744832E+04  0.25500000920E-02 0. -1.
        2   -1    0    0  501    0  0.00000000000E+00  0.00000000000E+00 -0.20736127326E+04  0.20736127326E+04  0.25500000920E-02 0.  1.
    10030    2    1    2    0    0  0.00000000000E+00  0.00000000000E+00 -0.32533824935E+03  0.38218872158E+04  0.38080148258E+04 0.  0.
        5    1    3    3  502    0  0.85980791768E+02 -0.17914140065E+04  0.47892904665E+03  0.18563275468E+04  0.46999998093E+01 0. -1.
       -5    1    3    3    0  502 -0.85980791768E+02  0.17914140065E+04 -0.80426729600E+03  0.19655596690E+04  0.46999998093E+01 0.  1.
</event>
<event>
 5   0  0.6725199E-08  0.3801493E+04  0.7818609E-02  0.8045835E-01
        1   -1    0    0  501    0  0.00000000000E+00  0.00000000000E+00  0.18979551421E+04  0.18979551421E+04  0.50400001928E-02 0. -1.
       -1   -1    0    0    0  501  0.00000000000E+00  0.00000000000E+00 -0.19035415590E+04  0.19035415590E+04  0.50400001928E-02 0.  1.
    10030    2    1    2    0    0  0.00000000000E+00  0.00000000000E+00 -0.55864168403E+01  0.38014967011E+04  0.38014925964E+04 0.  0.
        5    1    3    3  502    0  0.64276089073E+03 -0.11398690215E+04  0.13757478883E+04  0.18987225418E+04  0.46999998093E+01 0. -1.
       -5    1    3    3    0  502 -0.64276089073E+03  0.11398690215E+04 -0.13813343051E+04  0.19027741593E+04  0.46999998093E+01 0.  1.
</event>
<event>
 5   0  0.1370688E-07  0.3788767E+04  0.7818609E-02  0.8048570E-01
       -2   -1    0    0    0  501  0.00000000000E+00  0.00000000000E+00  0.23449551714E+04  0.23449551714E+04  0.25500000920E-02 0. -1.
        2   -1    0    0  501    0  0.00000000000E+00  0.00000000000E+00 -0.15303867971E+04  0.15303867971E+04  0.25500000920E-02 0.  1.
    10030    2    1    2    0    0  0.00000000000E+00  0.00000000000E+00  0.81456837434E+03  0.38753419685E+04  0.37887667831E+04 0.  0.
        5    1    3    3  502    0 -0.39246995849E+03  0.18109382656E+04  0.81015781261E+03  0.20223520567E+04  0.46999998093E+01 0. -1.
       -5    1    3    3    0  502  0.39246995849E+03 -0.18109382656E+04  0.44105617290E+01  0.18529899118E+04  0.46999998093E+01 0.  1.
</event>
<event>
 5   0  0.6661000E-08  0.3766764E+04  0.7818609E-02  0.8053325E-01
       -1   -1    0    0    0  501  0.00000000000E+00  0.00000000000E+00  0.18347578912E+04  0.18347578912E+04  0.50400001928E-02 0. -1.
        1   -1    0    0  501    0  0.00000000000E+00  0.00000000000E+00 -0.19332950320E+04  0.19332950320E+04  0.50400001928E-02 0.  1.
    10030    2    1    2    0    0  0.00000000000E+00  0.00000000000E+00 -0.98537140835E+02  0.37680529232E+04  0.37667642963E+04 0.  0.
        4    1    3    3  502    0  0.25570981686E+03 -0.10076652682E+04 -0.16202675161E+04  0.19251091501E+04  0.12699999809E+01 0.  1.
       -4    1    3    3    0  502 -0.25570981686E+03  0.10076652682E+04  0.15217303752E+04  0.18429437731E+04  0.12699999809E+01 0. -1.
</event>
<event>
 5   0  0.6725199E-08  0.3828724E+04  0.7818609E-02  0.8040019E-01
        1   -1    0    0  501    0  0.00000000000E+00  0.00000000000E+00  0.27498824054E+04  0.27498824054E+04  0.50400001928E-02 0. -1.
       -1   -1    0    0    0  501  0.00000000000E+00  0.00000000000E+00 -0.13327047613E+04  0.13327047613E+04  0.50400001928E-02 0.  1.
    10030    2    1    2    0    0  0.00000000000E+00  0.00000000000E+00  0.14171776441E+04  0.40825871667E+04  0.38287237428E+04 0.  0.
        5    1    3    3  502    0 -0.12848882097E+04  0.33420384559E+03  0.21792121796E+04  0.25517871650E+04  0.46999998093E+01 0. -1.
       -5    1    3    3    0  502  0.12848882097E+04 -0.33420384559E+03 -0.76203453547E+03  0.15308000017E+04  0.46999998093E+01 0.  1.
</event>
<event>
 5   0  0.2203998E-07  0.3838471E+04  0.7818609E-02  0.8037949E-01
       -2   -1    0    0    0  501  0.00000000000E+00  0.00000000000E+00  0.26379566249E+04  0.26379566249E+04  0.25500000920E-02 0. -1.
        2   -1    0    0  501    0  0.00000000000E+00  0.00000000000E+00 -0.13963325345E+04  0.13963325345E+04  0.25500000920E-02 0.  1.
    10030    2    1    2    0    0  0.00000000000E+00  0.00000000000E+00  0.12416240904E+04  0.40342891594E+04  0.38384708726E+04 0.  0.
        3    1    3    3  502    0  0.61200847622E+03  0.72855836842E+03  0.23726088324E+04  0.25562911323E+04  0.10100000352E+00 0. -1.
       -3    1    3    3    0  502 -0.61200847622E+03 -0.72855836842E+03 -0.11309847421E+04  0.14779980271E+04  0.10100000352E+00 0.  1.
</event>
<event>
 5   0  0.1370688E-07  0.3815679E+04  0.7818609E-02  0.8042798E-01
        2   -1    0    0  501    0  0.00000000000E+00  0.00000000000E+00  0.23407944742E+04  0.23407944742E+04  0.25500000920E-02 0.  1.
       -2   -1    0    0    0  501  0.00000000000E+00  0.00000000000E+00 -0.15549644413E+04  0.15549644413E+04  0.25500000920E-02 0. -1.
    10030    2    1    2    0    0  0.00000000000E+00  0.00000000000E+00  0.78583003295E+03  0.38957589155E+04  0.38156793218E+04 0.  0.
        5    1    3    3  502    0  0.34942255612E+03  0.67019172755E+03  0.21814140839E+04  0.23086451805E+04  0.46999998093E+01 0.  1.
       -5    1    3    3    0  502 -0.34942255612E+03 -0.67019172755E+03 -0.13955840509E+04  0.15871137349E+04  0.46999998093E+01 0. -1.
</event>
<event>
 5   0  0.6725199E-08  0.3854743E+04  0.7818609E-02  0.8034508E-01
       -1   -1    0    0    0  501  0.00000000000E+00  0.00000000000E+00  0.14440430652E+04  0.14440430652E+04  0.50400001928E-02 0. -1.
        1   -1    0    0  501    0  0.00000000000E+00  0.00000000000E+00 -0.25724726403E+04  0.25724726403E+04  0.50400001928E-02 0.  1.
    10030    2    1    2    0    0  0.00000000000E+00  0.00000000000E+00 -0.11284295751E+04  0.40165157055E+04  0.38547431959E+04 0.  0.
        5    1    3    3  502    0  0.13581453730E+04 -0.94594227288E+03  0.46484238932E+03  0.17191469322E+04  0.46999998093E+01 0. -1.
       -5    1    3    3    0  502 -0.13581453730E+04  0.94594227288E+03 -0.15932719644E+04  0.22973687733E+04  0.46999998093E+01 0.  1.
</event>
<event>
 5   0  0.2135314E-07  0.3790598E+04  0.7818609E-02  0.8048176E-01
       -2   -1    0    0    0  501  0.00000000000E+00  0.00000000000E+00  0.19140812112E+04  0.19140812112E+04  0.25500000920E-02 0.  1.
        2   -1    0    0  501    0  0.00000000000E+00  0.00000000000E+00 -0.18767006791E+04  0.18767006791E+04  0.25500000920E-02 0. -1.
    10030    2    1    2    0    0  0.00000000000E+00  0.00000000000E+00  0.37380532125E+02  0.37907818903E+04  0.37905975829E+04 0.  0.
        4    1    3    3  502    0  0.15372769520E+04 -0.65555837486E+03 -0.87532114535E+03  0.18865751854E+04  0.12699999809E+01 0. -1.
       -4    1    3    3    0  502 -0.15372769520E+04  0.65555837486E+03  0.91270167747E+03  0.19042067049E+04  0.12699999809E+01 0.  1.
</event>
<event>
 5   0  0.6661000E-08  0.3829179E+04  0.7818609E-02  0.8039922E-01
        1   -1    0    0  501    0  0.00000000000E+00  0.00000000000E+00  0.24234678300E+04  0.24234678300E+04  0.50400001928E-02 0. -1.
       -1   -1    0    0    0  501  0.00000000000E+00  0.00000000000E+00 -0.15125649082E+04  0.15125649082E+04  0.50400001928E-02 0.  1.
    10030    2    1    2    0    0  0.00000000000E+00  0.00000000000E+00  0.91090292181E+03  0.39360327383E+04  0.38291787088E+04 0.  0.
        1    1    3    3  502    0  0.16914125159E+04  0.45180601237E+03  0.12520928681E+04  0.21523804316E+04  0.50400001928E-02 0. -1.
       -1    1    3    3    0  502 -0.16914125159E+04 -0.45180601237E+03 -0.34118994634E+03  0.17836523067E+04  0.50400001928E-02 0.  1.
</event>
<event>
 5   0  0.6661000E-08  0.3803321E+04  0.7818609E-02  0.8045443E-01
        1   -1    0    0  501    0  0.00000000000E+00  0.00000000000E+00  0.14446660350E+04  0.14446660350E+04  0.50400001928E-02 0. -1.
       -1   -1    0    0    0  501  0.00000000000E+00  0.00000000000E+00 -0.25032173736E+04  0.25032173736E+04  0.50400001928E-02 0.  1.
    10030    2    1    2    0    0  0.00000000000E+00  0.00000000000E+00 -0.10585513385E+04  0.39478834086E+04  0.38033212423E+04 0.  0.
        2    1    3    3  502    0 -0.69618919391E+03 -0.88512340566E+03 -0.21199012127E+04  0.24004382909E+04  0.25500000920E-02 0.  1.
       -2    1    3    3    0  502  0.69618919391E+03  0.88512340566E+03  0.10613498741E+04  0.15474451177E+04  0.25500000920E-02 0. -1.
</event>
<event>
 5   0  0.6661000E-08  0.3806778E+04  0.7818609E-02  0.8044702E-01
       -1   -1    0    0    0  501  0.00000000000E+00  0.00000000000E+00  0.20024359334E+04  0.20024359334E+04  0.50400001928E-02 0.  1.
        1   -1    0    0  501    0  0.00000000000E+00  0.00000000000E+00 -0.18092408237E+04  0.18092408237E+04  0.50400001928E-02 0. -1.
    10030    2    1    2    0    0  0.00000000000E+00  0.00000000000E+00  0.19319510966E+03  0.38116767571E+04  0.38067775546E+04 0.  0.
        2    1    3    3  502    0  0.21213155433E+03  0.18423037704E+04  0.52587516658E+03  0.19275963451E+04  0.25500000920E-02 0. -1.
       -2    1    3    3    0  502 -0.21213155433E+03 -0.18423037704E+04 -0.33268005691E+03  0.18840804120E+04  0.25500000920E-02 0.  1.
</event>
<event>
 5   0  0.6661000E-08  0.3775517E+04  0.7818609E-02  0.8051429E-01
        1   -1    0    0  501    0  0.00000000000E+00  0.00000000000E+00  0.15836467637E+04  0.15836467637E+04  0.50400001928E-02 0. -1.
       -1   -1    0    0    0  501  0.00000000000E+00  0.00000000000E+00 -0.22502697617E+04  0.22502697617E+04  0.50400001928E-02 0.  1.
    10030    2    1    2    0    0  0.00000000000E+00  0.00000000000E+00 -0.66662299806E+03  0.38339165254E+04  0.37755171437E+04 0.  0.
        4    1    3    3  502    0  0.63062950260E+03 -0.25554628788E+03  0.14547868920E+04  0.16060522995E+04  0.12699999809E+01 0. -1.
       -4    1    3    3    0  502 -0.63062950260E+03  0.25554628788E+03 -0.21214098900E+04  0.22278642259E+04  0.12699999809E+01 0.  1.
</event>
<event>
 5   0  0.6661000E-08  0.3803846E+04  0.7818609E-02  0.8045330E-01
       -1   -1    0    0    0  501  0.00000000000E+00  0.00000000000E+00  0.19552785569E+04  0.19552785570E+04  0.50400001928E-02 0.  1.
        1   -1    0    0  501    0  0.00000000000E+00  0.00000000000E+00 -0.18500236385E+04  0.18500236385E+04  0.50400001928E-02 0. -1.
    10030    2    1    2    0    0  0.00000000000E+00  0.00000000000E+00  0.10525491841E+03  0.38053021955E+04  0.38038462378E+04 0.  0.
        1    1    3    3  502    0  0.10769908382E+04 -0.10058488228E+04 -0.11501931134E+04  0.18693809986E+04  0.50400001928E-02 0. -1.
       -1    1    3    3    0  502 -0.10769908382E+04  0.10058488228E+04  0.12554480318E+04  0.19359211969E+04  0.50400001928E-02 0.  1.
</event>
<event>
 5   0  0.6725199E-08  0.3778894E+04  0.7818609E-02  0.8050699E-01
       -1   -1    0    0    0  501  0.00000000000E+00  0.00000000000E+00  0.16983408765E+04  0.16983408765E+04  0.50400001928E-02 0.  1.
        1   -1    0    0  501    0  0.00000000000E+00  0.00000000000E+00 -0.21020571149E+04  0.21020571149E+04  0.50400001928E-02 0. -1.
    10030    2    1    2    0    0  0.00000000000E+00  0.00000000000E+00 -0.40371623837E+03  0.38003979914E+04  0.37788937656E+04 0.  0.
        5    1    3    3  502    0 -0.13612048187E+04 -0.12074432382E+04  0.31014577849E+03  0.18458088271E+04  0.46999998093E+01 0.  1.
       -5    1    3    3    0  502  0.13612048187E+04  0.12074432382E+04 -0.71386201686E+03  0.19545891643E+04  0.46999998093E+01 0. -1.
</event>
<event>
 5   0  0.2135314E-07  0.3773007E+04  0.7818609E-02  0.8051972E-01
        2   -1    0    0  501    0  0.00000000000E+00  0.00000000000E+00  0.27745841318E+04  0.27745841318E+04  0.25500000920E-02 0.  1.
       -2   -1    0    0    0  501  0.00000000000E+00  0.00000000000E+00 -0.12826769416E+04  0.12826769416E+04  0.25500000920E-02 0. -1.
    10030    2    1    2    0    0  0.00000000000E+00  0.00000000000E+00  0.14919071902E+04  0.40572610734E+04  0.37730068055E+04 0.  0.
        4    1    3    3  502    0 -0.83047093929E+03 -0.92113186408E+03  0.22745725853E+04  0.25907234416E+04  0.12699999809E+01 0.  1.
       -4    1    3    3    0  502  0.83047093929E+03  0.92113186408E+03 -0.78266539513E+03  0.14665376319E+04  0.12699999809E+01 0. -1.
</event>
<event>
 5   0  0.6725199E-08  0.3780758E+04  0.7818609E-02  0.8050297E-01
        1   -1    0    0  501    0  0.00000000000E+00  0.00000000000E+00  0.27028928709E+04  0.27028928709E+04  0.50400001928E-02 0. -1.
       -1   -1    0    0    0  501  0.00000000000E+00  0.00000000000E+00 -0.13221143609E+04  0.13221143609E+04  0.50400001928E-02 0.  1.
    10030    2    1    2    0    0  0.00000000000E+00  0.00000000000E+00  0.13807785100E+04  0.40250072318E+04  0.37807583793E+04 0.  0.
        5    1    3    3  502    0  0.37632416901E+02 -0.16023815283E+04  0.17573683994E+04  0.23785307528E+04  0.46999998093E+01 0. -1.
       -5    1    3    3    0  502 -0.37632416901E+02  0.16023815283E+04 -0.37658988943E+03  0.16464764790E+04  0.46999998093E+01 0.  1.
</event>
<event>
 5   0  0.2135314E-07  0.3830450E+04  0.7818609E-02  0.8039652E-01
       -2   -1    0    0    0  501  0.00000000000E+00  0.00000000000E+00  0.11854077960E+04  0.11854077960E+04  0.25500000920E-02 0.  1.
        2   -1    0    0  501    0  0.00000000000E+00  0.00000000000E+00 -0.30943667600E+04  0.30943667600E+04  0.25500000920E-02 0. -1.
    10030    2    1    2    0    0  0.00000000000E+00  0.00000000000E+00 -0.19089589640E+04  0.42797745560E+04  0.38304498331E+04 0.  0.
        4    1    3    3  502    0  0.13513682382E+04  0.11180113882E+04 -0.18141057871E+04  0.25233166665E+04  0.12699999809E+01 0. -1.
       -4    1    3    3    0  502 -0.13513682382E+04 -0.11180113882E+04 -0.94853176824E+02  0.17564578895E+04  0.12699999809E+01 0.  1.
</event>
<event>
 5   0  0.6661000E-08  0.3801735E+04  0.7818609E-02  0.8045783E-01
       -1   -1    0    0    0  501  0.00000000000E+00  0.00000000000E+00  0.17580735003E+04  0.17580735003E+04  0.50400001928E-02 0.  1.
        1   -1    0    0  501    0  0.00000000000E+00  0.00000000000E+00 -0.20552591973E+04  0.20552591973E+04  0.50400001928E-02 0. -1.
    10030    2    1    2    0    0  0.00000000000E+00  0.00000000000E+00 -0.29718569702E+03  0.38133326975E+04  0.38017347256E+04 0.  0.
        1    1    3    3  502    0  0.14705698952E+04 -0.96687153558E+03  0.57184642509E+03  0.18505201206E+04  0.50400001928E-02 0.  1.
       -1    1    3    3    0  502 -0.14705698952E+04  0.96687153558E+03 -0.86903212211E+03  0.19628125769E+04  0.50400001928E-02 0. -1.
</event>
<event>
 5   0  0.6661000E-08  0.3836747E+04  0.7818609E-02  0.8038315E-01
        3   -1    0    0  501    0  0.00000000000E+00  0.00000000000E+00  0.22341345941E+04  0.22341345964E+04  0.10100000352E+00 0. -1.
       -3   -1    0    0    0  501  0.00000000000E+00  0.00000000000E+00 -0.16472402201E+04  0.16472402232E+04  0.10100000352E+00 0.  1.
    10030    2    1    2    0    0  0.00000000000E+00  0.00000000000E+00  0.58689437405E+03  0.38813748195E+04  0.38367467317E+04 0.  0.
        5    1    3    3  502    0 -0.94460443853E+03  0.69744406655E+03  0.18281390716E+04  0.21727448829E+04  0.46999998093E+01 0. -1.
       -5    1    3    3    0  502  0.94460443853E+03 -0.69744406655E+03 -0.12412446975E+04  0.17086299366E+04  0.46999998093E+01 0.  1.
</event>
<event>
 5   0  0.2081337E-07  0.3791246E+04  0.7818609E-02  0.8048036E-01
       -2   -1    0    0    0  501  0.00000000000E+00  0.00000000000E+00  0.25198348100E+04  0.25198348100E+04  0.25500000920E-02 0.  1.
        2   -1    0    0  501    0  0.00000000000E+00  0.00000000000E+00 -0.14260408512E+04  0.14260408512E+04  0.25500000920E-02 0. -1.
    10030    2    1    2    0    0  0.00000000000E+00  0.00000000000E+00  0.10937939588E+04  0.39458756612E+04  0.37912464322E+04 0.  0.
        1    1    3    3  502    0 -0.14277722830E+04 -0.34720781871E+03 -0.69957191053E+03  0.16274175308E+04  0.50400001928E-02 0. -1.
       -1    1    3    3    0  502  0.14277722830E+04  0.34720781871E+03  0.17933658693E+04  0.23184581305E+04  0.50400001928E-02 0.  1.
</event>
<event>
 5   0  0.6661000E-08  0.3728113E+04  0.7818609E-02  0.8061760E-01
       -1   -1    0    0    0  501  0.00000000000E+00  0.00000000000E+00  0.19110734816E+04  0.19110734816E+04  0.50400001928E-02 0.  1.
        1   -1    0    0  501    0  0.00000000000E+00  0.00000000000E+00 -0.18181964536E+04  0.18181964536E+04  0.50400001928E-02 0. -1.
    10030    2    1    2    0    0  0.00000000000E+00  0.00000000000E+00  0.92877027993E+02  0.37292699352E+04  0.37281132101E+04 0.  0.
        1    1    3    3  502    0  0.85592113731E+03  0.10387076062E+04  0.13364868785E+04  0.18967634700E+04  0.50400001928E-02 0.  1.
       -1    1    3    3    0  502 -0.85592113731E+03 -0.10387076062E+04 -0.12436098506E+04  0.18325064652E+04  0.50400001928E-02 0. -1.
</event>
<event>
 5   0  0.2205204E-07  0.3788878E+04  0.7818609E-02  0.8048546E-01
       -2   -1    0    0    0  501  0.00000000000E+00  0.00000000000E+00  0.14256921874E+04  0.14256921874E+04  0.25500000920E-02 0.  1.
        2   -1    0    0  501    0  0.00000000000E+00  0.00000000000E+00 -0.25173031685E+04  0.25173031685E+04  0.25500000920E-02 0. -1.
    10030    2    1    2    0    0  0.00000000000E+00  0.00000000000E+00 -0.10916109811E+04  0.39429953559E+04  0.37888781773E+04 0.  0.
        2    1    3    3  502    0  0.97103571719E+03 -0.57121204063E+01  0.11469996579E+04  0.15028476994E+04  0.25500000920E-02 0.  1.
       -2    1    3    3    0  502 -0.97103571719E+03  0.57121204063E+01 -0.22386106390E+04  0.24401476565E+04  0.25500000920E-02 0. -1.
</event>
<event>
 5   0  0.6661000E-08  0.3795015E+04  0.7818609E-02  0.8047225E-01
        1   -1    0    0  501    0  0.00000000000E+00  0.00000000000E+00  0.23500152768E+04  0.23500152768E+04  0.50400001928E-02 0.  1.
       -1   -1    0    0    0  501  0.00000000000E+00  0.00000000000E+00 -0.15321326461E+04  0.15321326461E+04  0.50400001928E-02 0. -1.
    10030    2    1    2    0    0  0.00000000000E+00  0.00000000000E+00  0.81788263074E+03  0.38821479229E+04  0.37950152170E+04 0.  0.
        1    1    3    3  502    0 -0.16384224045E+04  0.14131017218E+03 -0.55943943104E+03  0.17370575746E+04  0.50400001928E-02 0. -1.
       -1    1    3    3    0  502  0.16384224045E+04 -0.14131017218E+03  0.13773220618E+04  0.21450903483E+04  0.50400001928E-02 0.  1.
</event>
<event>
 5   0  0.6661000E-08  0.3586780E+04  0.7818609E-02  0.8093527E-01
       -1   -1    0    0    0  501  0.00000000000E+00  0.00000000000E+00  0.22482858268E+04  0.22482858268E+04  0.50400001928E-02 0. -1.
        1   -1    0    0  501    0  0.00000000000E+00  0.00000000000E+00 -0.14305335825E+04  0.14305335825E+04  0.50400001928E-02 0.  1.
    10030    2    1    2    0    0  0.00000000000E+00  0.00000000000E+00  0.81775224432E+03  0.36788194092E+04  0.35867803826E+04 0.  0.
        3    1    3    3  502    0  0.53159417643E+03 -0.34149044566E+03  0.21303491059E+04  0.22220700745E+04  0.10100000352E+00 0. -1.
       -3    1    3    3    0  502 -0.53159417643E+03  0.34149044566E+03 -0.13125968616E+04  0.14567493347E+04  0.10100000352E+00 0.  1.
</event>
<event>
 5   0  0.6661000E-08  0.3782322E+04  0.7818609E-02  0.8049959E-01
       -1   -1    0    0    0  501  0.00000000000E+00  0.00000000000E+00  0.12838213676E+04  0.12838213676E+04  0.50400001928E-02 0. -1.
        1   -1    0    0  501    0  0.00000000000E+00  0.00000000000E+00 -0.27858162692E+04  0.27858162693E+04  0.50400001928E-02 0.  1.
    10030    2    1    2    0    0  0.00000000000E+00  0.00000000000E+00 -0.15019949017E+04  0.40696376368E+04  0.37823222774E+04 0.  0.
        1    1    3    3  502    0  0.85496815472E+03 -0.47994393536E+03  0.98899547482E+03  0.13926337551E+04  0.50400001928E-02 0. -1.
       -1    1    3    3    0  502 -0.85496815472E+03  0.47994393536E+03 -0.24909903765E+04  0.26770038817E+04  0.50400001928E-02 0.  1.
</event>
<event>
 5   0  0.1370688E-07  0.3793160E+04  0.7818609E-02  0.8047624E-01
        2   -1    0    0  501    0  0.00000000000E+00  0.00000000000E+00  0.14824684876E+04  0.14824684876E+04  0.25500000920E-02 0. -1.
       -2   -1    0    0    0  501  0.00000000000E+00  0.00000000000E+00 -0.24263693974E+04  0.24263693974E+04  0.25500000920E-02 0.  1.
    10030    2    1    2    0    0  0.00000000000E+00  0.00000000000E+00 -0.94390090984E+03  0.39088378850E+04  0.37931602501E+04 0.  0.
        5    1    3    3  502    0  0.66214804343E+03  0.27593016445E+03  0.13372726907E+04  0.15175301731E+04  0.46999998093E+01 0. -1.
       -5    1    3    3    0  502 -0.66214804343E+03 -0.27593016445E+03 -0.22811736005E+04  0.23913077119E+04  0.46999998093E+01 0.  1.
</event>
<event>
 5   0  0.2203998E-07  0.3737124E+04  0.7818609E-02  0.8059784E-01
       -2   -1    0    0    0  501  0.00000000000E+00  0.00000000000E+00  0.14509408126E+04  0.14509408126E+04  0.25500000920E-02 0.  1.
        2   -1    0    0  501    0  0.00000000000E+00  0.00000000000E+00 -0.24063857661E+04  0.24063857661E+04  0.25500000920E-02 0. -1.
    10030    2    1    2    0    0  0.00000000000E+00  0.00000000000E+00 -0.95544495347E+03  0.38573265787E+04  0.37371236635E+04 0.  0.
        3    1    3    3  502    0 -0.27565535933E+03  0.33795696545E+02  0.14295196883E+04  0.14562467427E+04  0.10100000352E+00 0.  1.
       -3    1    3    3    0  502  0.27565535933E+03 -0.33795696545E+02 -0.23849646418E+04  0.24010798360E+04  0.10100000352E+00 0. -1.
</event>
<event>
 5   0  0.2081337E-07  0.3787940E+04  0.7818609E-02  0.8048748E-01
       -2   -1    0    0    0  501  0.00000000000E+00  0.00000000000E+00  0.14278578156E+04  0.14278578156E+04  0.25500000920E-02 0. -1.
        2   -1    0    0  501    0  0.00000000000E+00  0.00000000000E+00 -0.25122404697E+04  0.25122404697E+04  0.25500000920E-02 0.  1.
    10030    2    1    2    0    0  0.00000000000E+00  0.00000000000E+00 -0.10843826541E+04  0.39400982853E+04  0.37879399094E+04 0.  0.
        1    1    3    3  502    0  0.27694145421E+03  0.42269711436E+03 -0.24408214119E+04  0.24925847196E+04  0.50400001928E-02 0.  1.
       -1    1    3    3    0  502 -0.27694145421E+03 -0.42269711436E+03  0.13564387577E+04  0.14475135658E+04  0.50400001928E-02 0. -1.
</event>
<event>
 5   0  0.6661000E-08  0.3638177E+04  0.7818609E-02  0.8081802E-01
       -1   -1    0    0    0  501  0.00000000000E+00  0.00000000000E+00  0.18481451216E+04  0.18481451216E+04  0.50400001928E-02 0.  1.
        1   -1    0    0  501    0  0.00000000000E+00  0.00000000000E+00 -0.17904884200E+04  0.17904884200E+04  0.50400001928E-02 0. -1.
    10030    2    1    2    0    0  0.00000000000E+00  0.00000000000E+00  0.57656701577E+02  0.36386335416E+04  0.36381767075E+04 0.  0.
        2    1    3    3  502    0 -0.32611378052E+02  0.17643695733E+04 -0.41283659526E+03  0.18123182798E+04  0.25500000920E-02 0. -1.
       -2    1    3    3    0  502  0.32611378052E+02 -0.17643695733E+04  0.47049329683E+03  0.18263152618E+04  0.25500000920E-02 0.  1.
</event>
<event>
 5   0  0.6661000E-08  0.3796094E+04  0.7818609E-02  0.8046994E-01
        1   -1    0    0  501    0  0.00000000000E+00  0.00000000000E+00  0.31303514309E+04  0.31303514309E+04  0.50400001928E-02 0. -1.
       -1   -1    0    0    0  501  0.00000000000E+00  0.00000000000E+00 -0.11508553549E+04  0.11508553549E+04  0.50400001928E-02 0.  1.
    10030    2    1    2    0    0  0.00000000000E+00  0.00000000000E+00  0.19794960760E+04  0.42812067858E+04  0.37960936273E+04 0.  0.
        1    1    3    3  502    0  0.10202634693E+03  0.96689146701E+03 -0.84869013753E+03  0.12905670978E+04  0.50400001928E-02 0.  1.
       -1    1    3    3    0  502 -0.10202634693E+03 -0.96689146701E+03  0.28281862136E+04  0.29906396879E+04  0.50400001928E-02 0. -1.
</event>
<event>
 5   0  0.1370688E-07  0.3756160E+04  0.7818609E-02  0.8055629E-01
        2   -1    0    0  501    0  0.00000000000E+00  0.00000000000E+00  0.23261861472E+04  0.23261861472E+04  0.25500000920E-02 0.  1.
       -2   -1    0    0    0  501  0.00000000000E+00  0.00000000000E+00 -0.15162954094E+04  0.15162954094E+04  0.25500000920E-02 0. -1.
    10030    2    1    2    0    0  0.00000000000E+00  0.00000000000E+00  0.80989073784E+03  0.38424815566E+04  0.37561604738E+04 0.  0.
        5    1    3    3  502    0  0.11459245724E+04  0.52934358472E+03  0.18275203785E+04  0.22210809485E+04  0.46999998093E+01 0.  1.
       -5    1    3    3    0  502 -0.11459245724E+04 -0.52934358472E+03 -0.10176296406E+04  0.16214006080E+04  0.46999998093E+01 0. -1.
</event>
<event>
 5   0  0.6661000E-08  0.3805993E+04  0.7818609E-02  0.8044870E-01
       -1   -1    0    0    0  501  0.00000000000E+00  0.00000000000E+00  0.18528828453E+04  0.18528828453E+04  0.50400001928E-02 0. -1.
        1   -1    0    0  501    0  0.00000000000E+00  0.00000000000E+00 -0.19544659016E+04  0.19544659016E+04  0.50400001928E-02 0.  1.
    10030    2    1    2    0    0  0.00000000000E+00  0.00000000000E+00 -0.10158305632E+03  0.38073487469E+04  0.38059933477E+04 0.  0.
        3    1    3    3  502    0  0.12465558941E+04 -0.36148675014E+03 -0.14429846899E+04  0.19408191810E+04  0.10100000352E+00 0.  1.
       -3    1    3    3    0  502 -0.12465558941E+04  0.36148675014E+03  0.13414016336E+04  0.18665295659E+04  0.10100000352E+00 0. -1.
</event>
<event>
 5   0  0.6661000E-08  0.3719507E+04  0.7818609E-02  0.8063652E-01
       -1   -1    0    0    0  501  0.00000000000E+00  0.00000000000E+00  0.14331365470E+04  0.14331365470E+04  0.50400001928E-02 0. -1.
        1   -1    0    0  501    0  0.00000000000E+00  0.00000000000E+00 -0.24133665398E+04  0.24133665398E+04  0.50400001928E-02 0.  1.
    10030    2    1    2    0    0  0.00000000000E+00  0.00000000000E+00 -0.98022999280E+03  0.38465030869E+04  0.37195073812E+04 0.  0.
        4    1    3    3  502    0  0.14077450154E+04  0.79423819482E+03  0.46114035409E+03  0.16808368087E+04  0.12699999809E+01 0. -1.
       -4    1    3    3    0  502 -0.14077450154E+04 -0.79423819482E+03 -0.14413703469E+04  0.21656662782E+04  0.12699999809E+01 0.  1.
</event>
<event>
 5   0  0.1370688E-07  0.3776882E+04  0.7818609E-02  0.8051134E-01
       -2   -1    0    0    0  501  0.00000000000E+00  0.00000000000E+00  0.18138609040E+04  0.18138609040E+04  0.25500000920E-02 0.  1.
        2   -1    0    0  501    0  0.00000000000E+00  0.00000000000E+00 -0.19660880364E+04  0.19660880364E+04  0.25500000920E-02 0. -1.
    10030    2    1    2    0    0  0.00000000000E+00  0.00000000000E+00 -0.15222713243E+03  0.37799489404E+04  0.37768824303E+04 0.  0.
        5    1    3    3  502    0  0.11135180513E+04 -0.10408956024E+04  0.10396018759E+04  0.18450420743E+04  0.46999998093E+01 0.  1.
       -5    1    3    3    0  502 -0.11135180513E+04  0.10408956024E+04 -0.11918290083E+04  0.19349068661E+04  0.46999998093E+01 0. -1.
</event>
<event>
 5   0  0.6725199E-08  0.3872787E+04  0.7818609E-02  0.8030713E-01
       -1   -1    0    0    0  501  0.00000000000E+00  0.00000000000E+00  0.18120045726E+04  0.18120045727E+04  0.50400001928E-02 0. -1.
        1   -1    0    0  501    0  0.00000000000E+00  0.00000000000E+00 -0.20693214921E+04  0.20693214921E+04  0.50400001928E-02 0.  1.
    10030    2    1    2    0    0  0.00000000000E+00  0.00000000000E+00 -0.25731691944E+03  0.38813260648E+04  0.38727871132E+04 0.  0.
        5    1    3    3  502    0 -0.19280121736E+03 -0.33925621594E+03 -0.20295034121E+04  0.20666817073E+04  0.46999998093E+01 0.  1.
       -5    1    3    3    0  502  0.19280121736E+03  0.33925621594E+03  0.17721864926E+04  0.18146443575E+04  0.46999998093E+01 0. -1.
</event>
<event>
 5   0  0.1370688E-07  0.3844835E+04  0.7818609E-02  0.8036601E-01
       -2   -1    0    0    0  501  0.00000000000E+00  0.00000000000E+00  0.24520434400E+04  0.24520434400E+04  0.25500000920E-02 0.  1.
        2   -1    0    0  501    0  0.00000000000E+00  0.00000000000E+00 -0.15071876807E+04  0.15071876807E+04  0.25500000920E-02 0. -1.
    10030    2    1    2    0    0  0.00000000000E+00  0.00000000000E+00  0.94485575928E+03  0.39592311207E+04  0.38448353231E+04 0.  0.
        5    1    3    3  502    0 -0.15711842661E+04 -0.50767656816E+03  0.14862573787E+04  0.22215621939E+04  0.46999998093E+01 0.  1.
       -5    1    3    3    0  502  0.15711842661E+04  0.50767656816E+03 -0.54140161940E+03  0.17376689268E+04  0.46999998093E+01 0. -1.
</event>
<event>
 5   0  0.2135314E-07  0.3781670E+04  0.7818609E-02  0.8050100E-01
        2   -1    0    0  501    0  0.00000000000E+00  0.00000000000E+00  0.11266816477E+04  0.11266816477E+04  0.25500000920E-02 0.  1.
       -2   -1    0    0    0  501  0.00000000000E+00  0.00000000000E+00 -0.31732629487E+04  0.31732629487E+04  0.25500000920E-02 0. -1.
    10030    2    1    2    0    0  0.00000000000E+00  0.00000000000E+00 -0.20465813010E+04  0.42999445964E+04  0.37816700690E+04 0.  0.
        4    1    3    3  502    0  0.60369595999E+03  0.38111021007E+03  0.96753970968E+03  0.12024260921E+04  0.12699999809E+01 0.  1.
       -4    1    3    3    0  502 -0.60369595999E+03 -0.38111021007E+03 -0.30141210107E+04  0.30975185043E+04  0.12699999809E+01 0. -1.
</event>
<event>
 5   0  0.2081337E-07  0.3805370E+04  0.7818609E-02  0.8045004E-01
       -2   -1    0    0    0  501  0.00000000000E+00  0.00000000000E+00  0.15772144158E+04  0.15772144158E+04  0.25500000920E-02 0.  1.
        2   -1    0    0  501    0  0.00000000000E+00  0.00000000000E+00 -0.22953183955E+04  0.22953183955E+04  0.25500000920E-02 0. -1.
    10030    2    1    2    0    0  0.00000000000E+00  0.00000000000E+00 -0.71810397971E+03  0.38725328112E+04  0.38053695022E+04 0.  0.
        1    1    3    3  502    0  0.45860409959E+03  0.70198004895E+01  0.15201151850E+04  0.15878026243E+04  0.50400001928E-02 0.  1.
       -1    1    3    3    0  502 -0.45860409959E+03 -0.70198004895E+01 -0.22382191648E+04  0.22847301870E+04  0.50400001928E-02 0. -1.
</event>
<event>
 5   0  0.2081337E-07  0.3686049E+04  0.7818609E-02  0.8071061E-01
        2   -1    0    0  501    0  0.00000000000E+00  0.00000000000E+00  0.12119071894E+04  0.12119071894E+04  0.25500000920E-02 0. -1.
       -2   -1    0    0    0  501  0.00000000000E+00  0.00000000000E+00 -0.28028043510E+04  0.28028043510E+04  0.25500000920E-02 0.  1.
    10030    2    1    2    0    0  0.00000000000E+00  0.00000000000E+00 -0.15908971616E+04  0.40147115403E+04  0.36860486938E+04 0.  0.
        1    1    3    3  502    0  0.17488881036E+04  0.52339370071E+03 -0.10713924846E+04  0.21167031962E+04  0.50400001928E-02 0. -1.
       -1    1    3    3    0  502 -0.17488881036E+04 -0.52339370071E+03 -0.51950467698E+03  0.18980083441E+04  0.50400001928E-02 0.  1.
</event>
<event>
 5   0  0.6661000E-08  0.3821184E+04  0.7818609E-02  0.8041624E-01
       -1   -1    0    0    0  501  0.00000000000E+00  0.00000000000E+00  0.23860222769E+04  0.23860222769E+04  0.50400001928E-02 0.  1.
        1   -1    0    0  501    0  0.00000000000E+00  0.00000000000E+00 -0.15298945377E+04  0.15298945377E+04  0.50400001928E-02 0. -1.
    10030    2    1    2    0    0  0.00000000000E+00  0.00000000000E+00  0.85612773920E+03  0.39159168147E+04  0.38211843443E+04 0.  0.
        2    1    3    3  502    0  0.14442900436E+04 -0.71100436988E+03  0.14825844198E+04  0.21885057701E+04  0.25500000920E-02 0.  1.
       -2    1    3    3    0  502 -0.14442900436E+04  0.71100436988E+03 -0.62645668057E+03  0.17274110445E+04  0.25500000920E-02 0. -1.
</event>
<event>
 5   0  0.2081337E-07  0.3773824E+04  0.7818609E-02  0.8051796E-01
       -2   -1    0    0    0  501  0.00000000000E+00  0.00000000000E+00  0.25715560836E+04  0.25715560836E+04  0.25500000920E-02 0.  1.
        2   -1    0    0  501    0  0.00000000000E+00  0.00000000000E+00 -0.13845454220E+04  0.13845454220E+04  0.25500000920E-02 0. -1.
    10030    2    1    2    0    0  0.00000000000E+00  0.00000000000E+00  0.11870106617E+04  0.39561015056E+04  0.37738236329E+04 0.  0.
        1    1    3    3  502    0 -0.88986414783E+03  0.13081851283E+04 -0.48437487838E+03  0.16546375900E+04  0.50400001928E-02 0. -1.
       -1    1    3    3    0  502  0.88986414783E+03 -0.13081851283E+04  0.16713855400E+04  0.23014639156E+04  0.50400001928E-02 0.  1.
</event>
<event>
 5   0  0.6725199E-08  0.3805526E+04  0.7818609E-02  0.8044970E-01
       -1   -1    0    0    0  501  0.00000000000E+00  0.00000000000E+00  0.21232038305E+04  0.21232038305E+04  0.50400001928E-02 0.  1.
        1   -1    0    0  501    0  0.00000000000E+00  0.00000000000E+00 -0.17052095602E+04  0.17052095602E+04  0.50400001928E-02 0. -1.
    10030    2    1    2    0    0  0.00000000000E+00  0.00000000000E+00  0.41799427033E+03  0.38284133907E+04  0.38055262291E+04 0.  0.
        5    1    3    3  502    0 -0.52529512645E+03 -0.18234528616E+04  0.34973155171E+03  0.19295723766E+04  0.46999998093E+01 0.  1.
       -5    1    3    3    0  502  0.52529512645E+03  0.18234528616E+04  0.68262718615E+02  0.18988410141E+04  0.46999998093E+01 0. -1.
</event>
<event>
 5   0  0.6661000E-08  0.3828930E+04  0.7818609E-02  0.8039975E-01
        1   -1    0    0  501    0  0.00000000000E+00  0.00000000000E+00  0.16252742566E+04  0.16252742566E+04  0.50400001928E-02 0. -1.
       -1   -1    0    0    0  501  0.00000000000E+00  0.00000000000E+00 -0.22551123045E+04  0.22551123045E+04  0.50400001928E-02 0.  1.
    10030    2    1    2    0    0  0.00000000000E+00  0.00000000000E+00 -0.62983804797E+03  0.38803865611E+04  0.38289298631E+04 0.  0.
        3    1    3    3  502    0 -0.12047588039E+04  0.47569379926E+01 -0.18227681928E+04  0.21849371385E+04  0.10100000352E+00 0.  1.
       -3    1    3    3    0  502  0.12047588039E+04 -0.47569379926E+01  0.11929301449E+04  0.16954494226E+04  0.10100000352E+00 0. -1.
</event>
<event>
 5   0  0.2135314E-07  0.3648386E+04  0.7818609E-02  0.8079497E-01
        2   -1    0    0  501    0  0.00000000000E+00  0.00000000000E+00  0.24654183030E+04  0.24654183030E+04  0.25500000920E-02 0. -1.
       -2   -1    0    0    0  501  0.00000000000E+00  0.00000000000E+00 -0.13497423265E+04  0.13497423265E+04  0.25500000920E-02 0.  1.
    10030    2    1    2    0    0  0.00000000000E+00  0.00000000000E+00  0.11156759765E+04  0.38151606294E+04  0.36483856353E+04 0.  0.
        4    1    3    3  502    0 -0.15386538733E+04 -0.55080255161E+03  0.14053413588E+04  0.21554176255E+04  0.12699999809E+01 0. -1.
       -4    1    3    3    0  502  0.15386538733E+04  0.55080255161E+03 -0.28966538231E+03  0.16597430039E+04  0.12699999809E+01 0.  1.
</event>
<event>
 5   0  0.6661000E-08  0.3907631E+04  0.7818609E-02  0.8023444E-01
        1   -1    0    0  501    0  0.00000000000E+00  0.00000000000E+00  0.18211406962E+04  0.18211406962E+04  0.50400001928E-02 0.  1.
       -1   -1    0    0    0  501  0.00000000000E+00  0.00000000000E+00 -0.20961558738E+04  0.20961558738E+04  0.50400001928E-02 0. -1.
    10030    2    1    2    0    0  0.00000000000E+00  0.00000000000E+00 -0.27501517756E+03  0.39172965700E+04  0.39076308769E+04 0.  0.
        4    1    3    3  502    0 -0.12598159950E+04  0.24831127723E+03  0.13387511399E+04  0.18550070240E+04  0.12699999809E+01 0.  1.
       -4    1    3    3    0  502  0.12598159950E+04 -0.24831127723E+03 -0.16137663174E+04  0.20622895461E+04  0.12699999809E+01 0. -1.
</event>
<event>
 5   0  0.2203998E-07  0.3791283E+04  0.7818609E-02  0.8048028E-01
        2   -1    0    0  501    0  0.00000000000E+00  0.00000000000E+00  0.18750003653E+04  0.18750003653E+04  0.25500000920E-02 0. -1.
       -2   -1    0    0    0  501  0.00000000000E+00  0.00000000000E+00 -0.19165097738E+04  0.19165097738E+04  0.25500000920E-02 0.  1.
    10030    2    1    2    0    0  0.00000000000E+00  0.00000000000E+00 -0.41509408529E+02  0.37915101391E+04  0.37912829101E+04 0.  0.
        3    1    3    3  502    0  0.19040077875E+03  0.70881038460E+03  0.17271463468E+04  0.18766190694E+04  0.10100000352E+00 0. -1.
       -3    1    3    3    0  502 -0.19040077875E+03 -0.70881038460E+03 -0.17686557554E+04  0.19148910698E+04  0.10100000352E+00 0.  1.
</event>
<event>
 5   0  0.2203998E-07  0.3795785E+04  0.7818609E-02  0.8047060E-01
       -2   -1    0    0    0  501  0.00000000000E+00  0.00000000000E+00  0.15194647071E+04  0.15194647071E+04  0.25500000920E-02 0. -1.
        2   -1    0    0  501    0  0.00000000000E+00  0.00000000000E+00 -0.23705691678E+04  0.23705691678E+04  0.25500000920E-02 0.  1.
    10030    2    1    2    0    0  0.00000000000E+00  0.00000000000E+00 -0.85110446077E+03  0.38900338749E+04  0.37957851289E+04 0.  0.
        3    1    3    3  502    0  0.10122698773E+04  0.34395355706E+03  0.11815044280E+04  0.15934073796E+04  0.10100000352E+00 0. -1.
       -3    1    3    3    0  502 -0.10122698773E+04 -0.34395355706E+03 -0.20326088888E+04  0.22966264953E+04  0.10100000352E+00 0.  1.
</event>
<event>
 5   0  0.2203998E-07  0.3738340E+04  0.7818609E-02  0.8059518E-01
        2   -1    0    0  501    0  0.00000000000E+00  0.00000000000E+00  0.26642987779E+04  0.26642987779E+04  0.25500000920E-02 0. -1.
       -2   -1    0    0    0  501  0.00000000000E+00  0.00000000000E+00 -0.13113377751E+04  0.13113377751E+04  0.25500000920E-02 0.  1.
    10030    2    1    2    0    0  0.00000000000E+00  0.00000000000E+00  0.13529610028E+04  0.39756365531E+04  0.37383395414E+04 0.  0.
        3    1    3    3  502    0  0.16804581191E+04 -0.68523144586E+03  0.20050611884E+03  0.18258379825E+04  0.10100000352E+00 0.  1.
       -3    1    3    3    0  502 -0.16804581191E+04  0.68523144586E+03  0.11524548840E+04  0.21497985706E+04  0.10100000352E+00 0. -1.
</event>
<event>
 5   0  0.6661000E-08  0.3793936E+04  0.7818609E-02  0.8047457E-01
       -1   -1    0    0    0  501  0.00000000000E+00  0.00000000000E+00  0.32989994351E+04  0.32989994351E+04  0.50400001928E-02 0. -1.
        1   -1    0    0  501    0  0.00000000000E+00  0.00000000000E+00 -0.10907815390E+04  0.10907815390E+04  0.50400001928E-02 0.  1.
    10030    2    1    2    0    0  0.00000000000E+00  0.00000000000E+00  0.22082178961E+04  0.43897809741E+04  0.37939360463E+04 0.  0.
        2    1    3    3  502    0 -0.13040214642E+04 -0.12563585932E+04  0.17582054376E+04  0.25239245738E+04  0.25500000920E-02 0. -1.
       -2    1    3    3    0  502  0.13040214642E+04  0.12563585932E+04  0.45001245853E+03  0.18658564003E+04  0.25500000920E-02 0.  1.
</event>
<event>
 5   0  0.1370688E-07  0.3811975E+04  0.7818609E-02  0.8043590E-01
        2   -1    0    0  501    0  0.00000000000E+00  0.00000000000E+00  0.27897090503E+04  0.27897090503E+04  0.25500000920E-02 0. -1.
       -2   -1    0    0    0  501  0.00000000000E+00  0.00000000000E+00 -0.13022104233E+04  0.13022104233E+04  0.25500000920E-02 0.  1.
    10030    2    1    2    0    0  0.00000000000E+00  0.00000000000E+00  0.14874986270E+04  0.40919194737E+04  0.38119749230E+04 0.  0.
        5    1    3    3  502    0 -0.11513503781E+04 -0.82544711541E+03  0.21124547725E+04  0.25435129033E+04  0.46999998093E+01 0. -1.
       -5    1    3    3    0  502  0.11513503781E+04  0.82544711541E+03 -0.62495614547E+03  0.15484065704E+04  0.46999998093E+01 0.  1.
</event>
<event>
 5   0  0.1370688E-07  0.3874177E+04  0.7818609E-02  0.8030422E-01
        2   -1    0    0  501    0  0.00000000000E+00  0.00000000000E+00  0.22022961976E+04  0.22022961976E+04  0.25500000920E-02 0. -1.
       -2   -1    0    0    0  501  0.00000000000E+00  0.00000000000E+00 -0.17038175803E+04  0.17038175803E+04  0.25500000920E-02 0.  1.
    10030    2    1    2    0    0  0.00000000000E+00  0.00000000000E+00  0.49847861725E+03  0.39061137779E+04  0.38741765466E+04 0.  0.
        5    1    3    3  502    0 -0.15322967020E+04 -0.69630497815E+03  0.12160577160E+04  0.20764373971E+04  0.46999998093E+01 0. -1.
       -5    1    3    3    0  502  0.15322967020E+04  0.69630497815E+03 -0.71757909873E+03  0.18296763808E+04  0.46999998093E+01 0.  1.
</event>
<event>
 5   0  0.2135314E-07  0.3813990E+04  0.7818609E-02  0.8043159E-01
        2   -1    0    0  501    0  0.00000000000E+00  0.00000000000E+00  0.20851077854E+04  0.20851077854E+04  0.25500000920E-02 0.  1.
       -2   -1    0    0    0  501  0.00000000000E+00  0.00000000000E+00 -0.17440972339E+04  0.17440972339E+04  0.25500000920E-02 0. -1.
    10030    2    1    2    0    0  0.00000000000E+00  0.00000000000E+00  0.34101055151E+03  0.38292050193E+04  0.38139904147E+04 0.  0.
        4    1    3    3  502    0  0.39314899247E+03  0.10797116896E+04 -0.13575007965E+04  0.17785256501E+04  0.12699999809E+01 0. -1.
       -4    1    3    3    0  502 -0.39314899247E+03 -0.10797116896E+04  0.16985113480E+04  0.20506793691E+04  0.12699999809E+01 0.  1.
</event>
<event>
 5   0  0.2135314E-07  0.3821149E+04  0.7818609E-02  0.8041632E-01
       -2   -1    0    0    0  501  0.00000000000E+00  0.00000000000E+00  0.13991879900E+04  0.13991879900E+04  0.25500000920E-02 0.  1.
        2   -1    0    0  501    0  0.00000000000E+00  0.00000000000E+00 -0.26088660235E+04  0.26088660235E+04  0.25500000920E-02 0. -1.
    10030    2    1    2    0    0  0.00000000000E+00  0.00000000000E+00 -0.12096780336E+04  0.40080540135E+04  0.38211485224E+04 0.  0.
        4    1    3    3  502    0 -0.40137287573E+03 -0.17913067961E+04 -0.11602801999E+04  0.21716657152E+04  0.12699999809E+01 0. -1.
       -4    1    3    3    0  502  0.40137287573E+03  0.17913067961E+04 -0.49397833688E+02  0.18363882983E+04  0.12699999809E+01 0.  1.
</event>
<event>
 5   0  0.6661000E-08  0.3784604E+04  0.7818609E-02  0.8049467E-01
       -1   -1    0    0    0  501  0.00000000000E+00  0.00000000000E+00  0.26133508779E+04  0.26133508779E+04  0.50400001928E-02 0. -1.
        1   -1    0    0  501    0  0.00000000000E+00  0.00000000000E+00 -0.13701978286E+04  0.13701978286E+04  0.50400001928E-02 0.  1.
    10030    2    1    2    0    0  0.00000000000E+00  0.00000000000E+00  0.12431530492E+04  0.39835487065E+04  0.37846044434E+04 0.  0.
        2    1    3    3  502    0 -0.15058528265E+04 -0.10952380725E+04  0.97644690676E+03  0.21025193774E+04  0.25500000920E-02 0.  1.
       -2    1    3    3    0  502  0.15058528265E+04  0.10952380725E+04  0.26670614246E+03  0.18810293291E+04  0.25500000920E-02 0. -1.
</event>
<event>
 5   0  0.2203998E-07  0.3628414E+04  0.7818609E-02  0.8084014E-01
       -2   -1    0    0    0  501  0.00000000000E+00  0.00000000000E+00  0.14895676295E+04  0.14895676295E+04  0.25500000920E-02 0. -1.
        2   -1    0    0  501    0  0.00000000000E+00  0.00000000000E+00 -0.22095983978E+04  0.22095983978E+04  0.25500000920E-02 0.  1.
    10030    2    1    2    0    0  0.00000000000E+00  0.00000000000E+00 -0.72003076837E+03  0.36991660273E+04  0.36284135638E+04 0.  0.
        3    1    3    3  502    0  0.33446328448E+03 -0.11455579121E+04 -0.17531075780E+04  0.21207439281E+04  0.10100000352E+00 0.  1.
       -3    1    3    3    0  502 -0.33446328448E+03  0.11455579121E+04  0.10330768096E+04  0.15784220992E+04  0.10100000352E+00 0. -1.
</event>
<event>
 5   0  0.6661000E-08  0.3787391E+04  0.7818609E-02  0.8048866E-01
        1   -1    0    0  501    0  0.00000000000E+00  0.00000000000E+00  0.13670997605E+04  0.13670997605E+04  0.50400001928E-02 0.  1.
       -1   -1    0    0    0  501  0.00000000000E+00  0.00000000000E+00 -0.26231314710E+04  0.26231314710E+04  0.50400001928E-02 0. -1.
    10030    2    1    2    0    0  0.00000000000E+00  0.00000000000E+00 -0.12560317104E+04  0.39902312315E+04  0.37873908728E+04 0.  0.
        4    1    3    3  502    0 -0.12821433434E+04 -0.11953462768E+04 -0.13828629982E+04  0.22327238878E+04  0.12699999809E+01 0. -1.
       -4    1    3    3    0  502  0.12821433434E+04  0.11953462768E+04  0.12683128774E+03  0.17575073437E+04  0.12699999809E+01 0.  1.
</event>
<event>
 5   0  0.2081337E-07  0.3794836E+04  0.7818609E-02  0.8047264E-01
       -2   -1    0    0    0  501  0.00000000000E+00  0.00000000000E+00  0.17915750841E+04  0.17915750841E+04  0.25500000920E-02 0.  1.
        2   -1    0    0  501    0  0.00000000000E+00  0.00000000000E+00 -0.20095144221E+04  0.20095144221E+04  0.25500000920E-02 0. -1.
    10030    2    1    2    0    0  0.00000000000E+00  0.00000000000E+00 -0.21793933808E+03  0.38010895062E+04  0.37948364759E+04 0.  0.
        1    1    3    3  502    0 -0.27733714671E+03  0.89757714199E+03  0.15422719316E+04  0.18058691342E+04  0.50400001928E-02 0.  1.
       -1    1    3    3    0  502  0.27733714671E+03 -0.89757714199E+03 -0.17602112697E+04  0.19952203720E+04  0.50400001928E-02 0. -1.
</event>
<event>
 5   0  0.2205204E-07  0.3798411E+04  0.7818609E-02  0.8046496E-01
        2   -1    0    0  501    0  0.00000000000E+00  0.00000000000E+00  0.25549933509E+04  0.25549933509E+04  0.25500000920E-02 0.  1.
       -2   -1    0    0    0  501  0.00000000000E+00  0.00000000000E+00 -0.14117380392E+04  0.14117380392E+04  0.25500000920E-02 0. -1.
    10030    2    1    2    0    0  0.00000000000E+00  0.00000000000E+00  0.11432553117E+04  0.39667313901E+04  0.37984108800E+04 0.  0.
        2    1    3    3  502    0  0.81814186092E+01 -0.16357360235E+04  0.15794209470E+04  0.22738227288E+04  0.25500000920E-02 0.  1.
       -2    1    3    3    0  502 -0.81814186092E+01  0.16357360235E+04 -0.43616563523E+03  0.16929086613E+04  0.25500000920E-02 0. -1.
</event>
<event>
 5   0  0.6661000E-08  0.3790337E+04  0.7818609E-02  0.8048232E-01
       -1   -1    0    0    0  501  0.00000000000E+00  0.00000000000E+00  0.20320749960E+04  0.20320749960E+04  0.50400001928E-02 0.  1.
        1   -1    0    0  501    0  0.00000000000E+00  0.00000000000E+00 -0.17674857245E+04  0.17674857245E+04  0.50400001928E-02 0. -1.
    10030    2    1    2    0    0  0.00000000000E+00  0.00000000000E+00  0.26458927148E+03  0.37995607206E+04  0.37903369490E+04 0.  0.
        4    1    3    3  502    0  0.11070741980E+04 -0.39600882372E+03  0.16222580695E+04  0.20035366544E+04  0.12699999809E+01 0.  1.
       -4    1    3    3    0  502 -0.11070741980E+04  0.39600882372E+03 -0.13576687980E+04  0.17960240662E+04  0.12699999809E+01 0. -1.
</event>
<event>
 5   0  0.6661000E-08  0.3698844E+04  0.7818609E-02  0.8068218E-01
       -1   -1    0    0    0  501  0.00000000000E+00  0.00000000000E+00  0.28814344836E+04  0.28814344836E+04  0.50400001928E-02 0. -1.
        1   -1    0    0  501    0  0.00000000000E+00  0.00000000000E+00 -0.11870343541E+04  0.11870343541E+04  0.50400001928E-02 0.  1.
    10030    2    1    2    0    0  0.00000000000E+00  0.00000000000E+00  0.16944001295E+04  0.40684688377E+04  0.36988439930E+04 0.  0.
        2    1    3    3  502    0  0.13169682853E+04 -0.69603173382E+03  0.20528636915E+04  0.25363586053E+04  0.25500000920E-02 0. -1.
       -2    1    3    3    0  502 -0.13169682853E+04  0.69603173382E+03 -0.35846356197E+03  0.15321102324E+04  0.25500000920E-02 0.  1.
</event>
<event>
 5   0  0.2135314E-07  0.3805278E+04  0.7818609E-02  0.8045023E-01
        2   -1    0    0  501    0  0.00000000000E+00  0.00000000000E+00  0.20555689402E+04  0.20555689402E+04  0.25500000920E-02 0. -1.
       -2   -1    0    0    0  501  0.00000000000E+00  0.00000000000E+00 -0.17610863062E+04  0.17610863062E+04  0.25500000920E-02 0.  1.
    10030    2    1    2    0    0  0.00000000000E+00  0.00000000000E+00  0.29448263397E+03  0.38166552463E+04  0.38052775520E+04 0.  0.
        4    1    3    3  502    0  0.20734338295E+02  0.18009055953E+04  0.76254262106E+03  0.19558025815E+04  0.12699999809E+01 0. -1.
       -4    1    3    3    0  502 -0.20734338295E+02 -0.18009055953E+04 -0.46805998709E+03  0.18608526649E+04  0.12699999809E+01 0.  1.
</event>
<event>
 5   0  0.2135314E-07  0.3768967E+04  0.7818609E-02  0.8052848E-01
       -2   -1    0    0    0  501  0.00000000000E+00  0.00000000000E+00  0.17666642539E+04  0.17666642539E+04  0.25500000920E-02 0. -1.
        2   -1    0    0  501    0  0.00000000000E+00  0.00000000000E+00 -0.20101597110E+04  0.20101597110E+04  0.25500000920E-02 0.  1.
    10030    2    1    2    0    0  0.00000000000E+00  0.00000000000E+00 -0.24349545708E+03  0.37768239648E+04  0.37689665989E+04 0.  0.
        4    1    3    3  502    0 -0.16747477004E+04 -0.76250112451E+03  0.28540939183E+03  0.18621621730E+04  0.12699999809E+01 0.  1.
       -4    1    3    3    0  502  0.16747477004E+04  0.76250112451E+03 -0.52890484891E+03  0.19146617918E+04  0.12699999809E+01 0. -1.
</event>
<event>
 5   0  0.6661000E-08  0.3801029E+04  0.7818609E-02  0.8045934E-01
       -1   -1    0    0    0  501  0.00000000000E+00  0.00000000000E+00  0.25149377372E+04  0.25149377372E+04  0.50400001928E-02 0. -1.
        1   -1    0    0  501    0  0.00000000000E+00  0.00000000000E+00 -0.14362004775E+04  0.14362004775E+04  0.50400001928E-02 0.  1.
    10030    2    1    2    0    0  0.00000000000E+00  0.00000000000E+00  0.10787372597E+04  0.39511382148E+04  0.38010286919E+04 0.  0.
        4    1    3    3  502    0 -0.14216022598E+04 -0.11823100851E+03  0.18447574724E+04  0.23319655447E+04  0.12699999809E+01 0. -1.
       -4    1    3    3    0  502  0.14216022598E+04  0.11823100851E+03 -0.76602021271E+03  0.16191726701E+04  0.12699999809E+01 0.  1.
</event>
<event>
 5   0  0.6661000E-08  0.3793777E+04  0.7818609E-02  0.8047492E-01
        1   -1    0    0  501    0  0.00000000000E+00  0.00000000000E+00  0.31479690551E+04  0.31479690551E+04  0.50400001928E-02 0. -1.
       -1   -1    0    0    0  501  0.00000000000E+00  0.00000000000E+00 -0.11430182678E+04  0.11430182678E+04  0.50400001928E-02 0.  1.
    10030    2    1    2    0    0  0.00000000000E+00  0.00000000000E+00  0.20049507873E+04  0.42909873229E+04  0.37937770817E+04 0.  0.
        2    1    3    3  502    0  0.12956750641E+04  0.89680753792E+03 -0.19193005543E+03  0.15874113449E+04  0.25500000920E-02 0.  1.
       -2    1    3    3    0  502 -0.12956750641E+04 -0.89680753792E+03  0.21968808427E+04  0.27035759780E+04  0.25500000920E-02 0. -1.
</event>
<event>
 5   0  0.1370688E-07  0.3768815E+04  0.7818609E-02  0.8052880E-01
        2   -1    0    0  501    0  0.00000000000E+00  0.00000000000E+00  0.18354955585E+04  0.18354955585E+04  0.25500000920E-02 0.  1.
       -2   -1    0    0    0  501  0.00000000000E+00  0.00000000000E+00 -0.19346225130E+04  0.19346225130E+04  0.25500000920E-02 0. -1.
    10030    2    1    2    0    0  0.00000000000E+00  0.00000000000E+00 -0.99126954519E+02  0.37701180715E+04  0.37688146837E+04 0.  0.
        5    1    3    3  502    0 -0.14223812750E+04  0.35030532596E+03  0.11362099629E+04  0.18538817337E+04  0.46999998093E+01 0.  1.
       -5    1    3    3    0  502  0.14223812750E+04 -0.35030532596E+03 -0.12353369174E+04  0.19162363378E+04  0.46999998093E+01 0. -1.
</event>
<event>
 5   0  0.1370688E-07  0.3419902E+04  0.7818609E-02  0.8133039E-01
        2   -1    0    0  501    0  0.00000000000E+00  0.00000000000E+00  0.17110014590E+04  0.17110014590E+04  0.25500000920E-02 0.  1.
       -2   -1    0    0    0  501  0.00000000000E+00  0.00000000000E+00 -0.17089009724E+04  0.17089009724E+04  0.25500000920E-02 0. -1.
    10030    2    1    2    0    0  0.00000000000E+00  0.00000000000E+00  0.21004866414E+01  0.34199024314E+04  0.34199017864E+04 0.  0.
        5    1    3    3  502    0 -0.15198954255E+04  0.77763845074E+03 -0.94376723385E+02  0.17098926050E+04  0.46999998093E+01 0. -1.
       -5    1    3    3    0  502  0.15198954255E+04 -0.77763845074E+03  0.96477210026E+02  0.17100098265E+04  0.46999998093E+01 0.  1.
</event>
<event>
 5   0  0.6661000E-08  0.3729928E+04  0.7818609E-02  0.8061362E-01
        1   -1    0    0  501    0  0.00000000000E+00  0.00000000000E+00  0.26384082967E+04  0.26384082967E+04  0.50400001928E-02 0. -1.
       -1   -1    0    0    0  501  0.00000000000E+00  0.00000000000E+00 -0.13182532066E+04  0.13182532066E+04  0.50400001928E-02 0.  1.
    10030    2    1    2    0    0  0.00000000000E+00  0.00000000000E+00  0.13201550900E+04  0.39566615033E+04  0.37299277191E+04 0.  0.
        3    1    3    3  502    0  0.56592578824E+03 -0.55879854368E+03  0.24494985736E+04  0.25753778524E+04  0.10100000352E+00 0. -1.
       -3    1    3    3    0  502 -0.56592578824E+03  0.55879854368E+03 -0.11293434836E+04  0.13812836509E+04  0.10100000352E+00 0.  1.
</event>
<event>
 5   0  0.2205204E-07  0.3346743E+04  0.7818609E-02  0.8151102E-01
       -2   -1    0    0    0  501  0.00000000000E+00  0.00000000000E+00  0.12071208191E+04  0.12071208191E+04  0.25500000920E-02 0. -1.
        2   -1    0    0  501    0  0.00000000000E+00  0.00000000000E+00 -0.23197122863E+04  0.23197122863E+04  0.25500000920E-02 0.  1.
    10030    2    1    2    0    0  0.00000000000E+00  0.00000000000E+00 -0.11125914672E+04  0.35268331054E+04  0.33467434889E+04 0.  0.
        2    1    3    3  502    0 -0.14274715548E+04 -0.46267886289E+03 -0.13367035108E+04  0.20096076845E+04  0.25500000920E-02 0.  1.
       -2    1    3    3    0  502  0.14274715548E+04  0.46267886289E+03  0.22411204361E+03  0.15172254209E+04  0.25500000920E-02 0. -1.
</event>
<event>
 5   0  0.6661000E-08  0.3681135E+04  0.7818609E-02  0.8072155E-01
       -1   -1    0    0    0  501  0.00000000000E+00  0.00000000000E+00  0.14292906277E+04  0.14292906277E+04  0.50400001928E-02 0. -1.
        1   -1    0    0  501    0  0.00000000000E+00  0.00000000000E+00 -0.23701890612E+04  0.23701890612E+04  0.50400001928E-02 0.  1.
    10030    2    1    2    0    0  0.00000000000E+00  0.00000000000E+00 -0.94089843355E+03  0.37994796889E+04  0.36811351570E+04 0.  0.
        4    1    3    3  502    0  0.93781844086E+03  0.27272030028E+03  0.11397717824E+04  0.15009867151E+04  0.12699999809E+01 0. -1.
       -4    1    3    3    0  502 -0.93781844086E+03 -0.27272030028E+03 -0.20806702159E+04  0.22984929738E+04  0.12699999809E+01 0.  1.
</event>
<event>
 5   0  0.2203998E-07  0.3785417E+04  0.7818609E-02  0.8049292E-01
        2   -1    0    0  501    0  0.00000000000E+00  0.00000000000E+00  0.29639343112E+04  0.29639343112E+04  0.25500000920E-02 0.  1.
       -2   -1    0    0    0  501  0.00000000000E+00  0.00000000000E+00 -0.12086450948E+04  0.12086450948E+04  0.25500000920E-02 0. -1.
    10030    2    1    2    0    0  0.00000000000E+00  0.00000000000E+00  0.17552892163E+04  0.41725794060E+04  0.37854165777E+04 0.  0.
        3    1    3    3  502    0  0.10947375285E+03 -0.15872538618E+04  0.20076727470E+04  0.25616614128E+04  0.10100000352E+00 0.  1.
       -3    1    3    3    0  502 -0.10947375285E+03  0.15872538618E+04 -0.25238353067E+03  0.16109179933E+04  0.10100000352E+00 0. -1.
</event>
<event>
 5   0  0.1370688E-07  0.3807141E+04  0.7818609E-02  0.8044624E-01
        2   -1    0    0  501    0  0.00000000000E+00  0.00000000000E+00  0.30565884028E+04  0.30565884028E+04  0.25500000920E-02 0.  1.
       -2   -1    0    0    0  501  0.00000000000E+00  0.00000000000E+00 -0.11854981929E+04  0.11854981929E+04  0.25500000920E-02 0. -1.
    10030    2    1    2    0    0  0.00000000000E+00  0.00000000000E+00  0.18710902099E+04  0.42420865957E+04  0.38071406741E+04 0.  0.
        5    1    3    3  502    0 -0.61346189253E+02 -0.14839651242E+04 -0.39112794033E+03  0.15358772739E+04  0.46999998093E+01 0. -1.
       -5    1    3    3    0  502  0.61346189253E+02  0.14839651242E+04  0.22622181502E+04  0.27062093219E+04  0.46999998093E+01 0.  1.
</event>
<event>
 5   0  0.2205204E-07  0.3786223E+04  0.7818609E-02  0.8049118E-01
       -2   -1    0    0    0  501  0.00000000000E+00  0.00000000000E+00  0.17416010223E+04  0.17416010223E+04  0.25500000920E-02 0.  1.
        2   -1    0    0  501    0  0.00000000000E+00  0.00000000000E+00 -0.20578023115E+04  0.20578023115E+04  0.25500000920E-02 0. -1.
    10030    2    1    2    0    0  0.00000000000E+00  0.00000000000E+00 -0.31620128911E+03  0.37994033338E+04  0.37862227137E+04 0.  0.
        2    1    3    3  502    0 -0.58398968492E+03 -0.42753512912E+02 -0.19646452021E+04  0.20500494104E+04  0.25500000920E-02 0. -1.
       -2    1    3    3    0  502  0.58398968492E+03  0.42753512912E+02  0.16484439130E+04  0.17493539234E+04  0.25500000920E-02 0.  1.
</event>
<event>
 5   0  0.6661000E-08  0.3711169E+04  0.7818609E-02  0.8065491E-01
        1   -1    0    0  501    0  0.00000000000E+00  0.00000000000E+00  0.20360972081E+04  0.20360972081E+04  0.50400001928E-02 0. -1.
       -1   -1    0    0    0  501  0.00000000000E+00  0.00000000000E+00 -0.16910752769E+04  0.16910752769E+04  0.50400001928E-02 0.  1.
    10030    2    1    2    0    0  0.00000000000E+00  0.00000000000E+00  0.34502193115E+03  0.37271724850E+04  0.37111688994E+04 0.  0.
        1    1    3    3  502    0 -0.10991653533E+04  0.14930063476E+04  0.94969068035E+02  0.18564082395E+04  0.50400001928E-02 0. -1.
       -1    1    3    3    0  502  0.10991653533E+04 -0.14930063476E+04  0.25005286311E+03  0.18707642455E+04  0.50400001928E-02 0.  1.
</event>
<event>
 5   0  0.2205204E-07  0.3805842E+04  0.7818609E-02  0.8044902E-01
        2   -1    0    0  501    0  0.00000000000E+00  0.00000000000E+00  0.11249423346E+04  0.11249423346E+04  0.25500000920E-02 0. -1.
       -2   -1    0    0    0  501  0.00000000000E+00  0.00000000000E+00 -0.32189275913E+04  0.32189275913E+04  0.25500000920E-02 0.  1.
    10030    2    1    2    0    0  0.00000000000E+00  0.00000000000E+00 -0.20939852566E+04  0.43438699259E+04  0.38058417831E+04 0.  0.
        2    1    3    3  502    0 -0.86980788215E+03  0.15815585404E+03 -0.29703023572E+04  0.30990764945E+04  0.25500000920E-02 0.  1.
       -2    1    3    3    0  502  0.86980788215E+03 -0.15815585404E+03  0.87631710054E+03  0.12447934313E+04  0.25500000920E-02 0. -1.
</event>
<event>
 5   0  0.6661000E-08  0.3807448E+04  0.7818609E-02  0.8044558E-01
       -1   -1    0    0    0  501  0.00000000000E+00  0.00000000000E+00  0.12953778980E+04  0.12953778980E+04  0.50400001928E-02 0.  1.
        1   -1    0    0  501    0  0.00000000000E+00  0.00000000000E+00 -0.27977673429E+04  0.27977673429E+04  0.50400001928E-02 0. -1.
    10030    2    1    2    0    0  0.00000000000E+00  0.00000000000E+00 -0.15023894449E+04  0.40931452410E+04  0.38074484789E+04 0.  0.
        3    1    3    3  502    0  0.85786340208E+03 -0.55438605821E+03 -0.24782572997E+04  0.26804911438E+04  0.10100000352E+00 0. -1.
       -3    1    3    3    0  502 -0.85786340208E+03  0.55438605821E+03  0.97586785477E+03  0.14126540972E+04  0.10100000352E+00 0.  1.
</event>
<event>
 5   0  0.6661000E-08  0.3783331E+04  0.7818609E-02  0.8049741E-01
        1   -1    0    0  501    0  0.00000000000E+00  0.00000000000E+00  0.17494005918E+04  0.17494005918E+04  0.50400001928E-02 0. -1.
       -1   -1    0    0    0  501  0.00000000000E+00  0.00000000000E+00 -0.20454996124E+04  0.20454996124E+04  0.50400001928E-02 0.  1.
    10030    2    1    2    0    0  0.00000000000E+00  0.00000000000E+00 -0.29609902057E+03  0.37949002042E+04  0.37833309305E+04 0.  0.
        4    1    3    3  502    0 -0.27688184868E+03 -0.18633663744E+04 -0.32061867612E+03  0.19109148991E+04  0.12699999809E+01 0.  1.
       -4    1    3    3    0  502  0.27688184868E+03  0.18633663744E+04  0.24519655541E+02  0.18839853051E+04  0.12699999809E+01 0. -1.
</event>
<event>
 5   0  0.2203998E-07  0.3786065E+04  0.7818609E-02  0.8049152E-01
       -2   -1    0    0    0  501  0.00000000000E+00  0.00000000000E+00  0.23342211436E+04  0.23342211436E+04  0.25500000920E-02 0. -1.
        2   -1    0    0  501    0  0.00000000000E+00  0.00000000000E+00 -0.15352320505E+04  0.15352320505E+04  0.25500000920E-02 0.  1.
    10030    2    1    2    0    0  0.00000000000E+00  0.00000000000E+00  0.79898909301E+03  0.38694531941E+04  0.37860645069E+04 0.  0.
        3    1    3    3  502    0 -0.37893359521E+03  0.14581744124E+03  0.22891960524E+04  0.23249240789E+04  0.10100000352E+00 0. -1.
       -3    1    3    3    0  502  0.37893359521E+03 -0.14581744124E+03 -0.14902069594E+04  0.15445291153E+04  0.10100000352E+00 0.  1.
</event>
<event>
 5   0  0.6661000E-08  0.3791873E+04  0.7818609E-02  0.8047901E-01
        1   -1    0    0  501    0  0.00000000000E+00  0.00000000000E+00  0.20277765228E+04  0.20277765228E+04  0.50400001928E-02 0. -1.
       -1   -1    0    0    0  501  0.00000000000E+00  0.00000000000E+00 -0.17726683175E+04  0.17726683175E+04  0.50400001928E-02 0.  1.
    10030    2    1    2    0    0  0.00000000000E+00  0.00000000000E+00  0.25510820532E+03  0.38004448403E+04  0.37918729920E+04 0.  0.
        1    1    3    3  502    0  0.59362015464E+03  0.17778350877E+04  0.41366870992E+03  0.19194281150E+04  0.50400001928E-02 0.  1.
       -1    1    3    3    0  502 -0.59362015464E+03 -0.17778350877E+04 -0.15856050460E+03  0.18810167253E+04  0.50400001928E-02 0. -1.
</event>
<event>
 5   0  0.6661000E-08  0.3699123E+04  0.7818609E-02  0.8068156E-01
       -1   -1    0    0    0  501  0.00000000000E+00  0.00000000000E+00  0.11141029020E+04  0.11141029020E+04  0.50400001928E-02 0.  1.
        1   -1    0    0  501    0  0.00000000000E+00  0.00000000000E+00 -0.30705217241E+04  0.30705217242E+04  0.50400001928E-02 0. -1.
    10030    2    1    2    0    0  0.00000000000E+00  0.00000000000E+00 -0.19564188221E+04  0.41846246262E+04  0.36991226871E+04 0.  0.
        2    1    3    3  502    0  0.71246401137E+03 -0.71679066874E+03  0.77412358920E+03  0.12730519085E+04  0.25500000920E-02 0.  1.
       -2    1    3    3    0  502 -0.71246401137E+03  0.71679066874E+03 -0.27305424113E+04  0.29115727177E+04  0.25500000920E-02 0. -1.
</event>
<event>
 5   0  0.6661000E-08  0.3791807E+04  0.7818609E-02  0.8047915E-01
       -1   -1    0    0    0  501  0.00000000000E+00  0.00000000000E+00  0.21394416472E+04  0.21394416472E+04  0.50400001928E-02 0.  1.
        1   -1    0    0  501    0  0.00000000000E+00  0.00000000000E+00 -0.16800881473E+04  0.16800881473E+04  0.50400001928E-02 0. -1.
    10030    2    1    2    0    0  0.00000000000E+00  0.00000000000E+00  0.45935349993E+03  0.38195297946E+04  0.37918072490E+04 0.  0.
        2    1    3    3  502    0 -0.91220811713E+03  0.16212274167E+04  0.59834241040E+03  0.19541022557E+04  0.25500000920E-02 0.  1.
       -2    1    3    3    0  502  0.91220811713E+03 -0.16212274167E+04 -0.13898891047E+03  0.18654275389E+04  0.25500000920E-02 0. -1.
</event>
<event>
 5   0  0.2135314E-07  0.3372868E+04  0.7818609E-02  0.8144598E-01
        2   -1    0    0  501    0  0.00000000000E+00  0.00000000000E+00  0.17116152405E+04  0.17116152405E+04  0.25500000920E-02 0.  1.
       -2   -1    0    0    0  501  0.00000000000E+00  0.00000000000E+00 -0.16616236699E+04  0.16616236699E+04  0.25500000920E-02 0. -1.
    10030    2    1    2    0    0  0.00000000000E+00  0.00000000000E+00  0.49991570631E+02  0.33732389104E+04  0.33728684513E+04 0.  0.
        4    1    3    3  502    0 -0.23137192871E+03  0.54104430992E+03  0.16056113588E+04  0.17100442577E+04  0.12699999809E+01 0.  1.
       -4    1    3    3    0  502  0.23137192871E+03 -0.54104430992E+03 -0.15556197882E+04  0.16631946528E+04  0.12699999809E+01 0. -1.
</event>
<event>
 5   0  0.6661000E-08  0.3829847E+04  0.7818609E-02  0.8039780E-01
        1   -1    0    0  501    0  0.00000000000E+00  0.00000000000E+00  0.19841054199E+04  0.19841054199E+04  0.50400001928E-02 0. -1.
       -1   -1    0    0    0  501  0.00000000000E+00  0.00000000000E+00 -0.18481542625E+04  0.18481542625E+04  0.50400001928E-02 0.  1.
    10030    2    1    2    0    0  0.00000000000E+00  0.00000000000E+00  0.13595115738E+03  0.38322596824E+04  0.38298474586E+04 0.  0.
        4    1    3    3  502    0 -0.16368102886E+04 -0.71578676741E+03 -0.62197496191E+03  0.18916535316E+04  0.12699999809E+01 0. -1.
       -4    1    3    3    0  502  0.16368102886E+04  0.71578676741E+03  0.75792611929E+03  0.19406061508E+04  0.12699999809E+01 0.  1.
</event>
<event>
 5   0  0.6661000E-08  0.3350015E+04  0.7818609E-02  0.8150284E-01
        1   -1    0    0  501    0  0.00000000000E+00  0.00000000000E+00  0.20354683111E+04  0.20354683111E+04  0.50400001928E-02 0. -1.
       -1   -1    0    0    0  501  0.00000000000E+00  0.00000000000E+00 -0.13783805227E+04  0.13783805227E+04  0.50400001928E-02 0.  1.
    10030    2    1    2    0    0  0.00000000000E+00  0.00000000000E+00  0.65708778837E+03  0.34138488338E+04  0.33500148505E+04 0.  0.
        4    1    3    3  502    0 -0.15252236938E+04  0.57241946121E+03 -0.68334342662E+02  0.16305344373E+04  0.12699999809E+01 0. -1.
       -4    1    3    3    0  502  0.15252236938E+04 -0.57241946121E+03  0.72542213103E+03  0.17833143965E+04  0.12699999809E+01 0.  1.
</event>
<event>
 5   0  0.1370688E-07  0.3781734E+04  0.7818609E-02  0.8050086E-01
       -2   -1    0    0    0  501  0.00000000000E+00  0.00000000000E+00  0.15725549508E+04  0.15725549508E+04  0.25500000920E-02 0.  1.
        2   -1    0    0  501    0  0.00000000000E+00  0.00000000000E+00 -0.22736104136E+04  0.22736104136E+04  0.25500000920E-02 0. -1.
    10030    2    1    2    0    0  0.00000000000E+00  0.00000000000E+00 -0.70105546276E+03  0.38461653645E+04  0.37817336301E+04 0.  0.
        5    1    3    3  502    0  0.18173965199E+04  0.42994397327E+03 -0.49557977315E+02  0.18682237591E+04  0.46999998093E+01 0.  1.
       -5    1    3    3    0  502 -0.18173965199E+04 -0.42994397327E+03 -0.65149748544E+03  0.19779416054E+04  0.46999998093E+01 0. -1.
</event>
<event>
 5   0  0.2081337E-07  0.3823629E+04  0.7818609E-02  0.8041103E-01
       -2   -1    0    0    0  501  0.00000000000E+00  0.00000000000E+00  0.18528834092E+04  0.18528834092E+04  0.25500000920E-02 0. -1.
        2   -1    0    0  501    0  0.00000000000E+00  0.00000000000E+00 -0.19726200248E+04  0.19726200248E+04  0.25500000920E-02 0.  1.
    10030    2    1    2    0    0  0.00000000000E+00  0.00000000000E+00 -0.11973661562E+03  0.38255034340E+04  0.38236291225E+04 0.  0.
        1    1    3    3  502    0 -0.11052842845E+04  0.11781586963E+04  0.96304357631E+03  0.18807350141E+04  0.50400001928E-02 0. -1.
       -1    1    3    3    0  502  0.11052842845E+04 -0.11781586963E+04 -0.10827801919E+04  0.19447684200E+04  0.50400001928E-02 0.  1.
</event>
<event>
 5   0  0.2081337E-07  0.3823514E+04  0.7818609E-02  0.8041128E-01
        2   -1    0    0  501    0  0.00000000000E+00  0.00000000000E+00  0.22016979457E+04  0.22016979457E+04  0.25500000920E-02 0.  1.
       -2   -1    0    0    0  501  0.00000000000E+00  0.00000000000E+00 -0.16599984786E+04  0.16599984786E+04  0.25500000920E-02 0. -1.
    10030    2    1    2    0    0  0.00000000000E+00  0.00000000000E+00  0.54169946716E+03  0.38616964243E+04  0.38235142161E+04 0.  0.
        1    1    3    3  502    0  0.82050354968E+03  0.25220468120E+03  0.19961183501E+04  0.21728602679E+04  0.50400001928E-02 0.  1.
       -1    1    3    3    0  502 -0.82050354968E+03 -0.25220468120E+03 -0.14544188829E+04  0.16888361564E+04  0.50400001928E-02 0. -1.
</event>
<event>
 5   0  0.6661000E-08  0.3768824E+04  0.7818609E-02  0.8052878E-01
        1   -1    0    0  501    0  0.00000000000E+00  0.00000000000E+00  0.27367877688E+04  0.27367877688E+04  0.50400001928E-02 0. -1.
       -1   -1    0    0    0  501  0.00000000000E+00  0.00000000000E+00 -0.12975099360E+04  0.12975099360E+04  0.50400001928E-02 0.  1.
    10030    2    1    2    0    0  0.00000000000E+00  0.00000000000E+00  0.14392778328E+04  0.40342977048E+04  0.37688243911E+04 0.  0.
        1    1    3    3  502    0 -0.15334039968E+04 -0.76825131939E+03 -0.11603858922E+03  0.17190121760E+04  0.50400001928E-02 0.  1.
       -1    1    3    3    0  502  0.15334039968E+04  0.76825131939E+03  0.15553164220E+04  0.23152855288E+04  0.50400001928E-02 0. -1.
</event>
<event>
 5   0  0.1370688E-07  0.3753363E+04  0.7818609E-02  0.8056238E-01
        2   -1    0    0  501    0  0.00000000000E+00  0.00000000000E+00  0.12833698723E+04  0.12833698723E+04  0.25500000920E-02 0.  1.
       -2   -1    0    0    0  501  0.00000000000E+00  0.00000000000E+00 -0.27442850247E+04  0.27442850247E+04  0.25500000920E-02 0. -1.
    10030    2    1    2    0    0  0.00000000000E+00  0.00000000000E+00 -0.14609151524E+04  0.40276548970E+04  0.37533626106E+04 0.  0.
        5    1    3    3  502    0  0.12270557198E+04  0.13310111369E+04 -0.12612297011E+04  0.22063496629E+04  0.46999998093E+01 0.  1.
       -5    1    3    3    0  502 -0.12270557198E+04 -0.13310111369E+04 -0.19968545130E+03  0.18213052341E+04  0.46999998093E+01 0. -1.
</event>
<event>
 5   0  0.2205204E-07  0.3712065E+04  0.7818609E-02  0.8065293E-01
        2   -1    0    0  501    0  0.00000000000E+00  0.00000000000E+00  0.26161115944E+04  0.26161115944E+04  0.25500000920E-02 0. -1.
       -2   -1    0    0    0  501  0.00000000000E+00  0.00000000000E+00 -0.13167847093E+04  0.13167847093E+04  0.25500000920E-02 0.  1.
    10030    2    1    2    0    0  0.00000000000E+00  0.00000000000E+00  0.12993268851E+04  0.39328963036E+04  0.37120645173E+04 0.  0.
        2    1    3    3  502    0  0.12841564298E+04 -0.50983090991E+03  0.19626923047E+04  0.24002388165E+04  0.25500000920E-02 0. -1.
       -2    1    3    3    0  502 -0.12841564298E+04  0.50983090991E+03 -0.66336541966E+03  0.15326574872E+04  0.25500000920E-02 0.  1.
</event>
<event>
 5   0  0.6725199E-08  0.3775842E+04  0.7818609E-02  0.8051359E-01
        1   -1    0    0  501    0  0.00000000000E+00  0.00000000000E+00  0.12142679779E+04  0.12142679779E+04  0.50400001928E-02 0.  1.
       -1   -1    0    0    0  501  0.00000000000E+00  0.00000000000E+00 -0.29353033934E+04  0.29353033934E+04  0.50400001928E-02 0. -1.
    10030    2    1    2    0    0  0.00000000000E+00  0.00000000000E+00 -0.17210354154E+04  0.41495713713E+04  0.37758415836E+04 0.  0.
        5    1    3    3  502    0  0.73062320519E+03  0.55585657915E+03  0.95244361100E+03  0.13228596776E+04  0.46999998093E+01 0.  1.
       -5    1    3    3    0  502 -0.73062320519E+03 -0.55585657915E+03 -0.26734790264E+04  0.28267116937E+04  0.46999998093E+01 0. -1.
</event>
<event>
 5   0  0.2081337E-07  0.3845902E+04  0.7818609E-02  0.8036375E-01
       -2   -1    0    0    0  501  0.00000000000E+00  0.00000000000E+00  0.21403589391E+04  0.21403589391E+04  0.25500000920E-02 0. -1.
        2   -1    0    0  501    0  0.00000000000E+00  0.00000000000E+00 -0.17276266972E+04  0.17276266972E+04  0.25500000920E-02 0.  1.
    10030    2    1    2    0    0  0.00000000000E+00  0.00000000000E+00  0.41273224197E+03  0.38679856363E+04  0.38459023621E+04 0.  0.
        1    1    3    3  502    0 -0.15514270336E+04  0.10228955696E+03 -0.93165764796E+03  0.18125603347E+04  0.50400001928E-02 0.  1.
       -1    1    3    3    0  502  0.15514270336E+04 -0.10228955696E+03  0.13443898899E+04  0.20554253015E+04  0.50400001928E-02 0. -1.
</event>
<event>
 5   0  0.2135314E-07  0.3787616E+04  0.7818609E-02  0.8048818E-01
        2   -1    0    0  501    0  0.00000000000E+00  0.00000000000E+00  0.22623074446E+04  0.22623074446E+04  0.25500000920E-02 0.  1.
       -2   -1    0    0    0  501  0.00000000000E+00  0.00000000000E+00 -0.15853325458E+04  0.15853325458E+04  0.25500000920E-02 0. -1.
    10030    2    1    2    0    0  0.00000000000E+00  0.00000000000E+00  0.67697489886E+03  0.38476399904E+04  0.37876164645E+04 0.  0.
        4    1    3    3  502    0 -0.17881669633E+04 -0.81959317140E+02  0.96654862521E+03  0.20343245258E+04  0.12699999809E+01 0.  1.
       -4    1    3    3    0  502  0.17881669633E+04  0.81959317140E+02 -0.28957372634E+03  0.18133154646E+04  0.12699999809E+01 0. -1.
</event>
<event>
 5   0  0.2081337E-07  0.3752350E+04  0.7818609E-02  0.8056458E-01
       -2   -1    0    0    0  501  0.00000000000E+00  0.00000000000E+00  0.14086690497E+04  0.14086690497E+04  0.25500000920E-02 0.  1.
        2   -1    0    0  501    0  0.00000000000E+00  0.00000000000E+00 -0.24988362780E+04  0.24988362780E+04  0.25500000920E-02 0. -1.
    10030    2    1    2    0    0  0.00000000000E+00  0.00000000000E+00 -0.10901672284E+04  0.39075053277E+04  0.37523503701E+04 0.  0.
        1    1    3    3  502    0 -0.13092422414E+04  0.63374576642E+03 -0.17791079618E+04  0.22980370064E+04  0.50400001928E-02 0. -1.
       -1    1    3    3    0  502  0.13092422414E+04 -0.63374576642E+03  0.68894073344E+03  0.16094683213E+04  0.50400001928E-02 0.  1.
</event>
<event>
 5   0  0.2205204E-07  0.3749780E+04  0.7818609E-02  0.8057019E-01
        2   -1    0    0  501    0  0.00000000000E+00  0.00000000000E+00  0.18213130056E+04  0.18213130056E+04  0.25500000920E-02 0.  1.
       -2   -1    0    0    0  501  0.00000000000E+00  0.00000000000E+00 -0.19300434450E+04  0.19300434450E+04  0.25500000920E-02 0. -1.
    10030    2    1    2    0    0  0.00000000000E+00  0.00000000000E+00 -0.10873043944E+03  0.37513564506E+04  0.37497803817E+04 0.  0.
        2    1    3    3  502    0 -0.18193350493E+04  0.37724270035E+03 -0.30531153833E+03  0.18829517286E+04  0.25500000920E-02 0.  1.
       -2    1    3    3    0  502  0.18193350493E+04 -0.37724270035E+03  0.19658109889E+03  0.18684047220E+04  0.25500000920E-02 0. -1.
</event>
<event>
 5   0  0.6661000E-08  0.3791934E+04  0.7818609E-02  0.8047888E-01
       -1   -1    0    0    0  501  0.00000000000E+00  0.00000000000E+00  0.27034391056E+04  0.27034391056E+04  0.50400001928E-02 0.  1.
        1   -1    0    0  501    0  0.00000000000E+00  0.00000000000E+00 -0.13296736708E+04  0.13296736708E+04  0.50400001928E-02 0. -1.
    10030    2    1    2    0    0  0.00000000000E+00  0.00000000000E+00  0.13737654348E+04  0.40331127764E+04  0.37919344928E+04 0.  0.
        2    1    3    3  502    0 -0.11809604186E+04  0.13862125677E+04  0.12564793617E+03  0.18253876841E+04  0.25500000920E-02 0. -1.
       -2    1    3    3    0  502  0.11809604186E+04 -0.13862125677E+04  0.12481174986E+04  0.22077250924E+04  0.25500000920E-02 0.  1.
</event>
<event>
 5   0  0.6661000E-08  0.3815692E+04  0.7818609E-02  0.8042796E-01
        1   -1    0    0  501    0  0.00000000000E+00  0.00000000000E+00  0.10864945309E+04  0.10864945309E+04  0.50400001928E-02 0. -1.
       -1   -1    0    0    0  501  0.00000000000E+00  0.00000000000E+00 -0.33501102035E+04  0.33501102035E+04  0.50400001928E-02 0.  1.
    10030    2    1    2    0    0  0.00000000000E+00  0.00000000000E+00 -0.22636156726E+04  0.44366047344E+04  0.38156920285E+04 0.  0.
        2    1    3    3  502    0  0.14443878678E+04 -0.10934118368E+04 -0.18275715736E+04  0.25732904255E+04  0.25500000920E-02 0.  1.
       -2    1    3    3    0  502 -0.14443878678E+04  0.10934118368E+04 -0.43604409908E+03  0.18633143089E+04  0.25500000920E-02 0. -1.
</event>
<event>
 5   0  0.2081337E-07  0.3798667E+04  0.7818609E-02  0.8046441E-01
        2   -1    0    0  501    0  0.00000000000E+00  0.00000000000E+00  0.17059015424E+04  0.17059015424E+04  0.25500000920E-02 0.  1.
       -2   -1    0    0    0  501  0.00000000000E+00  0.00000000000E+00 -0.21146982995E+04  0.21146982995E+04  0.25500000920E-02 0. -1.
    10030    2    1    2    0    0  0.00000000000E+00  0.00000000000E+00 -0.40879675709E+03  0.38205998418E+04  0.37986666559E+04 0.  0.
        1    1    3    3  502    0  0.12924248677E+04 -0.95589875982E+03 -0.12218532186E+04  0.20191656112E+04  0.50400001928E-02 0. -1.
       -1    1    3    3    0  502 -0.12924248677E+04  0.95589875982E+03  0.81305646155E+03  0.18014342306E+04  0.50400001928E-02 0.  1.
</event>
<event>
 5   0  0.6661000E-08  0.3802986E+04  0.7818609E-02  0.8045514E-01
        1   -1    0    0  501    0  0.00000000000E+00  0.00000000000E+00  0.23392140176E+04  0.23392140176E+04  0.50400001928E-02 0. -1.
       -1   -1    0    0    0  501  0.00000000000E+00  0.00000000000E+00 -0.15456798155E+04  0.15456798155E+04  0.50400001928E-02 0.  1.
    10030    2    1    2    0    0  0.00000000000E+00  0.00000000000E+00  0.79353420214E+03  0.38848938331E+04  0.38029861378E+04 0.  0.
        1    1    3    3  502    0  0.16390602334E+04 -0.85161950340E+03 -0.64513081924E+02  0.18482251391E+04  0.50400001928E-02 0.  1.
       -1    1    3    3    0  502 -0.16390602334E+04  0.85161950340E+03  0.85804728406E+03  0.20366686939E+04  0.50400001928E-02 0. -1.
</event>
<event>
 5   0  0.6725199E-08  0.3718396E+04  0.7818609E-02  0.8063897E-01
       -1   -1    0    0    0  501  0.00000000000E+00  0.00000000000E+00  0.12416177972E+04  0.12416177972E+04  0.50400001928E-02 0.  1.
        1   -1    0    0  501    0  0.00000000000E+00  0.00000000000E+00 -0.27839625765E+04  0.27839625765E+04  0.50400001928E-02 0. -1.
    10030    2    1    2    0    0  0.00000000000E+00  0.00000000000E+00 -0.15423447793E+04  0.40255803737E+04  0.37183961497E+04 0.  0.
        5    1    3    3  502    0 -0.97377725015E+03  0.87864550005E+03 -0.21977310946E+04  0.25593561889E+04  0.46999998093E+01 0. -1.
       -5    1    3    3    0  502  0.97377725015E+03 -0.87864550005E+03  0.65538631526E+03  0.14662241847E+04  0.46999998093E+01 0.  1.
</event>
<event>
 5   0  0.2203998E-07  0.3784264E+04  0.7818609E-02  0.8049540E-01
       -2   -1    0    0    0  501  0.00000000000E+00  0.00000000000E+00  0.14304757662E+04  0.14304757662E+04  0.25500000920E-02 0. -1.
        2   -1    0    0  501    0  0.00000000000E+00  0.00000000000E+00 -0.25027785066E+04  0.25027785066E+04  0.25500000920E-02 0.  1.
    10030    2    1    2    0    0  0.00000000000E+00  0.00000000000E+00 -0.10723027405E+04  0.39332542728E+04  0.37842642623E+04 0.  0.
        3    1    3    3  502    0  0.14129839871E+04 -0.18957631653E+03 -0.18291977637E+04  0.23191436774E+04  0.10100000352E+00 0.  1.
       -3    1    3    3    0  502 -0.14129839871E+04  0.18957631653E+03  0.75689502321E+03  0.16141105954E+04  0.10100000352E+00 0. -1.
</event>
<event>
 5   0  0.6661000E-08  0.3641150E+04  0.7818609E-02  0.8081130E-01
        1   -1    0    0  501    0  0.00000000000E+00  0.00000000000E+00  0.16572414352E+04  0.16572414352E+04  0.50400001928E-02 0. -1.
       -1   -1    0    0    0  501  0.00000000000E+00  0.00000000000E+00 -0.20000060451E+04  0.20000060451E+04  0.50400001928E-02 0.  1.
    10030    2    1    2    0    0  0.00000000000E+00  0.00000000000E+00 -0.34276460986E+03  0.36572474803E+04  0.36411497572E+04 0.  0.
        2    1    3    3  502    0 -0.38526595114E+03 -0.15233075070E+04  0.75224676904E+03  0.17420593605E+04  0.25500000920E-02 0. -1.
       -2    1    3    3    0  502  0.38526595114E+03  0.15233075070E+04 -0.10950113789E+04  0.19151881197E+04  0.25500000920E-02 0.  1.
</event>
<event>
 5   0  0.2205204E-07  0.3777230E+04  0.7818609E-02  0.8051059E-01
       -2   -1    0    0    0  501  0.00000000000E+00  0.00000000000E+00  0.20762203518E+04  0.20762203518E+04  0.25500000920E-02 0.  1.
        2   -1    0    0  501    0  0.00000000000E+00  0.00000000000E+00 -0.17179611185E+04  0.17179611185E+04  0.25500000920E-02 0. -1.
    10030    2    1    2    0    0  0.00000000000E+00  0.00000000000E+00  0.35825923334E+03  0.37941814703E+04  0.37772295868E+04 0.  0.
        2    1    3    3  502    0  0.19471823295E+03  0.16216305818E+04  0.11316812763E+04  0.19870338309E+04  0.25500000920E-02 0.  1.
       -2    1    3    3    0  502 -0.19471823295E+03 -0.16216305818E+04 -0.77342204293E+03  0.18071476394E+04  0.25500000920E-02 0. -1.
</event>
<event>
 5   0  0.6661000E-08  0.3790366E+04  0.7818609E-02  0.8048225E-01
       -1   -1    0    0    0  501  0.00000000000E+00  0.00000000000E+00  0.21164490031E+04  0.21164490031E+04  0.50400001928E-02 0.  1.
        1   -1    0    0  501    0  0.00000000000E+00  0.00000000000E+00 -0.16970493730E+04  0.16970493730E+04  0.50400001928E-02 0. -1.
    10030    2    1    2    0    0  0.00000000000E+00  0.00000000000E+00  0.41939963012E+03  0.38134983761E+04  0.37903659209E+04 0.  0.
        4    1    3    3  502    0 -0.10910595918E+04  0.90907613635E+02  0.17660866642E+04  0.20779169727E+04  0.12699999809E+01 0.  1.
       -4    1    3    3    0  502  0.10910595918E+04 -0.90907613635E+02 -0.13466870341E+04  0.17355814034E+04  0.12699999809E+01 0. -1.
</event>
<event>
 5   0  0.6661000E-08  0.3814901E+04  0.7818609E-02  0.8042965E-01
       -1   -1    0    0    0  501  0.00000000000E+00  0.00000000000E+00  0.16094894365E+04  0.16094894365E+04  0.50400001928E-02 0. -1.
        1   -1    0    0  501    0  0.00000000000E+00  0.00000000000E+00 -0.22605719144E+04  0.22605719144E+04  0.50400001928E-02 0.  1.
    10030    2    1    2    0    0  0.00000000000E+00  0.00000000000E+00 -0.65108247792E+03  0.38700613508E+04  0.38149005841E+04 0.  0.
        1    1    3    3  502    0  0.47049318196E+02 -0.18951530801E+04 -0.53965652008E+03  0.19710525095E+04  0.50400001928E-02 0. -1.
       -1    1    3    3    0  502 -0.47049318196E+02  0.18951530801E+04 -0.11142595784E+03  0.18990088414E+04  0.50400001928E-02 0.  1.
</event>
<event>
 5   0  0.1370688E-07  0.3799034E+04  0.7818609E-02  0.8046362E-01
       -2   -1    0    0    0  501  0.00000000000E+00  0.00000000000E+00  0.25089705676E+04  0.25089705676E+04  0.25500000920E-02 0.  1.
        2   -1    0    0  501    0  0.00000000000E+00  0.00000000000E+00 -0.14381057870E+04  0.14381057870E+04  0.25500000920E-02 0. -1.
    10030    2    1    2    0    0  0.00000000000E+00  0.00000000000E+00  0.10708647806E+04  0.39470763547E+04  0.37990341366E+04 0.  0.
        5    1    3    3  502    0 -0.45330460279E+03  0.13155241945E+04 -0.80803610228E+03  0.16090473585E+04  0.46999998093E+01 0. -1.
       -5    1    3    3    0  502  0.45330460279E+03 -0.13155241945E+04  0.18789008829E+04  0.23380289962E+04  0.46999998093E+01 0.  1.
</event>
<event>
 5   0  0.6661000E-08  0.3827263E+04  0.7818609E-02  0.8040330E-01
       -1   -1    0    0    0  501  0.00000000000E+00  0.00000000000E+00  0.32996026327E+04  0.32996026327E+04  0.50400001928E-02 0.  1.
        1   -1    0    0  501    0  0.00000000000E+00  0.00000000000E+00 -0.11098260194E+04  0.11098260194E+04  0.50400001928E-02 0. -1.
    10030    2    1    2    0    0  0.00000000000E+00  0.00000000000E+00  0.21897766132E+04  0.44094286521E+04  0.38272626539E+04 0.  0.
        3    1    3    3  502    0 -0.15649302594E+04  0.95123167406E+03  0.45535145288E+03  0.18871124424E+04  0.10100000352E+00 0. -1.
       -3    1    3    3    0  502  0.15649302594E+04 -0.95123167406E+03  0.17344251604E+04  0.25223162097E+04  0.10100000352E+00 0.  1.
</event>
<event>
 5   0  0.6661000E-08  0.3884152E+04  0.7818609E-02  0.8028333E-01
        1   -1    0    0  501    0  0.00000000000E+00  0.00000000000E+00  0.25044663869E+04  0.25044663869E+04  0.50400001928E-02 0. -1.
       -1   -1    0    0    0  501  0.00000000000E+00  0.00000000000E+00 -0.15059732931E+04  0.15059732931E+04  0.50400001928E-02 0.  1.
    10030    2    1    2    0    0  0.00000000000E+00  0.00000000000E+00  0.99849309388E+03  0.40104396800E+04  0.38841521557E+04 0.  0.
        3    1    3    3  502    0 -0.29931797934E+03  0.10332866493E+04 -0.11702313979E+04  0.15895641186E+04  0.10100000352E+00 0.  1.
       -3    1    3    3    0  502  0.29931797934E+03 -0.10332866493E+04  0.21687244917E+04  0.24208755614E+04  0.10100000352E+00 0. -1.
</event>
<event>
 5   0  0.2205204E-07  0.3495042E+04  0.7818609E-02  0.8114966E-01
       -2   -1    0    0    0  501  0.00000000000E+00  0.00000000000E+00  0.17124375145E+04  0.17124375145E+04  0.25500000920E-02 0.  1.
        2   -1    0    0  501    0  0.00000000000E+00  0.00000000000E+00 -0.17833229835E+04  0.17833229835E+04  0.25500000920E-02 0. -1.
    10030    2    1    2    0    0  0.00000000000E+00  0.00000000000E+00 -0.70885468998E+02  0.34957604981E+04  0.34950417323E+04 0.  0.
        2    1    3    3  502    0  0.10942537621E+04 -0.12101508364E+04  0.59076335942E+03  0.17351823217E+04  0.25500000920E-02 0. -1.
       -2    1    3    3    0  502 -0.10942537621E+04  0.12101508364E+04 -0.66164882841E+03  0.17605781763E+04  0.25500000920E-02 0.  1.
</event>
<event>
 5   0  0.2135314E-07  0.3809529E+04  0.7818609E-02  0.8044113E-01
        2   -1    0    0  501    0  0.00000000000E+00  0.00000000000E+00  0.27294286628E+04  0.27294286628E+04  0.25500000920E-02 0.  1.
       -2   -1    0    0    0  501  0.00000000000E+00  0.00000000000E+00 -0.13292624121E+04  0.13292624121E+04  0.25500000920E-02 0. -1.
    10030    2    1    2    0    0  0.00000000000E+00  0.00000000000E+00  0.14001662508E+04  0.40586910749E+04  0.38095285419E+04 0.  0.
        4    1    3    3  502    0 -0.59183415250E+03  0.95975234080E+03 -0.93548999662E+03  0.14651059233E+04  0.12699999809E+01 0. -1.
       -4    1    3    3    0  502  0.59183415250E+03 -0.95975234080E+03  0.23356562474E+04  0.25935851516E+04  0.12699999809E+01 0.  1.
</event>
<event>
 5   0  0.6661000E-08  0.3578707E+04  0.7818609E-02  0.8095387E-01
       -1   -1    0    0    0  501  0.00000000000E+00  0.00000000000E+00  0.18469845703E+04  0.18469845703E+04  0.50400001928E-02 0.  1.
        1   -1    0    0  501    0  0.00000000000E+00  0.00000000000E+00 -0.17335207932E+04  0.17335207932E+04  0.50400001928E-02 0. -1.
    10030    2    1    2    0    0  0.00000000000E+00  0.00000000000E+00  0.11346377710E+03  0.35805053635E+04  0.35787071170E+04 0.  0.
        3    1    3    3  502    0  0.15940548751E+04  0.22323308824E+03  0.83875255547E+03  0.18150343842E+04  0.10100000352E+00 0.  1.
       -3    1    3    3    0  502 -0.15940548751E+04 -0.22323308824E+03 -0.72528877837E+03  0.17654709793E+04  0.10100000352E+00 0. -1.
</event>
<event>
 5   0  0.2205204E-07  0.3787492E+04  0.7818609E-02  0.8048844E-01
        2   -1    0    0  501    0  0.00000000000E+00  0.00000000000E+00  0.19919651859E+04  0.19919651859E+04  0.25500000920E-02 0.  1.
       -2   -1    0    0    0  501  0.00000000000E+00  0.00000000000E+00 -0.18003699712E+04  0.18003699712E+04  0.25500000920E-02 0. -1.
    10030    2    1    2    0    0  0.00000000000E+00  0.00000000000E+00  0.19159521473E+03  0.37923351571E+04  0.37874922069E+04 0.  0.
        2    1    3    3  502    0  0.55806693873E+03  0.15743321989E+04 -0.79770755182E+03  0.18510261800E+04  0.25500000920E-02 0. -1.
       -2    1    3    3    0  502 -0.55806693873E+03 -0.15743321989E+04  0.98930276655E+03  0.19413089771E+04  0.25500000920E-02 0.  1.
</event>
<event>
 5   0  0.2135314E-07  0.3785431E+04  0.7818609E-02  0.8049289E-01
       -2   -1    0    0    0  501  0.00000000000E+00  0.00000000000E+00  0.92989218876E+03  0.92989218876E+03  0.25500000920E-02 0. -1.
        2   -1    0    0  501    0  0.00000000000E+00  0.00000000000E+00 -0.38524600158E+04  0.38524600158E+04  0.25500000920E-02 0.  1.
    10030    2    1    2    0    0  0.00000000000E+00  0.00000000000E+00 -0.29225678270E+04  0.47823522045E+04  0.37854312706E+04 0.  0.
        4    1    3    3  502    0  0.18827131660E+04  0.61660234907E+02 -0.16940984625E+04  0.25334525975E+04  0.12699999809E+01 0.  1.
       -4    1    3    3    0  502 -0.18827131660E+04 -0.61660234907E+02 -0.12284693645E+04  0.22488996070E+04  0.12699999809E+01 0. -1.
</event>
<event>
 5   0  0.2203998E-07  0.3684131E+04  0.7818609E-02  0.8071488E-01
        2   -1    0    0  501    0  0.00000000000E+00  0.00000000000E+00  0.18700690934E+04  0.18700690934E+04  0.25500000920E-02 0. -1.
       -2   -1    0    0    0  501  0.00000000000E+00  0.00000000000E+00 -0.18144809577E+04  0.18144809577E+04  0.25500000920E-02 0.  1.
    10030    2    1    2    0    0  0.00000000000E+00  0.00000000000E+00  0.55588135701E+02  0.36845500510E+04  0.36841307031E+04 0.  0.
        3    1    3    3  502    0 -0.51059466084E+03  0.13099528802E+04 -0.11625184053E+04  0.18243169980E+04  0.10100000352E+00 0.  1.
       -3    1    3    3    0  502  0.51059466084E+03 -0.13099528802E+04  0.12181065410E+04  0.18602330530E+04  0.10100000352E+00 0. -1.
</event>
<event>
 5   0  0.6661000E-08  0.3879310E+04  0.7818609E-02  0.8029346E-01
       -1   -1    0    0    0  501  0.00000000000E+00  0.00000000000E+00  0.14619411071E+04  0.14619411071E+04  0.50400001928E-02 0. -1.
        1   -1    0    0  501    0  0.00000000000E+00  0.00000000000E+00 -0.25734697555E+04  0.25734697555E+04  0.50400001928E-02 0.  1.
    10030    2    1    2    0    0  0.00000000000E+00  0.00000000000E+00 -0.11115286485E+04  0.40354108626E+04  0.38793098476E+04 0.  0.
        3    1    3    3  502    0 -0.19297081886E+03  0.29761145678E+03 -0.25394467861E+04  0.25640983417E+04  0.10100000352E+00 0.  1.
       -3    1    3    3    0  502  0.19297081886E+03 -0.29761145678E+03  0.14279181377E+04  0.14713125209E+04  0.10100000352E+00 0. -1.
</event>
<event>
 5   0  0.2205204E-07  0.3716075E+04  0.7818609E-02  0.8064409E-01
       -2   -1    0    0    0  501  0.00000000000E+00  0.00000000000E+00  0.16518869340E+04  0.16518869340E+04  0.25500000920E-02 0. -1.
        2   -1    0    0  501    0  0.00000000000E+00  0.00000000000E+00 -0.20899154908E+04  0.20899154908E+04  0.25500000920E-02 0.  1.
    10030    2    1    2    0    0  0.00000000000E+00  0.00000000000E+00 -0.43802855679E+03  0.37418024248E+04  0.37160753988E+04 0.  0.
        2    1    3    3  502    0 -0.13946271139E+04 -0.66151302131E+02 -0.14534475957E+04  0.20154083197E+04  0.25500000920E-02 0.  1.
       -2    1    3    3    0  502  0.13946271139E+04  0.66151302131E+02  0.10154190389E+04  0.17263941051E+04  0.25500000920E-02 0. -1.
</event>
<event>
 5   0  0.6725199E-08  0.3791267E+04  0.7818609E-02  0.8048031E-01
        1   -1    0    0  501    0  0.00000000000E+00  0.00000000000E+00  0.27746408619E+04  0.27746408619E+04  0.50400001928E-02 0.  1.
       -1   -1    0    0    0  501  0.00000000000E+00  0.00000000000E+00 -0.12950963483E+04  0.12950963483E+04  0.50400001928E-02 0. -1.
    10030    2    1    2    0    0  0.00000000000E+00  0.00000000000E+00  0.14795445136E+04  0.40697372102E+04  0.37912674651E+04 0.  0.
        5    1    3    3  502    0 -0.74068830991E+03  0.27167580329E+03  0.25900276499E+04  0.27075251120E+04  0.46999998093E+01 0.  1.
       -5    1    3    3    0  502  0.74068830991E+03 -0.27167580329E+03 -0.11104831363E+04  0.13622120982E+04  0.46999998093E+01 0. -1.
</event>
<event>
 5   0  0.6661000E-08  0.3804049E+04  0.7818609E-02  0.8045286E-01
        1   -1    0    0  501    0  0.00000000000E+00  0.00000000000E+00  0.19085614155E+04  0.19085614155E+04  0.50400001928E-02 0.  1.
       -1   -1    0    0    0  501  0.00000000000E+00  0.00000000000E+00 -0.18955103916E+04  0.18955103916E+04  0.50400001928E-02 0. -1.
    10030    2    1    2    0    0  0.00000000000E+00  0.00000000000E+00  0.13051023833E+02  0.38040718071E+04  0.38040494193E+04 0.  0.
        2    1    3    3  502    0  0.98852488517E+03 -0.36408499948E+03 -0.15771373880E+04  0.18966026669E+04  0.25500000920E-02 0. -1.
       -2    1    3    3    0  502 -0.98852488517E+03  0.36408499948E+03  0.15901884119E+04  0.19074691402E+04  0.25500000920E-02 0.  1.
</event>
<event>
 5   0  0.2205204E-07  0.3837388E+04  0.7818609E-02  0.8038179E-01
       -2   -1    0    0    0  501  0.00000000000E+00  0.00000000000E+00  0.27121189563E+04  0.27121189563E+04  0.25500000920E-02 0. -1.
        2   -1    0    0  501    0  0.00000000000E+00  0.00000000000E+00 -0.13573839369E+04  0.13573839369E+04  0.25500000920E-02 0.  1.
    10030    2    1    2    0    0  0.00000000000E+00  0.00000000000E+00  0.13547350194E+04  0.40695028932E+04  0.38373880211E+04 0.  0.
        2    1    3    3  502    0 -0.93270871102E+03 -0.89441734320E+02 -0.10982580292E+04  0.14436467928E+04  0.25500000920E-02 0.  1.
       -2    1    3    3    0  502  0.93270871102E+03  0.89441734320E+02  0.24529930486E+04  0.26258561004E+04  0.25500000920E-02 0. -1.
</event>
<event>
 5   0  0.6661000E-08  0.3809622E+04  0.7818609E-02  0.8044093E-01
       -1   -1    0    0    0  501  0.00000000000E+00  0.00000000000E+00  0.16419934609E+04  0.16419934609E+04  0.50400001928E-02 0. -1.
        1   -1    0    0  501    0  0.00000000000E+00  0.00000000000E+00 -0.22096951450E+04  0.22096951450E+04  0.50400001928E-02 0.  1.
    10030    2    1    2    0    0  0.00000000000E+00  0.00000000000E+00 -0.56770168410E+03  0.38516886059E+04  0.38096220173E+04 0.  0.
        3    1    3    3  502    0 -0.87544202762E+03  0.60135605720E+03  0.13148358284E+04  0.16902133348E+04  0.10100000352E+00 0. -1.
       -3    1    3    3    0  502  0.87544202762E+03 -0.60135605720E+03 -0.18825375125E+04  0.21614752711E+04  0.10100000352E+00 0.  1.
</event>
<event>
 5   0  0.6661000E-08  0.3799907E+04  0.7818609E-02  0.8046175E-01
        1   -1    0    0  501    0  0.00000000000E+00  0.00000000000E+00  0.25855334332E+04  0.25855334332E+04  0.50400001928E-02 0.  1.
       -1   -1    0    0    0  501  0.00000000000E+00  0.00000000000E+00 -0.13961621667E+04  0.13961621668E+04  0.50400001928E-02 0. -1.
    10030    2    1    2    0    0  0.00000000000E+00  0.00000000000E+00  0.11893712664E+04  0.39816955999E+04  0.37999073464E+04 0.  0.
        3    1    3    3  502    0  0.82256611171E+03 -0.64651928142E+03  0.22565026003E+04  0.24872487179E+04  0.10100000352E+00 0.  1.
       -3    1    3    3    0  502 -0.82256611171E+03  0.64651928142E+03 -0.10671313339E+04  0.14944468820E+04  0.10100000352E+00 0. -1.
</event>
<event>
 5   0  0.6661000E-08  0.3834501E+04  0.7818609E-02  0.8038791E-01
        1   -1    0    0  501    0  0.00000000000E+00  0.00000000000E+00  0.21118381196E+04  0.21118381196E+04  0.50400001928E-02 0. -1.
       -1   -1    0    0    0  501  0.00000000000E+00  0.00000000000E+00 -0.17405923754E+04  0.17405923754E+04  0.50400001928E-02 0.  1.
    10030    2    1    2    0    0  0.00000000000E+00  0.00000000000E+00  0.37124574418E+03  0.38524304951E+04  0.38345009215E+04 0.  0.
        3    1    3    3  502    0  0.87047812313E+03 -0.11285284991E+04  0.14740155948E+04  0.20503733124E+04  0.10100000352E+00 0. -1.
       -3    1    3    3    0  502 -0.87047812313E+03  0.11285284991E+04 -0.11027698506E+04  0.18020571827E+04  0.10100000352E+00 0.  1.
</event>
<event>
 5   0  0.1370688E-07  0.3806298E+04  0.7818609E-02  0.8044805E-01
       -2   -1    0    0    0  501  0.00000000000E+00  0.00000000000E+00  0.13413140842E+04  0.13413140842E+04  0.25500000920E-02 0. -1.
        2   -1    0    0  501    0  0.00000000000E+00  0.00000000000E+00 -0.27003197062E+04  0.27003197062E+04  0.25500000920E-02 0.  1.
    10030    2    1    2    0    0  0.00000000000E+00  0.00000000000E+00 -0.13590056220E+04  0.40416337904E+04  0.38062983876E+04 0.  0.
        5    1    3    3  502    0 -0.16766163917E+04  0.80146937222E+03 -0.24355930721E+03  0.18742302168E+04  0.46999998093E+01 0.  1.
       -5    1    3    3    0  502  0.16766163917E+04 -0.80146937222E+03 -0.11154463147E+04  0.21674035736E+04  0.46999998093E+01 0. -1.
</event>
<event>
 5   0  0.1370688E-07  0.3832115E+04  0.7818609E-02  0.8039298E-01
        2   -1    0    0  501    0  0.00000000000E+00  0.00000000000E+00  0.21034005653E+04  0.21034005653E+04  0.25500000920E-02 0.  1.
       -2   -1    0    0    0  501  0.00000000000E+00  0.00000000000E+00 -0.17454003070E+04  0.17454003070E+04  0.25500000920E-02 0. -1.
    10030    2    1    2    0    0  0.00000000000E+00  0.00000000000E+00  0.35800025830E+03  0.38488008724E+04  0.38321148170E+04 0.  0.
        5    1    3    3  502    0  0.76303123741E+02  0.16494681927E+04  0.11551820609E+04  0.20152010246E+04  0.46999998093E+01 0.  1.
       -5    1    3    3    0  502 -0.76303123741E+02 -0.16494681927E+04 -0.79718180260E+03  0.18335998478E+04  0.46999998093E+01 0. -1.
</event>
<event>
 5   0  0.6661000E-08  0.3573561E+04  0.7818609E-02  0.8096575E-01
       -1   -1    0    0    0  501  0.00000000000E+00  0.00000000000E+00  0.15565763128E+04  0.15565763128E+04  0.50400001928E-02 0. -1.
        1   -1    0    0  501    0  0.00000000000E+00  0.00000000000E+00 -0.20510298483E+04  0.20510298483E+04  0.50400001928E-02 0.  1.
    10030    2    1    2    0    0  0.00000000000E+00  0.00000000000E+00 -0.49445353549E+03  0.36076061611E+04  0.35735609572E+04 0.  0.
        4    1    3    3  502    0  0.15541152475E+03 -0.70179611828E+03 -0.18986327969E+04  0.20301425182E+04  0.12699999809E+01 0.  1.
       -4    1    3    3    0  502 -0.15541152475E+03  0.70179611828E+03  0.14041792614E+04  0.15774636429E+04  0.12699999809E+01 0. -1.
</event>
<event>
 5   0  0.6661000E-08  0.3801474E+04  0.7818609E-02  0.8045839E-01
       -1   -1    0    0    0  501  0.00000000000E+00  0.00000000000E+00  0.22836823018E+04  0.22836823018E+04  0.50400001928E-02 0.  1.
        1   -1    0    0  501    0  0.00000000000E+00  0.00000000000E+00 -0.15820068081E+04  0.15820068081E+04  0.50400001928E-02 0. -1.
    10030    2    1    2    0    0  0.00000000000E+00  0.00000000000E+00  0.70167549373E+03  0.38656891099E+04  0.38014738978E+04 0.  0.
        3    1    3    3  502    0 -0.11309680657E+04 -0.97438456945E+03  0.15472695893E+04  0.21500133132E+04  0.10100000352E+00 0.  1.
       -3    1    3    3    0  502  0.11309680657E+04  0.97438456945E+03 -0.84559409554E+03  0.17156757967E+04  0.10100000352E+00 0. -1.
</event>
<event>
 5   0  0.2205204E-07  0.3814677E+04  0.7818609E-02  0.8043012E-01
       -2   -1    0    0    0  501  0.00000000000E+00  0.00000000000E+00  0.23686108398E+04  0.23686108398E+04  0.25500000920E-02 0.  1.
        2   -1    0    0  501    0  0.00000000000E+00  0.00000000000E+00 -0.15358963305E+04  0.15358963305E+04  0.25500000920E-02 0. -1.
    10030    2    1    2    0    0  0.00000000000E+00  0.00000000000E+00  0.83271450934E+03  0.39045071704E+04  0.38146772851E+04 0.  0.
        2    1    3    3  502    0 -0.12132564679E+04 -0.14604961554E+04  0.23070118717E+03  0.19126587031E+04  0.25500000920E-02 0.  1.
       -2    1    3    3    0  502  0.12132564679E+04  0.14604961554E+04  0.60201332217E+03  0.19918484673E+04  0.25500000920E-02 0. -1.
</event>
<event>
 5   0  0.1370688E-07  0.3822640E+04  0.7818609E-02  0.8041314E-01
       -2   -1    0    0    0  501  0.00000000000E+00  0.00000000000E+00  0.32781408247E+04  0.32781408247E+04  0.25500000920E-02 0.  1.
        2   -1    0    0  501    0  0.00000000000E+00  0.00000000000E+00 -0.11143953488E+04  0.11143953488E+04  0.25500000920E-02 0. -1.
    10030    2    1    2    0    0  0.00000000000E+00  0.00000000000E+00  0.21637454759E+04  0.43925361735E+04  0.38226403900E+04 0.  0.
        5    1    3    3  502    0  0.16789479976E+04 -0.89149189887E+03  0.85350075246E+03  0.20837729744E+04  0.46999998093E+01 0. -1.
       -5    1    3    3    0  502 -0.16789479976E+04  0.89149189887E+03  0.13102447234E+04  0.23087631991E+04  0.46999998093E+01 0.  1.
</event>
<event>
 5   0  0.1370688E-07  0.3852179E+04  0.7818609E-02  0.8035049E-01
       -2   -1    0    0    0  501  0.00000000000E+00  0.00000000000E+00  0.28181517241E+04  0.28181517241E+04  0.25500000920E-02 0.  1.
        2   -1    0    0  501    0  0.00000000000E+00  0.00000000000E+00 -0.13164017529E+04  0.13164017529E+04  0.25500000920E-02 0. -1.
    10030    2    1    2    0    0  0.00000000000E+00  0.00000000000E+00  0.15017499712E+04  0.41345534770E+04  0.38521785367E+04 0.  0.
        5    1    3    3  502    0 -0.17253741370E+04 -0.18413975654E+01 -0.16796141107E+03  0.17335375476E+04  0.46999998093E+01 0. -1.
       -5    1    3    3    0  502  0.17253741370E+04  0.18413975654E+01  0.16697113823E+04  0.24010159294E+04  0.46999998093E+01 0.  1.
</event>
<event>
 5   0  0.6661000E-08  0.3753312E+04  0.7818609E-02  0.8056249E-01
       -1   -1    0    0    0  501  0.00000000000E+00  0.00000000000E+00  0.15820183373E+04  0.15820183373E+04  0.50400001928E-02 0.  1.
        1   -1    0    0  501    0  0.00000000000E+00  0.00000000000E+00 -0.22261671089E+04  0.22261671089E+04  0.50400001928E-02 0. -1.
    10030    2    1    2    0    0  0.00000000000E+00  0.00000000000E+00 -0.64414877160E+03  0.38081854461E+04  0.37533117046E+04 0.  0.
        1    1    3    3  502    0  0.14905259001E+04 -0.37372903804E+03 -0.14150874238E+04  0.20889742147E+04  0.50400001928E-02 0. -1.
       -1    1    3    3    0  502 -0.14905259001E+04  0.37372903804E+03  0.77093865222E+03  0.17192112314E+04  0.50400001928E-02 0.  1.
</event>
<event>
 5   0  0.2203998E-07  0.3797124E+04  0.7818609E-02  0.8046772E-01
       -2   -1    0    0    0  501  0.00000000000E+00  0.00000000000E+00  0.13278019741E+04  0.13278019742E+04  0.25500000920E-02 0. -1.
        2   -1    0    0  501    0  0.00000000000E+00  0.00000000000E+00 -0.27146657810E+04  0.27146657810E+04  0.25500000920E-02 0.  1.
    10030    2    1    2    0    0  0.00000000000E+00  0.00000000000E+00 -0.13868638068E+04  0.40424677551E+04  0.37971244821E+04 0.  0.
        3    1    3    3  502    0  0.10343375225E+04 -0.92821459642E+03  0.68362838701E+03  0.15488009004E+04  0.10100000352E+00 0. -1.
       -3    1    3    3    0  502 -0.10343375225E+04  0.92821459642E+03 -0.20704921938E+04  0.24936668547E+04  0.10100000352E+00 0.  1.
</event>
<event>
 5   0  0.1370688E-07  0.3785356E+04  0.7818609E-02  0.8049305E-01
       -2   -1    0    0    0  501  0.00000000000E+00  0.00000000000E+00  0.13430532683E+04  0.13430532683E+04  0.25500000920E-02 0.  1.
        2   -1    0    0  501    0  0.00000000000E+00  0.00000000000E+00 -0.26672289492E+04  0.26672289492E+04  0.25500000920E-02 0. -1.
    10030    2    1    2    0    0  0.00000000000E+00  0.00000000000E+00 -0.13241756809E+04  0.40102822175E+04  0.37853562884E+04 0.  0.
        5    1    3    3  502    0  0.15696960041E+04 -0.73488414893E+03 -0.14676708549E+04  0.22711407015E+04  0.46999998093E+01 0. -1.
       -5    1    3    3    0  502 -0.15696960041E+04  0.73488414893E+03  0.14349517407E+03  0.17391415160E+04  0.46999998093E+01 0.  1.
</event>
<event>
 5   0  0.6661000E-08  0.3800589E+04  0.7818609E-02  0.8046028E-01
       -1   -1    0    0    0  501  0.00000000000E+00  0.00000000000E+00  0.98135339089E+03  0.98135339090E+03  0.50400001928E-02 0.  1.
        1   -1    0    0  501    0  0.00000000000E+00  0.00000000000E+00 -0.36797345791E+04  0.36797345791E+04  0.50400001928E-02 0. -1.
    10030    2    1    2    0    0  0.00000000000E+00  0.00000000000E+00 -0.26983811882E+04  0.46610879700E+04  0.38005894316E+04 0.  0.
        1    1    3    3  502    0  0.11601289399E+04  0.95320233813E+03 -0.27776451734E+04  0.31575000497E+04  0.50400001928E-02 0. -1.
       -1    1    3    3    0  502 -0.11601289399E+04 -0.95320233813E+03  0.79263985166E+02  0.15035879203E+04  0.50400001928E-02 0.  1.
</event>
<event>
 5   0  0.2205204E-07  0.3760021E+04  0.7818609E-02  0.8054789E-01
       -2   -1    0    0    0  501  0.00000000000E+00  0.00000000000E+00  0.16612962851E+04  0.16612962851E+04  0.25500000920E-02 0.  1.
        2   -1    0    0  501    0  0.00000000000E+00  0.00000000000E+00 -0.21275192447E+04  0.21275192447E+04  0.25500000920E-02 0. -1.
    10030    2    1    2    0    0  0.00000000000E+00  0.00000000000E+00 -0.46622295956E+03  0.37888155298E+04  0.37600211796E+04 0.  0.
        2    1    3    3  502    0 -0.14204439625E+04  0.55206815798E+03 -0.13424507645E+04  0.20309146601E+04  0.25500000920E-02 0. -1.
       -2    1    3    3    0  502  0.14204439625E+04 -0.55206815798E+03  0.87622780495E+03  0.17579008697E+04  0.25500000920E-02 0.  1.
</event>
<event>
 5   0  0.1370688E-07  0.3736257E+04  0.7818609E-02  0.8059974E-01
        2   -1    0    0  501    0  0.00000000000E+00  0.00000000000E+00  0.20251646876E+04  0.20251646876E+04  0.25500000920E-02 0. -1.
       -2   -1    0    0    0  501  0.00000000000E+00  0.00000000000E+00 -0.17232688450E+04  0.17232688450E+04  0.25500000920E-02 0.  1.
    10030    2    1    2    0    0  0.00000000000E+00  0.00000000000E+00  0.30189584265E+03  0.37484335326E+04  0.37362565287E+04 0.  0.
        5    1    3    3  502    0  0.55922409200E+03  0.16354269248E+04 -0.56025477450E+03  0.18169370693E+04  0.46999998093E+01 0.  1.
       -5    1    3    3    0  502 -0.55922409200E+03 -0.16354269248E+04  0.86215061715E+03  0.19314964634E+04  0.46999998093E+01 0. -1.
</event>
<event>
 5   0  0.6661000E-08  0.3809023E+04  0.7818609E-02  0.8044221E-01
       -1   -1    0    0    0  501  0.00000000000E+00  0.00000000000E+00  0.15672616540E+04  0.15672616540E+04  0.50400001928E-02 0.  1.
        1   -1    0    0  501    0  0.00000000000E+00  0.00000000000E+00 -0.23143316818E+04  0.23143316818E+04  0.50400001928E-02 0. -1.
    10030    2    1    2    0    0  0.00000000000E+00  0.00000000000E+00 -0.74707002779E+03  0.38815933358E+04  0.38090226040E+04 0.  0.
        2    1    3    3  502    0  0.23106422754E+03 -0.11829383019E+04  0.11291541648E+04  0.16515819178E+04  0.25500000920E-02 0.  1.
       -2    1    3    3    0  502 -0.23106422754E+03  0.11829383019E+04 -0.18762241926E+04  0.22300114180E+04  0.25500000920E-02 0. -1.
</event>
<event>
 5   0  0.1370688E-07  0.3689585E+04  0.7818609E-02  0.8070274E-01
        2   -1    0    0  501    0  0.00000000000E+00  0.00000000000E+00  0.22660692502E+04  0.22660692502E+04  0.25500000920E-02 0. -1.
       -2   -1    0    0    0  501  0.00000000000E+00  0.00000000000E+00 -0.15018338275E+04  0.15018338275E+04  0.25500000920E-02 0.  1.
    10030    2    1    2    0    0  0.00000000000E+00  0.00000000000E+00  0.76423542277E+03  0.37679030777E+04  0.36895850473E+04 0.  0.
        5    1    3    3  502    0 -0.74695603000E+02  0.11248362988E+04  0.18733890113E+04  0.21864227885E+04  0.46999998093E+01 0. -1.
       -5    1    3    3    0  502  0.74695603000E+02 -0.11248362988E+04 -0.11091535886E+04  0.15814802892E+04  0.46999998093E+01 0.  1.
</event>
<event>
 5   0  0.6661000E-08  0.3754091E+04  0.7818609E-02  0.8056079E-01
       -1   -1    0    0    0  501  0.00000000000E+00  0.00000000000E+00  0.17022202373E+04  0.17022202373E+04  0.50400001928E-02 0. -1.
        1   -1    0    0  501    0  0.00000000000E+00  0.00000000000E+00 -0.20698263361E+04  0.20698263361E+04  0.50400001928E-02 0.  1.
    10030    2    1    2    0    0  0.00000000000E+00  0.00000000000E+00 -0.36760609880E+03  0.37720465733E+04  0.37540912492E+04 0.  0.
        4    1    3    3  502    0 -0.84112678059E+03 -0.52752211321E+03 -0.17843829959E+04  0.20420083570E+04  0.12699999809E+01 0.  1.
       -4    1    3    3    0  502  0.84112678059E+03  0.52752211321E+03  0.14167768971E+04  0.17300382164E+04  0.12699999809E+01 0. -1.
</event>
<event>
 5   0  0.6725199E-08  0.3776518E+04  0.7818609E-02  0.8051213E-01
        1   -1    0    0  501    0  0.00000000000E+00  0.00000000000E+00  0.12894378375E+04  0.12894378375E+04  0.50400001928E-02 0. -1.
       -1   -1    0    0    0  501  0.00000000000E+00  0.00000000000E+00 -0.27651759100E+04  0.27651759100E+04  0.50400001928E-02 0.  1.
    10030    2    1    2    0    0  0.00000000000E+00  0.00000000000E+00 -0.14757380725E+04  0.40546137475E+04  0.37765182089E+04 0.  0.
        5    1    3    3  502    0  0.11072761154E+04 -0.95604823240E+03 -0.20196920683E+04  0.24938457769E+04  0.46999998093E+01 0.  1.
       -5    1    3    3    0  502 -0.11072761154E+04  0.95604823240E+03  0.54395399572E+03  0.15607679706E+04  0.46999998093E+01 0. -1.
</event>
<event>
 5   0  0.6725199E-08  0.3799892E+04  0.7818609E-02  0.8046178E-01
        1   -1    0    0  501    0  0.00000000000E+00  0.00000000000E+00  0.19449071673E+04  0.19449071673E+04  0.50400001928E-02 0.  1.
       -1   -1    0    0    0  501  0.00000000000E+00  0.00000000000E+00 -0.18560243235E+04  0.18560243235E+04  0.50400001928E-02 0. -1.
    10030    2    1    2    0    0  0.00000000000E+00  0.00000000000E+00  0.88882843794E+02  0.38009314909E+04  0.37998921088E+04 0.  0.
        5    1    3    3  502    0  0.55053593477E+03  0.97815052431E+03 -0.14889177557E+04  0.18646089233E+04  0.46999998093E+01 0. -1.
       -5    1    3    3    0  502 -0.55053593477E+03 -0.97815052431E+03  0.15778005995E+04  0.19363225675E+04  0.46999998093E+01 0.  1.
</event>
<event>
 5   0  0.6725199E-08  0.3803668E+04  0.7818609E-02  0.8045368E-01
       -1   -1    0    0    0  501  0.00000000000E+00  0.00000000000E+00  0.18370560130E+04  0.18370560130E+04  0.50400001928E-02 0.  1.
        1   -1    0    0  501    0  0.00000000000E+00  0.00000000000E+00 -0.19688960079E+04  0.19688960079E+04  0.50400001928E-02 0. -1.
    10030    2    1    2    0    0  0.00000000000E+00  0.00000000000E+00 -0.13183999492E+03  0.38059520209E+04  0.38036678353E+04 0.  0.
        5    1    3    3  502    0  0.78217645407E+03  0.80863709065E+02  0.16667697497E+04  0.18429548104E+04  0.46999998093E+01 0.  1.
       -5    1    3    3    0  502 -0.78217645407E+03 -0.80863709065E+02 -0.17986097446E+04  0.19629972104E+04  0.46999998093E+01 0. -1.
</event>
<event>
 5   0  0.2203998E-07  0.3862727E+04  0.7818609E-02  0.8032826E-01
       -2   -1    0    0    0  501  0.00000000000E+00  0.00000000000E+00  0.27838382998E+04  0.27838382998E+04  0.25500000920E-02 0. -1.
        2   -1    0    0  501    0  0.00000000000E+00  0.00000000000E+00 -0.13399359812E+04  0.13399359812E+04  0.25500000920E-02 0.  1.
    10030    2    1    2    0    0  0.00000000000E+00  0.00000000000E+00  0.14439023186E+04  0.41237742810E+04  0.38627270697E+04 0.  0.
        3    1    3    3  502    0 -0.14515972720E+04 -0.95340378498E+03 -0.18017169245E+03  0.17460169719E+04  0.10100000352E+00 0.  1.
       -3    1    3    3    0  502  0.14515972720E+04  0.95340378498E+03  0.16240740111E+04  0.23777573091E+04  0.10100000352E+00 0. -1.
</event>
<event>
 5   0  0.6661000E-08  0.3798547E+04  0.7818609E-02  0.8046467E-01
       -1   -1    0    0    0  501  0.00000000000E+00  0.00000000000E+00  0.12835493871E+04  0.12835493871E+04  0.50400001928E-02 0. -1.
        1   -1    0    0  501    0  0.00000000000E+00  0.00000000000E+00 -0.28103632349E+04  0.28103632349E+04  0.50400001928E-02 0.  1.
    10030    2    1    2    0    0  0.00000000000E+00  0.00000000000E+00 -0.15268138477E+04  0.40939126220E+04  0.37985470947E+04 0.  0.
        3    1    3    3  502    0  0.24427924417E+03  0.11350423640E+04 -0.23833615899E+04  0.26511141046E+04  0.10100000352E+00 0.  1.
       -3    1    3    3    0  502 -0.24427924417E+03 -0.11350423640E+04  0.85654774216E+03  0.14427985174E+04  0.10100000352E+00 0. -1.
</event>
<event>
 5   0  0.6725199E-08  0.3792066E+04  0.7818609E-02  0.8047860E-01
       -1   -1    0    0    0  501  0.00000000000E+00  0.00000000000E+00  0.16168738995E+04  0.16168738995E+04  0.50400001928E-02 0. -1.
        1   -1    0    0  501    0  0.00000000000E+00  0.00000000000E+00 -0.22233896354E+04  0.22233896354E+04  0.50400001928E-02 0.  1.
    10030    2    1    2    0    0  0.00000000000E+00  0.00000000000E+00 -0.60651573592E+03  0.38402635348E+04  0.37920657535E+04 0.  0.
        5    1    3    3  502    0  0.24546649757E+03 -0.18142239093E+04 -0.80273693692E+03  0.19990174773E+04  0.46999998093E+01 0. -1.
       -5    1    3    3    0  502 -0.24546649757E+03  0.18142239093E+04  0.19622120100E+03  0.18412460575E+04  0.46999998093E+01 0.  1.
</event>
<event>
 5   0  0.2203998E-07  0.3809168E+04  0.7818609E-02  0.8044190E-01
       -2   -1    0    0    0  501  0.00000000000E+00  0.00000000000E+00  0.15452077607E+04  0.15452077607E+04  0.25500000920E-02 0. -1.
        2   -1    0    0  501    0  0.00000000000E+00  0.00000000000E+00 -0.23475422297E+04  0.23475422297E+04  0.25500000920E-02 0.  1.
    10030    2    1    2    0    0  0.00000000000E+00  0.00000000000E+00 -0.80233446898E+03  0.38927499904E+04  0.38091681359E+04 0.  0.
        3    1    3    3  502    0  0.14790243219E+04 -0.56280657217E+03 -0.14842217839E+04  0.21696033039E+04  0.10100000352E+00 0.  1.
       -3    1    3    3    0  502 -0.14790243219E+04  0.56280657217E+03  0.68188731488E+03  0.17231466864E+04  0.10100000352E+00 0. -1.
</event>
<event>
 5   0  0.2081337E-07  0.3795024E+04  0.7818609E-02  0.8047224E-01
        2   -1    0    0  501    0  0.00000000000E+00  0.00000000000E+00  0.25987726877E+04  0.25987726877E+04  0.25500000920E-02 0. -1.
       -2   -1    0    0    0  501  0.00000000000E+00  0.00000000000E+00 -0.13854814155E+04  0.13854814155E+04  0.25500000920E-02 0.  1.
    10030    2    1    2    0    0  0.00000000000E+00  0.00000000000E+00  0.12132912722E+04  0.39842541032E+04  0.37950237216E+04 0.  0.
        1    1    3    3  502    0  0.15859742602E+04  0.85293007348E+03 -0.21297986244E+02  0.18009046805E+04  0.50400001928E-02 0.  1.
       -1    1    3    3    0  502 -0.15859742602E+04 -0.85293007348E+03  0.12345892585E+04  0.21833494226E+04  0.50400001928E-02 0. -1.
</event>
<event>
 5   0  0.2135314E-07  0.3704510E+04  0.7818609E-02  0.8066963E-01
        2   -1    0    0  501    0  0.00000000000E+00  0.00000000000E+00  0.10847139811E+04  0.10847139811E+04  0.25500000920E-02 0. -1.
       -2   -1    0    0    0  501  0.00000000000E+00  0.00000000000E+00 -0.31629065795E+04  0.31629065795E+04  0.25500000920E-02 0.  1.
    10030    2    1    2    0    0  0.00000000000E+00  0.00000000000E+00 -0.20781925984E+04  0.42476205605E+04  0.37045102173E+04 0.  0.
        4    1    3    3  502    0  0.12953875218E+04 -0.76978435293E+03  0.19597155128E+03  0.15195404711E+04  0.12699999809E+01 0. -1.
       -4    1    3    3    0  502 -0.12953875218E+04  0.76978435293E+03 -0.22741641497E+04  0.27280800894E+04  0.12699999809E+01 0.  1.
</event>
<event>
 5   0  0.6661000E-08  0.3800721E+04  0.7818609E-02  0.8046000E-01
       -1   -1    0    0    0  501  0.00000000000E+00  0.00000000000E+00  0.15113790706E+04  0.15113790706E+04  0.50400001928E-02 0.  1.
        1   -1    0    0  501    0  0.00000000000E+00  0.00000000000E+00 -0.23894531257E+04  0.23894531257E+04  0.50400001928E-02 0. -1.
    10030    2    1    2    0    0  0.00000000000E+00  0.00000000000E+00 -0.87807405510E+03  0.39008321964E+04  0.38007206919E+04 0.  0.
        2    1    3    3  502    0  0.76884462324E+03 -0.16955228493E+04 -0.83046122021E+03  0.20385253556E+04  0.25500000920E-02 0. -1.
       -2    1    3    3    0  502 -0.76884462324E+03  0.16955228493E+04 -0.47612834888E+02  0.18623068408E+04  0.25500000920E-02 0.  1.
</event>
<event>
 5   0  0.1370688E-07  0.3598370E+04  0.7818609E-02  0.8090865E-01
        2   -1    0    0  501    0  0.00000000000E+00  0.00000000000E+00  0.19520732614E+04  0.19520732614E+04  0.25500000920E-02 0.  1.
       -2   -1    0    0    0  501  0.00000000000E+00  0.00000000000E+00 -0.16582706766E+04  0.16582706766E+04  0.25500000920E-02 0. -1.
    10030    2    1    2    0    0  0.00000000000E+00  0.00000000000E+00  0.29380258483E+03  0.36103439380E+04  0.35983695463E+04 0.  0.
        5    1    3    3  502    0  0.12349977076E+04  0.11184316664E+04  0.82808251936E+03  0.18606051379E+04  0.46999998093E+01 0.  1.
       -5    1    3    3    0  502 -0.12349977076E+04 -0.11184316664E+04 -0.53427993452E+03  0.17497388001E+04  0.46999998093E+01 0. -1.
</event>
<event>
 5   0  0.6661000E-08  0.3790442E+04  0.7818609E-02  0.8048209E-01
        1   -1    0    0  501    0  0.00000000000E+00  0.00000000000E+00  0.27364736956E+04  0.27364736956E+04  0.50400001928E-02 0. -1.
       -1   -1    0    0    0  501  0.00000000000E+00  0.00000000000E+00 -0.13125883547E+04  0.13125883547E+04  0.50400001928E-02 0.  1.
    10030    2    1    2    0    0  0.00000000000E+00  0.00000000000E+00  0.14238853409E+04  0.40490620504E+04  0.37904424575E+04 0.  0.
        4    1    3    3  502    0 -0.49010836367E+03  0.95865138912E+03 -0.95416756168E+03  0.14386299186E+04  0.12699999809E+01 0.  1.
       -4    1    3    3    0  502  0.49010836367E+03 -0.95865138912E+03  0.23780529026E+04  0.26104321318E+04  0.12699999809E+01 0. -1.
</event>
<event>
 5   0  0.2081337E-07  0.3813709E+04  0.7818609E-02  0.8043219E-01
        2   -1    0    0  501    0  0.00000000000E+00  0.00000000000E+00  0.23011243823E+04  0.23011243823E+04  0.25500000920E-02 0. -1.
       -2   -1    0    0    0  501  0.00000000000E+00  0.00000000000E+00 -0.15801381923E+04  0.15801381923E+04  0.25500000920E-02 0.  1.
    10030    2    1    2    0    0  0.00000000000E+00  0.00000000000E+00  0.72098618991E+03  0.38812625746E+04  0.38137092295E+04 0.  0.
        1    1    3    3  502    0  0.13220205421E+04 -0.85494734531E+03 -0.73439862522E+03  0.17372433962E+04  0.50400001928E-02 0.  1.
       -1    1    3    3    0  502 -0.13220205421E+04  0.85494734531E+03  0.14553848151E+04  0.21440191784E+04  0.50400001928E-02 0. -1.
</event>
<event>
 5   0  0.1370688E-07  0.3720515E+04  0.7818609E-02  0.8063431E-01
        2   -1    0    0  501    0  0.00000000000E+00  0.00000000000E+00  0.14676734845E+04  0.14676734845E+04  0.25500000920E-02 0. -1.
       -2   -1    0    0    0  501  0.00000000000E+00  0.00000000000E+00 -0.23578528745E+04  0.23578528745E+04  0.25500000920E-02 0.  1.
    10030    2    1    2    0    0  0.00000000000E+00  0.00000000000E+00 -0.89017939004E+03  0.38255263590E+04  0.37205150956E+04 0.  0.
        5    1    3    3  502    0 -0.11597018767E+04 -0.14001840270E+04 -0.40130514434E+02  0.18185313582E+04  0.46999998093E+01 0. -1.
       -5    1    3    3    0  502  0.11597018767E+04  0.14001840270E+04 -0.85004887561E+03  0.20069950008E+04  0.46999998093E+01 0.  1.
</event>
<event>
 5   0  0.2205204E-07  0.3810693E+04  0.7818609E-02  0.8043864E-01
        2   -1    0    0  501    0  0.00000000000E+00  0.00000000000E+00  0.21866603987E+04  0.21866603987E+04  0.25500000920E-02 0. -1.
       -2   -1    0    0    0  501  0.00000000000E+00  0.00000000000E+00 -0.16602236235E+04  0.16602236235E+04  0.25500000920E-02 0.  1.
    10030    2    1    2    0    0  0.00000000000E+00  0.00000000000E+00  0.52643677521E+03  0.38468840223E+04  0.38106929819E+04 0.  0.
        2    1    3    3  502    0 -0.70317655219E+03 -0.14692862592E+04  0.12610827228E+04  0.20599973322E+04  0.25500000920E-02 0. -1.
       -2    1    3    3    0  502  0.70317655219E+03  0.14692862592E+04 -0.73464594755E+03  0.17868866901E+04  0.25500000920E-02 0.  1.
</event>
<event>
 5   0  0.6661000E-08  0.3765786E+04  0.7818609E-02  0.8053537E-01
       -1   -1    0    0    0  501  0.00000000000E+00  0.00000000000E+00  0.19254176417E+04  0.19254176417E+04  0.50400001928E-02 0.  1.
        1   -1    0    0  501    0  0.00000000000E+00  0.00000000000E+00 -0.18413078461E+04  0.18413078462E+04  0.50400001928E-02 0. -1.
    10030    2    1    2    0    0  0.00000000000E+00  0.00000000000E+00  0.84109795584E+02  0.37667254879E+04  0.37657862982E+04 0.  0.
        1    1    3    3  502    0 -0.13934905992E+04 -0.11954604025E+04  0.45970542294E+03  0.18926887488E+04  0.50400001928E-02 0.  1.
       -1    1    3    3    0  502  0.13934905992E+04  0.11954604025E+04 -0.37559562736E+03  0.18740367391E+04  0.50400001928E-02 0. -1.
</event>
<event>
 5   0  0.6661000E-08  0.3802512E+04  0.7818609E-02  0.8045616E-01
       -1   -1    0    0    0  501  0.00000000000E+00  0.00000000000E+00  0.13543388784E+04  0.13543388784E+04  0.50400001928E-02 0.  1.
        1   -1    0    0  501    0  0.00000000000E+00  0.00000000000E+00 -0.26690325144E+04  0.26690325144E+04  0.50400001928E-02 0. -1.
    10030    2    1    2    0    0  0.00000000000E+00  0.00000000000E+00 -0.13146936361E+04  0.40233713928E+04  0.38025120654E+04 0.  0.
        2    1    3    3  502    0  0.79734715092E+03  0.16680943499E+04 -0.18834853637E+03  0.18584338596E+04  0.25500000920E-02 0. -1.
       -2    1    3    3    0  502 -0.79734715092E+03 -0.16680943499E+04 -0.11263450997E+04  0.21649375333E+04  0.25500000920E-02 0.  1.
</event>
<event>
 5   0  0.2205204E-07  0.3799128E+04  0.7818609E-02  0.8046342E-01
       -2   -1    0    0    0  501  0.00000000000E+00  0.00000000000E+00  0.22932397570E+04  0.22932397570E+04  0.25500000920E-02 0.  1.
        2   -1    0    0  501    0  0.00000000000E+00  0.00000000000E+00 -0.15734696628E+04  0.15734696628E+04  0.25500000920E-02 0. -1.
    10030    2    1    2    0    0  0.00000000000E+00  0.00000000000E+00  0.71977009423E+03  0.38667094199E+04  0.37991278932E+04 0.  0.
        2    1    3    3  502    0 -0.98740509090E+03  0.28114377846E+03 -0.12667732824E+04  0.16305597771E+04  0.25500000920E-02 0. -1.
       -2    1    3    3    0  502  0.98740509090E+03 -0.28114377846E+03  0.19865433766E+04  0.22361496428E+04  0.25500000920E-02 0.  1.
</event>
<event>
 5   0  0.1370688E-07  0.3802880E+04  0.7818609E-02  0.8045537E-01
        2   -1    0    0  501    0  0.00000000000E+00  0.00000000000E+00  0.16470331255E+04  0.16470331256E+04  0.25500000920E-02 0.  1.
       -2   -1    0    0    0  501  0.00000000000E+00  0.00000000000E+00 -0.21951430184E+04  0.21951430184E+04  0.25500000920E-02 0. -1.
    10030    2    1    2    0    0  0.00000000000E+00  0.00000000000E+00 -0.54810989282E+03  0.38421761439E+04  0.38028795756E+04 0.  0.
        5    1    3    3  502    0 -0.59316444193E+03 -0.10586976628E+04  0.12048903483E+04  0.17101074931E+04  0.46999998093E+01 0.  1.
       -5    1    3    3    0  502  0.59316444193E+03  0.10586976628E+04 -0.17530002411E+04  0.21320686508E+04  0.46999998093E+01 0. -1.
</event>
<event>
 5   0  0.6661000E-08  0.3813069E+04  0.7818609E-02  0.8043356E-01
       -1   -1    0    0    0  501  0.00000000000E+00  0.00000000000E+00  0.16197858185E+04  0.16197858185E+04  0.50400001928E-02 0. -1.
        1   -1    0    0  501    0  0.00000000000E+00  0.00000000000E+00 -0.22440459205E+04  0.22440459205E+04  0.50400001928E-02 0.  1.
    10030    2    1    2    0    0  0.00000000000E+00  0.00000000000E+00 -0.62426010201E+03  0.38638317389E+04  0.38130689781E+04 0.  0.
        4    1    3    3  502    0 -0.12033857081E+04  0.14738770818E+04 -0.43381761759E+03  0.19515763252E+04  0.12699999809E+01 0. -1.
       -4    1    3    3    0  502  0.12033857081E+04 -0.14738770818E+04 -0.19044248441E+03  0.19122554138E+04  0.12699999809E+01 0.  1.
</event>
<event>
 5   0  0.6661000E-08  0.3778686E+04  0.7818609E-02  0.8050744E-01
        1   -1    0    0  501    0  0.00000000000E+00  0.00000000000E+00  0.19629396128E+04  0.19629396128E+04  0.50400001928E-02 0. -1.
       -1   -1    0    0    0  501  0.00000000000E+00  0.00000000000E+00 -0.18185057556E+04  0.18185057556E+04  0.50400001928E-02 0.  1.
    10030    2    1    2    0    0  0.00000000000E+00  0.00000000000E+00  0.14443385718E+03  0.37814453683E+04  0.37786860064E+04 0.  0.
        2    1    3    3  502    0 -0.14042795010E+04  0.53008908569E+03  0.12204961801E+04  0.19345816813E+04  0.25500000920E-02 0. -1.
       -2    1    3    3    0  502  0.14042795010E+04 -0.53008908569E+03 -0.10760623229E+04  0.18468636871E+04  0.25500000920E-02 0.  1.
</event>
<event>
 5   0  0.2135314E-07  0.3782084E+04  0.7818609E-02  0.8050011E-01
        2   -1    0    0  501    0  0.00000000000E+00  0.00000000000E+00  0.24971105026E+04  0.24971105026E+04  0.25500000920E-02 0. -1.
       -2   -1    0    0    0  501  0.00000000000E+00  0.00000000000E+00 -0.14320712801E+04  0.14320712801E+04  0.25500000920E-02 0.  1.
    10030    2    1    2    0    0  0.00000000000E+00  0.00000000000E+00  0.10650392225E+04  0.39291817827E+04  0.37820842053E+04 0.  0.
        4    1    3    3  502    0 -0.13956822647E+03 -0.14031006306E+04  0.18416355775E+04  0.23194382687E+04  0.12699999809E+01 0. -1.
       -4    1    3    3    0  502  0.13956822647E+03  0.14031006306E+04 -0.77659635499E+03  0.16097435140E+04  0.12699999809E+01 0.  1.
</event>
<event>
 5   0  0.6725199E-08  0.3810791E+04  0.7818609E-02  0.8043843E-01
       -1   -1    0    0    0  501  0.00000000000E+00  0.00000000000E+00  0.17564365795E+04  0.17564365795E+04  0.50400001928E-02 0.  1.
        1   -1    0    0  501    0  0.00000000000E+00  0.00000000000E+00 -0.20669870179E+04  0.20669870179E+04  0.50400001928E-02 0. -1.
    10030    2    1    2    0    0  0.00000000000E+00  0.00000000000E+00 -0.31055043845E+03  0.38234235974E+04  0.38107907880E+04 0.  0.
        5    1    3    3  502    0 -0.77560884406E+03 -0.17319005548E+04  0.16935572649E+02  0.18977242989E+04  0.46999998093E+01 0.  1.
       -5    1    3    3    0  502  0.77560884406E+03  0.17319005548E+04 -0.32748601109E+03  0.19256992985E+04  0.46999998093E+01 0. -1.
</event>
<event>
 5   0  0.2135314E-07  0.3807368E+04  0.7818609E-02  0.8044575E-01
        2   -1    0    0  501    0  0.00000000000E+00  0.00000000000E+00  0.26495734732E+04  0.26495734732E+04  0.25500000920E-02 0.  1.
       -2   -1    0    0    0  501  0.00000000000E+00  0.00000000000E+00 -0.13677724087E+04  0.13677724087E+04  0.25500000920E-02 0. -1.
    10030    2    1    2    0    0  0.00000000000E+00  0.00000000000E+00  0.12818010645E+04  0.40173458819E+04  0.38073683780E+04 0.  0.
        4    1    3    3  502    0 -0.17288485629E+04  0.11310459543E+03  0.14732675848E+04  0.22742535022E+04  0.12699999809E+01 0.  1.
       -4    1    3    3    0  502  0.17288485629E+04 -0.11310459543E+03 -0.19146652030E+03  0.17430923797E+04  0.12699999809E+01 0. -1.
</event>
<event>
 5   0  0.2135314E-07  0.3799703E+04  0.7818609E-02  0.8046219E-01
       -2   -1    0    0    0  501  0.00000000000E+00  0.00000000000E+00  0.27369270004E+04  0.27369270004E+04  0.25500000920E-02 0.  1.
        2   -1    0    0  501    0  0.00000000000E+00  0.00000000000E+00 -0.13187911171E+04  0.13187911171E+04  0.25500000920E-02 0. -1.
    10030    2    1    2    0    0  0.00000000000E+00  0.00000000000E+00  0.14181358832E+04  0.40557181175E+04  0.37997026285E+04 0.  0.
        4    1    3    3  502    0 -0.63620341919E+03  0.67011684288E+03  0.24809221220E+04  0.26474114833E+04  0.12699999809E+01 0.  1.
       -4    1    3    3    0  502  0.63620341919E+03 -0.67011684288E+03 -0.10627862388E+04  0.14083066342E+04  0.12699999809E+01 0. -1.
</event>
<event>
 5   0  0.1370688E-07  0.3844365E+04  0.7818609E-02  0.8036701E-01
        2   -1    0    0  501    0  0.00000000000E+00  0.00000000000E+00  0.11713712129E+04  0.11713712129E+04  0.25500000920E-02 0.  1.
       -2   -1    0    0    0  501  0.00000000000E+00  0.00000000000E+00 -0.31542402071E+04  0.31542402071E+04  0.25500000920E-02 0. -1.
    10030    2    1    2    0    0  0.00000000000E+00  0.00000000000E+00 -0.19828689941E+04  0.43256114200E+04  0.38443653194E+04 0.  0.
        5    1    3    3  502    0 -0.16993107435E+04 -0.83440019913E+03 -0.61675829978E+03  0.19910533859E+04  0.46999998093E+01 0.  1.
       -5    1    3    3    0  502  0.16993107435E+04  0.83440019913E+03 -0.13661106944E+04  0.23345580341E+04  0.46999998093E+01 0. -1.
</event>
<event>
 5   0  0.6661000E-08  0.3801605E+04  0.7818609E-02  0.8045811E-01
        1   -1    0    0  501    0  0.00000000000E+00  0.00000000000E+00  0.23614621535E+04  0.23614621535E+04  0.50400001928E-02 0. -1.
       -1   -1    0    0    0  501  0.00000000000E+00  0.00000000000E+00 -0.15300051904E+04  0.15300051904E+04  0.50400001928E-02 0.  1.
    10030    2    1    2    0    0  0.00000000000E+00  0.00000000000E+00  0.83145696311E+03  0.38914673440E+04  0.38016045833E+04 0.  0.
        2    1    3    3  502    0 -0.31550616630E+02  0.40783437790E+03  0.23158735403E+04  0.23517216196E+04  0.25500000920E-02 0. -1.
       -2    1    3    3    0  502  0.31550616630E+02 -0.40783437790E+03 -0.14844165772E+04  0.15397457244E+04  0.25500000920E-02 0.  1.
</event>
<event>
 5   0  0.6661000E-08  0.3913021E+04  0.7818609E-02  0.8022327E-01
        1   -1    0    0  501    0  0.00000000000E+00  0.00000000000E+00  0.22797313627E+04  0.22797313627E+04  0.50400001928E-02 0. -1.
       -1   -1    0    0    0  501  0.00000000000E+00  0.00000000000E+00 -0.16791160644E+04  0.16791160644E+04  0.50400001928E-02 0.  1.
    10030    2    1    2    0    0  0.00000000000E+00  0.00000000000E+00  0.60061529833E+03  0.39588474271E+04  0.39130211109E+04 0.  0.
        4    1    3    3  502    0  0.48883502418E+03 -0.22364962581E+03 -0.16029341950E+04  0.16906739728E+04  0.12699999809E+01 0.  1.
       -4    1    3    3    0  502 -0.48883502418E+03  0.22364962581E+03  0.22035494933E+04  0.22681734542E+04  0.12699999809E+01 0. -1.
</event>
<event>
 5   0  0.6725199E-08  0.3503663E+04  0.7818609E-02  0.8112922E-01
        1   -1    0    0  501    0  0.00000000000E+00  0.00000000000E+00  0.23844808986E+04  0.23844808986E+04  0.50400001928E-02 0.  1.
       -1   -1    0    0    0  501  0.00000000000E+00  0.00000000000E+00 -0.12870363827E+04  0.12870363827E+04  0.50400001928E-02 0. -1.
    10030    2    1    2    0    0  0.00000000000E+00  0.00000000000E+00  0.10974445159E+04  0.36715172813E+04  0.35036630377E+04 0.  0.
        5    1    3    3  502    0  0.18810055992E+03  0.65060006369E+03 -0.11442996452E+04  0.13297014821E+04  0.46999998093E+01 0. -1.
       -5    1    3    3    0  502 -0.18810055992E+03 -0.65060006369E+03  0.22417441611E+04  0.23418157992E+04  0.46999998093E+01 0.  1.
</event>
<event>
 5   0  0.2081337E-07  0.3784503E+04  0.7818609E-02  0.8049489E-01
       -2   -1    0    0    0  501  0.00000000000E+00  0.00000000000E+00  0.13983799350E+04  0.13983799350E+04  0.25500000920E-02 0. -1.
        2   -1    0    0  501    0  0.00000000000E+00  0.00000000000E+00 -0.25605456802E+04  0.25605456802E+04  0.25500000920E-02 0.  1.
    10030    2    1    2    0    0  0.00000000000E+00  0.00000000000E+00 -0.11621657453E+04  0.39589256152E+04  0.37845029802E+04 0.  0.
        1    1    3    3  502    0  0.10443907176E+04 -0.17159106561E+03  0.10597832002E+04  0.14977769848E+04  0.50400001928E-02 0. -1.
       -1    1    3    3    0  502 -0.10443907176E+04  0.17159106561E+03 -0.22219489455E+04  0.24611486304E+04  0.50400001928E-02 0.  1.
</event>
<event>
 5   0  0.1370688E-07  0.3756359E+04  0.7818609E-02  0.8055585E-01
       -2   -1    0    0    0  501  0.00000000000E+00  0.00000000000E+00  0.18595932449E+04  0.18595932449E+04  0.25500000920E-02 0.  1.
        2   -1    0    0  501    0  0.00000000000E+00  0.00000000000E+00 -0.18969519081E+04  0.18969519081E+04  0.25500000920E-02 0. -1.
    10030    2    1    2    0    0  0.00000000000E+00  0.00000000000E+00 -0.37358663204E+02  0.37565451531E+04  0.37563593834E+04 0.  0.
        5    1    3    3  502    0  0.17170711522E+04  0.60366929706E+03  0.44479466719E+03  0.18736633496E+04  0.46999998093E+01 0.  1.
       -5    1    3    3    0  502 -0.17170711522E+04 -0.60366929706E+03 -0.48215333040E+03  0.18828818035E+04  0.46999998093E+01 0. -1.
</event>
<event>
 5   0  0.2135314E-07  0.3775947E+04  0.7818609E-02  0.8051336E-01
       -2   -1    0    0    0  501  0.00000000000E+00  0.00000000000E+00  0.13927206533E+04  0.13927206533E+04  0.25500000920E-02 0. -1.
        2   -1    0    0  501    0  0.00000000000E+00  0.00000000000E+00 -0.25593390850E+04  0.25593390850E+04  0.25500000920E-02 0.  1.
    10030    2    1    2    0    0  0.00000000000E+00  0.00000000000E+00 -0.11666184317E+04  0.39520597383E+04  0.37759472468E+04 0.  0.
        4    1    3    3  502    0 -0.13389922575E+04 -0.12814714940E+04 -0.95977019536E+03  0.20871583304E+04  0.12699999809E+01 0.  1.
       -4    1    3    3    0  502  0.13389922575E+04  0.12814714940E+04 -0.20684823635E+03  0.18649014079E+04  0.12699999809E+01 0. -1.
</event>
<event>
 5   0  0.6725199E-08  0.3799309E+04  0.7818609E-02  0.8046303E-01
       -1   -1    0    0    0  501  0.00000000000E+00  0.00000000000E+00  0.12666505823E+04  0.12666505823E+04  0.50400001928E-02 0. -1.
        1   -1    0    0  501    0  0.00000000000E+00  0.00000000000E+00 -0.28490000533E+04  0.28490000533E+04  0.50400001928E-02 0.  1.
    10030    2    1    2    0    0  0.00000000000E+00  0.00000000000E+00 -0.15823494711E+04  0.41156506356E+04  0.37993091880E+04 0.  0.
        5    1    3    3  502    0  0.19632394349E+03 -0.11488615056E+04 -0.24161555920E+04  0.26825837889E+04  0.46999998093E+01 0.  1.
       -5    1    3    3    0  502 -0.19632394349E+03  0.11488615056E+04  0.83380612091E+03  0.14330668467E+04  0.46999998093E+01 0. -1.
</event>
<event>
 5   0  0.6661000E-08  0.3772129E+04  0.7818609E-02  0.8052162E-01
        1   -1    0    0  501    0  0.00000000000E+00  0.00000000000E+00  0.28212925784E+04  0.28212925784E+04  0.50400001928E-02 0.  1.
       -1   -1    0    0    0  501  0.00000000000E+00  0.00000000000E+00 -0.12608545072E+04  0.12608545072E+04  0.50400001928E-02 0. -1.
    10030    2    1    2    0    0  0.00000000000E+00  0.00000000000E+00  0.15604380713E+04  0.40821470856E+04  0.37721290877E+04 0.  0.
        1    1    3    3  502    0  0.85021257993E+03 -0.26692626414E+03 -0.10186627975E+04  0.13534345040E+04  0.50400001928E-02 0. -1.
       -1    1    3    3    0  502 -0.85021257993E+03  0.26692626414E+03  0.25791008688E+04  0.27287125816E+04  0.50400001928E-02 0.  1.
</event>
<event>
 5   0  0.1370688E-07  0.3850714E+04  0.7818609E-02  0.8035359E-01
        2   -1    0    0  501    0  0.00000000000E+00  0.00000000000E+00  0.15999178543E+04  0.15999178543E+04  0.25500000920E-02 0.  1.
       -2   -1    0    0    0  501  0.00000000000E+00  0.00000000000E+00 -0.23169933288E+04  0.23169933288E+04  0.25500000920E-02 0. -1.
    10030    2    1    2    0    0  0.00000000000E+00  0.00000000000E+00 -0.71707547457E+03  0.39169111831E+04  0.38507136975E+04 0.  0.
        5    1    3    3  502    0 -0.96241295349E+03 -0.12393925337E+04 -0.14933529048E+04  0.21662081003E+04  0.46999998093E+01 0. -1.
       -5    1    3    3    0  502  0.96241295349E+03  0.12393925337E+04  0.77627743022E+03  0.17507030828E+04  0.46999998093E+01 0.  1.
</event>
<event>
 5   0  0.6661000E-08  0.3759958E+04  0.7818609E-02  0.8054803E-01
       -1   -1    0    0    0  501  0.00000000000E+00  0.00000000000E+00  0.18246827920E+04  0.18246827920E+04  0.50400001928E-02 0.  1.
        1   -1    0    0  501    0  0.00000000000E+00  0.00000000000E+00 -0.19369506274E+04  0.19369506274E+04  0.50400001928E-02 0. -1.
    10030    2    1    2    0    0  0.00000000000E+00  0.00000000000E+00 -0.11226783543E+03  0.37616334194E+04  0.37599577013E+04 0.  0.
        2    1    3    3  502    0  0.11368579111E+04  0.50794342895E+03  0.13529923206E+04  0.18387606306E+04  0.25500000920E-02 0.  1.
       -2    1    3    3    0  502 -0.11368579111E+04 -0.50794342895E+03 -0.14652601560E+04  0.19228727888E+04  0.25500000920E-02 0. -1.
</event>
<event>
 5   0  0.6661000E-08  0.3806606E+04  0.7818609E-02  0.8044739E-01
        1   -1    0    0  501    0  0.00000000000E+00  0.00000000000E+00  0.21975010338E+04  0.21975010338E+04  0.50400001928E-02 0.  1.
       -1   -1    0    0    0  501  0.00000000000E+00  0.00000000000E+00 -0.16484918600E+04  0.16484918600E+04  0.50400001928E-02 0. -1.
    10030    2    1    2    0    0  0.00000000000E+00  0.00000000000E+00  0.54900917379E+03  0.38459928938E+04  0.38066061349E+04 0.  0.
        3    1    3    3  502    0 -0.94508534609E+03  0.45048709641E+03 -0.13314188052E+04  0.16937535182E+04  0.10100000352E+00 0. -1.
       -3    1    3    3    0  502  0.94508534609E+03 -0.45048709641E+03  0.18804279790E+04  0.21522393756E+04  0.10100000352E+00 0.  1.
</event>
<event>
 5   0  0.2081337E-07  0.3813009E+04  0.7818609E-02  0.8043369E-01
       -2   -1    0    0    0  501  0.00000000000E+00  0.00000000000E+00  0.14959120848E+04  0.14959120849E+04  0.25500000920E-02 0. -1.
        2   -1    0    0  501    0  0.00000000000E+00  0.00000000000E+00 -0.24297942251E+04  0.24297942251E+04  0.25500000920E-02 0.  1.
    10030    2    1    2    0    0  0.00000000000E+00  0.00000000000E+00 -0.93388214028E+03  0.39257063100E+04  0.38130085471E+04 0.  0.
        1    1    3    3  502    0 -0.17257205556E+04  0.24288608453E+02  0.36697217369E+03  0.17644744115E+04  0.50400001928E-02 0. -1.
       -1    1    3    3    0  502  0.17257205556E+04 -0.24288608453E+02 -0.13008543140E+04  0.21612318985E+04  0.50400001928E-02 0.  1.
</event>
<event>
 5   0  0.6661000E-08  0.3801649E+04  0.7818609E-02  0.8045801E-01
        1   -1    0    0  501    0  0.00000000000E+00  0.00000000000E+00  0.15553602744E+04  0.15553602744E+04  0.50400001928E-02 0.  1.
       -1   -1    0    0    0  501  0.00000000000E+00  0.00000000000E+00 -0.23230205219E+04  0.23230205219E+04  0.50400001928E-02 0. -1.
    10030    2    1    2    0    0  0.00000000000E+00  0.00000000000E+00 -0.76766024751E+03  0.38783807964E+04  0.38016490298E+04 0.  0.
        2    1    3    3  502    0 -0.69665049975E+03  0.17676445887E+04 -0.32571969957E+03  0.19276884171E+04  0.25500000920E-02 0.  1.
       -2    1    3    3    0  502  0.69665049975E+03 -0.17676445887E+04 -0.44194054794E+03  0.19506923793E+04  0.25500000920E-02 0. -1.
</event>
<event>
 5   0  0.6661000E-08  0.3806376E+04  0.7818609E-02  0.8044788E-01
        1   -1    0    0  501    0  0.00000000000E+00  0.00000000000E+00  0.12414539867E+04  0.12414539867E+04  0.50400001928E-02 0. -1.
       -1   -1    0    0    0  501  0.00000000000E+00  0.00000000000E+00 -0.29176465987E+04  0.29176465987E+04  0.50400001928E-02 0.  1.
    10030    2    1    2    0    0  0.00000000000E+00  0.00000000000E+00 -0.16761926120E+04  0.41591005854E+04  0.38063757049E+04 0.  0.
        4    1    3    3  502    0 -0.43141192991E+03 -0.11551705339E+04 -0.24221192777E+04  0.27179401436E+04  0.12699999809E+01 0.  1.
       -4    1    3    3    0  502  0.43141192991E+03  0.11551705339E+04  0.74592666572E+03  0.14411604419E+04  0.12699999809E+01 0. -1.
</event>
<event>
 5   0  0.2135314E-07  0.3796387E+04  0.7818609E-02  0.8046931E-01
        2   -1    0    0  501    0  0.00000000000E+00  0.00000000000E+00  0.17106926630E+04  0.17106926630E+04  0.25500000920E-02 0.  1.
       -2   -1    0    0    0  501  0.00000000000E+00  0.00000000000E+00 -0.21062452257E+04  0.21062452257E+04  0.25500000920E-02 0. -1.
    10030    2    1    2    0    0  0.00000000000E+00  0.00000000000E+00 -0.39555256261E+03  0.38169378887E+04  0.37963868370E+04 0.  0.
        4    1    3    3  502    0 -0.69297079347E+03 -0.37848038219E+03 -0.19332957885E+04  0.20883223264E+04  0.12699999809E+01 0. -1.
       -4    1    3    3    0  502  0.69297079347E+03  0.37848038219E+03  0.15377432259E+04  0.17286155622E+04  0.12699999809E+01 0.  1.
</event>
<event>
 5   0  0.6725199E-08  0.3832405E+04  0.7818609E-02  0.8039236E-01
        1   -1    0    0  501    0  0.00000000000E+00  0.00000000000E+00  0.18208465560E+04  0.18208465560E+04  0.50400001928E-02 0.  1.
       -1   -1    0    0    0  501  0.00000000000E+00  0.00000000000E+00 -0.20165526265E+04  0.20165526265E+04  0.50400001928E-02 0. -1.
    10030    2    1    2    0    0  0.00000000000E+00  0.00000000000E+00 -0.19570607056E+03  0.38373991825E+04  0.38324054613E+04 0.  0.
        5    1    3    3  502    0 -0.48424599276E+03 -0.99667254626E+03 -0.16632072135E+04  0.19985321291E+04  0.46999998093E+01 0. -1.
       -5    1    3    3    0  502  0.48424599276E+03  0.99667254626E+03  0.14675011429E+04  0.18388670535E+04  0.46999998093E+01 0.  1.
</event>
<event>
 5   0  0.6725199E-08  0.3801565E+04  0.7818609E-02  0.8045819E-01
        1   -1    0    0  501    0  0.00000000000E+00  0.00000000000E+00  0.19371782223E+04  0.19371782223E+04  0.50400001928E-02 0. -1.
       -1   -1    0    0    0  501  0.00000000000E+00  0.00000000000E+00 -0.18650709896E+04  0.18650709896E+04  0.50400001928E-02 0.  1.
    10030    2    1    2    0    0  0.00000000000E+00  0.00000000000E+00  0.72107232701E+02  0.38022492119E+04  0.38015654166E+04 0.  0.
        5    1    3    3  502    0 -0.12177778368E+04  0.79559391060E+03  0.12597933228E+04  0.19243320495E+04  0.46999998093E+01 0. -1.
       -5    1    3    3    0  502  0.12177778368E+04 -0.79559391060E+03 -0.11876860901E+04  0.18779171625E+04  0.46999998093E+01 0.  1.
</event>
<event>
 5   0  0.6661000E-08  0.3806691E+04  0.7818609E-02  0.8044720E-01
        1   -1    0    0  501    0  0.00000000000E+00  0.00000000000E+00  0.15504025608E+04  0.15504025608E+04  0.50400001928E-02 0.  1.
       -1   -1    0    0    0  501  0.00000000000E+00  0.00000000000E+00 -0.23366350369E+04  0.23366350369E+04  0.50400001928E-02 0. -1.
    10030    2    1    2    0    0  0.00000000000E+00  0.00000000000E+00 -0.78623247606E+03  0.38870375977E+04  0.38066914479E+04 0.  0.
        2    1    3    3  502    0  0.10689770133E+04 -0.37219992887E+03 -0.19556029023E+04  0.22595635316E+04  0.25500000920E-02 0. -1.
       -2    1    3    3    0  502 -0.10689770133E+04  0.37219992887E+03  0.11693704262E+04  0.16274740661E+04  0.25500000920E-02 0.  1.
</event>
<event>
 5   0  0.2081337E-07  0.3898640E+04  0.7818609E-02  0.8025312E-01
       -2   -1    0    0    0  501  0.00000000000E+00  0.00000000000E+00  0.25792792564E+04  0.25792792564E+04  0.25500000920E-02 0. -1.
        2   -1    0    0  501    0  0.00000000000E+00  0.00000000000E+00 -0.14732212141E+04  0.14732212141E+04  0.25500000920E-02 0.  1.
    10030    2    1    2    0    0  0.00000000000E+00  0.00000000000E+00  0.11060580423E+04  0.40525004706E+04  0.38986402336E+04 0.  0.
        1    1    3    3  502    0 -0.13431825782E+04 -0.12821872482E+04 -0.63423161615E+02  0.18580005585E+04  0.50400001928E-02 0.  1.
       -1    1    3    3    0  502  0.13431825782E+04  0.12821872482E+04  0.11694812039E+04  0.21944999121E+04  0.50400001928E-02 0. -1.
</event>
<event>
 5   0  0.6661000E-08  0.3795443E+04  0.7818609E-02  0.8047134E-01
       -1   -1    0    0    0  501  0.00000000000E+00  0.00000000000E+00  0.19746185596E+04  0.19746185596E+04  0.50400001928E-02 0. -1.
        1   -1    0    0  501    0  0.00000000000E+00  0.00000000000E+00 -0.18238189132E+04  0.18238189133E+04  0.50400001928E-02 0.  1.
    10030    2    1    2    0    0  0.00000000000E+00  0.00000000000E+00  0.15079964632E+03  0.37984374728E+04  0.37954428861E+04 0.  0.
        2    1    3    3  502    0 -0.51471182132E+03  0.15467688577E+04  0.10477241563E+04  0.19378204421E+04  0.25500000920E-02 0. -1.
       -2    1    3    3    0  502  0.51471182132E+03 -0.15467688577E+04 -0.89692451002E+03  0.18606170307E+04  0.25500000920E-02 0.  1.
</event>
<event>
 5   0  0.2081337E-07  0.3790636E+04  0.7818609E-02  0.8048167E-01
       -2   -1    0    0    0  501  0.00000000000E+00  0.00000000000E+00  0.11387575978E+04  0.11387575978E+04  0.25500000920E-02 0.  1.
        2   -1    0    0  501    0  0.00000000000E+00  0.00000000000E+00 -0.31545174945E+04  0.31545174945E+04  0.25500000920E-02 0. -1.
    10030    2    1    2    0    0  0.00000000000E+00  0.00000000000E+00 -0.20157598967E+04  0.42932750923E+04  0.37906362338E+04 0.  0.
        1    1    3    3  502    0  0.16698620934E+04  0.74445833374E+03 -0.15736963481E+04  0.24122972076E+04  0.50400001928E-02 0.  1.
       -1    1    3    3    0  502 -0.16698620934E+04 -0.74445833374E+03 -0.44206354865E+03  0.18809778847E+04  0.50400001928E-02 0. -1.
</event>
<event>
 5   0  0.2203998E-07  0.3829386E+04  0.7818609E-02  0.8039878E-01
        2   -1    0    0  501    0  0.00000000000E+00  0.00000000000E+00  0.12772395501E+04  0.12772395501E+04  0.25500000920E-02 0. -1.
       -2   -1    0    0    0  501  0.00000000000E+00  0.00000000000E+00 -0.28702907899E+04  0.28702907899E+04  0.25500000920E-02 0.  1.
    10030    2    1    2    0    0  0.00000000000E+00  0.00000000000E+00 -0.15930512398E+04  0.41475303400E+04  0.38293858083E+04 0.  0.
        3    1    3    3  502    0 -0.66855419258E+03 -0.98558764869E+03  0.82726390530E+03  0.14500735502E+04  0.10100000352E+00 0. -1.
       -3    1    3    3    0  502  0.66855419258E+03  0.98558764869E+03 -0.24203151451E+04  0.26974567899E+04  0.10100000352E+00 0.  1.
</event>
<event>
 5   0  0.2203998E-07  0.3689454E+04  0.7818609E-02  0.8070303E-01
       -2   -1    0    0    0  501  0.00000000000E+00  0.00000000000E+00  0.15993422945E+04  0.15993422945E+04  0.25500000920E-02 0. -1.
        2   -1    0    0  501    0  0.00000000000E+00  0.00000000000E+00 -0.21277611994E+04  0.21277611994E+04  0.25500000920E-02 0.  1.
    10030    2    1    2    0    0  0.00000000000E+00  0.00000000000E+00 -0.52841890491E+03  0.37271034939E+04  0.36894544197E+04 0.  0.
        3    1    3    3  502    0  0.18106086226E+04 -0.26137499927E+03 -0.24303440176E+02  0.18295385051E+04  0.10100000352E+00 0.  1.
       -3    1    3    3    0  502 -0.18106086226E+04  0.26137499927E+03 -0.50411546473E+03  0.18975649887E+04  0.10100000352E+00 0. -1.
</event>
<event>
 5   0  0.6661000E-08  0.3938267E+04  0.7818609E-02  0.8017117E-01
        1   -1    0    0  501    0  0.00000000000E+00  0.00000000000E+00  0.16459594027E+04  0.16459594027E+04  0.50400001928E-02 0.  1.
       -1   -1    0    0    0  501  0.00000000000E+00  0.00000000000E+00 -0.23557608923E+04  0.23557608924E+04  0.50400001928E-02 0. -1.
    10030    2    1    2    0    0  0.00000000000E+00  0.00000000000E+00 -0.70980148965E+03  0.40017202951E+04  0.39382670256E+04 0.  0.
        1    1    3    3  502    0 -0.17190826360E+04  0.80641817884E+03  0.17497159852E+03  0.19068745236E+04  0.50400001928E-02 0. -1.
       -1    1    3    3    0  502  0.17190826360E+04 -0.80641817884E+03 -0.88477308816E+03  0.20948457714E+04  0.50400001928E-02 0.  1.
</event>
<event>
 5   0  0.6661000E-08  0.3797692E+04  0.7818609E-02  0.8046650E-01
        1   -1    0    0  501    0  0.00000000000E+00  0.00000000000E+00  0.22089540625E+04  0.22089540625E+04  0.50400001928E-02 0. -1.
       -1   -1    0    0    0  501  0.00000000000E+00  0.00000000000E+00 -0.16322733850E+04  0.16322733850E+04  0.50400001928E-02 0.  1.
    10030    2    1    2    0    0  0.00000000000E+00  0.00000000000E+00  0.57668067745E+03  0.38412274475E+04  0.37976924178E+04 0.  0.
        3    1    3    3  502    0  0.13379164403E+03  0.22441685602E+03  0.21906862300E+04  0.22062115261E+04  0.10100000352E+00 0. -1.
       -3    1    3    3    0  502 -0.13379164403E+03 -0.22441685602E+03 -0.16140055526E+04  0.16350159214E+04  0.10100000352E+00 0.  1.
</event>
<event>
 5   0  0.2203998E-07  0.3783174E+04  0.7818609E-02  0.8049775E-01
       -2   -1    0    0    0  501  0.00000000000E+00  0.00000000000E+00  0.24170553862E+04  0.24170553862E+04  0.25500000920E-02 0. -1.
        2   -1    0    0  501    0  0.00000000000E+00  0.00000000000E+00 -0.14803552023E+04  0.14803552023E+04  0.25500000920E-02 0.  1.
    10030    2    1    2    0    0  0.00000000000E+00  0.00000000000E+00  0.93670018384E+03  0.38974105885E+04  0.37831735436E+04 0.  0.
        3    1    3    3  502    0  0.47646281226E+02 -0.12269512076E+04  0.19506948988E+04  0.23049707227E+04  0.10100000352E+00 0. -1.
       -3    1    3    3    0  502 -0.47646281226E+02  0.12269512076E+04 -0.10139947150E+04  0.15924398658E+04  0.10100000352E+00 0.  1.
</event>
<event>
 5   0  0.6661000E-08  0.3884375E+04  0.7818609E-02  0.8028287E-01
       -1   -1    0    0    0  501  0.00000000000E+00  0.00000000000E+00  0.19247080562E+04  0.19247080562E+04  0.50400001928E-02 0.  1.
        1   -1    0    0  501    0  0.00000000000E+00  0.00000000000E+00 -0.19598259302E+04  0.19598259302E+04  0.50400001928E-02 0. -1.
    10030    2    1    2    0    0  0.00000000000E+00  0.00000000000E+00 -0.35117874011E+02  0.38845339865E+04  0.38843752428E+04 0.  0.
        3    1    3    3  502    0 -0.11460750156E+04 -0.15141252903E+04 -0.42504265586E+03  0.19459508230E+04  0.10100000352E+00 0.  1.
       -3    1    3    3    0  502  0.11460750156E+04  0.15141252903E+04  0.38992478185E+03  0.19385831635E+04  0.10100000352E+00 0. -1.
</event>
<event>
 5   0  0.2205204E-07  0.3756460E+04  0.7818609E-02  0.8055564E-01
       -2   -1    0    0    0  501  0.00000000000E+00  0.00000000000E+00  0.13771222668E+04  0.13771222668E+04  0.25500000920E-02 0. -1.
        2   -1    0    0  501    0  0.00000000000E+00  0.00000000000E+00 -0.25616807803E+04  0.25616807803E+04  0.25500000920E-02 0.  1.
    10030    2    1    2    0    0  0.00000000000E+00  0.00000000000E+00 -0.11845585135E+04  0.39388030472E+04  0.37564598457E+04 0.  0.
        2    1    3    3  502    0  0.11488668394E+03  0.38588422135E+03  0.13313416016E+04  0.13908903776E+04  0.25500000920E-02 0. -1.
       -2    1    3    3    0  502 -0.11488668394E+03 -0.38588422135E+03 -0.25159001151E+04  0.25479126695E+04  0.25500000920E-02 0.  1.
</event>
<event>
 5   0  0.6661000E-08  0.3791247E+04  0.7818609E-02  0.8048036E-01
        1   -1    0    0  501    0  0.00000000000E+00  0.00000000000E+00  0.13474434245E+04  0.13474434246E+04  0.50400001928E-02 0.  1.
       -1   -1    0    0    0  501  0.00000000000E+00  0.00000000000E+00 -0.26668198828E+04  0.26668198828E+04  0.50400001928E-02 0. -1.
    10030    2    1    2    0    0  0.00000000000E+00  0.00000000000E+00 -0.13193764582E+04  0.40142633073E+04  0.37912472436E+04 0.  0.
        1    1    3    3  502    0 -0.77755155771E+03  0.14419261157E+04  0.35017203573E+03  0.16752187328E+04  0.50400001928E-02 0.  1.
       -1    1    3    3    0  502  0.77755155771E+03 -0.14419261157E+04 -0.16695484940E+04  0.23390445746E+04  0.50400001928E-02 0. -1.
</event>
<event>
 5   0  0.6661000E-08  0.3807430E+04  0.7818609E-02  0.8044562E-01
        1   -1    0    0  501    0  0.00000000000E+00  0.00000000000E+00  0.19572042717E+04  0.19572042717E+04  0.50400001928E-02 0.  1.
       -1   -1    0    0    0  501  0.00000000000E+00  0.00000000000E+00 -0.18516875730E+04  0.18516875731E+04  0.50400001928E-02 0. -1.
    10030    2    1    2    0    0  0.00000000000E+00  0.00000000000E+00  0.10551669863E+03  0.38088918447E+04  0.38074300140E+04 0.  0.
        1    1    3    3  502    0 -0.39017108862E+02 -0.17149857263E+04  0.87856450852E+03  0.19273230066E+04  0.50400001928E-02 0.  1.
       -1    1    3    3    0  502  0.39017108862E+02  0.17149857263E+04 -0.77304780989E+03  0.18815688381E+04  0.50400001928E-02 0. -1.
</event>
<event>
 5   0  0.6661000E-08  0.3771918E+04  0.7818609E-02  0.8052208E-01
        1   -1    0    0  501    0  0.00000000000E+00  0.00000000000E+00  0.14593787036E+04  0.14593787036E+04  0.50400001928E-02 0.  1.
       -1   -1    0    0    0  501  0.00000000000E+00  0.00000000000E+00 -0.24372295769E+04  0.24372295769E+04  0.50400001928E-02 0. -1.
    10030    2    1    2    0    0  0.00000000000E+00  0.00000000000E+00 -0.97785087331E+03  0.38966082805E+04  0.37719177829E+04 0.  0.
        2    1    3    3  502    0 -0.73607133773E+03  0.14898207871E+04  0.43245187096E+03  0.17170852083E+04  0.25500000920E-02 0.  1.
       -2    1    3    3    0  502  0.73607133773E+03 -0.14898207871E+04 -0.14103027443E+04  0.21795230722E+04  0.25500000920E-02 0. -1.
</event>
<event>
 5   0  0.2135314E-07  0.3798889E+04  0.7818609E-02  0.8046393E-01
        2   -1    0    0  501    0  0.00000000000E+00  0.00000000000E+00  0.21170731964E+04  0.21170731964E+04  0.25500000920E-02 0.  1.
       -2   -1    0    0    0  501  0.00000000000E+00  0.00000000000E+00 -0.17041874350E+04  0.17041874350E+04  0.25500000920E-02 0. -1.
    10030    2    1    2    0    0  0.00000000000E+00  0.00000000000E+00  0.41288576141E+03  0.38212606313E+04  0.37988890693E+04 0.  0.
        4    1    3    3  502    0  0.13735400870E+04 -0.74893154290E+03  0.12899945434E+04  0.20277076617E+04  0.12699999809E+01 0.  1.
       -4    1    3    3    0  502 -0.13735400870E+04  0.74893154290E+03 -0.87710878201E+03  0.17935529696E+04  0.12699999809E+01 0. -1.
</event>
<event>
 5   0  0.6661000E-08  0.3798740E+04  0.7818609E-02  0.8046425E-01
        1   -1    0    0  501    0  0.00000000000E+00  0.00000000000E+00  0.25930734097E+04  0.25930734097E+04  0.50400001928E-02 0.  1.
       -1   -1    0    0    0  501  0.00000000000E+00  0.00000000000E+00 -0.13912474678E+04  0.13912474678E+04  0.50400001928E-02 0. -1.
    10030    2    1    2    0    0  0.00000000000E+00  0.00000000000E+00  0.12018259419E+04  0.39843208775E+04  0.37987402202E+04 0.  0.
        3    1    3    3  502    0 -0.49888620724E+03 -0.16003908715E+04 -0.33572434844E+03  0.17096342409E+04  0.10100000352E+00 0. -1.
       -3    1    3    3    0  502  0.49888620724E+03  0.16003908715E+04  0.15375502904E+04  0.22746866366E+04  0.10100000352E+00 0.  1.
</event>
<event>
 5   0  0.6725199E-08  0.3799921E+04  0.7818609E-02  0.8046172E-01
       -1   -1    0    0    0  501  0.00000000000E+00  0.00000000000E+00  0.13900222264E+04  0.13900222265E+04  0.50400001928E-02 0. -1.
        1   -1    0    0  501    0  0.00000000000E+00  0.00000000000E+00 -0.25969722760E+04  0.25969722760E+04  0.50400001928E-02 0.  1.
    10030    2    1    2    0    0  0.00000000000E+00  0.00000000000E+00 -0.12069500495E+04  0.39869945025E+04  0.37999206229E+04 0.  0.
        5    1    3    3  502    0 -0.95179609848E+03 -0.73449898132E+03 -0.21471012025E+04  0.24607865065E+04  0.46999998093E+01 0.  1.
       -5    1    3    3    0  502  0.95179609848E+03  0.73449898132E+03  0.94015115295E+03  0.15262079960E+04  0.46999998093E+01 0. -1.
</event>
<event>
 5   0  0.6661000E-08  0.4012402E+04  0.7818609E-02  0.8002049E-01
       -1   -1    0    0    0  501  0.00000000000E+00  0.00000000000E+00  0.25612644094E+04  0.25612644094E+04  0.50400001928E-02 0.  1.
        1   -1    0    0  501    0  0.00000000000E+00  0.00000000000E+00 -0.15714280569E+04  0.15714280569E+04  0.50400001928E-02 0. -1.
    10030    2    1    2    0    0  0.00000000000E+00  0.00000000000E+00  0.98983635252E+03  0.41326924663E+04  0.40124021504E+04 0.  0.
        2    1    3    3  502    0 -0.18468398611E+04 -0.30130692916E+01  0.13020018271E+04  0.22596538029E+04  0.25500000920E-02 0. -1.
       -2    1    3    3    0  502  0.18468398611E+04  0.30130692916E+01 -0.31216547460E+03  0.18730386634E+04  0.25500000920E-02 0.  1.
</event>
<event>
 5   0  0.2205204E-07  0.3791387E+04  0.7818609E-02  0.8048006E-01
       -2   -1    0    0    0  501  0.00000000000E+00  0.00000000000E+00  0.14159707206E+04  0.14159707206E+04  0.25500000920E-02 0.  1.
        2   -1    0    0  501    0  0.00000000000E+00  0.00000000000E+00 -0.25379434464E+04  0.25379434464E+04  0.25500000920E-02 0. -1.
    10030    2    1    2    0    0  0.00000000000E+00  0.00000000000E+00 -0.11219727257E+04  0.39539141670E+04  0.37913868759E+04 0.  0.
        2    1    3    3  502    0  0.92320479087E+03 -0.10687469849E+04  0.75778811096E+03  0.16027382895E+04  0.25500000920E-02 0.  1.
       -2    1    3    3    0  502 -0.92320479087E+03  0.10687469849E+04 -0.18797608367E+04  0.23511758775E+04  0.25500000920E-02 0. -1.
</event>
<event>
 5   0  0.6661000E-08  0.3715410E+04  0.7818609E-02  0.8064555E-01
       -3   -1    0    0    0  501  0.00000000000E+00  0.00000000000E+00  0.16027062030E+04  0.16027062062E+04  0.10100000352E+00 0.  1.
        3   -1    0    0  501    0  0.00000000000E+00  0.00000000000E+00 -0.21532751082E+04  0.21532751105E+04  0.10100000352E+00 0. -1.
    10030    2    1    2    0    0  0.00000000000E+00  0.00000000000E+00 -0.55056890516E+03  0.37559813167E+04  0.37154097395E+04 0.  0.
        1    1    3    3  502    0  0.97908612066E+02 -0.15180648267E+04 -0.13532115523E+04  0.20359981385E+04  0.50400001928E-02 0. -1.
       -1    1    3    3    0  502 -0.97908612066E+02  0.15180648267E+04  0.80264264714E+03  0.17199831783E+04  0.50400001928E-02 0.  1.
</event>
<event>
 5   0  0.2135314E-07  0.3778840E+04  0.7818609E-02  0.8050711E-01
        2   -1    0    0  501    0  0.00000000000E+00  0.00000000000E+00  0.20657767922E+04  0.20657767922E+04  0.25500000920E-02 0. -1.
       -2   -1    0    0    0  501  0.00000000000E+00  0.00000000000E+00 -0.17281186527E+04  0.17281186527E+04  0.25500000920E-02 0.  1.
    10030    2    1    2    0    0  0.00000000000E+00  0.00000000000E+00  0.33765813952E+03  0.37938954449E+04  0.37788397198E+04 0.  0.
        4    1    3    3  502    0 -0.10401709700E+04 -0.61642683134E+03  0.16264980253E+04  0.20266808147E+04  0.12699999809E+01 0. -1.
       -4    1    3    3    0  502  0.10401709700E+04  0.61642683134E+03 -0.12888398858E+04  0.17672146302E+04  0.12699999809E+01 0.  1.
</event>
<event>
 5   0  0.2135314E-07  0.3777278E+04  0.7818609E-02  0.8051049E-01
        2   -1    0    0  501    0  0.00000000000E+00  0.00000000000E+00  0.20375961751E+04  0.20375961751E+04  0.25500000920E-02 0.  1.
       -2   -1    0    0    0  501  0.00000000000E+00  0.00000000000E+00 -0.17505711532E+04  0.17505711533E+04  0.25500000920E-02 0. -1.
    10030    2    1    2    0    0  0.00000000000E+00  0.00000000000E+00  0.28702502183E+03  0.37881673283E+04  0.37772779014E+04 0.  0.
        4    1    3    3  502    0  0.47761447577E+02  0.28009823610E+03  0.20160372640E+04  0.20359626815E+04  0.12699999809E+01 0.  1.
       -4    1    3    3    0  502 -0.47761447577E+02 -0.28009823610E+03 -0.17290122422E+04  0.17522046468E+04  0.12699999809E+01 0. -1.
</event>
<event>
 5   0  0.6661000E-08  0.3712774E+04  0.7818609E-02  0.8065137E-01
       -1   -1    0    0    0  501  0.00000000000E+00  0.00000000000E+00  0.33493932332E+04  0.33493932332E+04  0.50400001928E-02 0.  1.
        1   -1    0    0  501    0  0.00000000000E+00  0.00000000000E+00 -0.10288946145E+04  0.10288946145E+04  0.50400001928E-02 0. -1.
    10030    2    1    2    0    0  0.00000000000E+00  0.00000000000E+00  0.23204986187E+04  0.43782878478E+04  0.37127739816E+04 0.  0.
        4    1    3    3  502    0 -0.15620242191E+03  0.98859740813E+03 -0.68347555520E+03  0.12119671940E+04  0.12699999809E+01 0. -1.
       -4    1    3    3    0  502  0.15620242191E+03 -0.98859740813E+03  0.30039741739E+04  0.31663206537E+04  0.12699999809E+01 0.  1.
</event>
<event>
 5   0  0.2205204E-07  0.3812886E+04  0.7818609E-02  0.8043395E-01
        2   -1    0    0  501    0  0.00000000000E+00  0.00000000000E+00  0.28314584968E+04  0.28314584968E+04  0.25500000920E-02 0. -1.
       -2   -1    0    0    0  501  0.00000000000E+00  0.00000000000E+00 -0.12836227938E+04  0.12836227938E+04  0.25500000920E-02 0.  1.
    10030    2    1    2    0    0  0.00000000000E+00  0.00000000000E+00  0.15478357030E+04  0.41150812907E+04  0.38128858710E+04 0.  0.
        2    1    3    3  502    0 -0.18716160587E+04  0.15115730316E+03  0.41804223061E+03  0.19236825383E+04  0.25500000920E-02 0. -1.
       -2    1    3    3    0  502  0.18716160587E+04 -0.15115730316E+03  0.11297934724E+04  0.21913987524E+04  0.25500000920E-02 0.  1.
</event>
<event>
 5   0  0.2135314E-07  0.3809587E+04  0.7818609E-02  0.8044101E-01
        2   -1    0    0  501    0  0.00000000000E+00  0.00000000000E+00  0.16933732990E+04  0.16933732990E+04  0.25500000920E-02 0. -1.
       -2   -1    0    0    0  501  0.00000000000E+00  0.00000000000E+00 -0.21426103911E+04  0.21426103911E+04  0.25500000920E-02 0.  1.
    10030    2    1    2    0    0  0.00000000000E+00  0.00000000000E+00 -0.44923709204E+03  0.38359836901E+04  0.38095874981E+04 0.  0.
        4    1    3    3  502    0  0.53681360990E+02  0.18132830008E+04 -0.80947061871E+03  0.19864846400E+04  0.12699999809E+01 0.  1.
       -4    1    3    3    0  502 -0.53681360990E+02 -0.18132830008E+04  0.36023352667E+03  0.18494990501E+04  0.12699999809E+01 0. -1.
</event>
<event>
 5   0  0.1370688E-07  0.3788717E+04  0.7818609E-02  0.8048580E-01
        2   -1    0    0  501    0  0.00000000000E+00  0.00000000000E+00  0.27953556921E+04  0.27953556921E+04  0.25500000920E-02 0.  1.
       -2   -1    0    0    0  501  0.00000000000E+00  0.00000000000E+00 -0.12837702174E+04  0.12837702174E+04  0.25500000920E-02 0. -1.
    10030    2    1    2    0    0  0.00000000000E+00  0.00000000000E+00  0.15115854747E+04  0.40791259095E+04  0.37887171362E+04 0.  0.
        5    1    3    3  502    0  0.14461388145E+04 -0.32510117311E+03  0.20258594362E+04  0.25102065231E+04  0.46999998093E+01 0.  1.
       -5    1    3    3    0  502 -0.14461388145E+04  0.32510117311E+03 -0.51427396146E+03  0.15689193864E+04  0.46999998093E+01 0. -1.
</event>
<event>
 5   0  0.1370688E-07  0.3759464E+04  0.7818609E-02  0.8054910E-01
        2   -1    0    0  501    0  0.00000000000E+00  0.00000000000E+00  0.18624079433E+04  0.18624079433E+04  0.25500000920E-02 0. -1.
       -2   -1    0    0    0  501  0.00000000000E+00  0.00000000000E+00 -0.18972167305E+04  0.18972167305E+04  0.25500000920E-02 0.  1.
    10030    2    1    2    0    0  0.00000000000E+00  0.00000000000E+00 -0.34808787153E+02  0.37596246738E+04  0.37594635304E+04 0.  0.
        5    1    3    3  502    0  0.12957112542E+04 -0.55411466723E+03  0.12266178578E+04  0.18682944569E+04  0.46999998093E+01 0. -1.
       -5    1    3    3    0  502 -0.12957112542E+04  0.55411466723E+03 -0.12614266449E+04  0.18913302169E+04  0.46999998093E+01 0.  1.
</event>
<event>
 5   0  0.1370688E-07  0.3791010E+04  0.7818609E-02  0.8048087E-01
        2   -1    0    0  501    0  0.00000000000E+00  0.00000000000E+00  0.16619450572E+04  0.16619450572E+04  0.25500000920E-02 0. -1.
       -2   -1    0    0    0  501  0.00000000000E+00  0.00000000000E+00 -0.21618884638E+04  0.21618884638E+04  0.25500000920E-02 0.  1.
    10030    2    1    2    0    0  0.00000000000E+00  0.00000000000E+00 -0.49994340657E+03  0.38238335210E+04  0.37910103385E+04 0.  0.
        5    1    3    3  502    0  0.62673518342E+03 -0.15243563592E+04  0.69432761277E+03  0.17884552619E+04  0.46999998093E+01 0. -1.
       -5    1    3    3    0  502 -0.62673518342E+03  0.15243563592E+04 -0.11942710193E+04  0.20353782591E+04  0.46999998093E+01 0.  1.
</event>
<event>
 5   0  0.6725199E-08  0.3802406E+04  0.7818609E-02  0.8045639E-01
        1   -1    0    0  501    0  0.00000000000E+00  0.00000000000E+00  0.14996700985E+04  0.14996700985E+04  0.50400001928E-02 0. -1.
       -1   -1    0    0    0  501  0.00000000000E+00  0.00000000000E+00 -0.24102447845E+04  0.24102447845E+04  0.50400001928E-02 0.  1.
    10030    2    1    2    0    0  0.00000000000E+00  0.00000000000E+00 -0.91057468599E+03  0.39099148830E+04  0.38024055719E+04 0.  0.
        5    1    3    3  502    0 -0.72627633147E+03  0.16324747364E+04  0.21277341113E+03  0.17993736936E+04  0.46999998093E+01 0. -1.
       -5    1    3    3    0  502  0.72627633147E+03 -0.16324747364E+04 -0.11233480971E+04  0.21105411894E+04  0.46999998093E+01 0.  1.
</event>
<event>
 5   0  0.1370688E-07  0.3796565E+04  0.7818609E-02  0.8046892E-01
       -2   -1    0    0    0  501  0.00000000000E+00  0.00000000000E+00  0.25905799394E+04  0.25905799394E+04  0.25500000920E-02 0. -1.
        2   -1    0    0  501    0  0.00000000000E+00  0.00000000000E+00 -0.13909924575E+04  0.13909924575E+04  0.25500000920E-02 0.  1.
    10030    2    1    2    0    0  0.00000000000E+00  0.00000000000E+00  0.11995874820E+04  0.39815723969E+04  0.37965653722E+04 0.  0.
        5    1    3    3  502    0  0.74475690655E+03  0.18729865227E+03 -0.12208063803E+04  0.14422669459E+04  0.46999998093E+01 0. -1.
       -5    1    3    3    0  502 -0.74475690655E+03 -0.18729865227E+03  0.24203938623E+04  0.25393054510E+04  0.46999998093E+01 0.  1.
</event>
<event>
 5   0  0.2081337E-07  0.3676209E+04  0.7818609E-02  0.8073255E-01
       -2   -1    0    0    0  501  0.00000000000E+00  0.00000000000E+00  0.14873728311E+04  0.14873728311E+04  0.25500000920E-02 0. -1.
        2   -1    0    0  501    0  0.00000000000E+00  0.00000000000E+00 -0.22715408669E+04  0.22715408669E+04  0.25500000920E-02 0.  1.
    10030    2    1    2    0    0  0.00000000000E+00  0.00000000000E+00 -0.78416803583E+03  0.37589136980E+04  0.36762090094E+04 0.  0.
        1    1    3    3  502    0 -0.13061430329E+04 -0.86997556917E+03 -0.13705669288E+04  0.20835836484E+04  0.50400001928E-02 0.  1.
       -1    1    3    3    0  502  0.13061430329E+04  0.86997556917E+03  0.58639889302E+03  0.16753300496E+04  0.50400001928E-02 0. -1.
</event>
<event>
 5   0  0.6661000E-08  0.3803506E+04  0.7818609E-02  0.8045403E-01
        1   -1    0    0  501    0  0.00000000000E+00  0.00000000000E+00  0.24606331394E+04  0.24606331394E+04  0.50400001928E-02 0. -1.
       -1   -1    0    0    0  501  0.00000000000E+00  0.00000000000E+00 -0.14698108023E+04  0.14698108023E+04  0.50400001928E-02 0.  1.
    10030    2    1    2    0    0  0.00000000000E+00  0.00000000000E+00  0.99082233706E+03  0.39304439417E+04  0.38035063659E+04 0.  0.
        4    1    3    3  502    0 -0.72250584835E+02 -0.18986918602E+04  0.41265973725E+03  0.19443612315E+04  0.12699999809E+01 0. -1.
       -4    1    3    3    0  502  0.72250584835E+02  0.18986918602E+04  0.57816259981E+03  0.19860827102E+04  0.12699999809E+01 0.  1.
</event>
<event>
 5   0  0.2203998E-07  0.3850764E+04  0.7818609E-02  0.8035348E-01
       -2   -1    0    0    0  501  0.00000000000E+00  0.00000000000E+00  0.27829181043E+04  0.27829181043E+04  0.25500000920E-02 0.  1.
        2   -1    0    0  501    0  0.00000000000E+00  0.00000000000E+00 -0.13320896726E+04  0.13320896726E+04  0.25500000920E-02 0. -1.
    10030    2    1    2    0    0  0.00000000000E+00  0.00000000000E+00  0.14508284316E+04  0.41150077769E+04  0.38507643223E+04 0.  0.
        3    1    3    3  502    0 -0.98713088891E+03 -0.57884880419E+03 -0.92925950298E+03  0.14741155192E+04  0.10100000352E+00 0. -1.
       -3    1    3    3    0  502  0.98713088891E+03  0.57884880419E+03  0.23800879346E+04  0.26408922577E+04  0.10100000352E+00 0.  1.
</event>
<event>
 5   0  0.6661000E-08  0.3800163E+04  0.7818609E-02  0.8046120E-01
        1   -1    0    0  501    0  0.00000000000E+00  0.00000000000E+00  0.18294087457E+04  0.18294087457E+04  0.50400001928E-02 0.  1.
       -1   -1    0    0    0  501  0.00000000000E+00  0.00000000000E+00 -0.19734845812E+04  0.19734845812E+04  0.50400001928E-02 0. -1.
    10030    2    1    2    0    0  0.00000000000E+00  0.00000000000E+00 -0.14407583550E+03  0.38028933270E+04  0.38001631294E+04 0.  0.
        3    1    3    3  502    0 -0.14727468088E+04 -0.18838639740E+03 -0.12585698795E+04  0.19463994321E+04  0.10100000352E+00 0. -1.
       -3    1    3    3    0  502  0.14727468088E+04  0.18838639740E+03  0.11144940440E+04  0.18564938949E+04  0.10100000352E+00 0.  1.
</event>
<event>
 5   0  0.6661000E-08  0.3793355E+04  0.7818609E-02  0.8047582E-01
       -1   -1    0    0    0  501  0.00000000000E+00  0.00000000000E+00  0.13960652933E+04  0.13960652933E+04  0.50400001928E-02 0.  1.
        1   -1    0    0  501    0  0.00000000000E+00  0.00000000000E+00 -0.25768030186E+04  0.25768030186E+04  0.50400001928E-02 0. -1.
    10030    2    1    2    0    0  0.00000000000E+00  0.00000000000E+00 -0.11807377253E+04  0.39728683119E+04  0.37933548540E+04 0.  0.
        3    1    3    3  502    0  0.16106475755E+04 -0.72414997191E+03  0.13433520360E+03  0.17710518771E+04  0.10100000352E+00 0.  1.
       -3    1    3    3    0  502 -0.16106475755E+04  0.72414997191E+03 -0.13150729289E+04  0.22018164349E+04  0.10100000352E+00 0. -1.
</event>
<event>
 5   0  0.6725199E-08  0.3707129E+04  0.7818609E-02  0.8066384E-01
       -1   -1    0    0    0  501  0.00000000000E+00  0.00000000000E+00  0.24782216778E+04  0.24782216779E+04  0.50400001928E-02 0. -1.
        1   -1    0    0  501    0  0.00000000000E+00  0.00000000000E+00 -0.13863578390E+04  0.13863578390E+04  0.50400001928E-02 0.  1.
    10030    2    1    2    0    0  0.00000000000E+00  0.00000000000E+00  0.10918638389E+04  0.38645795169E+04  0.37071293745E+04 0.  0.
        5    1    3    3  502    0  0.50606406524E+03 -0.91263897248E+03 -0.10510148649E+04  0.14811026529E+04  0.46999998093E+01 0.  1.
       -5    1    3    3    0  502 -0.50606406524E+03  0.91263897248E+03  0.21428787037E+04  0.23834768640E+04  0.46999998093E+01 0. -1.
</event>
<event>
 5   0  0.2205204E-07  0.3764981E+04  0.7818609E-02  0.8053712E-01
       -2   -1    0    0    0  501  0.00000000000E+00  0.00000000000E+00  0.20002555827E+04  0.20002555827E+04  0.25500000920E-02 0.  1.
        2   -1    0    0  501    0  0.00000000000E+00  0.00000000000E+00 -0.17716586067E+04  0.17716586067E+04  0.25500000920E-02 0. -1.
    10030    2    1    2    0    0  0.00000000000E+00  0.00000000000E+00  0.22859697592E+03  0.37719141894E+04  0.37649807536E+04 0.  0.
        2    1    3    3  502    0  0.15743800469E+04 -0.14004332283E+03  0.11386712457E+04  0.19480392373E+04  0.25500000920E-02 0.  1.
       -2    1    3    3    0  502 -0.15743800469E+04  0.14004332283E+03 -0.91007426980E+03  0.18238749521E+04  0.25500000920E-02 0. -1.
</event>
<event>
 5   0  0.1370688E-07  0.3423906E+04  0.7818609E-02  0.8132064E-01
       -2   -1    0    0    0  501  0.00000000000E+00  0.00000000000E+00  0.24775055881E+04  0.24775055881E+04  0.25500000920E-02 0.  1.
        2   -1    0    0  501    0  0.00000000000E+00  0.00000000000E+00 -0.11829574177E+04  0.11829574177E+04  0.25500000920E-02 0. -1.
    10030    2    1    2    0    0  0.00000000000E+00  0.00000000000E+00  0.12945481704E+04  0.36604630057E+04  0.34239063146E+04 0.  0.
        5    1    3    3  502    0 -0.66103782591E+03  0.73455961612E+03  0.21417883451E+04  0.23587768529E+04  0.46999998093E+01 0.  1.
       -5    1    3    3    0  502  0.66103782591E+03 -0.73455961612E+03 -0.84724017463E+03  0.13016861528E+04  0.46999998093E+01 0. -1.
</event>
<event>
 5   0  0.6661000E-08  0.3804908E+04  0.7818609E-02  0.8045102E-01
       -1   -1    0    0    0  501  0.00000000000E+00  0.00000000000E+00  0.22005979371E+04  0.22005979371E+04  0.50400001928E-02 0. -1.
        1   -1    0    0  501    0  0.00000000000E+00  0.00000000000E+00 -0.16447035926E+04  0.16447035926E+04  0.50400001928E-02 0.  1.
    10030    2    1    2    0    0  0.00000000000E+00  0.00000000000E+00  0.55589434449E+03  0.38453015298E+04  0.38049080584E+04 0.  0.
        4    1    3    3  502    0 -0.33374368762E+03  0.18573004083E+04  0.52213191215E+03  0.19579512257E+04  0.12699999809E+01 0. -1.
       -4    1    3    3    0  502  0.33374368762E+03 -0.18573004083E+04  0.33762432337E+02  0.18873503041E+04  0.12699999809E+01 0.  1.
</event>
<event>
 5   0  0.2135314E-07  0.3810867E+04  0.7818609E-02  0.8043827E-01
       -2   -1    0    0    0  501  0.00000000000E+00  0.00000000000E+00  0.32924073482E+04  0.32924073482E+04  0.25500000920E-02 0.  1.
        2   -1    0    0  501    0  0.00000000000E+00  0.00000000000E+00 -0.11027424380E+04  0.11027424380E+04  0.25500000920E-02 0. -1.
    10030    2    1    2    0    0  0.00000000000E+00  0.00000000000E+00  0.21896649102E+04  0.43951497862E+04  0.38108672535E+04 0.  0.
        4    1    3    3  502    0  0.68206480012E+03  0.10494453706E+04  0.27518157958E+04  0.30230844785E+04  0.12699999809E+01 0.  1.
       -4    1    3    3    0  502 -0.68206480012E+03 -0.10494453706E+04 -0.56215088559E+03  0.13720653077E+04  0.12699999809E+01 0. -1.
</event>
<event>
 5   0  0.6725199E-08  0.3798899E+04  0.7818609E-02  0.8046391E-01
        1   -1    0    0  501    0  0.00000000000E+00  0.00000000000E+00  0.16407392790E+04  0.16407392790E+04  0.50400001928E-02 0.  1.
       -1   -1    0    0    0  501  0.00000000000E+00  0.00000000000E+00 -0.21989526116E+04  0.21989526116E+04  0.50400001928E-02 0. -1.
    10030    2    1    2    0    0  0.00000000000E+00  0.00000000000E+00 -0.55821333262E+03  0.38396918906E+04  0.37988987470E+04 0.  0.
        5    1    3    3  502    0 -0.58184538656E+03 -0.17540250207E+04 -0.72284029013E+03  0.19843558154E+04  0.46999998093E+01 0. -1.
       -5    1    3    3    0  502  0.58184538656E+03  0.17540250207E+04  0.16462695751E+03  0.18553360752E+04  0.46999998093E+01 0.  1.
</event>
<event>
 5   0  0.2205204E-07  0.3878387E+04  0.7818609E-02  0.8029539E-01
       -2   -1    0    0    0  501  0.00000000000E+00  0.00000000000E+00  0.16707863376E+04  0.16707863376E+04  0.25500000920E-02 0.  1.
        2   -1    0    0  501    0  0.00000000000E+00  0.00000000000E+00 -0.22507189598E+04  0.22507189598E+04  0.25500000920E-02 0. -1.
    10030    2    1    2    0    0  0.00000000000E+00  0.00000000000E+00 -0.57993262224E+03  0.39215052974E+04  0.38783865139E+04 0.  0.
        2    1    3    3  502    0 -0.10687078478E+04  0.11601334874E+04 -0.14305251588E+04  0.21294244299E+04  0.25500000920E-02 0. -1.
       -2    1    3    3    0  502  0.10687078478E+04 -0.11601334874E+04  0.85059253656E+03  0.17920808676E+04  0.25500000920E-02 0.  1.
</event>
<event>
 5   0  0.2203998E-07  0.3814731E+04  0.7818609E-02  0.8043001E-01
        2   -1    0    0  501    0  0.00000000000E+00  0.00000000000E+00  0.25002639099E+04  0.25002639099E+04  0.25500000920E-02 0.  1.
       -2   -1    0    0    0  501  0.00000000000E+00  0.00000000000E+00 -0.14550638175E+04  0.14550638175E+04  0.25500000920E-02 0. -1.
    10030    2    1    2    0    0  0.00000000000E+00  0.00000000000E+00  0.10452000924E+04  0.39553277274E+04  0.38147312091E+04 0.  0.
        3    1    3    3  502    0  0.15218229029E+04  0.22334152297E+03  0.16920971621E+04  0.22867048782E+04  0.10100000352E+00 0.  1.
       -3    1    3    3    0  502 -0.15218229029E+04 -0.22334152297E+03 -0.64689706977E+03  0.16686228492E+04  0.10100000352E+00 0. -1.
</event>
<event>
 5   0  0.6661000E-08  0.3597274E+04  0.7818609E-02  0.8091116E-01
       -1   -1    0    0    0  501  0.00000000000E+00  0.00000000000E+00  0.20276098343E+04  0.20276098343E+04  0.50400001928E-02 0.  1.
        1   -1    0    0  501    0  0.00000000000E+00  0.00000000000E+00 -0.15955218751E+04  0.15955218751E+04  0.50400001928E-02 0. -1.
    10030    2    1    2    0    0  0.00000000000E+00  0.00000000000E+00  0.43208795919E+03  0.36231317094E+04  0.35972744376E+04 0.  0.
        2    1    3    3  502    0  0.99381147650E+03  0.14936918377E+04  0.87378762868E+02  0.17962214799E+04  0.25500000920E-02 0. -1.
       -2    1    3    3    0  502 -0.99381147650E+03 -0.14936918377E+04  0.34470919632E+03  0.18269102295E+04  0.25500000920E-02 0.  1.
</event>
<event>
 5   0  0.6725199E-08  0.3764432E+04  0.7818609E-02  0.8053831E-01
       -1   -1    0    0    0  501  0.00000000000E+00  0.00000000000E+00  0.16578595036E+04  0.16578595036E+04  0.50400001928E-02 0.  1.
        1   -1    0    0  501    0  0.00000000000E+00  0.00000000000E+00 -0.21369349654E+04  0.21369349654E+04  0.50400001928E-02 0. -1.
    10030    2    1    2    0    0  0.00000000000E+00  0.00000000000E+00 -0.47907546179E+03  0.37947944690E+04  0.37644324624E+04 0.  0.
        5    1    3    3  502    0 -0.13133960062E+04  0.47175231690E+03  0.10336440126E+04  0.17366638571E+04  0.46999998093E+01 0.  1.
       -5    1    3    3    0  502  0.13133960062E+04 -0.47175231690E+03 -0.15127194744E+04  0.20581306119E+04  0.46999998093E+01 0. -1.
</event>
<event>
 5   0  0.2203998E-07  0.3513345E+04  0.7818609E-02  0.8110635E-01
       -2   -1    0    0    0  501  0.00000000000E+00  0.00000000000E+00  0.12202742875E+04  0.12202742875E+04  0.25500000920E-02 0.  1.
        2   -1    0    0  501    0  0.00000000000E+00  0.00000000000E+00 -0.25288562348E+04  0.25288562348E+04  0.25500000920E-02 0. -1.
    10030    2    1    2    0    0  0.00000000000E+00  0.00000000000E+00 -0.13085819473E+04  0.37491305222E+04  0.35133449816E+04 0.  0.
        3    1    3    3  502    0  0.47604975475E+03  0.16274841908E+04 -0.16461580176E+03  0.17036509421E+04  0.10100000352E+00 0.  1.
       -3    1    3    3    0  502 -0.47604975475E+03 -0.16274841908E+04 -0.11439661455E+04  0.20454795801E+04  0.10100000352E+00 0. -1.
</event>
<event>
 5   0  0.2203998E-07  0.3792468E+04  0.7818609E-02  0.8047773E-01
        2   -1    0    0  501    0  0.00000000000E+00  0.00000000000E+00  0.14442316145E+04  0.14442316145E+04  0.25500000920E-02 0. -1.
       -2   -1    0    0    0  501  0.00000000000E+00  0.00000000000E+00 -0.24897002927E+04  0.24897002927E+04  0.25500000920E-02 0.  1.
    10030    2    1    2    0    0  0.00000000000E+00  0.00000000000E+00 -0.10454686782E+04  0.39339319073E+04  0.37924682588E+04 0.  0.
        3    1    3    3  502    0 -0.10323724940E+04 -0.11340797598E+04  0.63411184928E+03  0.16595263527E+04  0.10100000352E+00 0. -1.
       -3    1    3    3    0  502  0.10323724940E+04  0.11340797598E+04 -0.16795805275E+04  0.22744055545E+04  0.10100000352E+00 0.  1.
</event>
<event>
 5   0  0.2205204E-07  0.3784134E+04  0.7818609E-02  0.8049568E-01
       -2   -1    0    0    0  501  0.00000000000E+00  0.00000000000E+00  0.27506487666E+04  0.27506487666E+04  0.25500000920E-02 0.  1.
        2   -1    0    0  501    0  0.00000000000E+00  0.00000000000E+00 -0.13014808372E+04  0.13014808372E+04  0.25500000920E-02 0. -1.
    10030    2    1    2    0    0  0.00000000000E+00  0.00000000000E+00  0.14491679294E+04  0.40521296038E+04  0.37841335386E+04 0.  0.
        2    1    3    3  502    0  0.30315015077E+03 -0.10383685646E+04  0.23868787316E+04  0.26205532563E+04  0.25500000920E-02 0.  1.
       -2    1    3    3    0  502 -0.30315015077E+03  0.10383685646E+04 -0.93771080227E+03  0.14315763474E+04  0.25500000920E-02 0. -1.
</event>
<event>
 5   0  0.6661000E-08  0.3772645E+04  0.7818609E-02  0.8052051E-01
       -1   -1    0    0    0  501  0.00000000000E+00  0.00000000000E+00  0.27790228094E+04  0.27790228094E+04  0.50400001928E-02 0. -1.
        1   -1    0    0  501    0  0.00000000000E+00  0.00000000000E+00 -0.12803825230E+04  0.12803825230E+04  0.50400001928E-02 0.  1.
    10030    2    1    2    0    0  0.00000000000E+00  0.00000000000E+00  0.14986402864E+04  0.40594053323E+04  0.37726448208E+04 0.  0.
        1    1    3    3  502    0 -0.11584548099E+04  0.14617259912E+04  0.44583212687E+03  0.19176617807E+04  0.50400001928E-02 0.  1.
       -1    1    3    3    0  502  0.11584548099E+04 -0.14617259912E+04  0.10528081595E+04  0.21417435516E+04  0.50400001928E-02 0. -1.
</event>
<event>
 5   0  0.2135314E-07  0.3796663E+04  0.7818609E-02  0.8046871E-01
       -2   -1    0    0    0  501  0.00000000000E+00  0.00000000000E+00  0.11800326575E+04  0.11800326575E+04  0.25500000920E-02 0. -1.
        2   -1    0    0  501    0  0.00000000000E+00  0.00000000000E+00 -0.30538661445E+04  0.30538661445E+04  0.25500000920E-02 0.  1.
    10030    2    1    2    0    0  0.00000000000E+00  0.00000000000E+00 -0.18738334870E+04  0.42338988020E+04  0.37966626304E+04 0.  0.
        4    1    3    3  502    0  0.15444966747E+03  0.14314370040E+03 -0.30408003012E+04  0.30480834803E+04  0.12699999809E+01 0.  1.
       -4    1    3    3    0  502 -0.15444966747E+03 -0.14314370040E+03  0.11669668142E+04  0.11858153217E+04  0.12699999809E+01 0. -1.
</event>
<event>
 5   0  0.2203998E-07  0.3794788E+04  0.7818609E-02  0.8047274E-01
       -2   -1    0    0    0  501  0.00000000000E+00  0.00000000000E+00  0.16710919510E+04  0.16710919510E+04  0.25500000920E-02 0.  1.
        2   -1    0    0  501    0  0.00000000000E+00  0.00000000000E+00 -0.21543425163E+04  0.21543425163E+04  0.25500000920E-02 0. -1.
    10030    2    1    2    0    0  0.00000000000E+00  0.00000000000E+00 -0.48325056525E+03  0.38254344673E+04  0.37947882358E+04 0.  0.
        3    1    3    3  502    0  0.14935797075E+04 -0.56407123412E+03  0.79190950512E+03  0.17821552610E+04  0.10100000352E+00 0.  1.
       -3    1    3    3    0  502 -0.14935797075E+04  0.56407123412E+03 -0.12751600704E+04  0.20432792063E+04  0.10100000352E+00 0. -1.
</event>
<event>
 5   0  0.1370688E-07  0.3789422E+04  0.7818609E-02  0.8048429E-01
       -2   -1    0    0    0  501  0.00000000000E+00  0.00000000000E+00  0.18135771206E+04  0.18135771206E+04  0.25500000920E-02 0.  1.
        2   -1    0    0  501    0  0.00000000000E+00  0.00000000000E+00 -0.19794746540E+04  0.19794746540E+04  0.25500000920E-02 0. -1.
    10030    2    1    2    0    0  0.00000000000E+00  0.00000000000E+00 -0.16589753341E+03  0.37930517746E+04  0.37894220896E+04 0.  0.
        5    1    3    3  502    0  0.43444065125E+03 -0.16536551406E+04 -0.90018279116E+03  0.19322694302E+04  0.46999998093E+01 0. -1.
       -5    1    3    3    0  502 -0.43444065125E+03  0.16536551406E+04  0.73428525775E+03  0.18607823444E+04  0.46999998093E+01 0.  1.
</event>
<event>
 5   0  0.6661000E-08  0.3784836E+04  0.7818609E-02  0.8049417E-01
        1   -1    0    0  501    0  0.00000000000E+00  0.00000000000E+00  0.26730624212E+04  0.26730624213E+04  0.50400001928E-02 0.  1.
       -1   -1    0    0    0  501  0.00000000000E+00  0.00000000000E+00 -0.13397542039E+04  0.13397542039E+04  0.50400001928E-02 0. -1.
    10030    2    1    2    0    0  0.00000000000E+00  0.00000000000E+00  0.13333082173E+04  0.40128166252E+04  0.37848363855E+04 0.  0.
        4    1    3    3  502    0 -0.11961144184E+04  0.82351562753E+03  0.19531599500E+04  0.24338658742E+04  0.12699999809E+01 0.  1.
       -4    1    3    3    0  502  0.11961144184E+04 -0.82351562753E+03 -0.61985173267E+03  0.15789507510E+04  0.12699999809E+01 0. -1.
</event>
<event>
 5   0  0.2081337E-07  0.3814494E+04  0.7818609E-02  0.8043052E-01
       -2   -1    0    0    0  501  0.00000000000E+00  0.00000000000E+00  0.33101225257E+04  0.33101225257E+04  0.25500000920E-02 0. -1.
        2   -1    0    0  501    0  0.00000000000E+00  0.00000000000E+00 -0.10989294447E+04  0.10989294447E+04  0.25500000920E-02 0.  1.
    10030    2    1    2    0    0  0.00000000000E+00  0.00000000000E+00  0.22111930810E+04  0.44090519704E+04  0.38144939948E+04 0.  0.
        1    1    3    3  502    0  0.64981871554E+03 -0.46889904117E+03  0.31061035448E+04  0.32078045304E+04  0.50400001928E-02 0. -1.
       -1    1    3    3    0  502 -0.64981871554E+03  0.46889904117E+03 -0.89491046381E+03  0.12012474400E+04  0.50400001928E-02 0.  1.
</event>
<event>
 5   0  0.6725199E-08  0.3813512E+04  0.7818609E-02  0.8043261E-01
        1   -1    0    0  501    0  0.00000000000E+00  0.00000000000E+00  0.14372961143E+04  0.14372961143E+04  0.50400001928E-02 0. -1.
       -1   -1    0    0    0  501  0.00000000000E+00  0.00000000000E+00 -0.25295544562E+04  0.25295544562E+04  0.50400001928E-02 0.  1.
    10030    2    1    2    0    0  0.00000000000E+00  0.00000000000E+00 -0.10922583419E+04  0.39668505706E+04  0.38135121822E+04 0.  0.
        5    1    3    3  502    0  0.63133745509E+03  0.13611624569E+04  0.67776285199E+03  0.16464309247E+04  0.46999998093E+01 0. -1.
       -5    1    3    3    0  502 -0.63133745509E+03 -0.13611624569E+04 -0.17700211939E+04  0.23204196459E+04  0.46999998093E+01 0.  1.
</event>
<event>
 5   0  0.6661000E-08  0.3825049E+04  0.7818609E-02  0.8040801E-01
        1   -1    0    0  501    0  0.00000000000E+00  0.00000000000E+00  0.21859332918E+04  0.21859332918E+04  0.50400001928E-02 0.  1.
       -1   -1    0    0    0  501  0.00000000000E+00  0.00000000000E+00 -0.16733125233E+04  0.16733125233E+04  0.50400001928E-02 0. -1.
    10030    2    1    2    0    0  0.00000000000E+00  0.00000000000E+00  0.51262076847E+03  0.38592458151E+04  0.38250487852E+04 0.  0.
        4    1    3    3  502    0 -0.14534042997E+03  0.18284462347E+04 -0.29020423442E+03  0.18570297748E+04  0.12699999809E+01 0. -1.
       -4    1    3    3    0  502  0.14534042997E+03 -0.18284462347E+04  0.80282500290E+03  0.20022160403E+04  0.12699999809E+01 0.  1.
</event>
<event>
 5   0  0.2203998E-07  0.3823316E+04  0.7818609E-02  0.8041170E-01
       -2   -1    0    0    0  501  0.00000000000E+00  0.00000000000E+00  0.22485739564E+04  0.22485739564E+04  0.25500000920E-02 0. -1.
        2   -1    0    0  501    0  0.00000000000E+00  0.00000000000E+00 -0.16252237557E+04  0.16252237557E+04  0.25500000920E-02 0.  1.
    10030    2    1    2    0    0  0.00000000000E+00  0.00000000000E+00  0.62335020062E+03  0.38737977121E+04  0.38233157392E+04 0.  0.
        3    1    3    3  502    0 -0.47154552474E+03 -0.17632280837E+04  0.88760574537E+03  0.20295744447E+04  0.10100000352E+00 0. -1.
       -3    1    3    3    0  502  0.47154552474E+03  0.17632280837E+04 -0.26425554475E+03  0.18442232674E+04  0.10100000352E+00 0.  1.
</event>
<event>
 5   0  0.6661000E-08  0.3801835E+04  0.7818609E-02  0.8045761E-01
       -1   -1    0    0    0  501  0.00000000000E+00  0.00000000000E+00  0.23166849903E+04  0.23166849903E+04  0.50400001928E-02 0. -1.
        1   -1    0    0  501    0  0.00000000000E+00  0.00000000000E+00 -0.15597665445E+04  0.15597665445E+04  0.50400001928E-02 0.  1.
    10030    2    1    2    0    0  0.00000000000E+00  0.00000000000E+00  0.75691844579E+03  0.38764515348E+04  0.38018352106E+04 0.  0.
        4    1    3    3  502    0  0.16685274595E+04  0.38133630952E+03 -0.46486788608E+03  0.17735571681E+04  0.12699999809E+01 0.  1.
       -4    1    3    3    0  502 -0.16685274595E+04 -0.38133630952E+03  0.12217863319E+04  0.21028943667E+04  0.12699999809E+01 0. -1.
</event>
<event>
 5   0  0.6661000E-08  0.3664245E+04  0.7818609E-02  0.8075932E-01
       -1   -1    0    0    0  501  0.00000000000E+00  0.00000000000E+00  0.25495897535E+04  0.25495897535E+04  0.50400001928E-02 0. -1.
        1   -1    0    0  501    0  0.00000000000E+00  0.00000000000E+00 -0.13165537985E+04  0.13165537985E+04  0.50400001928E-02 0.  1.
    10030    2    1    2    0    0  0.00000000000E+00  0.00000000000E+00  0.12330359549E+04  0.38661435520E+04  0.36642445740E+04 0.  0.
        1    1    3    3  502    0  0.87600675960E+03 -0.25640412441E+03  0.22926133158E+04  0.24676318068E+04  0.50400001928E-02 0. -1.
       -1    1    3    3    0  502 -0.87600675960E+03  0.25640412441E+03 -0.10595773609E+04  0.13985117452E+04  0.50400001928E-02 0.  1.
</event>
<event>
 5   0  0.6661000E-08  0.3791216E+04  0.7818609E-02  0.8048043E-01
       -1   -1    0    0    0  501  0.00000000000E+00  0.00000000000E+00  0.20131115190E+04  0.20131115190E+04  0.50400001928E-02 0.  1.
        1   -1    0    0  501    0  0.00000000000E+00  0.00000000000E+00 -0.17849626854E+04  0.17849626854E+04  0.50400001928E-02 0. -1.
    10030    2    1    2    0    0  0.00000000000E+00  0.00000000000E+00  0.22814883366E+03  0.37980742044E+04  0.37912156061E+04 0.  0.
        2    1    3    3  502    0  0.12994826484E+04  0.33781902520E+03  0.14546102972E+04  0.19795625688E+04  0.25500000920E-02 0.  1.
       -2    1    3    3    0  502 -0.12994826484E+04 -0.33781902520E+03 -0.12264614635E+04  0.18185116356E+04  0.25500000920E-02 0. -1.
</event>
<event>
 5   0  0.2081337E-07  0.3812121E+04  0.7818609E-02  0.8043559E-01
       -2   -1    0    0    0  501  0.00000000000E+00  0.00000000000E+00  0.12240034083E+04  0.12240034083E+04  0.25500000920E-02 0. -1.
        2   -1    0    0  501    0  0.00000000000E+00  0.00000000000E+00 -0.29681840283E+04  0.29681840283E+04  0.25500000920E-02 0.  1.
    10030    2    1    2    0    0  0.00000000000E+00  0.00000000000E+00 -0.17441806200E+04  0.41921874366E+04  0.38121213869E+04 0.  0.
        1    1    3    3  502    0 -0.15435795700E+04  0.11110980453E+04 -0.10107161782E+04  0.21537697064E+04  0.50400001928E-02 0. -1.
       -1    1    3    3    0  502  0.15435795700E+04 -0.11110980453E+04 -0.73346444181E+03  0.20384177302E+04  0.50400001928E-02 0.  1.
</event>
<event>
 5   0  0.6725199E-08  0.3809171E+04  0.7818609E-02  0.8044190E-01
       -1   -1    0    0    0  501  0.00000000000E+00  0.00000000000E+00  0.18182564244E+04  0.18182564244E+04  0.50400001928E-02 0. -1.
        1   -1    0    0  501    0  0.00000000000E+00  0.00000000000E+00 -0.19950137720E+04  0.19950137720E+04  0.50400001928E-02 0.  1.
    10030    2    1    2    0    0  0.00000000000E+00  0.00000000000E+00 -0.17675734759E+03  0.38132701964E+04  0.38091713575E+04 0.  0.
        5    1    3    3  502    0 -0.87461348685E+03  0.13737301389E+04  0.90027769866E+03  0.18608076931E+04  0.46999998093E+01 0. -1.
       -5    1    3    3    0  502  0.87461348685E+03 -0.13737301389E+04 -0.10770350463E+04  0.19524625033E+04  0.46999998093E+01 0.  1.
</event>
<event>
 5   0  0.2203998E-07  0.3779238E+04  0.7818609E-02  0.8050625E-01
       -2   -1    0    0    0  501  0.00000000000E+00  0.00000000000E+00  0.14853359645E+04  0.14853359645E+04  0.25500000920E-02 0.  1.
        2   -1    0    0  501    0  0.00000000000E+00  0.00000000000E+00 -0.24039413470E+04  0.24039413470E+04  0.25500000920E-02 0. -1.
    10030    2    1    2    0    0  0.00000000000E+00  0.00000000000E+00 -0.91860538249E+03  0.38892773114E+04  0.37792383037E+04 0.  0.
        3    1    3    3  502    0  0.50132668370E+03  0.37311040317E+02 -0.23338607446E+04  0.23873890640E+04  0.10100000352E+00 0. -1.
       -3    1    3    3    0  502 -0.50132668370E+03 -0.37311040317E+02  0.14152553621E+04  0.15018882474E+04  0.10100000352E+00 0.  1.
</event>
<event>
 5   0  0.2205204E-07  0.3792362E+04  0.7818609E-02  0.8047796E-01
       -2   -1    0    0    0  501  0.00000000000E+00  0.00000000000E+00  0.12636463682E+04  0.12636463682E+04  0.25500000920E-02 0. -1.
        2   -1    0    0  501    0  0.00000000000E+00  0.00000000000E+00 -0.28453383383E+04  0.28453383383E+04  0.25500000920E-02 0.  1.
    10030    2    1    2    0    0  0.00000000000E+00  0.00000000000E+00 -0.15816919701E+04  0.41089847066E+04  0.37923615110E+04 0.  0.
        2    1    3    3  502    0  0.18266870555E+04  0.34082803982E+03 -0.38176281391E+03  0.18970219286E+04  0.25500000920E-02 0. -1.
       -2    1    3    3    0  502 -0.18266870555E+04 -0.34082803982E+03 -0.11999291562E+04  0.22119627780E+04  0.25500000920E-02 0.  1.
</event>
<event>
 5   0  0.2081337E-07  0.3847874E+04  0.7818609E-02  0.8035959E-01
        2   -1    0    0  501    0  0.00000000000E+00  0.00000000000E+00  0.18031926199E+04  0.18031926199E+04  0.25500000920E-02 0. -1.
       -2   -1    0    0    0  501  0.00000000000E+00  0.00000000000E+00 -0.20527661313E+04  0.20527661313E+04  0.25500000920E-02 0.  1.
    10030    2    1    2    0    0  0.00000000000E+00  0.00000000000E+00 -0.24957351139E+03  0.38559587513E+04  0.38478735626E+04 0.  0.
        1    1    3    3  502    0  0.15340185586E+04 -0.32757317090E+03  0.99156281548E+03  0.18557246394E+04  0.50400001928E-02 0. -1.
       -1    1    3    3    0  502 -0.15340185586E+04  0.32757317090E+03 -0.12411363269E+04  0.20002341118E+04  0.50400001928E-02 0.  1.
</event>
<event>
 5   0  0.2203998E-07  0.3803939E+04  0.7818609E-02  0.8045310E-01
        2   -1    0    0  501    0  0.00000000000E+00  0.00000000000E+00  0.11505584576E+04  0.11505584576E+04  0.25500000920E-02 0.  1.
       -2   -1    0    0    0  501  0.00000000000E+00  0.00000000000E+00 -0.31441144337E+04  0.31441144337E+04  0.25500000920E-02 0. -1.
    10030    2    1    2    0    0  0.00000000000E+00  0.00000000000E+00 -0.19935559762E+04  0.42946728913E+04  0.38039387236E+04 0.  0.
        3    1    3    3  502    0 -0.38675476314E+03 -0.14874977299E+04 -0.22616983933E+04  0.27345033142E+04  0.10100000352E+00 0. -1.
       -3    1    3    3    0  502  0.38675476314E+03  0.14874977299E+04  0.26814241711E+03  0.15601695771E+04  0.10100000352E+00 0.  1.
</event>
<event>
 5   0  0.6661000E-08  0.3771788E+04  0.7818609E-02  0.8052236E-01
       -1   -1    0    0    0  501  0.00000000000E+00  0.00000000000E+00  0.22968942701E+04  0.22968942701E+04  0.50400001928E-02 0.  1.
        1   -1    0    0  501    0  0.00000000000E+00  0.00000000000E+00 -0.15484370553E+04  0.15484370553E+04  0.50400001928E-02 0. -1.
    10030    2    1    2    0    0  0.00000000000E+00  0.00000000000E+00  0.74845721483E+03  0.38453313255E+04  0.37717880110E+04 0.  0.
        1    1    3    3  502    0 -0.29222031341E+03  0.18263077502E+04  0.74992926517E+03  0.19957922269E+04  0.50400001928E-02 0.  1.
       -1    1    3    3    0  502  0.29222031341E+03 -0.18263077502E+04 -0.14720503396E+01  0.18495390986E+04  0.50400001928E-02 0. -1.
</event>
<event>
 5   0  0.6725199E-08  0.3943496E+04  0.7818609E-02  0.8016043E-01
        1   -1    0    0  501    0  0.00000000000E+00  0.00000000000E+00  0.12551597009E+04  0.12551597009E+04  0.50400001928E-02 0. -1.
       -1   -1    0    0    0  501  0.00000000000E+00  0.00000000000E+00 -0.30974472825E+04  0.30974472825E+04  0.50400001928E-02 0.  1.
    10030    2    1    2    0    0  0.00000000000E+00  0.00000000000E+00 -0.18422875816E+04  0.43526069834E+04  0.39434964205E+04 0.  0.
        5    1    3    3  502    0  0.10973933557E+03 -0.27205937587E+03  0.12309316420E+04  0.12654144867E+04  0.46999998093E+01 0. -1.
       -5    1    3    3    0  502 -0.10973933557E+03  0.27205937587E+03 -0.30732192236E+04  0.30871924967E+04  0.46999998093E+01 0.  1.
</event>
<event>
 5   0  0.6725199E-08  0.3788740E+04  0.7818609E-02  0.8048576E-01
        1   -1    0    0  501    0  0.00000000000E+00  0.00000000000E+00  0.15512709806E+04  0.15512709806E+04  0.50400001928E-02 0. -1.
       -1   -1    0    0    0  501  0.00000000000E+00  0.00000000000E+00 -0.23133535562E+04  0.23133535562E+04  0.50400001928E-02 0.  1.
    10030    2    1    2    0    0  0.00000000000E+00  0.00000000000E+00 -0.76208257557E+03  0.38646245368E+04  0.37887402865E+04 0.  0.
        5    1    3    3  502    0  0.33692029327E+03  0.56639369588E+03  0.14305653502E+04  0.15750734631E+04  0.46999998093E+01 0. -1.
       -5    1    3    3    0  502 -0.33692029327E+03 -0.56639369588E+03 -0.21926479258E+04  0.22895510737E+04  0.46999998093E+01 0.  1.
</event>
<event>
 5   0  0.2135314E-07  0.3701877E+04  0.7818609E-02  0.8067546E-01
        2   -1    0    0  501    0  0.00000000000E+00  0.00000000000E+00  0.19856810612E+04  0.19856810612E+04  0.25500000920E-02 0. -1.
       -2   -1    0    0    0  501  0.00000000000E+00  0.00000000000E+00 -0.17253393342E+04  0.17253393342E+04  0.25500000920E-02 0.  1.
    10030    2    1    2    0    0  0.00000000000E+00  0.00000000000E+00  0.26034172702E+03  0.37110203954E+04  0.37018771670E+04 0.  0.
        4    1    3    3  502    0  0.10071679413E+04 -0.13502072416E+04 -0.63887786350E+03  0.18015586015E+04  0.12699999809E+01 0.  1.
       -4    1    3    3    0  502 -0.10071679413E+04  0.13502072416E+04  0.89921959052E+03  0.19094617938E+04  0.12699999809E+01 0. -1.
</event>
<event>
 5   0  0.2205204E-07  0.3796519E+04  0.7818609E-02  0.8046902E-01
        2   -1    0    0  501    0  0.00000000000E+00  0.00000000000E+00  0.12611545895E+04  0.12611545895E+04  0.25500000920E-02 0.  1.
       -2   -1    0    0    0  501  0.00000000000E+00  0.00000000000E+00 -0.28572145895E+04  0.28572145895E+04  0.25500000920E-02 0. -1.
    10030    2    1    2    0    0  0.00000000000E+00  0.00000000000E+00 -0.15960600000E+04  0.41183691790E+04  0.37965190860E+04 0.  0.
        2    1    3    3  502    0 -0.17961482483E+04 -0.48809338229E+03 -0.39358836626E+03  0.19024446067E+04  0.25500000920E-02 0. -1.
       -2    1    3    3    0  502  0.17961482483E+04  0.48809338229E+03 -0.12024716338E+04  0.22159245722E+04  0.25500000920E-02 0.  1.
</event>
<event>
 5   0  0.1370688E-07  0.3801395E+04  0.7818609E-02  0.8045856E-01
       -2   -1    0    0    0  501  0.00000000000E+00  0.00000000000E+00  0.25031925686E+04  0.25031925686E+04  0.25500000920E-02 0. -1.
        2   -1    0    0  501    0  0.00000000000E+00  0.00000000000E+00 -0.14432175462E+04  0.14432175462E+04  0.25500000920E-02 0.  1.
    10030    2    1    2    0    0  0.00000000000E+00  0.00000000000E+00  0.10599750224E+04  0.39464101149E+04  0.38013952368E+04 0.  0.
        5    1    3    3  502    0 -0.11933552524E+04  0.13261761716E+04  0.12105797845E+04  0.21560068416E+04  0.46999998093E+01 0. -1.
       -5    1    3    3    0  502  0.11933552524E+04 -0.13261761716E+04 -0.15060476206E+03  0.17904032732E+04  0.46999998093E+01 0.  1.
</event>
<event>
 5   0  0.1370688E-07  0.3776489E+04  0.7818609E-02  0.8051219E-01
        2   -1    0    0  501    0  0.00000000000E+00  0.00000000000E+00  0.22139493805E+04  0.22139493805E+04  0.25500000920E-02 0. -1.
       -2   -1    0    0    0  501  0.00000000000E+00  0.00000000000E+00 -0.16104559899E+04  0.16104559899E+04  0.25500000920E-02 0.  1.
    10030    2    1    2    0    0  0.00000000000E+00  0.00000000000E+00  0.60349339058E+03  0.38244053704E+04  0.37764893969E+04 0.  0.
        5    1    3    3  502    0 -0.18470345101E+04  0.25860302963E+03  0.29883957811E+01  0.18650584519E+04  0.46999998093E+01 0.  1.
       -5    1    3    3    0  502  0.18470345101E+04 -0.25860302963E+03  0.60050499480E+03  0.19593469185E+04  0.46999998093E+01 0. -1.
</event>
<event>
 5   0  0.2081337E-07  0.3764772E+04  0.7818609E-02  0.8053757E-01
        2   -1    0    0  501    0  0.00000000000E+00  0.00000000000E+00  0.18706351601E+04  0.18706351601E+04  0.25500000920E-02 0.  1.
       -2   -1    0    0    0  501  0.00000000000E+00  0.00000000000E+00 -0.18942106952E+04  0.18942106952E+04  0.25500000920E-02 0. -1.
    10030    2    1    2    0    0  0.00000000000E+00  0.00000000000E+00 -0.23575535079E+02  0.37648458553E+04  0.37647720393E+04 0.  0.
        1    1    3    3  502    0  0.37803980893E+02  0.24755961106E+03  0.18539021095E+04  0.18707399428E+04  0.50400001928E-02 0.  1.
       -1    1    3    3    0  502 -0.37803980893E+02 -0.24755961106E+03 -0.18774776445E+04  0.18941059125E+04  0.50400001928E-02 0. -1.
</event>
<event>
 5   0  0.6661000E-08  0.3808798E+04  0.7818609E-02  0.8044270E-01
       -1   -1    0    0    0  501  0.00000000000E+00  0.00000000000E+00  0.17833460902E+04  0.17833460902E+04  0.50400001928E-02 0. -1.
        1   -1    0    0  501    0  0.00000000000E+00  0.00000000000E+00 -0.20336688847E+04  0.20336688847E+04  0.50400001928E-02 0.  1.
    10030    2    1    2    0    0  0.00000000000E+00  0.00000000000E+00 -0.25032279446E+03  0.38170149749E+04  0.38087979491E+04 0.  0.
        4    1    3    3  502    0 -0.72001956578E+03  0.17442582753E+04  0.13204134296E+03  0.18916399328E+04  0.12699999809E+01 0.  1.
       -4    1    3    3    0  502  0.72001956578E+03 -0.17442582753E+04 -0.38236413742E+03  0.19253750421E+04  0.12699999809E+01 0. -1.
</event>
<event>
 5   0  0.6725199E-08  0.3821427E+04  0.7818609E-02  0.8041572E-01
       -1   -1    0    0    0  501  0.00000000000E+00  0.00000000000E+00  0.14595857173E+04  0.14595857173E+04  0.50400001928E-02 0.  1.
        1   -1    0    0  501    0  0.00000000000E+00  0.00000000000E+00 -0.25012757323E+04  0.25012757323E+04  0.50400001928E-02 0. -1.
    10030    2    1    2    0    0  0.00000000000E+00  0.00000000000E+00 -0.10416900150E+04  0.39608614496E+04  0.38214271334E+04 0.  0.
        5    1    3    3  502    0 -0.11386654476E+04 -0.15177996955E+04 -0.75383422554E+03  0.20417059159E+04  0.46999998093E+01 0.  1.
       -5    1    3    3    0  502  0.11386654476E+04  0.15177996955E+04 -0.28785578942E+03  0.19191555338E+04  0.46999998093E+01 0. -1.
</event>
<event>
 5   0  0.6661000E-08  0.3809580E+04  0.7818609E-02  0.8044102E-01
       -1   -1    0    0    0  501  0.00000000000E+00  0.00000000000E+00  0.12265187978E+04  0.12265187978E+04  0.50400001928E-02 0.  1.
        1   -1    0    0  501    0  0.00000000000E+00  0.00000000000E+00 -0.29581491955E+04  0.29581491955E+04  0.50400001928E-02 0. -1.
    10030    2    1    2    0    0  0.00000000000E+00  0.00000000000E+00 -0.17316303977E+04  0.41846679933E+04  0.38095803417E+04 0.  0.
        1    1    3    3  502    0  0.79279657420E+03 -0.47583614391E+02 -0.27675885450E+04  0.28792945252E+04  0.50400001928E-02 0. -1.
       -1    1    3    3    0  502 -0.79279657420E+03  0.47583614391E+02  0.10359581472E+04  0.13053734681E+04  0.50400001928E-02 0.  1.
</event>
<event>
 5   0  0.6661000E-08  0.3480088E+04  0.7818609E-02  0.8118525E-01
        1   -1    0    0  501    0  0.00000000000E+00  0.00000000000E+00  0.17798134738E+04  0.17798134739E+04  0.50400001928E-02 0.  1.
       -1   -1    0    0    0  501  0.00000000000E+00  0.00000000000E+00 -0.17011628084E+04  0.17011628084E+04  0.50400001928E-02 0. -1.
    10030    2    1    2    0    0  0.00000000000E+00  0.00000000000E+00  0.78650665415E+02  0.34809762823E+04  0.34800876355E+04 0.  0.
        3    1    3    3  502    0 -0.34209939698E+02 -0.90834629877E+03 -0.14447951514E+04  0.17069552888E+04  0.10100000352E+00 0. -1.
       -3    1    3    3    0  502  0.34209939698E+02  0.90834629877E+03  0.15234458168E+04  0.17740209935E+04  0.10100000352E+00 0.  1.
</event>
<event>
 5   0  0.2203998E-07  0.3796631E+04  0.7818609E-02  0.8046878E-01
        2   -1    0    0  501    0  0.00000000000E+00  0.00000000000E+00  0.14114380537E+04  0.14114380537E+04  0.25500000920E-02 0.  1.
       -2   -1    0    0    0  501  0.00000000000E+00  0.00000000000E+00 -0.25531419592E+04  0.25531419592E+04  0.25500000920E-02 0. -1.
    10030    2    1    2    0    0  0.00000000000E+00  0.00000000000E+00 -0.11417039055E+04  0.39645800129E+04  0.37966309896E+04 0.  0.
        3    1    3    3  502    0  0.92292921476E+03 -0.25947634940E+02  0.11611738697E+04  0.14835081331E+04  0.10100000352E+00 0.  1.
       -3    1    3    3    0  502 -0.92292921476E+03  0.25947634940E+02 -0.23028777752E+04  0.24810718798E+04  0.10100000352E+00 0. -1.
</event>
<event>
 5   0  0.2081337E-07  0.3668776E+04  0.7818609E-02  0.8074917E-01
       -2   -1    0    0    0  501  0.00000000000E+00  0.00000000000E+00  0.14434250373E+04  0.14434250373E+04  0.25500000920E-02 0. -1.
        2   -1    0    0  501    0  0.00000000000E+00  0.00000000000E+00 -0.23312469224E+04  0.23312469224E+04  0.25500000920E-02 0.  1.
    10030    2    1    2    0    0  0.00000000000E+00  0.00000000000E+00 -0.88782188510E+03  0.37746719597E+04  0.36687764587E+04 0.  0.
        1    1    3    3  502    0  0.59758830114E+02 -0.31668429992E+03  0.14140704562E+04  0.14503293828E+04  0.50400001928E-02 0. -1.
       -1    1    3    3    0  502 -0.59758830114E+02  0.31668429992E+03 -0.23018923413E+04  0.23243425769E+04  0.50400001928E-02 0.  1.
</event>
<event>
 5   0  0.6725199E-08  0.3806432E+04  0.7818609E-02  0.8044776E-01
       -1   -1    0    0    0  501  0.00000000000E+00  0.00000000000E+00  0.25668328499E+04  0.25668328499E+04  0.50400001928E-02 0.  1.
        1   -1    0    0  501    0  0.00000000000E+00  0.00000000000E+00 -0.14111677965E+04  0.14111677965E+04  0.50400001928E-02 0. -1.
    10030    2    1    2    0    0  0.00000000000E+00  0.00000000000E+00  0.11556650534E+04  0.39780006463E+04  0.38064323751E+04 0.  0.
        5    1    3    3  502    0 -0.86029094773E+03 -0.16542152256E+04  0.97671829741E+03  0.21048822414E+04  0.46999998093E+01 0.  1.
       -5    1    3    3    0  502  0.86029094773E+03  0.16542152256E+04  0.17894675598E+03  0.18731184050E+04  0.46999998093E+01 0. -1.
</event>
<event>
 5   0  0.2135314E-07  0.3788134E+04  0.7818609E-02  0.8048706E-01
       -2   -1    0    0    0  501  0.00000000000E+00  0.00000000000E+00  0.20238507710E+04  0.20238507710E+04  0.25500000920E-02 0.  1.
        2   -1    0    0  501    0  0.00000000000E+00  0.00000000000E+00 -0.17726058001E+04  0.17726058001E+04  0.25500000920E-02 0. -1.
    10030    2    1    2    0    0  0.00000000000E+00  0.00000000000E+00  0.25124497083E+03  0.37964565711E+04  0.37881339022E+04 0.  0.
        4    1    3    3  502    0 -0.12431668875E+04 -0.18687321228E+03  0.15454575245E+04  0.19921912761E+04  0.12699999809E+01 0.  1.
       -4    1    3    3    0  502  0.12431668875E+04  0.18687321228E+03 -0.12942125537E+04  0.18042652950E+04  0.12699999809E+01 0. -1.
</event>
<event>
 5   0  0.6661000E-08  0.3670905E+04  0.7818609E-02  0.8074440E-01
        1   -1    0    0  501    0  0.00000000000E+00  0.00000000000E+00  0.22457126362E+04  0.22457126362E+04  0.50400001928E-02 0. -1.
       -1   -1    0    0    0  501  0.00000000000E+00  0.00000000000E+00 -0.15001411876E+04  0.15001411877E+04  0.50400001928E-02 0.  1.
    10030    2    1    2    0    0  0.00000000000E+00  0.00000000000E+00  0.74557144859E+03  0.37458538239E+04  0.36709050771E+04 0.  0.
        2    1    3    3  502    0  0.17299197112E+04 -0.59879077184E+03  0.23697659926E+03  0.18458955832E+04  0.25500000920E-02 0.  1.
       -2    1    3    3    0  502 -0.17299197112E+04  0.59879077184E+03  0.50859484933E+03  0.18999582407E+04  0.25500000920E-02 0. -1.
</event>
<event>
 5   0  0.1370688E-07  0.3798403E+04  0.7818609E-02  0.8046498E-01
       -2   -1    0    0    0  501  0.00000000000E+00  0.00000000000E+00  0.18307023735E+04  0.18307023735E+04  0.25500000920E-02 0.  1.
        2   -1    0    0  501    0  0.00000000000E+00  0.00000000000E+00 -0.19702633530E+04  0.19702633530E+04  0.25500000920E-02 0. -1.
    10030    2    1    2    0    0  0.00000000000E+00  0.00000000000E+00 -0.13956097948E+03  0.38009657265E+04  0.37984027152E+04 0.  0.
        5    1    3    3  502    0 -0.69969998322E+03 -0.50140018674E+03 -0.17638378890E+04  0.19626839792E+04  0.46999998093E+01 0. -1.
       -5    1    3    3    0  502  0.69969998322E+03  0.50140018674E+03  0.16242769095E+04  0.18382817473E+04  0.46999998093E+01 0.  1.
</event>
<event>
 5   0  0.1370688E-07  0.3836683E+04  0.7818609E-02  0.8038328E-01
       -2   -1    0    0    0  501  0.00000000000E+00  0.00000000000E+00  0.15030880936E+04  0.15030880936E+04  0.25500000920E-02 0.  1.
        2   -1    0    0  501    0  0.00000000000E+00  0.00000000000E+00 -0.24483157740E+04  0.24483157740E+04  0.25500000920E-02 0. -1.
    10030    2    1    2    0    0  0.00000000000E+00  0.00000000000E+00 -0.94522768040E+03  0.39514038676E+04  0.38366830931E+04 0.  0.
        5    1    3    3  502    0 -0.13795920109E+03  0.10764635573E+04 -0.21017485400E+04  0.23654123418E+04  0.46999998093E+01 0. -1.
       -5    1    3    3    0  502  0.13795920109E+03 -0.10764635573E+04  0.11565208596E+04  0.15859915258E+04  0.46999998093E+01 0.  1.
</event>
<event>
 5   0  0.2203998E-07  0.3858762E+04  0.7818609E-02  0.8033661E-01
       -2   -1    0    0    0  501  0.00000000000E+00  0.00000000000E+00  0.13766500135E+04  0.13766500135E+04  0.25500000920E-02 0.  1.
        2   -1    0    0  501    0  0.00000000000E+00  0.00000000000E+00 -0.27040364406E+04  0.27040364406E+04  0.25500000920E-02 0. -1.
    10030    2    1    2    0    0  0.00000000000E+00  0.00000000000E+00 -0.13273864271E+04  0.40806864541E+04  0.38587623936E+04 0.  0.
        3    1    3    3  502    0 -0.14407003842E+04 -0.12806635691E+04 -0.75086591285E+03  0.20686992057E+04  0.10100000352E+00 0. -1.
       -3    1    3    3    0  502  0.14407003842E+04  0.12806635691E+04 -0.57652051425E+03  0.20119872484E+04  0.10100000352E+00 0.  1.
</event>
<event>
 5   0  0.1370688E-07  0.3670170E+04  0.7818609E-02  0.8074605E-01
        2   -1    0    0  501    0  0.00000000000E+00  0.00000000000E+00  0.13389845545E+04  0.13389845545E+04  0.25500000920E-02 0. -1.
       -2   -1    0    0    0  501  0.00000000000E+00  0.00000000000E+00 -0.25149930466E+04  0.25149930466E+04  0.25500000920E-02 0.  1.
    10030    2    1    2    0    0  0.00000000000E+00  0.00000000000E+00 -0.11760084921E+04  0.38539776011E+04  0.36701699384E+04 0.  0.
        5    1    3    3  502    0  0.77260978532E+03  0.37197172534E+03 -0.22916707799E+04  0.24468481560E+04  0.46999998093E+01 0.  1.
       -5    1    3    3    0  502 -0.77260978532E+03 -0.37197172534E+03  0.11156622879E+04  0.14071294451E+04  0.46999998093E+01 0. -1.
</event>
<event>
 5   0  0.2205204E-07  0.3805960E+04  0.7818609E-02  0.8044877E-01
       -2   -1    0    0    0  501  0.00000000000E+00  0.00000000000E+00  0.24362080788E+04  0.24362080788E+04  0.25500000920E-02 0.  1.
        2   -1    0    0  501    0  0.00000000000E+00  0.00000000000E+00 -0.14864629871E+04  0.14864629871E+04  0.25500000920E-02 0. -1.
    10030    2    1    2    0    0  0.00000000000E+00  0.00000000000E+00  0.94974509175E+03  0.39226710659E+04  0.38059601354E+04 0.  0.
        2    1    3    3  502    0 -0.72919580676E+01  0.50025361882E+03  0.23672106145E+04  0.24195026243E+04  0.25500000920E-02 0.  1.
       -2    1    3    3    0  502  0.72919580676E+01 -0.50025361882E+03 -0.14174655227E+04  0.15031684416E+04  0.25500000920E-02 0. -1.
</event>
<event>
 5   0  0.1370688E-07  0.3839155E+04  0.7818609E-02  0.8037804E-01
        2   -1    0    0  501    0  0.00000000000E+00  0.00000000000E+00  0.17487326896E+04  0.17487326896E+04  0.25500000920E-02 0.  1.
       -2   -1    0    0    0  501  0.00000000000E+00  0.00000000000E+00 -0.21071137137E+04  0.21071137137E+04  0.25500000920E-02 0. -1.
    10030    2    1    2    0    0  0.00000000000E+00  0.00000000000E+00 -0.35838102409E+03  0.38558464034E+04  0.38391554446E+04 0.  0.
        5    1    3    3  502    0  0.50595474419E+03  0.27563176532E+03  0.16598336266E+04  0.17569953988E+04  0.46999998093E+01 0.  1.
       -5    1    3    3    0  502 -0.50595474419E+03 -0.27563176532E+03 -0.20182146507E+04  0.20988510046E+04  0.46999998093E+01 0. -1.
</event>
<event>
 5   0  0.2205204E-07  0.3817406E+04  0.7818609E-02  0.8042430E-01
       -2   -1    0    0    0  501  0.00000000000E+00  0.00000000000E+00  0.18847676091E+04  0.18847676091E+04  0.25500000920E-02 0.  1.
        2   -1    0    0  501    0  0.00000000000E+00  0.00000000000E+00 -0.19329418499E+04  0.19329418499E+04  0.25500000920E-02 0. -1.
    10030    2    1    2    0    0  0.00000000000E+00  0.00000000000E+00 -0.48174240769E+02  0.38177094590E+04  0.38174055006E+04 0.  0.
        2    1    3    3  502    0 -0.12062775548E+04 -0.14776701600E+04  0.43235013647E+02  0.19080052168E+04  0.25500000920E-02 0.  1.
       -2    1    3    3    0  502  0.12062775548E+04  0.14776701600E+04 -0.91409254415E+02  0.19097042422E+04  0.25500000920E-02 0. -1.
</event>
<event>
 5   0  0.2135314E-07  0.3823999E+04  0.7818609E-02  0.8041024E-01
       -2   -1    0    0    0  501  0.00000000000E+00  0.00000000000E+00  0.13598705012E+04  0.13598705012E+04  0.25500000920E-02 0.  1.
        2   -1    0    0  501    0  0.00000000000E+00  0.00000000000E+00 -0.26883019005E+04  0.26883019005E+04  0.25500000920E-02 0. -1.
    10030    2    1    2    0    0  0.00000000000E+00  0.00000000000E+00 -0.13284313992E+04  0.40481724017E+04  0.38239991908E+04 0.  0.
        4    1    3    3  502    0  0.12819512481E+04  0.23305743182E+03 -0.21455410090E+04  0.25101917463E+04  0.12699999809E+01 0. -1.
       -4    1    3    3    0  502 -0.12819512481E+04 -0.23305743182E+03  0.81710960978E+03  0.15379806554E+04  0.12699999809E+01 0.  1.
</event>
<event>
 5   0  0.2081337E-07  0.3837229E+04  0.7818609E-02  0.8038213E-01
        2   -1    0    0  501    0  0.00000000000E+00  0.00000000000E+00  0.12502533497E+04  0.12502533497E+04  0.25500000920E-02 0.  1.
       -2   -1    0    0    0  501  0.00000000000E+00  0.00000000000E+00 -0.29442681413E+04  0.29442681413E+04  0.25500000920E-02 0. -1.
    10030    2    1    2    0    0  0.00000000000E+00  0.00000000000E+00 -0.16940147916E+04  0.41945214910E+04  0.38372287428E+04 0.  0.
        1    1    3    3  502    0  0.12072152325E+03 -0.15031030896E+04  0.44969668319E+03  0.15735690932E+04  0.50400001928E-02 0.  1.
       -1    1    3    3    0  502 -0.12072152325E+03  0.15031030896E+04 -0.21437114748E+04  0.26209523978E+04  0.50400001928E-02 0. -1.
</event>
<event>
 5   0  0.6661000E-08  0.3829200E+04  0.7818609E-02  0.8039917E-01
        1   -1    0    0  501    0  0.00000000000E+00  0.00000000000E+00  0.23857037302E+04  0.23857037302E+04  0.50400001928E-02 0.  1.
       -1   -1    0    0    0  501  0.00000000000E+00  0.00000000000E+00 -0.15365252756E+04  0.15365252756E+04  0.50400001928E-02 0. -1.
    10030    2    1    2    0    0  0.00000000000E+00  0.00000000000E+00  0.84917845467E+03  0.39222290058E+04  0.38292004813E+04 0.  0.
        1    1    3    3  502    0  0.94338614620E+02 -0.10581899878E+04  0.20560907912E+04  0.23143411948E+04  0.50400001928E-02 0.  1.
       -1    1    3    3    0  502 -0.94338614620E+02  0.10581899878E+04 -0.12069123365E+04  0.16078878110E+04  0.50400001928E-02 0. -1.
</event>
<event>
 5   0  0.6725199E-08  0.3799820E+04  0.7818609E-02  0.8046194E-01
       -1   -1    0    0    0  501  0.00000000000E+00  0.00000000000E+00  0.12258469798E+04  0.12258469798E+04  0.50400001928E-02 0.  1.
        1   -1    0    0  501    0  0.00000000000E+00  0.00000000000E+00 -0.29446234584E+04  0.29446234585E+04  0.50400001928E-02 0. -1.
    10030    2    1    2    0    0  0.00000000000E+00  0.00000000000E+00 -0.17187764787E+04  0.41704704382E+04  0.37998198763E+04 0.  0.
        5    1    3    3  502    0  0.52585815653E+03 -0.15748904404E+04  0.15418004507E+03  0.16675132013E+04  0.46999998093E+01 0.  1.
       -5    1    3    3    0  502 -0.52585815653E+03  0.15748904404E+04 -0.18729565237E+04  0.25029572370E+04  0.46999998093E+01 0. -1.
</event>
<event>
 5   0  0.1370688E-07  0.3816225E+04  0.7818609E-02  0.8042682E-01
       -2   -1    0    0    0  501  0.00000000000E+00  0.00000000000E+00  0.17975526600E+04  0.17975526600E+04  0.25500000920E-02 0.  1.
        2   -1    0    0  501    0  0.00000000000E+00  0.00000000000E+00 -0.20254727323E+04  0.20254727323E+04  0.25500000920E-02 0. -1.
    10030    2    1    2    0    0  0.00000000000E+00  0.00000000000E+00 -0.22792007226E+03  0.38230253923E+04  0.38162253066E+04 0.  0.
        5    1    3    3  502    0  0.14371456665E+04 -0.47562117049E+03 -0.12776100773E+04  0.19808868630E+04  0.46999998093E+01 0. -1.
       -5    1    3    3    0  502 -0.14371456665E+04  0.47562117049E+03  0.10496900050E+04  0.18421385293E+04  0.46999998093E+01 0.  1.
</event>
<event>
 5   0  0.6725199E-08  0.3792118E+04  0.7818609E-02  0.8047849E-01
        1   -1    0    0  501    0  0.00000000000E+00  0.00000000000E+00  0.20959599406E+04  0.20959599406E+04  0.50400001928E-02 0.  1.
       -1   -1    0    0    0  501  0.00000000000E+00  0.00000000000E+00 -0.17152231011E+04  0.17152231011E+04  0.50400001928E-02 0. -1.
    10030    2    1    2    0    0  0.00000000000E+00  0.00000000000E+00  0.38073683946E+03  0.38111830417E+04  0.37921175663E+04 0.  0.
        5    1    3    3  502    0 -0.14297998067E+04 -0.84250184559E+03  0.11119738360E+04  0.19976598182E+04  0.46999998093E+01 0.  1.
       -5    1    3    3    0  502  0.14297998067E+04  0.84250184559E+03 -0.73123699656E+03  0.18135232235E+04  0.46999998093E+01 0. -1.
</event>
<event>
 5   0  0.2081337E-07  0.3792526E+04  0.7818609E-02  0.8047761E-01
       -2   -1    0    0    0  501  0.00000000000E+00  0.00000000000E+00  0.13220635355E+04  0.13220635355E+04  0.25500000920E-02 0. -1.
        2   -1    0    0  501    0  0.00000000000E+00  0.00000000000E+00 -0.27198485141E+04  0.27198485141E+04  0.25500000920E-02 0.  1.
    10030    2    1    2    0    0  0.00000000000E+00  0.00000000000E+00 -0.13977849785E+04  0.40419120496E+04  0.37925255662E+04 0.  0.
        1    1    3    3  502    0 -0.15264240519E+04  0.83308363797E+03 -0.15048008502E+04  0.22996574382E+04  0.50400001928E-02 0. -1.
       -1    1    3    3    0  502  0.15264240519E+04 -0.83308363797E+03  0.10701587166E+03  0.17422546114E+04  0.50400001928E-02 0.  1.
</event>
<event>
 5   0  0.2135314E-07  0.3622696E+04  0.7818609E-02  0.8085313E-01
        2   -1    0    0  501    0  0.00000000000E+00  0.00000000000E+00  0.27464989119E+04  0.27464989119E+04  0.25500000920E-02 0. -1.
       -2   -1    0    0    0  501  0.00000000000E+00  0.00000000000E+00 -0.11946050324E+04  0.11946050324E+04  0.25500000920E-02 0.  1.
    10030    2    1    2    0    0  0.00000000000E+00  0.00000000000E+00  0.15518938795E+04  0.39411039443E+04  0.36226959142E+04 0.  0.
        4    1    3    3  502    0  0.14799067324E+04 -0.87974102168E+03  0.16351887987E+03  0.17293953391E+04  0.12699999809E+01 0.  1.
       -4    1    3    3    0  502 -0.14799067324E+04  0.87974102168E+03  0.13883749996E+04  0.22117086052E+04  0.12699999809E+01 0. -1.
</event>
<event>
 5   0  0.6661000E-08  0.3800693E+04  0.7818609E-02  0.8046006E-01
       -1   -1    0    0    0  501  0.00000000000E+00  0.00000000000E+00  0.21710602270E+04  0.21710602270E+04  0.50400001928E-02 0.  1.
        1   -1    0    0  501    0  0.00000000000E+00  0.00000000000E+00 -0.16633886254E+04  0.16633886254E+04  0.50400001928E-02 0. -1.
    10030    2    1    2    0    0  0.00000000000E+00  0.00000000000E+00  0.50767160166E+03  0.38344488524E+04  0.38006930350E+04 0.  0.
        4    1    3    3  502    0  0.91854677248E+03  0.10298704782E+04 -0.10642723634E+04  0.17427101456E+04  0.12699999809E+01 0. -1.
       -4    1    3    3    0  502 -0.91854677248E+03 -0.10298704782E+04  0.15719439651E+04  0.20917387068E+04  0.12699999809E+01 0.  1.
</event>
<event>
 5   0  0.6661000E-08  0.3777247E+04  0.7818609E-02  0.8051055E-01
        1   -1    0    0  501    0  0.00000000000E+00  0.00000000000E+00  0.20971541192E+04  0.20971541192E+04  0.50400001928E-02 0.  1.
       -1   -1    0    0    0  501  0.00000000000E+00  0.00000000000E+00 -0.17008279734E+04  0.17008279734E+04  0.50400001928E-02 0. -1.
    10030    2    1    2    0    0  0.00000000000E+00  0.00000000000E+00  0.39632614585E+03  0.37979820926E+04  0.37772468230E+04 0.  0.
        2    1    3    3  502    0  0.55907208295E+03  0.94862933748E+03  0.17410044796E+04  0.20599892747E+04  0.25500000920E-02 0.  1.
       -2    1    3    3    0  502 -0.55907208295E+03 -0.94862933748E+03 -0.13446783337E+04  0.17379928179E+04  0.25500000920E-02 0. -1.
</event>
<event>
 5   0  0.6661000E-08  0.3824501E+04  0.7818609E-02  0.8040917E-01
       -1   -1    0    0    0  501  0.00000000000E+00  0.00000000000E+00  0.16121325923E+04  0.16121325924E+04  0.50400001928E-02 0. -1.
        1   -1    0    0  501    0  0.00000000000E+00  0.00000000000E+00 -0.22682391255E+04  0.22682391255E+04  0.50400001928E-02 0.  1.
    10030    2    1    2    0    0  0.00000000000E+00  0.00000000000E+00 -0.65610653319E+03  0.38803717179E+04  0.38245011290E+04 0.  0.
        2    1    3    3  502    0  0.86501739154E+03 -0.96565418912E+03  0.10981699930E+04  0.16990351480E+04  0.25500000920E-02 0. -1.
       -2    1    3    3    0  502 -0.86501739154E+03  0.96565418912E+03 -0.17542765262E+04  0.21813365699E+04  0.25500000920E-02 0.  1.
</event>
<event>
 5   0  0.2205204E-07  0.3790081E+04  0.7818609E-02  0.8048287E-01
       -2   -1    0    0    0  501  0.00000000000E+00  0.00000000000E+00  0.16350926197E+04  0.16350926197E+04  0.25500000920E-02 0.  1.
        2   -1    0    0  501    0  0.00000000000E+00  0.00000000000E+00 -0.21963150518E+04  0.21963150518E+04  0.25500000920E-02 0. -1.
    10030    2    1    2    0    0  0.00000000000E+00  0.00000000000E+00 -0.56122243209E+03  0.38314076716E+04  0.37900810186E+04 0.  0.
        2    1    3    3  502    0  0.43243027364E+03 -0.16549096467E+04  0.54403895976E+03  0.17949095437E+04  0.25500000920E-02 0.  1.
       -2    1    3    3    0  502 -0.43243027364E+03  0.16549096467E+04 -0.11052613918E+04  0.20364981278E+04  0.25500000920E-02 0. -1.
</event>
<event>
 5   0  0.6661000E-08  0.3729884E+04  0.7818609E-02  0.8061371E-01
       -1   -1    0    0    0  501  0.00000000000E+00  0.00000000000E+00  0.12874722700E+04  0.12874722700E+04  0.50400001928E-02 0.  1.
        1   -1    0    0  501    0  0.00000000000E+00  0.00000000000E+00 -0.27014243941E+04  0.27014243941E+04  0.50400001928E-02 0. -1.
    10030    2    1    2    0    0  0.00000000000E+00  0.00000000000E+00 -0.14139521241E+04  0.39888966641E+04  0.37298841789E+04 0.  0.
        4    1    3    3  502    0 -0.64368331474E+03  0.52807017516E+02 -0.25780086116E+04  0.26576769565E+04  0.12699999809E+01 0. -1.
       -4    1    3    3    0  502  0.64368331474E+03 -0.52807017516E+02  0.11640564875E+04  0.13312197076E+04  0.12699999809E+01 0.  1.
</event>
<event>
 5   0  0.6661000E-08  0.3675553E+04  0.7818609E-02  0.8073401E-01
        1   -1    0    0  501    0  0.00000000000E+00  0.00000000000E+00  0.10754507253E+04  0.10754507253E+04  0.50400001928E-02 0.  1.
       -1   -1    0    0    0  501  0.00000000000E+00  0.00000000000E+00 -0.31404716827E+04  0.31404716827E+04  0.50400001928E-02 0. -1.
    10030    2    1    2    0    0  0.00000000000E+00  0.00000000000E+00 -0.20650209574E+04  0.42159224080E+04  0.36755530462E+04 0.  0.
        2    1    3    3  502    0 -0.12089355603E+04  0.30332115367E+03  0.51655461778E+03  0.13492062794E+04  0.25500000920E-02 0.  1.
       -2    1    3    3    0  502  0.12089355603E+04 -0.30332115367E+03 -0.25815755752E+04  0.28667161286E+04  0.25500000920E-02 0. -1.
</event>
<event>
 5   0  0.6661000E-08  0.3914662E+04  0.7818609E-02  0.8021987E-01
       -1   -1    0    0    0  501  0.00000000000E+00  0.00000000000E+00  0.19662391259E+04  0.19662391259E+04  0.50400001928E-02 0. -1.
        1   -1    0    0  501    0  0.00000000000E+00  0.00000000000E+00 -0.19484635282E+04  0.19484635282E+04  0.50400001928E-02 0.  1.
    10030    2    1    2    0    0  0.00000000000E+00  0.00000000000E+00  0.17775597678E+02  0.39147026541E+04  0.39146622968E+04 0.  0.
        3    1    3    3  502    0  0.16721713437E+04 -0.40961104722E+03 -0.92236129892E+03  0.19531227787E+04  0.10100000352E+00 0. -1.
       -3    1    3    3    0  502 -0.16721713437E+04  0.40961104722E+03  0.94013689660E+03  0.19615798754E+04  0.10100000352E+00 0.  1.
</event>
<event>
 5   0  0.6661000E-08  0.3857224E+04  0.7818609E-02  0.8033985E-01
        1   -1    0    0  501    0  0.00000000000E+00  0.00000000000E+00  0.24416780944E+04  0.24416780944E+04  0.50400001928E-02 0.  1.
       -1   -1    0    0    0  501  0.00000000000E+00  0.00000000000E+00 -0.15233557961E+04  0.15233557961E+04  0.50400001928E-02 0. -1.
    10030    2    1    2    0    0  0.00000000000E+00  0.00000000000E+00  0.91832229832E+03  0.39650338905E+04  0.38572241196E+04 0.  0.
        4    1    3    3  502    0 -0.12654017249E+04 -0.10709646281E+04 -0.55394930265E+03  0.17478753396E+04  0.12699999809E+01 0. -1.
       -4    1    3    3    0  502  0.12654017249E+04  0.10709646281E+04  0.14722716010E+04  0.22171585509E+04  0.12699999809E+01 0.  1.
</event>
<event>
 5   0  0.2135314E-07  0.3646290E+04  0.7818609E-02  0.8079970E-01
       -2   -1    0    0    0  501  0.00000000000E+00  0.00000000000E+00  0.20602893936E+04  0.20602893936E+04  0.25500000920E-02 0.  1.
        2   -1    0    0  501    0  0.00000000000E+00  0.00000000000E+00 -0.16132966633E+04  0.16132966633E+04  0.25500000920E-02 0. -1.
    10030    2    1    2    0    0  0.00000000000E+00  0.00000000000E+00  0.44699273027E+03  0.36735860568E+04  0.36462901717E+04 0.  0.
        4    1    3    3  502    0 -0.10370516432E+04 -0.12881681250E+04  0.99670697444E+03  0.19308753545E+04  0.12699999809E+01 0.  1.
       -4    1    3    3    0  502  0.10370516432E+04  0.12881681250E+04 -0.54971424418E+03  0.17427107023E+04  0.12699999809E+01 0. -1.
</event>
<event>
 5   0  0.2205204E-07  0.3860120E+04  0.7818609E-02  0.8033375E-01
       -2   -1    0    0    0  501  0.00000000000E+00  0.00000000000E+00  0.15603430636E+04  0.15603430636E+04  0.25500000920E-02 0.  1.
        2   -1    0    0  501    0  0.00000000000E+00  0.00000000000E+00 -0.23873795644E+04  0.23873795644E+04  0.25500000920E-02 0. -1.
    10030    2    1    2    0    0  0.00000000000E+00  0.00000000000E+00 -0.82703650085E+03  0.39477226280E+04  0.38601197616E+04 0.  0.
        2    1    3    3  502    0 -0.14386157877E+04 -0.74530064369E+03 -0.14861499449E+04  0.21985745593E+04  0.25500000920E-02 0. -1.
       -2    1    3    3    0  502  0.14386157877E+04  0.74530064369E+03  0.65911344401E+03  0.17491480687E+04  0.25500000920E-02 0.  1.
</event>
<event>
 5   0  0.1370688E-07  0.3783994E+04  0.7818609E-02  0.8049598E-01
       -2   -1    0    0    0  501  0.00000000000E+00  0.00000000000E+00  0.13171412546E+04  0.13171412546E+04  0.25500000920E-02 0. -1.
        2   -1    0    0  501    0  0.00000000000E+00  0.00000000000E+00 -0.27177443704E+04  0.27177443704E+04  0.25500000920E-02 0.  1.
    10030    2    1    2    0    0  0.00000000000E+00  0.00000000000E+00 -0.14006031158E+04  0.40348856250E+04  0.37839943075E+04 0.  0.
        5    1    3    3  502    0 -0.10435832900E+04 -0.12882176655E+04  0.27176728477E+03  0.16800149951E+04  0.46999998093E+01 0. -1.
       -5    1    3    3    0  502  0.10435832900E+04  0.12882176655E+04 -0.16723704005E+04  0.23548706299E+04  0.46999998093E+01 0.  1.
</event>
<event>
 5   0  0.2203998E-07  0.3780317E+04  0.7818609E-02  0.8050392E-01
       -2   -1    0    0    0  501  0.00000000000E+00  0.00000000000E+00  0.13623344856E+04  0.13623344856E+04  0.25500000920E-02 0.  1.
        2   -1    0    0  501    0  0.00000000000E+00  0.00000000000E+00 -0.26224825611E+04  0.26224825611E+04  0.25500000920E-02 0. -1.
    10030    2    1    2    0    0  0.00000000000E+00  0.00000000000E+00 -0.12601480755E+04  0.39848170467E+04  0.37803166169E+04 0.  0.
        3    1    3    3  502    0 -0.17269147266E+02  0.17585478359E+04 -0.13603045540E+04  0.22233347036E+04  0.10100000352E+00 0.  1.
       -3    1    3    3    0  502  0.17269147266E+02 -0.17585478359E+04  0.10015647854E+03  0.17614823431E+04  0.10100000352E+00 0. -1.
</event>
<event>
 5   0  0.2081337E-07  0.3771318E+04  0.7818609E-02  0.8052338E-01
        2   -1    0    0  501    0  0.00000000000E+00  0.00000000000E+00  0.28688974413E+04  0.28688974413E+04  0.25500000920E-02 0.  1.
       -2   -1    0    0    0  501  0.00000000000E+00  0.00000000000E+00 -0.12393993963E+04  0.12393993963E+04  0.25500000920E-02 0. -1.
    10030    2    1    2    0    0  0.00000000000E+00  0.00000000000E+00  0.16294980449E+04  0.41082968376E+04  0.37713179430E+04 0.  0.
        1    1    3    3  502    0  0.97203230678E+03 -0.16020395660E+04  0.10441145858E+04  0.21451230372E+04  0.50400001928E-02 0.  1.
       -1    1    3    3    0  502 -0.97203230678E+03  0.16020395660E+04  0.58538345913E+03  0.19631738004E+04  0.50400001928E-02 0. -1.
</event>
<event>
 5   0  0.6661000E-08  0.3793043E+04  0.7818609E-02  0.8047649E-01
        1   -1    0    0  501    0  0.00000000000E+00  0.00000000000E+00  0.14685721162E+04  0.14685721162E+04  0.50400001928E-02 0.  1.
       -1   -1    0    0    0  501  0.00000000000E+00  0.00000000000E+00 -0.24491779228E+04  0.24491779228E+04  0.50400001928E-02 0. -1.
    10030    2    1    2    0    0  0.00000000000E+00  0.00000000000E+00 -0.98060580654E+03  0.39177500390E+04  0.37930433191E+04 0.  0.
        3    1    3    3  502    0 -0.15301031357E+03  0.18896731910E+04 -0.43847888574E+03  0.19459035609E+04  0.10100000352E+00 0. -1.
       -3    1    3    3    0  502  0.15301031357E+03 -0.18896731910E+04 -0.54212692080E+03  0.19718464781E+04  0.10100000352E+00 0.  1.
</event>
<event>
 5   0  0.6661000E-08  0.3789237E+04  0.7818609E-02  0.8048468E-01
       -1   -1    0    0    0  501  0.00000000000E+00  0.00000000000E+00  0.19176436099E+04  0.19176436099E+04  0.50400001928E-02 0. -1.
        1   -1    0    0  501    0  0.00000000000E+00  0.00000000000E+00 -0.18718700737E+04  0.18718700737E+04  0.50400001928E-02 0.  1.
    10030    2    1    2    0    0  0.00000000000E+00  0.00000000000E+00  0.45773536149E+02  0.37895136836E+04  0.37892372242E+04 0.  0.
        1    1    3    3  502    0 -0.47521690188E+03  0.43642950606E+03 -0.17586128597E+04  0.18732381076E+04  0.50400001928E-02 0.  1.
       -1    1    3    3    0  502  0.47521690188E+03 -0.43642950606E+03  0.18043863958E+04  0.19162755760E+04  0.50400001928E-02 0. -1.
</event>
<event>
 5   0  0.1370688E-07  0.3785767E+04  0.7818609E-02  0.8049216E-01
       -2   -1    0    0    0  501  0.00000000000E+00  0.00000000000E+00  0.19827538103E+04  0.19827538103E+04  0.25500000920E-02 0.  1.
        2   -1    0    0  501    0  0.00000000000E+00  0.00000000000E+00 -0.18070869798E+04  0.18070869798E+04  0.25500000920E-02 0. -1.
    10030    2    1    2    0    0  0.00000000000E+00  0.00000000000E+00  0.17566683051E+03  0.37898407902E+04  0.37857673436E+04 0.  0.
        5    1    3    3  502    0  0.37154623292E+02  0.32221766285E+03  0.19547211885E+04  0.19814544413E+04  0.46999998093E+01 0.  1.
       -5    1    3    3    0  502 -0.37154623292E+02 -0.32221766285E+03 -0.17790543580E+04  0.18083863489E+04  0.46999998093E+01 0. -1.
</event>
<event>
 5   0  0.6661000E-08  0.3766065E+04  0.7818609E-02  0.8053477E-01
        1   -1    0    0  501    0  0.00000000000E+00  0.00000000000E+00  0.17567486324E+04  0.17567486324E+04  0.50400001928E-02 0. -1.
       -1   -1    0    0    0  501  0.00000000000E+00  0.00000000000E+00 -0.20183937562E+04  0.20183937562E+04  0.50400001928E-02 0.  1.
    10030    2    1    2    0    0  0.00000000000E+00  0.00000000000E+00 -0.26164512377E+03  0.37751423886E+04  0.37660645087E+04 0.  0.
        2    1    3    3  502    0  0.82529826869E+03 -0.16280728926E+04 -0.59461686389E+03  0.19197155494E+04  0.25500000920E-02 0.  1.
       -2    1    3    3    0  502 -0.82529826869E+03  0.16280728926E+04  0.33297174011E+03  0.18554268392E+04  0.25500000920E-02 0. -1.
</event>
<event>
 5   0  0.2081337E-07  0.3817691E+04  0.7818609E-02  0.8042369E-01
        2   -1    0    0  501    0  0.00000000000E+00  0.00000000000E+00  0.19972743351E+04  0.19972743351E+04  0.25500000920E-02 0.  1.
       -2   -1    0    0    0  501  0.00000000000E+00  0.00000000000E+00 -0.18243315431E+04  0.18243315431E+04  0.25500000920E-02 0. -1.
    10030    2    1    2    0    0  0.00000000000E+00  0.00000000000E+00  0.17294279193E+03  0.38216058782E+04  0.38176906998E+04 0.  0.
        1    1    3    3  502    0  0.10064298276E+03 -0.66735376380E+03  0.18738558242E+04  0.19916891590E+04  0.50400001928E-02 0.  1.
       -1    1    3    3    0  502 -0.10064298276E+03  0.66735376380E+03 -0.17009130323E+04  0.18299167192E+04  0.50400001928E-02 0. -1.
</event>
<event>
 5   0  0.2203998E-07  0.3727459E+04  0.7818609E-02  0.8061904E-01
       -2   -1    0    0    0  501  0.00000000000E+00  0.00000000000E+00  0.17031272318E+04  0.17031272318E+04  0.25500000920E-02 0. -1.
        2   -1    0    0  501    0  0.00000000000E+00  0.00000000000E+00 -0.20394766407E+04  0.20394766407E+04  0.25500000920E-02 0.  1.
    10030    2    1    2    0    0  0.00000000000E+00  0.00000000000E+00 -0.33634940885E+03  0.37426038725E+04  0.37274592985E+04 0.  0.
        3    1    3    3  502    0  0.97572228694E+02  0.18510855407E+04  0.26132044752E+02  0.18538395057E+04  0.10100000352E+00 0.  1.
       -3    1    3    3    0  502 -0.97572228694E+02 -0.18510855407E+04 -0.36248145360E+03  0.18887643668E+04  0.10100000352E+00 0. -1.
</event>
<event>
 5   0  0.6661000E-08  0.3765143E+04  0.7818609E-02  0.8053677E-01
       -1   -1    0    0    0  501  0.00000000000E+00  0.00000000000E+00  0.20331501141E+04  0.20331501141E+04  0.50400001928E-02 0. -1.
        1   -1    0    0  501    0  0.00000000000E+00  0.00000000000E+00 -0.17431447085E+04  0.17431447085E+04  0.50400001928E-02 0.  1.
    10030    2    1    2    0    0  0.00000000000E+00  0.00000000000E+00  0.29000540566E+03  0.37762948226E+04  0.37651426868E+04 0.  0.
        1    1    3    3  502    0 -0.39312219316E+03  0.18195007119E+04 -0.13680455174E+03  0.18665056616E+04  0.50400001928E-02 0.  1.
       -1    1    3    3    0  502  0.39312219316E+03 -0.18195007119E+04  0.42680995739E+03  0.19097891609E+04  0.50400001928E-02 0. -1.
</event>
<event>
 5   0  0.2203998E-07  0.3811191E+04  0.7818609E-02  0.8043758E-01
       -2   -1    0    0    0  501  0.00000000000E+00  0.00000000000E+00  0.16846437030E+04  0.16846437030E+04  0.25500000920E-02 0.  1.
        2   -1    0    0  501    0  0.00000000000E+00  0.00000000000E+00 -0.21555269162E+04  0.21555269162E+04  0.25500000920E-02 0. -1.
    10030    2    1    2    0    0  0.00000000000E+00  0.00000000000E+00 -0.47088321312E+03  0.38401706192E+04  0.38111913340E+04 0.  0.
        3    1    3    3  502    0  0.15272252279E+04  0.19250917205E+03  0.89640651550E+03  0.17812976532E+04  0.10100000352E+00 0.  1.
       -3    1    3    3    0  502 -0.15272252279E+04 -0.19250917205E+03 -0.13672897286E+04  0.20588729660E+04  0.10100000352E+00 0. -1.
</event>
<event>
 5   0  0.2081337E-07  0.4011360E+04  0.7818609E-02  0.8002259E-01
        2   -1    0    0  501    0  0.00000000000E+00  0.00000000000E+00  0.12643130960E+04  0.12643130960E+04  0.25500000920E-02 0. -1.
       -2   -1    0    0    0  501  0.00000000000E+00  0.00000000000E+00 -0.31817686715E+04  0.31817686715E+04  0.25500000920E-02 0.  1.
    10030    2    1    2    0    0  0.00000000000E+00  0.00000000000E+00 -0.19174555754E+04  0.44460817675E+04  0.40113597693E+04 0.  0.
        1    1    3    3  502    0 -0.73863637118E+03 -0.16198470027E+04  0.65101363877E+02  0.17814954921E+04  0.50400001928E-02 0. -1.
       -1    1    3    3    0  502  0.73863637118E+03  0.16198470027E+04 -0.19825569393E+04  0.26645862753E+04  0.50400001928E-02 0.  1.
</event>
<event>
 5   0  0.6661000E-08  0.3811152E+04  0.7818609E-02  0.8043766E-01
        1   -1    0    0  501    0  0.00000000000E+00  0.00000000000E+00  0.21594391434E+04  0.21594391434E+04  0.50400001928E-02 0.  1.
       -1   -1    0    0    0  501  0.00000000000E+00  0.00000000000E+00 -0.16815567259E+04  0.16815567259E+04  0.50400001928E-02 0. -1.
    10030    2    1    2    0    0  0.00000000000E+00  0.00000000000E+00  0.47788241759E+03  0.38409958693E+04  0.38111517502E+04 0.  0.
        2    1    3    3  502    0 -0.58453467189E+03  0.14601943281E+04  0.13231774660E+04  0.20553945764E+04  0.25500000920E-02 0.  1.
       -2    1    3    3    0  502  0.58453467189E+03 -0.14601943281E+04 -0.84529504838E+03  0.17856012929E+04  0.25500000920E-02 0. -1.
</event>
<event>
 5   0  0.2135314E-07  0.3807192E+04  0.7818609E-02  0.8044613E-01
       -2   -1    0    0    0  501  0.00000000000E+00  0.00000000000E+00  0.14447250023E+04  0.14447250023E+04  0.25500000920E-02 0.  1.
        2   -1    0    0  501    0  0.00000000000E+00  0.00000000000E+00 -0.25082124904E+04  0.25082124904E+04  0.25500000920E-02 0. -1.
    10030    2    1    2    0    0  0.00000000000E+00  0.00000000000E+00 -0.10634874881E+04  0.39529374927E+04  0.38071917714E+04 0.  0.
        4    1    3    3  502    0 -0.80207099771E+02  0.50074167334E+03  0.13732981087E+04  0.14639414984E+04  0.12699999809E+01 0.  1.
       -4    1    3    3    0  502  0.80207099771E+02 -0.50074167334E+03 -0.24367855968E+04  0.24889959944E+04  0.12699999809E+01 0. -1.
</event>
<event>
 5   0  0.2205204E-07  0.3762100E+04  0.7818609E-02  0.8054337E-01
       -2   -1    0    0    0  501  0.00000000000E+00  0.00000000000E+00  0.19532762474E+04  0.19532762474E+04  0.25500000920E-02 0.  1.
        2   -1    0    0  501    0  0.00000000000E+00  0.00000000000E+00 -0.18114944042E+04  0.18114944042E+04  0.25500000920E-02 0. -1.
    10030    2    1    2    0    0  0.00000000000E+00  0.00000000000E+00  0.14178184323E+03  0.37647706516E+04  0.37620999412E+04 0.  0.
        2    1    3    3  502    0 -0.17977752807E+04 -0.48614861762E+03 -0.19389577102E+03  0.18724134181E+04  0.25500000920E-02 0. -1.
       -2    1    3    3    0  502  0.17977752807E+04  0.48614861762E+03  0.33567761425E+03  0.18923572335E+04  0.25500000920E-02 0.  1.
</event>
<event>
 5   0  0.6661000E-08  0.3762691E+04  0.7818609E-02  0.8054209E-01
        1   -1    0    0  501    0  0.00000000000E+00  0.00000000000E+00  0.19532381415E+04  0.19532381415E+04  0.50400001928E-02 0. -1.
       -1   -1    0    0    0  501  0.00000000000E+00  0.00000000000E+00 -0.18120994678E+04  0.18120994678E+04  0.50400001928E-02 0.  1.
    10030    2    1    2    0    0  0.00000000000E+00  0.00000000000E+00  0.14113867367E+03  0.37653376092E+04  0.37626914817E+04 0.  0.
        3    1    3    3  502    0  0.31756472655E+01  0.62136388224E+02 -0.18110696710E+04  0.18121380684E+04  0.10100000352E+00 0.  1.
       -3    1    3    3    0  502 -0.31756472655E+01 -0.62136388224E+02  0.19522083446E+04  0.19531995409E+04  0.10100000352E+00 0. -1.
</event>
<event>
 5   0  0.6661000E-08  0.3794464E+04  0.7818609E-02  0.8047344E-01
       -1   -1    0    0    0  501  0.00000000000E+00  0.00000000000E+00  0.22610530589E+04  0.22610530589E+04  0.50400001928E-02 0. -1.
        1   -1    0    0  501    0  0.00000000000E+00  0.00000000000E+00 -0.15919529684E+04  0.15919529684E+04  0.50400001928E-02 0.  1.
    10030    2    1    2    0    0  0.00000000000E+00  0.00000000000E+00  0.66910009053E+03  0.38530060273E+04  0.37944644569E+04 0.  0.
        2    1    3    3  502    0  0.10612257310E+03  0.18941040400E+04  0.30971843859E+03  0.19221908402E+04  0.25500000920E-02 0. -1.
       -2    1    3    3    0  502 -0.10612257310E+03 -0.18941040400E+04  0.35938165195E+03  0.19308151871E+04  0.25500000920E-02 0.  1.
</event>
<event>
 5   0  0.6725199E-08  0.3797074E+04  0.7818609E-02  0.8046783E-01
        1   -1    0    0  501    0  0.00000000000E+00  0.00000000000E+00  0.12154808977E+04  0.12154808977E+04  0.50400001928E-02 0. -1.
       -1   -1    0    0    0  501  0.00000000000E+00  0.00000000000E+00 -0.29654465364E+04  0.29654465364E+04  0.50400001928E-02 0.  1.
    10030    2    1    2    0    0  0.00000000000E+00  0.00000000000E+00 -0.17499656387E+04  0.41809274341E+04  0.37970744624E+04 0.  0.
        5    1    3    3  502    0 -0.10224289560E+03  0.64546325347E+03  0.10877252590E+04  0.12689541956E+04  0.46999998093E+01 0. -1.
       -5    1    3    3    0  502  0.10224289560E+03 -0.64546325347E+03 -0.28376908977E+04  0.29119732386E+04  0.46999998093E+01 0.  1.
</event>
<event>
 5   0  0.6661000E-08  0.3828560E+04  0.7818609E-02  0.8040054E-01
        1   -1    0    0  501    0  0.00000000000E+00  0.00000000000E+00  0.19574031526E+04  0.19574031527E+04  0.50400001928E-02 0. -1.
       -1   -1    0    0    0  501  0.00000000000E+00  0.00000000000E+00 -0.18721070983E+04  0.18721070983E+04  0.50400001928E-02 0.  1.
    10030    2    1    2    0    0  0.00000000000E+00  0.00000000000E+00  0.85296054305E+02  0.38295102510E+04  0.38285602184E+04 0.  0.
        4    1    3    3  502    0  0.36392170772E+03 -0.60293476967E+02  0.19215156978E+04  0.19566038185E+04  0.12699999809E+01 0. -1.
       -4    1    3    3    0  502 -0.36392170772E+03  0.60293476967E+02 -0.18362196435E+04  0.18729064325E+04  0.12699999809E+01 0.  1.
</event>
<event>
 5   0  0.6661000E-08  0.3788457E+04  0.7818609E-02  0.8048637E-01
        1   -1    0    0  501    0  0.00000000000E+00  0.00000000000E+00  0.20586690449E+04  0.20586690449E+04  0.50400001928E-02 0. -1.
       -1   -1    0    0    0  501  0.00000000000E+00  0.00000000000E+00 -0.17429229304E+04  0.17429229304E+04  0.50400001928E-02 0.  1.
    10030    2    1    2    0    0  0.00000000000E+00  0.00000000000E+00  0.31574611451E+03  0.38015919752E+04  0.37884569335E+04 0.  0.
        1    1    3    3  502    0  0.18201756038E+04 -0.25114524142E+02 -0.36780535211E+03  0.18571350907E+04  0.50400001928E-02 0.  1.
       -1    1    3    3    0  502 -0.18201756038E+04  0.25114524142E+02  0.68355146662E+03  0.19444568845E+04  0.50400001928E-02 0. -1.
</event>
<event>
 5   0  0.1370688E-07  0.3807174E+04  0.7818609E-02  0.8044617E-01
        2   -1    0    0  501    0  0.00000000000E+00  0.00000000000E+00  0.20647925475E+04  0.20647925475E+04  0.25500000920E-02 0. -1.
       -2   -1    0    0    0  501  0.00000000000E+00  0.00000000000E+00 -0.17549672235E+04  0.17549672235E+04  0.25500000920E-02 0.  1.
    10030    2    1    2    0    0  0.00000000000E+00  0.00000000000E+00  0.30982532398E+03  0.38197597710E+04  0.38071738831E+04 0.  0.
        5    1    3    3  502    0  0.67683797989E+03 -0.11093971325E+03  0.19365092171E+04  0.20543873318E+04  0.46999998093E+01 0. -1.
       -5    1    3    3    0  502 -0.67683797989E+03  0.11093971325E+03 -0.16266838931E+04  0.17653724392E+04  0.46999998093E+01 0.  1.
</event>
<event>
 5   0  0.6661000E-08  0.3763601E+04  0.7818609E-02  0.8054012E-01
       -1   -1    0    0    0  501  0.00000000000E+00  0.00000000000E+00  0.15496170032E+04  0.15496170032E+04  0.50400001928E-02 0.  1.
        1   -1    0    0  501    0  0.00000000000E+00  0.00000000000E+00 -0.22851918731E+04  0.22851918731E+04  0.50400001928E-02 0. -1.
    10030    2    1    2    0    0  0.00000000000E+00  0.00000000000E+00 -0.73557486988E+03  0.38348088763E+04  0.37636005007E+04 0.  0.
        4    1    3    3  502    0  0.16560085079E+04  0.75721753905E+03  0.11598834887E+03  0.18246088594E+04  0.12699999809E+01 0.  1.
       -4    1    3    3    0  502 -0.16560085079E+04 -0.75721753905E+03 -0.85156321876E+03  0.20102000169E+04  0.12699999809E+01 0. -1.
</event>
<event>
 5   0  0.1370688E-07  0.3551858E+04  0.7818609E-02  0.8101609E-01
        2   -1    0    0  501    0  0.00000000000E+00  0.00000000000E+00  0.16428302483E+04  0.16428302483E+04  0.25500000920E-02 0. -1.
       -2   -1    0    0    0  501  0.00000000000E+00  0.00000000000E+00 -0.19198106956E+04  0.19198106956E+04  0.25500000920E-02 0.  1.
    10030    2    1    2    0    0  0.00000000000E+00  0.00000000000E+00 -0.27698044729E+03  0.35626409439E+04  0.35518575882E+04 0.  0.
        5    1    3    3  502    0 -0.13568682594E+04 -0.52915699431E+03  0.88086400354E+03  0.17020699400E+04  0.46999998093E+01 0.  1.
       -5    1    3    3    0  502  0.13568682594E+04  0.52915699431E+03 -0.11578444508E+04  0.18605710038E+04  0.46999998093E+01 0. -1.
</event>
<event>
 5   0  0.2203998E-07  0.3796315E+04  0.7818609E-02  0.8046946E-01
       -2   -1    0    0    0  501  0.00000000000E+00  0.00000000000E+00  0.16516777245E+04  0.16516777245E+04  0.25500000920E-02 0. -1.
        2   -1    0    0  501    0  0.00000000000E+00  0.00000000000E+00 -0.21814194997E+04  0.21814194997E+04  0.25500000920E-02 0.  1.
    10030    2    1    2    0    0  0.00000000000E+00  0.00000000000E+00 -0.52974177520E+03  0.38330972242E+04  0.37963150531E+04 0.  0.
        3    1    3    3  502    0 -0.68465221214E+03  0.94541233004E+03 -0.17761862803E+04  0.21254154507E+04  0.10100000352E+00 0.  1.
       -3    1    3    3    0  502  0.68465221214E+03 -0.94541233004E+03  0.12464445051E+04  0.17076817736E+04  0.10100000352E+00 0. -1.
</event>
<event>
 5   0  0.2203998E-07  0.3780140E+04  0.7818609E-02  0.8050430E-01
       -2   -1    0    0    0  501  0.00000000000E+00  0.00000000000E+00  0.25933456125E+04  0.25933456125E+04  0.25500000920E-02 0.  1.
        2   -1    0    0  501    0  0.00000000000E+00  0.00000000000E+00 -0.13775117865E+04  0.13775117865E+04  0.25500000920E-02 0. -1.
    10030    2    1    2    0    0  0.00000000000E+00  0.00000000000E+00  0.12158338260E+04  0.39708573991E+04  0.37801397582E+04 0.  0.
        3    1    3    3  502    0  0.48814467626E+03 -0.16650734855E+04  0.13951322402E+04  0.22264655656E+04  0.10100000352E+00 0.  1.
       -3    1    3    3    0  502 -0.48814467626E+03  0.16650734855E+04 -0.17929841421E+03  0.17443918334E+04  0.10100000352E+00 0. -1.
</event>
<event>
 5   0  0.6725199E-08  0.3788543E+04  0.7818609E-02  0.8048618E-01
        1   -1    0    0  501    0  0.00000000000E+00  0.00000000000E+00  0.18455372509E+04  0.18455372509E+04  0.50400001928E-02 0.  1.
       -1   -1    0    0    0  501  0.00000000000E+00  0.00000000000E+00 -0.19442930115E+04  0.19442930116E+04  0.50400001928E-02 0. -1.
    10030    2    1    2    0    0  0.00000000000E+00  0.00000000000E+00 -0.98755760691E+02  0.37898302624E+04  0.37885433504E+04 0.  0.
        5    1    3    3  502    0 -0.11045109663E+04 -0.10741609513E+04 -0.11517852847E+04  0.19236417691E+04  0.46999998093E+01 0. -1.
       -5    1    3    3    0  502  0.11045109663E+04  0.10741609513E+04  0.10530295240E+04  0.18661884933E+04  0.46999998093E+01 0.  1.
</event>
<event>
 5   0  0.1370688E-07  0.3773370E+04  0.7818609E-02  0.8051894E-01
       -2   -1    0    0    0  501  0.00000000000E+00  0.00000000000E+00  0.19204711043E+04  0.19204711043E+04  0.25500000920E-02 0.  1.
        2   -1    0    0  501    0  0.00000000000E+00  0.00000000000E+00 -0.18534928430E+04  0.18534928430E+04  0.25500000920E-02 0. -1.
    10030    2    1    2    0    0  0.00000000000E+00  0.00000000000E+00  0.66978261262E+02  0.37739639473E+04  0.37733695536E+04 0.  0.
        5    1    3    3  502    0  0.33718839528E+03  0.92230560736E+03  0.16447095958E+04  0.19155770389E+04  0.46999998093E+01 0.  1.
       -5    1    3    3    0  502 -0.33718839528E+03 -0.92230560736E+03 -0.15777313346E+04  0.18583869084E+04  0.46999998093E+01 0. -1.
</event>
<event>
 5   0  0.2203998E-07  0.3787580E+04  0.7818609E-02  0.8048826E-01
       -2   -1    0    0    0  501  0.00000000000E+00  0.00000000000E+00  0.18738659807E+04  0.18738659807E+04  0.25500000920E-02 0.  1.
        2   -1    0    0  501    0  0.00000000000E+00  0.00000000000E+00 -0.19139255376E+04  0.19139255376E+04  0.25500000920E-02 0. -1.
    10030    2    1    2    0    0  0.00000000000E+00  0.00000000000E+00 -0.40059556937E+02  0.37877915182E+04  0.37875796781E+04 0.  0.
        3    1    3    3  502    0 -0.17530023780E+04 -0.71246063189E+03 -0.96339058025E+02  0.18947028035E+04  0.10100000352E+00 0.  1.
       -3    1    3    3    0  502  0.17530023780E+04  0.71246063189E+03  0.56279501088E+02  0.18930887147E+04  0.10100000352E+00 0. -1.
</event>
<event>
 5   0  0.6661000E-08  0.3796229E+04  0.7818609E-02  0.8046965E-01
       -1   -1    0    0    0  501  0.00000000000E+00  0.00000000000E+00  0.15528890109E+04  0.15528890109E+04  0.50400001928E-02 0. -1.
        1   -1    0    0  501    0  0.00000000000E+00  0.00000000000E+00 -0.23200882618E+04  0.23200882618E+04  0.50400001928E-02 0.  1.
    10030    2    1    2    0    0  0.00000000000E+00  0.00000000000E+00 -0.76719925094E+03  0.38729772727E+04  0.37962294800E+04 0.  0.
        1    1    3    3  502    0  0.14631640837E+04  0.51811525102E+03  0.73098296946E+03  0.17157006297E+04  0.50400001928E-02 0. -1.
       -1    1    3    3    0  502 -0.14631640837E+04 -0.51811525102E+03 -0.14981822204E+04  0.21572766430E+04  0.50400001928E-02 0.  1.
</event>
<event>
 5   0  0.6661000E-08  0.3798220E+04  0.7818609E-02  0.8046537E-01
       -1   -1    0    0    0  501  0.00000000000E+00  0.00000000000E+00  0.16958794795E+04  0.16958794795E+04  0.50400001928E-02 0. -1.
        1   -1    0    0  501    0  0.00000000000E+00  0.00000000000E+00 -0.21266949771E+04  0.21266949771E+04  0.50400001928E-02 0.  1.
    10030    2    1    2    0    0  0.00000000000E+00  0.00000000000E+00 -0.43081549759E+03  0.38225744566E+04  0.37982197782E+04 0.  0.
        3    1    3    3  502    0 -0.13495220948E+04  0.33579189182E+03 -0.15170112140E+04  0.20579818057E+04  0.10100000352E+00 0.  1.
       -3    1    3    3    0  502  0.13495220948E+04 -0.33579189182E+03  0.10861957164E+04  0.17645926509E+04  0.10100000352E+00 0. -1.
</event>
<event>
 5   0  0.6661000E-08  0.3724487E+04  0.7818609E-02  0.8062557E-01
        1   -1    0    0  501    0  0.00000000000E+00  0.00000000000E+00  0.22957110196E+04  0.22957110196E+04  0.50400001928E-02 0. -1.
       -1   -1    0    0    0  501  0.00000000000E+00  0.00000000000E+00 -0.15106220872E+04  0.15106220873E+04  0.50400001928E-02 0.  1.
    10030    2    1    2    0    0  0.00000000000E+00  0.00000000000E+00  0.78508893240E+03  0.38063331069E+04  0.37244874935E+04 0.  0.
        2    1    3    3  502    0  0.69139523980E+02  0.98158221610E+03  0.20083214761E+04  0.22364344551E+04  0.25500000920E-02 0. -1.
       -2    1    3    3    0  502 -0.69139523980E+02 -0.98158221610E+03 -0.12232325437E+04  0.15698986517E+04  0.25500000920E-02 0.  1.
</event>
<event>
 5   0  0.2081337E-07  0.3784190E+04  0.7818609E-02  0.8049556E-01
        2   -1    0    0  501    0  0.00000000000E+00  0.00000000000E+00  0.14547704872E+04  0.14547704872E+04  0.25500000920E-02 0.  1.
       -2   -1    0    0    0  501  0.00000000000E+00  0.00000000000E+00 -0.24608856529E+04  0.24608856529E+04  0.25500000920E-02 0. -1.
    10030    2    1    2    0    0  0.00000000000E+00  0.00000000000E+00 -0.10061151657E+04  0.39156561401E+04  0.37841901751E+04 0.  0.
        1    1    3    3  502    0  0.13972552951E+04 -0.12276001311E+04 -0.86254534452E+03  0.20501972864E+04  0.50400001928E-02 0.  1.
       -1    1    3    3    0  502 -0.13972552951E+04  0.12276001311E+04 -0.14356982122E+03  0.18654588538E+04  0.50400001928E-02 0. -1.
</event>
<event>
 5   0  0.1370688E-07  0.3795459E+04  0.7818609E-02  0.8047130E-01
        2   -1    0    0  501    0  0.00000000000E+00  0.00000000000E+00  0.32309395629E+04  0.32309395629E+04  0.25500000920E-02 0. -1.
       -2   -1    0    0    0  501  0.00000000000E+00  0.00000000000E+00 -0.11146534305E+04  0.11146534305E+04  0.25500000920E-02 0.  1.
    10030    2    1    2    0    0  0.00000000000E+00  0.00000000000E+00  0.21162861324E+04  0.43455929934E+04  0.37954593227E+04 0.  0.
        5    1    3    3  502    0  0.45121977542E+03  0.18120490010E+04  0.67116697946E+03  0.19843407147E+04  0.46999998093E+01 0.  1.
       -5    1    3    3    0  502 -0.45121977542E+03 -0.18120490010E+04  0.14451191529E+04  0.23612522787E+04  0.46999998093E+01 0. -1.
</event>
<event>
 5   0  0.2205204E-07  0.3755446E+04  0.7818609E-02  0.8055784E-01
       -2   -1    0    0    0  501  0.00000000000E+00  0.00000000000E+00  0.20354643729E+04  0.20354643729E+04  0.25500000920E-02 0.  1.
        2   -1    0    0  501    0  0.00000000000E+00  0.00000000000E+00 -0.17322056994E+04  0.17322056994E+04  0.25500000920E-02 0. -1.
    10030    2    1    2    0    0  0.00000000000E+00  0.00000000000E+00  0.30325867345E+03  0.37676700723E+04  0.37554456394E+04 0.  0.
        2    1    3    3  502    0  0.11196440241E+04 -0.14796539677E+04 -0.13716943084E+03  0.18605897069E+04  0.25500000920E-02 0. -1.
       -2    1    3    3    0  502 -0.11196440241E+04  0.14796539677E+04  0.44042810429E+03  0.19070803653E+04  0.25500000920E-02 0.  1.
</event>
<event>
 5   0  0.2203998E-07  0.3789607E+04  0.7818609E-02  0.8048389E-01
        2   -1    0    0  501    0  0.00000000000E+00  0.00000000000E+00  0.20435846447E+04  0.20435846447E+04  0.25500000920E-02 0.  1.
       -2   -1    0    0    0  501  0.00000000000E+00  0.00000000000E+00 -0.17568538322E+04  0.17568538322E+04  0.25500000920E-02 0. -1.
    10030    2    1    2    0    0  0.00000000000E+00  0.00000000000E+00  0.28673081251E+03  0.38004384769E+04  0.37896065836E+04 0.  0.
        3    1    3    3  502    0  0.69377991812E+02  0.10299490005E+04 -0.14500976458E+04  0.17799975961E+04  0.10100000352E+00 0. -1.
       -3    1    3    3    0  502 -0.69377991812E+02 -0.10299490005E+04  0.17368284583E+04  0.20204408809E+04  0.10100000352E+00 0.  1.
</event>
<event>
 5   0  0.6661000E-08  0.3791632E+04  0.7818609E-02  0.8047953E-01
       -1   -1    0    0    0  501  0.00000000000E+00  0.00000000000E+00  0.14783367467E+04  0.14783367467E+04  0.50400001928E-02 0. -1.
        1   -1    0    0  501    0  0.00000000000E+00  0.00000000000E+00 -0.24311899159E+04  0.24311899159E+04  0.50400001928E-02 0.  1.
    10030    2    1    2    0    0  0.00000000000E+00  0.00000000000E+00 -0.95285316918E+03  0.39095266626E+04  0.37916315173E+04 0.  0.
        2    1    3    3  502    0  0.18718980294E+04  0.48119857918E+02 -0.17090322814E+03  0.18802993556E+04  0.25500000920E-02 0.  1.
       -2    1    3    3    0  502 -0.18718980294E+04 -0.48119857918E+02 -0.78194994104E+03  0.20292273070E+04  0.25500000920E-02 0. -1.
</event>
<event>
 5   0  0.6661000E-08  0.3791243E+04  0.7818609E-02  0.8048037E-01
        1   -1    0    0  501    0  0.00000000000E+00  0.00000000000E+00  0.24389435463E+04  0.24389435463E+04  0.50400001928E-02 0. -1.
       -1   -1    0    0    0  501  0.00000000000E+00  0.00000000000E+00 -0.14733352766E+04  0.14733352766E+04  0.50400001928E-02 0.  1.
    10030    2    1    2    0    0  0.00000000000E+00  0.00000000000E+00  0.96560826971E+03  0.39122788229E+04  0.37912433656E+04 0.  0.
        1    1    3    3  502    0 -0.10370826493E+03  0.90656791326E+03  0.21974029674E+04  0.23793277594E+04  0.50400001928E-02 0. -1.
       -1    1    3    3    0  502  0.10370826493E+03 -0.90656791326E+03 -0.12317946977E+04  0.15329510634E+04  0.50400001928E-02 0.  1.
</event>
<event>
 5   0  0.2203998E-07  0.3788409E+04  0.7818609E-02  0.8048647E-01
        2   -1    0    0  501    0  0.00000000000E+00  0.00000000000E+00  0.17342662113E+04  0.17342662113E+04  0.25500000920E-02 0. -1.
       -2   -1    0    0    0  501  0.00000000000E+00  0.00000000000E+00 -0.20688927458E+04  0.20688927458E+04  0.25500000920E-02 0.  1.
    10030    2    1    2    0    0  0.00000000000E+00  0.00000000000E+00 -0.33462653449E+03  0.38031589571E+04  0.37884090507E+04 0.  0.
        3    1    3    3  502    0 -0.11920959175E+04 -0.14541489230E+04 -0.39704700669E+03  0.19217929395E+04  0.10100000352E+00 0.  1.
       -3    1    3    3    0  502  0.11920959175E+04  0.14541489230E+04  0.62420472196E+02  0.18813660176E+04  0.10100000352E+00 0. -1.
</event>
<event>
 5   0  0.1370688E-07  0.3819139E+04  0.7818609E-02  0.8042060E-01
       -2   -1    0    0    0  501  0.00000000000E+00  0.00000000000E+00  0.14420734548E+04  0.14420734548E+04  0.25500000920E-02 0.  1.
        2   -1    0    0  501    0  0.00000000000E+00  0.00000000000E+00 -0.25286200925E+04  0.25286200925E+04  0.25500000920E-02 0. -1.
    10030    2    1    2    0    0  0.00000000000E+00  0.00000000000E+00 -0.10865466377E+04  0.39706935473E+04  0.38191391243E+04 0.  0.
        5    1    3    3  502    0 -0.14697858673E+03 -0.18786875928E+04 -0.22220812566E+03  0.18974900045E+04  0.46999998093E+01 0.  1.
       -5    1    3    3    0  502  0.14697858673E+03  0.18786875928E+04 -0.86433851205E+03  0.20732035427E+04  0.46999998093E+01 0. -1.
</event>
<event>
 5   0  0.6661000E-08  0.3860544E+04  0.7818609E-02  0.8033286E-01
        1   -1    0    0  501    0  0.00000000000E+00  0.00000000000E+00  0.31870849495E+04  0.31870849495E+04  0.50400001928E-02 0. -1.
       -1   -1    0    0    0  501  0.00000000000E+00  0.00000000000E+00 -0.11690778975E+04  0.11690778975E+04  0.50400001928E-02 0.  1.
    10030    2    1    2    0    0  0.00000000000E+00  0.00000000000E+00  0.20180070519E+04  0.43561628470E+04  0.38605442994E+04 0.  0.
        3    1    3    3  502    0  0.12165741836E+04 -0.86355783380E+03  0.23910580597E+04  0.28183228225E+04  0.10100000352E+00 0. -1.
       -3    1    3    3    0  502 -0.12165741836E+04  0.86355783380E+03 -0.37305100779E+03  0.15378400245E+04  0.10100000352E+00 0.  1.
</event>
<event>
 5   0  0.6661000E-08  0.3789849E+04  0.7818609E-02  0.8048337E-01
        1   -1    0    0  501    0  0.00000000000E+00  0.00000000000E+00  0.13675066036E+04  0.13675066036E+04  0.50400001928E-02 0.  1.
       -1   -1    0    0    0  501  0.00000000000E+00  0.00000000000E+00 -0.26257563985E+04  0.26257563985E+04  0.50400001928E-02 0. -1.
    10030    2    1    2    0    0  0.00000000000E+00  0.00000000000E+00 -0.12582497948E+04  0.39932630021E+04  0.37898491866E+04 0.  0.
        2    1    3    3  502    0  0.17917855415E+04  0.56468472902E+03 -0.36808821423E+03  0.19143806318E+04  0.25500000920E-02 0. -1.
       -2    1    3    3    0  502 -0.17917855415E+04 -0.56468472902E+03 -0.89016158061E+03  0.20788823703E+04  0.25500000920E-02 0.  1.
</event>
<event>
 5   0  0.6661000E-08  0.3806731E+04  0.7818609E-02  0.8044712E-01
       -1   -1    0    0    0  501  0.00000000000E+00  0.00000000000E+00  0.16607288735E+04  0.16607288735E+04  0.50400001928E-02 0.  1.
        1   -1    0    0  501    0  0.00000000000E+00  0.00000000000E+00 -0.21814524507E+04  0.21814524507E+04  0.50400001928E-02 0. -1.
    10030    2    1    2    0    0  0.00000000000E+00  0.00000000000E+00 -0.52072357719E+03  0.38421813242E+04  0.38067314437E+04 0.  0.
        2    1    3    3  502    0 -0.17434448282E+04  0.62966237851E+03 -0.69650446616E+03  0.19802002554E+04  0.25500000920E-02 0. -1.
       -2    1    3    3    0  502  0.17434448282E+04 -0.62966237851E+03  0.17578088897E+03  0.18619810689E+04  0.25500000920E-02 0.  1.
</event>
<event>
 5   0  0.2135314E-07  0.3789369E+04  0.7818609E-02  0.8048440E-01
       -2   -1    0    0    0  501  0.00000000000E+00  0.00000000000E+00  0.16341982318E+04  0.16341982318E+04  0.25500000920E-02 0.  1.
        2   -1    0    0  501    0  0.00000000000E+00  0.00000000000E+00 -0.21966910225E+04  0.21966910225E+04  0.25500000920E-02 0. -1.
    10030    2    1    2    0    0  0.00000000000E+00  0.00000000000E+00 -0.56249279071E+03  0.38308892543E+04  0.37893685937E+04 0.  0.
        4    1    3    3  502    0  0.62623894685E+03  0.51992688929E+03  0.14484441967E+04  0.16614726578E+04  0.12699999809E+01 0.  1.
       -4    1    3    3    0  502 -0.62623894685E+03 -0.51992688929E+03 -0.20109369874E+04  0.21694165965E+04  0.12699999809E+01 0. -1.
</event>
<event>
 5   0  0.6725199E-08  0.3788690E+04  0.7818609E-02  0.8048586E-01
       -1   -1    0    0    0  501  0.00000000000E+00  0.00000000000E+00  0.16465590181E+04  0.16465590181E+04  0.50400001928E-02 0.  1.
        1   -1    0    0  501    0  0.00000000000E+00  0.00000000000E+00 -0.21794192923E+04  0.21794192923E+04  0.50400001928E-02 0. -1.
    10030    2    1    2    0    0  0.00000000000E+00  0.00000000000E+00 -0.53286027418E+03  0.38259783104E+04  0.37886897418E+04 0.  0.
        5    1    3    3  502    0  0.64190113784E+03  0.17822097857E+04 -0.28112008434E+03  0.19150350866E+04  0.46999998093E+01 0.  1.
       -5    1    3    3    0  502 -0.64190113784E+03 -0.17822097857E+04 -0.25174018984E+03  0.19109432237E+04  0.46999998093E+01 0. -1.
</event>
<event>
 5   0  0.1370688E-07  0.3804674E+04  0.7818609E-02  0.8045153E-01
       -2   -1    0    0    0  501  0.00000000000E+00  0.00000000000E+00  0.17748118178E+04  0.17748118178E+04  0.25500000920E-02 0. -1.
        2   -1    0    0  501    0  0.00000000000E+00  0.00000000000E+00 -0.20390248412E+04  0.20390248412E+04  0.25500000920E-02 0.  1.
    10030    2    1    2    0    0  0.00000000000E+00  0.00000000000E+00 -0.26421302343E+03  0.38138366590E+04  0.38046736443E+04 0.  0.
        5    1    3    3  502    0  0.16957761486E+04  0.62282511647E+03  0.46539565629E+03  0.18655248802E+04  0.46999998093E+01 0.  1.
       -5    1    3    3    0  502 -0.16957761486E+04 -0.62282511647E+03 -0.72960867972E+03  0.19483117788E+04  0.46999998093E+01 0. -1.
</event>
<event>
 5   0  0.1370688E-07  0.3829084E+04  0.7818609E-02  0.8039942E-01
        2   -1    0    0  501    0  0.00000000000E+00  0.00000000000E+00  0.20252969749E+04  0.20252969749E+04  0.25500000920E-02 0. -1.
       -2   -1    0    0    0  501  0.00000000000E+00  0.00000000000E+00 -0.18098437097E+04  0.18098437097E+04  0.25500000920E-02 0.  1.
    10030    2    1    2    0    0  0.00000000000E+00  0.00000000000E+00  0.21545326512E+03  0.38351406846E+04  0.38290839585E+04 0.  0.
        5    1    3    3  502    0  0.11476905970E+04  0.13695829858E+04 -0.58074528796E+03  0.18788928764E+04  0.46999998093E+01 0.  1.
       -5    1    3    3    0  502 -0.11476905970E+04 -0.13695829858E+04  0.79619855308E+03  0.19562478082E+04  0.46999998093E+01 0. -1.
</event>
<event>
 5   0  0.2081337E-07  0.3792753E+04  0.7818609E-02  0.8047712E-01
        2   -1    0    0  501    0  0.00000000000E+00  0.00000000000E+00  0.25882301062E+04  0.25882301062E+04  0.25500000920E-02 0. -1.
       -2   -1    0    0    0  501  0.00000000000E+00  0.00000000000E+00 -0.13894603353E+04  0.13894603353E+04  0.25500000920E-02 0.  1.
    10030    2    1    2    0    0  0.00000000000E+00  0.00000000000E+00  0.11987697709E+04  0.39776904415E+04  0.37927526000E+04 0.  0.
        1    1    3    3  502    0 -0.83619553462E+03 -0.45328999168E+02 -0.11850395194E+04  0.14510673151E+04  0.50400001928E-02 0.  1.
       -1    1    3    3    0  502  0.83619553462E+03  0.45328999168E+02  0.23838092903E+04  0.25266231264E+04  0.50400001928E-02 0. -1.
</event>
<event>
 5   0  0.6661000E-08  0.3797028E+04  0.7818609E-02  0.8046793E-01
       -1   -1    0    0    0  501  0.00000000000E+00  0.00000000000E+00  0.20848080779E+04  0.20848080779E+04  0.50400001928E-02 0. -1.
        1   -1    0    0  501    0  0.00000000000E+00  0.00000000000E+00 -0.17288669557E+04  0.17288669557E+04  0.50400001928E-02 0.  1.
    10030    2    1    2    0    0  0.00000000000E+00  0.00000000000E+00  0.35594112227E+03  0.38136750336E+04  0.37970282037E+04 0.  0.
        3    1    3    3  502    0  0.73469867101E+03 -0.51242668327E+03  0.18592246291E+04  0.20637537340E+04  0.10100000352E+00 0. -1.
       -3    1    3    3    0  502 -0.73469867101E+03  0.51242668327E+03 -0.15032835068E+04  0.17499212996E+04  0.10100000352E+00 0.  1.
</event>
<event>
 5   0  0.1370688E-07  0.3780029E+04  0.7818609E-02  0.8050454E-01
       -2   -1    0    0    0  501  0.00000000000E+00  0.00000000000E+00  0.16912425743E+04  0.16912425743E+04  0.25500000920E-02 0.  1.
        2   -1    0    0  501    0  0.00000000000E+00  0.00000000000E+00 -0.21121476735E+04  0.21121476735E+04  0.25500000920E-02 0. -1.
    10030    2    1    2    0    0  0.00000000000E+00  0.00000000000E+00 -0.42090509914E+03  0.38033902478E+04  0.37800286076E+04 0.  0.
        5    1    3    3  502    0  0.12149213032E+04 -0.14475092195E+04 -0.18172324003E+03  0.18985157728E+04  0.46999998093E+01 0.  1.
       -5    1    3    3    0  502 -0.12149213032E+04  0.14475092195E+04 -0.23918185911E+03  0.19048744750E+04  0.46999998093E+01 0. -1.
</event>
<event>
 5   0  0.2205204E-07  0.3787423E+04  0.7818609E-02  0.8048859E-01
       -2   -1    0    0    0  501  0.00000000000E+00  0.00000000000E+00  0.14425505893E+04  0.14425505893E+04  0.25500000920E-02 0. -1.
        2   -1    0    0  501    0  0.00000000000E+00  0.00000000000E+00 -0.24859736549E+04  0.24859736549E+04  0.25500000920E-02 0.  1.
    10030    2    1    2    0    0  0.00000000000E+00  0.00000000000E+00 -0.10434230656E+04  0.39285242442E+04  0.37874227442E+04 0.  0.
        2    1    3    3  502    0 -0.85716603004E+03  0.16196727867E+04 -0.10170693204E+04  0.20958300364E+04  0.25500000920E-02 0.  1.
       -2    1    3    3    0  502  0.85716603004E+03 -0.16196727867E+04 -0.26353745241E+02  0.18326942077E+04  0.25500000920E-02 0. -1.
</event>
<event>
 5   0  0.2205204E-07  0.3826879E+04  0.7818609E-02  0.8040411E-01
        2   -1    0    0  501    0  0.00000000000E+00  0.00000000000E+00  0.23498538317E+04  0.23498538317E+04  0.25500000920E-02 0.  1.
       -2   -1    0    0    0  501  0.00000000000E+00  0.00000000000E+00 -0.15580757409E+04  0.15580757410E+04  0.25500000920E-02 0. -1.
    10030    2    1    2    0    0  0.00000000000E+00  0.00000000000E+00  0.79177809076E+03  0.39079295727E+04  0.38268787543E+04 0.  0.
        2    1    3    3  502    0 -0.53765492576E+03 -0.78521645865E+03 -0.12992725399E+04  0.16105113595E+04  0.25500000920E-02 0. -1.
       -2    1    3    3    0  502  0.53765492576E+03  0.78521645865E+03  0.20910506307E+04  0.22974182132E+04  0.25500000920E-02 0.  1.
</event>
<event>
 5   0  0.2135314E-07  0.3809628E+04  0.7818609E-02  0.8044092E-01
       -2   -1    0    0    0  501  0.00000000000E+00  0.00000000000E+00  0.16415843730E+04  0.16415843730E+04  0.25500000920E-02 0. -1.
        2   -1    0    0  501    0  0.00000000000E+00  0.00000000000E+00 -0.22102524080E+04  0.22102524080E+04  0.25500000920E-02 0.  1.
    10030    2    1    2    0    0  0.00000000000E+00  0.00000000000E+00 -0.56866803499E+03  0.38518367810E+04  0.38096277053E+04 0.  0.
        4    1    3    3  502    0 -0.49872243505E+03 -0.12897681813E+04 -0.16088437029E+04  0.21214631041E+04  0.12699999809E+01 0.  1.
       -4    1    3    3    0  502  0.49872243505E+03  0.12897681813E+04  0.10401756679E+04  0.17303736769E+04  0.12699999809E+01 0. -1.
</event>
<event>
 5   0  0.2205204E-07  0.3815015E+04  0.7818609E-02  0.8042940E-01
       -2   -1    0    0    0  501  0.00000000000E+00  0.00000000000E+00  0.15774081556E+04  0.15774081556E+04  0.25500000920E-02 0. -1.
        2   -1    0    0  501    0  0.00000000000E+00  0.00000000000E+00 -0.23066863157E+04  0.23066863157E+04  0.25500000920E-02 0.  1.
    10030    2    1    2    0    0  0.00000000000E+00  0.00000000000E+00 -0.72927816012E+03  0.38840944714E+04  0.38150154951E+04 0.  0.
        2    1    3    3  502    0  0.52066278434E+03 -0.11427720594E+04 -0.18264537646E+04  0.22165177800E+04  0.25500000920E-02 0.  1.
       -2    1    3    3    0  502 -0.52066278434E+03  0.11427720594E+04  0.10971756045E+04  0.16675766914E+04  0.25500000920E-02 0. -1.
</event>
<event>
 5   0  0.2205204E-07  0.3768059E+04  0.7818609E-02  0.8053044E-01
        2   -1    0    0  501    0  0.00000000000E+00  0.00000000000E+00  0.14468042807E+04  0.14468042807E+04  0.25500000920E-02 0.  1.
       -2   -1    0    0    0  501  0.00000000000E+00  0.00000000000E+00 -0.24533842975E+04  0.24533842975E+04  0.25500000920E-02 0. -1.
    10030    2    1    2    0    0  0.00000000000E+00  0.00000000000E+00 -0.10065800168E+04  0.39001885782E+04  0.37680588657E+04 0.  0.
        2    1    3    3  502    0  0.18751675430E+04  0.14028645103E+03 -0.38243394587E+03  0.19189031569E+04  0.25500000920E-02 0.  1.
       -2    1    3    3    0  502 -0.18751675430E+04 -0.14028645103E+03 -0.62414607091E+03  0.19812854213E+04  0.25500000920E-02 0. -1.
</event>
<event>
 5   0  0.2203998E-07  0.3795771E+04  0.7818609E-02  0.8047063E-01
       -2   -1    0    0    0  501  0.00000000000E+00  0.00000000000E+00  0.16616353191E+04  0.16616353191E+04  0.25500000920E-02 0.  1.
        2   -1    0    0  501    0  0.00000000000E+00  0.00000000000E+00 -0.21677255067E+04  0.21677255067E+04  0.25500000920E-02 0. -1.
    10030    2    1    2    0    0  0.00000000000E+00  0.00000000000E+00 -0.50609018752E+03  0.38293608258E+04  0.37957709436E+04 0.  0.
        3    1    3    3  502    0 -0.49329216447E+03  0.16392235011E+04 -0.10797959540E+04  0.20239442083E+04  0.10100000352E+00 0. -1.
       -3    1    3    3    0  502  0.49329216447E+03 -0.16392235011E+04  0.57370576644E+03  0.18054166175E+04  0.10100000352E+00 0.  1.
</event>
<event>
 5   0  0.6661000E-08  0.3789717E+04  0.7818609E-02  0.8048365E-01
        1   -1    0    0  501    0  0.00000000000E+00  0.00000000000E+00  0.16594787989E+04  0.16594787989E+04  0.50400001928E-02 0.  1.
       -1   -1    0    0    0  501  0.00000000000E+00  0.00000000000E+00 -0.21636246192E+04  0.21636246192E+04  0.50400001928E-02 0. -1.
    10030    2    1    2    0    0  0.00000000000E+00  0.00000000000E+00 -0.50414582031E+03  0.38231034181E+04  0.37897172371E+04 0.  0.
        2    1    3    3  502    0 -0.30793355132E+01  0.57843945380E+03 -0.20723769559E+04  0.21515919528E+04  0.25500000920E-02 0. -1.
       -2    1    3    3    0  502  0.30793355132E+01 -0.57843945380E+03  0.15682311356E+04  0.16715114653E+04  0.25500000920E-02 0.  1.
</event>
<event>
 5   0  0.6661000E-08  0.4065403E+04  0.7818609E-02  0.7991481E-01
       -1   -1    0    0    0  501  0.00000000000E+00  0.00000000000E+00  0.18765901192E+04  0.18765901192E+04  0.50400001928E-02 0. -1.
        1   -1    0    0  501    0  0.00000000000E+00  0.00000000000E+00 -0.22017990873E+04  0.22017990874E+04  0.50400001928E-02 0.  1.
    10030    2    1    2    0    0  0.00000000000E+00  0.00000000000E+00 -0.32520896817E+03  0.40783892065E+04  0.40654025197E+04 0.  0.
        1    1    3    3  502    0 -0.85933069968E+03  0.17621341628E+04  0.37605427853E+03  0.19962421896E+04  0.50400001928E-02 0. -1.
       -1    1    3    3    0  502  0.85933069968E+03 -0.17621341628E+04 -0.70126324670E+03  0.20821470170E+04  0.50400001928E-02 0.  1.
</event>
<event>
 5   0  0.6661000E-08  0.3737563E+04  0.7818609E-02  0.8059688E-01
       -1   -1    0    0    0  501  0.00000000000E+00  0.00000000000E+00  0.14693652233E+04  0.14693652233E+04  0.50400001928E-02 0. -1.
        1   -1    0    0  501    0  0.00000000000E+00  0.00000000000E+00 -0.23767703045E+04  0.23767703045E+04  0.50400001928E-02 0.  1.
    10030    2    1    2    0    0  0.00000000000E+00  0.00000000000E+00 -0.90740508113E+03  0.38461355278E+04  0.37375626439E+04 0.  0.
        3    1    3    3  502    0 -0.46631572265E+03  0.17676416801E+04 -0.85269788184E+03  0.20172013162E+04  0.10100000352E+00 0.  1.
       -3    1    3    3    0  502  0.46631572265E+03 -0.17676416801E+04 -0.54707199285E+02  0.18289342116E+04  0.10100000352E+00 0. -1.
</event>
<event>
 5   0  0.6661000E-08  0.3845582E+04  0.7818609E-02  0.8036443E-01
        1   -1    0    0  501    0  0.00000000000E+00  0.00000000000E+00  0.16969389458E+04  0.16969389458E+04  0.50400001928E-02 0. -1.
       -1   -1    0    0    0  501  0.00000000000E+00  0.00000000000E+00 -0.21787020382E+04  0.21787020382E+04  0.50400001928E-02 0.  1.
    10030    2    1    2    0    0  0.00000000000E+00  0.00000000000E+00 -0.48176309240E+03  0.38756409841E+04  0.38455815373E+04 0.  0.
        2    1    3    3  502    0  0.13624363179E+04  0.11668508911E+04  0.45688181511E+03  0.18510847402E+04  0.25500000920E-02 0. -1.
       -2    1    3    3    0  502 -0.13624363179E+04 -0.11668508911E+04 -0.93864490751E+03  0.20245562439E+04  0.25500000920E-02 0.  1.
</event>
<event>
 5   0  0.6661000E-08  0.3801394E+04  0.7818609E-02  0.8045856E-01
        1   -1    0    0  501    0  0.00000000000E+00  0.00000000000E+00  0.23289530157E+04  0.23289530157E+04  0.50400001928E-02 0.  1.
       -1   -1    0    0    0  501  0.00000000000E+00  0.00000000000E+00 -0.15511899644E+04  0.15511899644E+04  0.50400001928E-02 0. -1.
    10030    2    1    2    0    0  0.00000000000E+00  0.00000000000E+00  0.77776305126E+03  0.38801429801E+04  0.38013937157E+04 0.  0.
        1    1    3    3  502    0  0.18707718729E+04 -0.46865938704E+02  0.72843602467E+03  0.20081341735E+04  0.50400001928E-02 0.  1.
       -1    1    3    3    0  502 -0.18707718729E+04  0.46865938704E+02  0.49327026586E+02  0.18720088066E+04  0.50400001928E-02 0. -1.
</event>
<event>
 5   0  0.2135314E-07  0.3655432E+04  0.7818609E-02  0.8077911E-01
        2   -1    0    0  501    0  0.00000000000E+00  0.00000000000E+00  0.20934899495E+04  0.20934899495E+04  0.25500000920E-02 0. -1.
       -2   -1    0    0    0  501  0.00000000000E+00  0.00000000000E+00 -0.15956823475E+04  0.15956823475E+04  0.25500000920E-02 0.  1.
    10030    2    1    2    0    0  0.00000000000E+00  0.00000000000E+00  0.49780760200E+03  0.36891722971E+04  0.36554315517E+04 0.  0.
        4    1    3    3  502    0 -0.16012877551E+04  0.30590359462E+03  0.10828748743E+04  0.19571201011E+04  0.12699999809E+01 0. -1.
       -4    1    3    3    0  502  0.16012877551E+04 -0.30590359462E+03 -0.58506727228E+03  0.17320521960E+04  0.12699999809E+01 0.  1.
</event>
<event>
 5   0  0.2135314E-07  0.3633805E+04  0.7818609E-02  0.8082792E-01
        2   -1    0    0  501    0  0.00000000000E+00  0.00000000000E+00  0.19505616874E+04  0.19505616874E+04  0.25500000920E-02 0. -1.
       -2   -1    0    0    0  501  0.00000000000E+00  0.00000000000E+00 -0.16924023754E+04  0.16924023754E+04  0.25500000920E-02 0.  1.
    10030    2    1    2    0    0  0.00000000000E+00  0.00000000000E+00  0.25815931194E+03  0.36429640628E+04  0.36338052964E+04 0.  0.
        4    1    3    3  502    0  0.15181918538E+04 -0.58912056962E+03 -0.67865826194E+03  0.17642415367E+04  0.12699999809E+01 0.  1.
       -4    1    3    3    0  502 -0.15181918538E+04  0.58912056962E+03  0.93681757388E+03  0.18787225261E+04  0.12699999809E+01 0. -1.
</event>
<event>
 5   0  0.2205204E-07  0.3771737E+04  0.7818609E-02  0.8052247E-01
       -2   -1    0    0    0  501  0.00000000000E+00  0.00000000000E+00  0.25355778449E+04  0.25355778449E+04  0.25500000920E-02 0.  1.
        2   -1    0    0  501    0  0.00000000000E+00  0.00000000000E+00 -0.14026386711E+04  0.14026386711E+04  0.25500000920E-02 0. -1.
    10030    2    1    2    0    0  0.00000000000E+00  0.00000000000E+00  0.11329391737E+04  0.39382165160E+04  0.37717367559E+04 0.  0.
        2    1    3    3  502    0 -0.14590456506E+04 -0.29162602445E+03  0.17763374462E+04  0.23171609076E+04  0.25500000920E-02 0.  1.
       -2    1    3    3    0  502  0.14590456506E+04  0.29162602445E+03 -0.64339827251E+03  0.16210556084E+04  0.25500000920E-02 0. -1.
</event>
<event>
 5   0  0.6725199E-08  0.3819118E+04  0.7818609E-02  0.8042065E-01
       -1   -1    0    0    0  501  0.00000000000E+00  0.00000000000E+00  0.25948676545E+04  0.25948676545E+04  0.50400001928E-02 0. -1.
        1   -1    0    0  501    0  0.00000000000E+00  0.00000000000E+00 -0.14052414853E+04  0.14052414853E+04  0.50400001928E-02 0.  1.
    10030    2    1    2    0    0  0.00000000000E+00  0.00000000000E+00  0.11896261692E+04  0.40001091398E+04  0.38191180537E+04 0.  0.
        5    1    3    3  502    0  0.17828465481E+04 -0.66866927471E+03  0.74562708289E+03  0.20449064159E+04  0.46999998093E+01 0.  1.
       -5    1    3    3    0  502 -0.17828465481E+04  0.66866927471E+03  0.44399908627E+03  0.19552027239E+04  0.46999998093E+01 0. -1.
</event>
<event>
 5   0  0.6661000E-08  0.3786705E+04  0.7818609E-02  0.8049014E-01
        1   -1    0    0  501    0  0.00000000000E+00  0.00000000000E+00  0.22988346943E+04  0.22988346943E+04  0.50400001928E-02 0. -1.
       -1   -1    0    0    0  501  0.00000000000E+00  0.00000000000E+00 -0.15593920415E+04  0.15593920415E+04  0.50400001928E-02 0.  1.
    10030    2    1    2    0    0  0.00000000000E+00  0.00000000000E+00  0.73944265278E+03  0.38582267358E+04  0.37867054425E+04 0.  0.
        4    1    3    3  502    0 -0.13864765636E+04 -0.10969320284E+04  0.10601676066E+04  0.20614398132E+04  0.12699999809E+01 0. -1.
       -4    1    3    3    0  502  0.13864765636E+04  0.10969320284E+04 -0.32072495386E+03  0.17967869226E+04  0.12699999809E+01 0.  1.
</event>
<event>
 5   0  0.6661000E-08  0.3796557E+04  0.7818609E-02  0.8046894E-01
       -1   -1    0    0    0  501  0.00000000000E+00  0.00000000000E+00  0.19839324672E+04  0.19839324672E+04  0.50400001928E-02 0.  1.
        1   -1    0    0  501    0  0.00000000000E+00  0.00000000000E+00 -0.18163224732E+04  0.18163224732E+04  0.50400001928E-02 0. -1.
    10030    2    1    2    0    0  0.00000000000E+00  0.00000000000E+00  0.16760999400E+03  0.38002549404E+04  0.37965569272E+04 0.  0.
        3    1    3    3  502    0 -0.77821003744E+03 -0.11499293830E+04  0.13794817709E+04  0.19572732090E+04  0.10100000352E+00 0.  1.
       -3    1    3    3    0  502  0.77821003744E+03  0.11499293830E+04 -0.12118717769E+04  0.18429817314E+04  0.10100000352E+00 0. -1.
</event>
<event>
 5   0  0.6661000E-08  0.3833503E+04  0.7818609E-02  0.8039003E-01
        3   -1    0    0  501    0  0.00000000000E+00  0.00000000000E+00  0.27091763095E+04  0.27091763114E+04  0.10100000352E+00 0.  1.
       -3   -1    0    0    0  501  0.00000000000E+00  0.00000000000E+00 -0.13561085749E+04  0.13561085787E+04  0.10100000352E+00 0. -1.
    10030    2    1    2    0    0  0.00000000000E+00  0.00000000000E+00  0.13530677346E+04  0.40652848901E+04  0.38335034816E+04 0.  0.
        3    1    3    3  502    0  0.65069681546E+03  0.14725469777E+02  0.25884013457E+04  0.26689782168E+04  0.10100000352E+00 0.  1.
       -3    1    3    3    0  502 -0.65069681546E+03 -0.14725469777E+02 -0.12353336111E+04  0.13963066733E+04  0.10100000352E+00 0. -1.
</event>
<event>
 5   0  0.6661000E-08  0.3879842E+04  0.7818609E-02  0.8029235E-01
        1   -1    0    0  501    0  0.00000000000E+00  0.00000000000E+00  0.18275546358E+04  0.18275546358E+04  0.50400001928E-02 0. -1.
       -1   -1    0    0    0  501  0.00000000000E+00  0.00000000000E+00 -0.20591963943E+04  0.20591963943E+04  0.50400001928E-02 0.  1.
    10030    2    1    2    0    0  0.00000000000E+00  0.00000000000E+00 -0.23164175848E+03  0.38867510301E+04  0.38798422217E+04 0.  0.
        4    1    3    3  502    0  0.12107666479E+04  0.12008897162E+04  0.81059626636E+03  0.18881631037E+04  0.12699999809E+01 0. -1.
       -4    1    3    3    0  502 -0.12107666479E+04 -0.12008897162E+04 -0.10422380248E+04  0.19985879264E+04  0.12699999809E+01 0.  1.
</event>
<event>
 5   0  0.6661000E-08  0.3778573E+04  0.7818609E-02  0.8050769E-01
        1   -1    0    0  501    0  0.00000000000E+00  0.00000000000E+00  0.27817058439E+04  0.27817058439E+04  0.50400001928E-02 0.  1.
       -1   -1    0    0    0  501  0.00000000000E+00  0.00000000000E+00 -0.12831709515E+04  0.12831709515E+04  0.50400001928E-02 0. -1.
    10030    2    1    2    0    0  0.00000000000E+00  0.00000000000E+00  0.14985348924E+04  0.40648767954E+04  0.37785733469E+04 0.  0.
        2    1    3    3  502    0  0.10578284680E+04 -0.13646706379E+04 -0.75699731936E+02  0.17283105818E+04  0.25500000920E-02 0.  1.
       -2    1    3    3    0  502 -0.10578284680E+04  0.13646706379E+04  0.15742346244E+04  0.23365662136E+04  0.25500000920E-02 0. -1.
</event>
<event>
 5   0  0.2081337E-07  0.3779890E+04  0.7818609E-02  0.8050484E-01
       -2   -1    0    0    0  501  0.00000000000E+00  0.00000000000E+00  0.11444538831E+04  0.11444538831E+04  0.25500000920E-02 0.  1.
        2   -1    0    0  501    0  0.00000000000E+00  0.00000000000E+00 -0.31210450230E+04  0.31210450230E+04  0.25500000920E-02 0. -1.
    10030    2    1    2    0    0  0.00000000000E+00  0.00000000000E+00 -0.19765911399E+04  0.42654989061E+04  0.37798899962E+04 0.  0.
        1    1    3    3  502    0 -0.16444374435E+04 -0.21570414441E+03  0.34319805262E+02  0.16588793303E+04  0.50400001928E-02 0.  1.
       -1    1    3    3    0  502  0.16444374435E+04  0.21570414441E+03 -0.20109109451E+04  0.26066195758E+04  0.50400001928E-02 0. -1.
</event>
<event>
 5   0  0.2205204E-07  0.3761938E+04  0.7818609E-02  0.8054372E-01
       -2   -1    0    0    0  501  0.00000000000E+00  0.00000000000E+00  0.14670373010E+04  0.14670373010E+04  0.25500000920E-02 0.  1.
        2   -1    0    0  501    0  0.00000000000E+00  0.00000000000E+00 -0.24116938920E+04  0.24116938920E+04  0.25500000920E-02 0. -1.
    10030    2    1    2    0    0  0.00000000000E+00  0.00000000000E+00 -0.94465659106E+03  0.38787311930E+04  0.37619382760E+04 0.  0.
        2    1    3    3  502    0 -0.37874690109E+03  0.18185566668E+04 -0.77722399684E+03  0.20136222850E+04  0.25500000920E-02 0.  1.
       -2    1    3    3    0  502  0.37874690109E+03 -0.18185566668E+04 -0.16743259422E+03  0.18651089081E+04  0.25500000920E-02 0. -1.
</event>
<event>
 5   0  0.2203998E-07  0.3804228E+04  0.7818609E-02  0.8045248E-01
        2   -1    0    0  501    0  0.00000000000E+00  0.00000000000E+00  0.12493339246E+04  0.12493339246E+04  0.25500000920E-02 0. -1.
       -2   -1    0    0    0  501  0.00000000000E+00  0.00000000000E+00 -0.28959738176E+04  0.28959738176E+04  0.25500000920E-02 0.  1.
    10030    2    1    2    0    0  0.00000000000E+00  0.00000000000E+00 -0.16466398931E+04  0.41453077422E+04  0.38042283501E+04 0.  0.
        3    1    3    3  502    0 -0.74764016625E+03 -0.65206754055E+03 -0.25917513868E+04  0.27751275929E+04  0.10100000352E+00 0.  1.
       -3    1    3    3    0  502  0.74764016625E+03  0.65206754055E+03  0.94511149375E+03  0.13701801493E+04  0.10100000352E+00 0. -1.
</event>
<event>
 5   0  0.1370688E-07  0.3812772E+04  0.7818609E-02  0.8043420E-01
       -2   -1    0    0    0  501  0.00000000000E+00  0.00000000000E+00  0.22262351855E+04  0.22262351855E+04  0.25500000920E-02 0. -1.
        2   -1    0    0  501    0  0.00000000000E+00  0.00000000000E+00 -0.16324903588E+04  0.16324903588E+04  0.25500000920E-02 0.  1.
    10030    2    1    2    0    0  0.00000000000E+00  0.00000000000E+00  0.59374482674E+03  0.38587255443E+04  0.38127719453E+04 0.  0.
        5    1    3    3  502    0  0.12686386849E+04  0.59187579449E+03  0.16065029411E+04  0.21308765471E+04  0.46999998093E+01 0. -1.
       -5    1    3    3    0  502 -0.12686386849E+04 -0.59187579449E+03 -0.10127581144E+04  0.17278489972E+04  0.46999998093E+01 0.  1.
</event>
<event>
 5   0  0.6661000E-08  0.3774504E+04  0.7818609E-02  0.8051649E-01
       -1   -1    0    0    0  501  0.00000000000E+00  0.00000000000E+00  0.13935246489E+04  0.13935246489E+04  0.50400001928E-02 0. -1.
        1   -1    0    0  501    0  0.00000000000E+00  0.00000000000E+00 -0.25559071650E+04  0.25559071650E+04  0.50400001928E-02 0.  1.
    10030    2    1    2    0    0  0.00000000000E+00  0.00000000000E+00 -0.11623825161E+04  0.39494318139E+04  0.37745037474E+04 0.  0.
        3    1    3    3  502    0 -0.45541693510E+03  0.59001909285E+03  0.12330003494E+04  0.14407695813E+04  0.10100000352E+00 0. -1.
       -3    1    3    3    0  502  0.45541693510E+03 -0.59001909285E+03 -0.23953828655E+04  0.25086622326E+04  0.10100000352E+00 0.  1.
</event>
<event>
 5   0  0.6661000E-08  0.3780133E+04  0.7818609E-02  0.8050432E-01
       -1   -1    0    0    0  501  0.00000000000E+00  0.00000000000E+00  0.20702599978E+04  0.20702599978E+04  0.50400001928E-02 0.  1.
        1   -1    0    0  501    0  0.00000000000E+00  0.00000000000E+00 -0.17255567121E+04  0.17255567121E+04  0.50400001928E-02 0. -1.
    10030    2    1    2    0    0  0.00000000000E+00  0.00000000000E+00  0.34470328571E+03  0.37958167098E+04  0.37801328203E+04 0.  0.
        2    1    3    3  502    0  0.14293788594E+04  0.10899610973E+04  0.75890870664E+03  0.19511744008E+04  0.25500000920E-02 0.  1.
       -2    1    3    3    0  502 -0.14293788594E+04 -0.10899610973E+04 -0.41420542093E+03  0.18446423090E+04  0.25500000920E-02 0. -1.
</event>
<event>
 5   0  0.6661000E-08  0.3752719E+04  0.7818609E-02  0.8056378E-01
       -1   -1    0    0    0  501  0.00000000000E+00  0.00000000000E+00  0.13115412937E+04  0.13115412937E+04  0.50400001928E-02 0. -1.
        1   -1    0    0  501    0  0.00000000000E+00  0.00000000000E+00 -0.26844174773E+04  0.26844174773E+04  0.50400001928E-02 0.  1.
    10030    2    1    2    0    0  0.00000000000E+00  0.00000000000E+00 -0.13728761836E+04  0.39959587710E+04  0.37527186790E+04 0.  0.
        3    1    3    3  502    0  0.17781709581E+03 -0.71437477347E+03  0.11513429877E+04  0.13665800094E+04  0.10100000352E+00 0. -1.
       -3    1    3    3    0  502 -0.17781709581E+03  0.71437477347E+03 -0.25242191714E+04  0.26293787616E+04  0.10100000352E+00 0.  1.
</event>
<event>
 5   0  0.2205204E-07  0.3792401E+04  0.7818609E-02  0.8047788E-01
       -2   -1    0    0    0  501  0.00000000000E+00  0.00000000000E+00  0.15336283298E+04  0.15336283298E+04  0.25500000920E-02 0. -1.
        2   -1    0    0  501    0  0.00000000000E+00  0.00000000000E+00 -0.23444901652E+04  0.23444901652E+04  0.25500000920E-02 0.  1.
    10030    2    1    2    0    0  0.00000000000E+00  0.00000000000E+00 -0.81086183540E+03  0.38781184949E+04  0.37924011055E+04 0.  0.
        2    1    3    3  502    0  0.29865960395E+03  0.80493049308E+02 -0.23185174683E+04  0.23390596275E+04  0.25500000920E-02 0.  1.
       -2    1    3    3    0  502 -0.29865960395E+03 -0.80493049308E+02  0.15076556329E+04  0.15390588675E+04  0.25500000920E-02 0. -1.
</event>
<event>
 5   0  0.2081337E-07  0.3982333E+04  0.7818609E-02  0.8008120E-01
       -2   -1    0    0    0  501  0.00000000000E+00  0.00000000000E+00  0.16015034996E+04  0.16015034996E+04  0.25500000920E-02 0. -1.
        2   -1    0    0  501    0  0.00000000000E+00  0.00000000000E+00 -0.24756388607E+04  0.24756388607E+04  0.25500000920E-02 0.  1.
    10030    2    1    2    0    0  0.00000000000E+00  0.00000000000E+00 -0.87413536102E+03  0.40771423603E+04  0.39823331348E+04 0.  0.
        1    1    3    3  502    0 -0.14417892647E+04 -0.13686626983E+04 -0.55267378432E+03  0.20633570165E+04  0.50400001928E-02 0.  1.
       -1    1    3    3    0  502  0.14417892647E+04  0.13686626983E+04 -0.32146157671E+03  0.20137853438E+04  0.50400001928E-02 0. -1.
</event>
<event>
 5   0  0.2081337E-07  0.3800127E+04  0.7818609E-02  0.8046128E-01
       -2   -1    0    0    0  501  0.00000000000E+00  0.00000000000E+00  0.19067406562E+04  0.19067406562E+04  0.25500000920E-02 0. -1.
        2   -1    0    0  501    0  0.00000000000E+00  0.00000000000E+00 -0.18934096347E+04  0.18934096347E+04  0.25500000920E-02 0.  1.
    10030    2    1    2    0    0  0.00000000000E+00  0.00000000000E+00  0.13331021483E+02  0.38001502909E+04  0.38001269081E+04 0.  0.
        1    1    3    3  502    0  0.65774634940E+02  0.16681319698E+04  0.91400265287E+03  0.19032581067E+04  0.50400001928E-02 0. -1.
       -1    1    3    3    0  502 -0.65774634940E+02 -0.16681319698E+04 -0.90067163139E+03  0.18968921843E+04  0.50400001928E-02 0.  1.
</event>
<event>
 5   0  0.2203998E-07  0.3822033E+04  0.7818609E-02  0.8041443E-01
        2   -1    0    0  501    0  0.00000000000E+00  0.00000000000E+00  0.26193202040E+04  0.26193202040E+04  0.25500000920E-02 0.  1.
       -2   -1    0    0    0  501  0.00000000000E+00  0.00000000000E+00 -0.13942488760E+04  0.13942488760E+04  0.25500000920E-02 0. -1.
    10030    2    1    2    0    0  0.00000000000E+00  0.00000000000E+00  0.12250713280E+04  0.40135690800E+04  0.38220330978E+04 0.  0.
        3    1    3    3  502    0 -0.79246723689E+02 -0.15837602495E+04  0.17324746801E+04  0.23486262152E+04  0.10100000352E+00 0.  1.
       -3    1    3    3    0  502  0.79246723689E+02  0.15837602495E+04 -0.50740335213E+03  0.16649428648E+04  0.10100000352E+00 0. -1.
</event>
<event>
 5   0  0.6661000E-08  0.3810580E+04  0.7818609E-02  0.8043888E-01
        1   -1    0    0  501    0  0.00000000000E+00  0.00000000000E+00  0.23170356628E+04  0.23170356628E+04  0.50400001928E-02 0.  1.
       -1   -1    0    0    0  501  0.00000000000E+00  0.00000000000E+00 -0.15667128188E+04  0.15667128188E+04  0.50400001928E-02 0. -1.
    10030    2    1    2    0    0  0.00000000000E+00  0.00000000000E+00  0.75032284398E+03  0.38837484816E+04  0.38105797325E+04 0.  0.
        2    1    3    3  502    0  0.14968117038E+04 -0.24866173559E+02 -0.82605556111E+03  0.17098044898E+04  0.25500000920E-02 0. -1.
       -2    1    3    3    0  502 -0.14968117038E+04  0.24866173559E+02  0.15763784051E+04  0.21739439918E+04  0.25500000920E-02 0.  1.
</event>
<event>
 5   0  0.2203998E-07  0.3822886E+04  0.7818609E-02  0.8041261E-01
        2   -1    0    0  501    0  0.00000000000E+00  0.00000000000E+00  0.21436167623E+04  0.21436167623E+04  0.25500000920E-02 0.  1.
       -2   -1    0    0    0  501  0.00000000000E+00  0.00000000000E+00 -0.17044158208E+04  0.17044158208E+04  0.25500000920E-02 0. -1.
    10030    2    1    2    0    0  0.00000000000E+00  0.00000000000E+00  0.43920094145E+03  0.38480325831E+04  0.38228859901E+04 0.  0.
        3    1    3    3  502    0  0.13426441320E+04  0.13604736744E+04  0.22533259991E+03  0.19246705367E+04  0.10100000352E+00 0.  1.
       -3    1    3    3    0  502 -0.13426441320E+04 -0.13604736744E+04  0.21386834154E+03  0.19233620464E+04  0.10100000352E+00 0. -1.
</event>
<event>
 5   0  0.6661000E-08  0.3793863E+04  0.7818609E-02  0.8047473E-01
        1   -1    0    0  501    0  0.00000000000E+00  0.00000000000E+00  0.19930970841E+04  0.19930970841E+04  0.50400001928E-02 0. -1.
       -1   -1    0    0    0  501  0.00000000000E+00  0.00000000000E+00 -0.18054056278E+04  0.18054056279E+04  0.50400001928E-02 0.  1.
    10030    2    1    2    0    0  0.00000000000E+00  0.00000000000E+00  0.18769145627E+03  0.37985027120E+04  0.37938627769E+04 0.  0.
        2    1    3    3  502    0  0.17388655217E+04 -0.65167734351E+03  0.48163328201E+03  0.19184126983E+04  0.25500000920E-02 0. -1.
       -2    1    3    3    0  502 -0.17388655217E+04  0.65167734351E+03 -0.29394182574E+03  0.18800900137E+04  0.25500000920E-02 0.  1.
</event>
<event>
 5   0  0.1370688E-07  0.3853647E+04  0.7818609E-02  0.8034739E-01
        2   -1    0    0  501    0  0.00000000000E+00  0.00000000000E+00  0.13963883896E+04  0.13963883896E+04  0.25500000920E-02 0. -1.
       -2   -1    0    0    0  501  0.00000000000E+00  0.00000000000E+00 -0.26587508122E+04  0.26587508122E+04  0.25500000920E-02 0.  1.
    10030    2    1    2    0    0  0.00000000000E+00  0.00000000000E+00 -0.12623624226E+04  0.40551392017E+04  0.38536469817E+04 0.  0.
        5    1    3    3  502    0 -0.90611775224E+03  0.17003653958E+04 -0.61192654421E+03  0.20215756344E+04  0.46999998093E+01 0.  1.
       -5    1    3    3    0  502  0.90611775224E+03 -0.17003653958E+04 -0.65043587841E+03  0.20335635673E+04  0.46999998093E+01 0. -1.
</event>
<event>
 5   0  0.2203998E-07  0.3769583E+04  0.7818609E-02  0.8052714E-01
       -2   -1    0    0    0  501  0.00000000000E+00  0.00000000000E+00  0.11774902040E+04  0.11774902040E+04  0.25500000920E-02 0.  1.
        2   -1    0    0  501    0  0.00000000000E+00  0.00000000000E+00 -0.30169591090E+04  0.30169591090E+04  0.25500000920E-02 0. -1.
    10030    2    1    2    0    0  0.00000000000E+00  0.00000000000E+00 -0.18394689050E+04  0.41944493130E+04  0.37695834235E+04 0.  0.
        3    1    3    3  502    0 -0.60640568227E+03  0.46470600227E+02 -0.29047749636E+04  0.29677609350E+04  0.10100000352E+00 0. -1.
       -3    1    3    3    0  502  0.60640568227E+03 -0.46470600227E+02  0.10653060585E+04  0.12266883780E+04  0.10100000352E+00 0.  1.
</event>
<event>
 5   0  0.6661000E-08  0.3783914E+04  0.7818609E-02  0.8049616E-01
        1   -1    0    0  501    0  0.00000000000E+00  0.00000000000E+00  0.23955265792E+04  0.23955265792E+04  0.50400001928E-02 0. -1.
       -1   -1    0    0    0  501  0.00000000000E+00  0.00000000000E+00 -0.14942443724E+04  0.14942443724E+04  0.50400001928E-02 0.  1.
    10030    2    1    2    0    0  0.00000000000E+00  0.00000000000E+00  0.90128220689E+03  0.38897709516E+04  0.37839144334E+04 0.  0.
        2    1    3    3  502    0  0.71330795170E+03 -0.78659712684E+03 -0.11590380110E+04  0.15719136061E+04  0.25500000920E-02 0.  1.
       -2    1    3    3    0  502 -0.71330795170E+03  0.78659712684E+03  0.20603202179E+04  0.23178573455E+04  0.25500000920E-02 0. -1.
</event>
<event>
 5   0  0.1370688E-07  0.3809870E+04  0.7818609E-02  0.8044040E-01
       -2   -1    0    0    0  501  0.00000000000E+00  0.00000000000E+00  0.29782145625E+04  0.29782145625E+04  0.25500000920E-02 0.  1.
        2   -1    0    0  501    0  0.00000000000E+00  0.00000000000E+00 -0.12184403141E+04  0.12184403141E+04  0.25500000920E-02 0. -1.
    10030    2    1    2    0    0  0.00000000000E+00  0.00000000000E+00  0.17597742484E+04  0.41966548767E+04  0.38098696498E+04 0.  0.
        5    1    3    3  502    0  0.17672715356E+04  0.70728499992E+03  0.95972919417E+03  0.21318074415E+04  0.46999998093E+01 0.  1.
       -5    1    3    3    0  502 -0.17672715356E+04 -0.70728499992E+03  0.80004505421E+03  0.20648474351E+04  0.46999998093E+01 0. -1.
</event>
<event>
 5   0  0.6725199E-08  0.3771720E+04  0.7818609E-02  0.8052251E-01
        1   -1    0    0  501    0  0.00000000000E+00  0.00000000000E+00  0.21794165606E+04  0.21794165606E+04  0.50400001928E-02 0.  1.
       -1   -1    0    0    0  501  0.00000000000E+00  0.00000000000E+00 -0.16318444677E+04  0.16318444677E+04  0.50400001928E-02 0. -1.
    10030    2    1    2    0    0  0.00000000000E+00  0.00000000000E+00  0.54757209293E+03  0.38112610283E+04  0.37717204866E+04 0.  0.
        5    1    3    3  502    0  0.16487992632E+04  0.89865986935E+03  0.44973264427E+03  0.19309091414E+04  0.46999998093E+01 0.  1.
       -5    1    3    3    0  502 -0.16487992632E+04 -0.89865986935E+03  0.97839448670E+02  0.18803518869E+04  0.46999998093E+01 0. -1.
</event>
<event>
 5   0  0.2205204E-07  0.3815606E+04  0.7818609E-02  0.8042814E-01
        2   -1    0    0  501    0  0.00000000000E+00  0.00000000000E+00  0.14600293493E+04  0.14600293493E+04  0.25500000920E-02 0. -1.
       -2   -1    0    0    0  501  0.00000000000E+00  0.00000000000E+00 -0.24929039458E+04  0.24929039458E+04  0.25500000920E-02 0.  1.
    10030    2    1    2    0    0  0.00000000000E+00  0.00000000000E+00 -0.10328745965E+04  0.39529332951E+04  0.38156063350E+04 0.  0.
        2    1    3    3  502    0 -0.13914701317E+04  0.11836133868E+04  0.53435981008E+02  0.18275626339E+04  0.25500000920E-02 0. -1.
       -2    1    3    3    0  502  0.13914701317E+04 -0.11836133868E+04 -0.10863105775E+04  0.21253706612E+04  0.25500000920E-02 0.  1.
</event>
<event>
 5   0  0.2205204E-07  0.3807380E+04  0.7818609E-02  0.8044573E-01
       -2   -1    0    0    0  501  0.00000000000E+00  0.00000000000E+00  0.22646630802E+04  0.22646630802E+04  0.25500000920E-02 0.  1.
        2   -1    0    0  501    0  0.00000000000E+00  0.00000000000E+00 -0.16002537270E+04  0.16002537270E+04  0.25500000920E-02 0. -1.
    10030    2    1    2    0    0  0.00000000000E+00  0.00000000000E+00  0.66440935326E+03  0.38649168072E+04  0.38073799571E+04 0.  0.
        2    1    3    3  502    0  0.38357768669E+03  0.16590056049E+04  0.11963053090E+04  0.20810040440E+04  0.25500000920E-02 0.  1.
       -2    1    3    3    0  502 -0.38357768669E+03 -0.16590056049E+04 -0.53189595575E+03  0.17839127632E+04  0.25500000920E-02 0. -1.
</event>
<event>
 5   0  0.6661000E-08  0.3806769E+04  0.7818609E-02  0.8044704E-01
       -1   -1    0    0    0  501  0.00000000000E+00  0.00000000000E+00  0.16182111459E+04  0.16182111459E+04  0.50400001928E-02 0.  1.
        1   -1    0    0  501    0  0.00000000000E+00  0.00000000000E+00 -0.22388128497E+04  0.22388128497E+04  0.50400001928E-02 0. -1.
    10030    2    1    2    0    0  0.00000000000E+00  0.00000000000E+00 -0.62060170378E+03  0.38570239956E+04  0.38067686596E+04 0.  0.
        3    1    3    3  502    0  0.15593367010E+04  0.52556343383E+03  0.65894920358E+03  0.17725580197E+04  0.10100000352E+00 0.  1.
       -3    1    3    3    0  502 -0.15593367010E+04 -0.52556343383E+03 -0.12795509074E+04  0.20844659759E+04  0.10100000352E+00 0. -1.
</event>
<event>
 5   0  0.2135314E-07  0.3801528E+04  0.7818609E-02  0.8045827E-01
       -2   -1    0    0    0  501  0.00000000000E+00  0.00000000000E+00  0.12556033627E+04  0.12556033627E+04  0.25500000920E-02 0.  1.
        2   -1    0    0  501    0  0.00000000000E+00  0.00000000000E+00 -0.28774238045E+04  0.28774238045E+04  0.25500000920E-02 0. -1.
    10030    2    1    2    0    0  0.00000000000E+00  0.00000000000E+00 -0.16218204419E+04  0.41330271672E+04  0.38015275902E+04 0.  0.
        4    1    3    3  502    0  0.98566851056E+03 -0.15924403564E+04 -0.45779104896E+03  0.19279478621E+04  0.12699999809E+01 0. -1.
       -4    1    3    3    0  502 -0.98566851056E+03  0.15924403564E+04 -0.11640293929E+04  0.22050793051E+04  0.12699999809E+01 0.  1.
</event>
<event>
 5   0  0.6661000E-08  0.3744044E+04  0.7818609E-02  0.8058271E-01
        1   -1    0    0  501    0  0.00000000000E+00  0.00000000000E+00  0.14872200546E+04  0.14872200546E+04  0.50400001928E-02 0.  1.
       -1   -1    0    0    0  501  0.00000000000E+00  0.00000000000E+00 -0.23563873936E+04  0.23563873936E+04  0.50400001928E-02 0. -1.
    10030    2    1    2    0    0  0.00000000000E+00  0.00000000000E+00 -0.86916733893E+03  0.38436074482E+04  0.37440441174E+04 0.  0.
        1    1    3    3  502    0 -0.88344152887E+03 -0.70794313238E+03 -0.19651411614E+04  0.22679136222E+04  0.50400001928E-02 0. -1.
       -1    1    3    3    0  502  0.88344152887E+03  0.70794313238E+03  0.10959738225E+04  0.15756938260E+04  0.50400001928E-02 0.  1.
</event>
<event>
 5   0  0.2205204E-07  0.3738140E+04  0.7818609E-02  0.8059562E-01
        2   -1    0    0  501    0  0.00000000000E+00  0.00000000000E+00  0.20688694662E+04  0.20688694662E+04  0.25500000920E-02 0.  1.
       -2   -1    0    0    0  501  0.00000000000E+00  0.00000000000E+00 -0.16885661853E+04  0.16885661853E+04  0.25500000920E-02 0. -1.
    10030    2    1    2    0    0  0.00000000000E+00  0.00000000000E+00  0.38030328093E+03  0.37574356515E+04  0.37381401913E+04 0.  0.
        2    1    3    3  502    0  0.14685145945E+04  0.86339407111E+03  0.96317175482E+03  0.19569579110E+04  0.25500000920E-02 0. -1.
       -2    1    3    3    0  502 -0.14685145945E+04 -0.86339407111E+03 -0.58286847389E+03  0.18004777405E+04  0.25500000920E-02 0.  1.
</event>
<event>
 5   0  0.6661000E-08  0.3802209E+04  0.7818609E-02  0.8045681E-01
       -1   -1    0    0    0  501  0.00000000000E+00  0.00000000000E+00  0.33466080720E+04  0.33466080720E+04  0.50400001928E-02 0.  1.
        1   -1    0    0  501    0  0.00000000000E+00  0.00000000000E+00 -0.10799589046E+04  0.10799589046E+04  0.50400001928E-02 0. -1.
    10030    2    1    2    0    0  0.00000000000E+00  0.00000000000E+00  0.22666491674E+04  0.44265669766E+04  0.38022094564E+04 0.  0.
        3    1    3    3  502    0  0.11699609323E+04 -0.13858906056E+04  0.46993187940E+03  0.18735894254E+04  0.10100000352E+00 0. -1.
       -3    1    3    3    0  502 -0.11699609323E+04  0.13858906056E+04  0.17967172880E+04  0.25529775512E+04  0.10100000352E+00 0.  1.
</event>
<event>
 5   0  0.2081337E-07  0.3788864E+04  0.7818609E-02  0.8048549E-01
       -2   -1    0    0    0  501  0.00000000000E+00  0.00000000000E+00  0.18909190887E+04  0.18909190887E+04  0.25500000920E-02 0. -1.
        2   -1    0    0  501    0  0.00000000000E+00  0.00000000000E+00 -0.18979513725E+04  0.18979513725E+04  0.25500000920E-02 0.  1.
    10030    2    1    2    0    0  0.00000000000E+00  0.00000000000E+00 -0.70322837848E+01  0.37888704613E+04  0.37888639352E+04 0.  0.
        1    1    3    3  502    0 -0.62335739445E+03  0.17557181546E+04 -0.34666655492E+03  0.18950721305E+04  0.50400001928E-02 0.  1.
       -1    1    3    3    0  502  0.62335739445E+03 -0.17557181546E+04  0.33963427114E+03  0.18937983308E+04  0.50400001928E-02 0. -1.
</event>
<event>
 5   0  0.1370688E-07  0.4114304E+04  0.7818609E-02  0.7981877E-01
        2   -1    0    0  501    0  0.00000000000E+00  0.00000000000E+00  0.23518492220E+04  0.23518492220E+04  0.25500000920E-02 0.  1.
       -2   -1    0    0    0  501  0.00000000000E+00  0.00000000000E+00 -0.17993818029E+04  0.17993818029E+04  0.25500000920E-02 0. -1.
    10030    2    1    2    0    0  0.00000000000E+00  0.00000000000E+00  0.55246741916E+03  0.41512310249E+04  0.41143041663E+04 0.  0.
        5    1    3    3  502    0 -0.58173504870E+03  0.19590952165E+04  0.51368155446E+03  0.21072163068E+04  0.46999998093E+01 0. -1.
       -5    1    3    3    0  502  0.58173504870E+03 -0.19590952165E+04  0.38785864701E+02  0.20440147181E+04  0.46999998093E+01 0.  1.
</event>
<event>
 5   0  0.6661000E-08  0.3627817E+04  0.7818609E-02  0.8084150E-01
       -1   -1    0    0    0  501  0.00000000000E+00  0.00000000000E+00  0.12585164222E+04  0.12585164222E+04  0.50400001928E-02 0.  1.
        1   -1    0    0  501    0  0.00000000000E+00  0.00000000000E+00 -0.26143983464E+04  0.26143983464E+04  0.50400001928E-02 0. -1.
    10030    2    1    2    0    0  0.00000000000E+00  0.00000000000E+00 -0.13558819242E+04  0.38729147687E+04  0.36278165627E+04 0.  0.
        1    1    3    3  502    0  0.16986227400E+03  0.10434600964E+04 -0.22514984600E+04  0.24873494890E+04  0.50400001928E-02 0. -1.
       -1    1    3    3    0  502 -0.16986227400E+03 -0.10434600964E+04  0.89561653579E+03  0.13855652797E+04  0.50400001928E-02 0.  1.
</event>
<event>
 5   0  0.6661000E-08  0.3801213E+04  0.7818609E-02  0.8045895E-01
        1   -1    0    0  501    0  0.00000000000E+00  0.00000000000E+00  0.17054610305E+04  0.17054610305E+04  0.50400001928E-02 0.  1.
       -1   -1    0    0    0  501  0.00000000000E+00  0.00000000000E+00 -0.21180809894E+04  0.21180809894E+04  0.50400001928E-02 0. -1.
    10030    2    1    2    0    0  0.00000000000E+00  0.00000000000E+00 -0.41261995891E+03  0.38235420199E+04  0.38012127469E+04 0.  0.
        2    1    3    3  502    0 -0.12431573043E+04  0.76038335897E+03  0.10209727085E+04  0.17793280213E+04  0.25500000920E-02 0.  1.
       -2    1    3    3    0  502  0.12431573043E+04 -0.76038335897E+03 -0.14335926674E+04  0.20442139986E+04  0.25500000920E-02 0. -1.
</event>
<event>
 5   0  0.6661000E-08  0.3812425E+04  0.7818609E-02  0.8043494E-01
        1   -1    0    0  501    0  0.00000000000E+00  0.00000000000E+00  0.21644543609E+04  0.21644543609E+04  0.50400001928E-02 0.  1.
       -1   -1    0    0    0  501  0.00000000000E+00  0.00000000000E+00 -0.16787816053E+04  0.16787816053E+04  0.50400001928E-02 0. -1.
    10030    2    1    2    0    0  0.00000000000E+00  0.00000000000E+00  0.48567275561E+03  0.38432359662E+04  0.38124250374E+04 0.  0.
        4    1    3    3  502    0 -0.13481148465E+04 -0.10347742053E+04  0.11132221266E+04  0.20316093156E+04  0.12699999809E+01 0.  1.
       -4    1    3    3    0  502  0.13481148465E+04  0.10347742053E+04 -0.62754937100E+03  0.18116266506E+04  0.12699999809E+01 0. -1.
</event>
<event>
 5   0  0.2205204E-07  0.3802384E+04  0.7818609E-02  0.8045644E-01
        2   -1    0    0  501    0  0.00000000000E+00  0.00000000000E+00  0.27265350274E+04  0.27265350274E+04  0.25500000920E-02 0. -1.
       -2   -1    0    0    0  501  0.00000000000E+00  0.00000000000E+00 -0.13256863923E+04  0.13256863923E+04  0.25500000920E-02 0.  1.
    10030    2    1    2    0    0  0.00000000000E+00  0.00000000000E+00  0.14008486351E+04  0.40522214197E+04  0.38023836650E+04 0.  0.
        2    1    3    3  502    0  0.11591771544E+04 -0.15057358138E+04  0.63649648141E+03  0.20040109249E+04  0.25500000920E-02 0. -1.
       -2    1    3    3    0  502 -0.11591771544E+04  0.15057358138E+04  0.76435215366E+03  0.20482104948E+04  0.25500000920E-02 0.  1.
</event>
<event>
 5   0  0.2205204E-07  0.3700406E+04  0.7818609E-02  0.8067872E-01
        2   -1    0    0  501    0  0.00000000000E+00  0.00000000000E+00  0.20804451377E+04  0.20804451377E+04  0.25500000920E-02 0. -1.
       -2   -1    0    0    0  501  0.00000000000E+00  0.00000000000E+00 -0.16454419345E+04  0.16454419346E+04  0.25500000920E-02 0.  1.
    10030    2    1    2    0    0  0.00000000000E+00  0.00000000000E+00  0.43500320320E+03  0.37258870723E+04  0.37004062870E+04 0.  0.
        2    1    3    3  502    0  0.13704415699E+04 -0.14632447030E+03  0.14603964561E+04  0.20080534744E+04  0.25500000920E-02 0. -1.
       -2    1    3    3    0  502 -0.13704415699E+04  0.14632447030E+03 -0.10253932529E+04  0.17178335979E+04  0.25500000920E-02 0.  1.
</event>
<event>
 5   0  0.2135314E-07  0.3777984E+04  0.7818609E-02  0.8050896E-01
       -2   -1    0    0    0  501  0.00000000000E+00  0.00000000000E+00  0.18225845134E+04  0.18225845134E+04  0.25500000920E-02 0. -1.
        2   -1    0    0  501    0  0.00000000000E+00  0.00000000000E+00 -0.19578194125E+04  0.19578194125E+04  0.25500000920E-02 0.  1.
    10030    2    1    2    0    0  0.00000000000E+00  0.00000000000E+00 -0.13523489905E+03  0.37804039260E+04  0.37779842993E+04 0.  0.
        4    1    3    3  502    0 -0.75259919509E+03 -0.14569031999E+04 -0.10059371882E+04  0.19237681050E+04  0.12699999809E+01 0.  1.
       -4    1    3    3    0  502  0.75259919509E+03  0.14569031999E+04  0.87070228917E+03  0.18566358209E+04  0.12699999809E+01 0. -1.
</event>
<event>
 5   0  0.1370688E-07  0.3670764E+04  0.7818609E-02  0.8074472E-01
       -2   -1    0    0    0  501  0.00000000000E+00  0.00000000000E+00  0.11266092161E+04  0.11266092161E+04  0.25500000920E-02 0.  1.
        2   -1    0    0  501    0  0.00000000000E+00  0.00000000000E+00 -0.29900586893E+04  0.29900586893E+04  0.25500000920E-02 0. -1.
    10030    2    1    2    0    0  0.00000000000E+00  0.00000000000E+00 -0.18634494731E+04  0.41166679054E+04  0.36707643216E+04 0.  0.
        5    1    3    3  502    0  0.17491713393E+04 -0.33292057668E+02 -0.15540134945E+04  0.23400189671E+04  0.46999998093E+01 0.  1.
       -5    1    3    3    0  502 -0.17491713393E+04  0.33292057668E+02 -0.30943597865E+03  0.17766489384E+04  0.46999998093E+01 0. -1.
</event>
<event>
 5   0  0.2205204E-07  0.3918005E+04  0.7818609E-02  0.8021295E-01
       -2   -1    0    0    0  501  0.00000000000E+00  0.00000000000E+00  0.15199242607E+04  0.15199242607E+04  0.25500000920E-02 0.  1.
        2   -1    0    0  501    0  0.00000000000E+00  0.00000000000E+00 -0.25249226257E+04  0.25249226257E+04  0.25500000920E-02 0. -1.
    10030    2    1    2    0    0  0.00000000000E+00  0.00000000000E+00 -0.10049983650E+04  0.40448468864E+04  0.39180051839E+04 0.  0.
        2    1    3    3  502    0  0.14024973802E+04  0.13167017057E+04 -0.88460154680E+03  0.21173620805E+04  0.25500000920E-02 0. -1.
       -2    1    3    3    0  502 -0.14024973802E+04 -0.13167017057E+04 -0.12039681823E+03  0.19274848059E+04  0.25500000920E-02 0.  1.
</event>
<event>
 5   0  0.2081337E-07  0.3727514E+04  0.7818609E-02  0.8061892E-01
       -2   -1    0    0    0  501  0.00000000000E+00  0.00000000000E+00  0.15396747476E+04  0.15396747476E+04  0.25500000920E-02 0.  1.
        2   -1    0    0  501    0  0.00000000000E+00  0.00000000000E+00 -0.22560541958E+04  0.22560541958E+04  0.25500000920E-02 0. -1.
    10030    2    1    2    0    0  0.00000000000E+00  0.00000000000E+00 -0.71637944819E+03  0.37957289434E+04  0.37275137421E+04 0.  0.
        1    1    3    3  502    0 -0.15662716941E+04 -0.50010178919E+03 -0.12519076937E+04  0.20665385776E+04  0.50400001928E-02 0. -1.
       -1    1    3    3    0  502  0.15662716941E+04  0.50010178919E+03  0.53552824547E+03  0.17291903658E+04  0.50400001928E-02 0.  1.
</event>
<event>
 5   0  0.2135314E-07  0.3776319E+04  0.7818609E-02  0.8051256E-01
        2   -1    0    0  501    0  0.00000000000E+00  0.00000000000E+00  0.12891521075E+04  0.12891521075E+04  0.25500000920E-02 0.  1.
       -2   -1    0    0    0  501  0.00000000000E+00  0.00000000000E+00 -0.27654969728E+04  0.27654969728E+04  0.25500000920E-02 0. -1.
    10030    2    1    2    0    0  0.00000000000E+00  0.00000000000E+00 -0.14763448653E+04  0.40546490804E+04  0.37763189754E+04 0.  0.
        4    1    3    3  502    0  0.14602777733E+04  0.88276898357E+03  0.12977130860E+03  0.17112961342E+04  0.12699999809E+01 0.  1.
       -4    1    3    3    0  502 -0.14602777733E+04 -0.88276898357E+03 -0.16061161739E+04  0.23433529462E+04  0.12699999809E+01 0. -1.
</event>
<event>
 5   0  0.2135314E-07  0.3749514E+04  0.7818609E-02  0.8057077E-01
       -2   -1    0    0    0  501  0.00000000000E+00  0.00000000000E+00  0.20124328749E+04  0.20124328749E+04  0.25500000920E-02 0.  1.
        2   -1    0    0  501    0  0.00000000000E+00  0.00000000000E+00 -0.17464996858E+04  0.17464996858E+04  0.25500000920E-02 0. -1.
    10030    2    1    2    0    0  0.00000000000E+00  0.00000000000E+00  0.26593318905E+03  0.37589325607E+04  0.37495137731E+04 0.  0.
        4    1    3    3  502    0  0.10189386034E+04  0.13395228421E+04 -0.69503455314E+03  0.18208876860E+04  0.12699999809E+01 0. -1.
       -4    1    3    3    0  502 -0.10189386034E+04 -0.13395228421E+04  0.96096774219E+03  0.19380448747E+04  0.12699999809E+01 0.  1.
</event>
<event>
 5   0  0.1370688E-07  0.3785752E+04  0.7818609E-02  0.8049219E-01
       -2   -1    0    0    0  501  0.00000000000E+00  0.00000000000E+00  0.17024459383E+04  0.17024459383E+04  0.25500000920E-02 0.  1.
        2   -1    0    0  501    0  0.00000000000E+00  0.00000000000E+00 -0.21046072850E+04  0.21046072850E+04  0.25500000920E-02 0. -1.
    10030    2    1    2    0    0  0.00000000000E+00  0.00000000000E+00 -0.40216134669E+03  0.38070532233E+04  0.37857523026E+04 0.  0.
        5    1    3    3  502    0 -0.49174215264E+03  0.61986271259E+03 -0.19303251090E+04  0.20861968372E+04  0.46999998093E+01 0. -1.
       -5    1    3    3    0  502  0.49174215264E+03 -0.61986271259E+03  0.15281637623E+04  0.17208563861E+04  0.46999998093E+01 0.  1.
</event>
<event>
 5   0  0.6661000E-08  0.3805492E+04  0.7818609E-02  0.8044977E-01
       -1   -1    0    0    0  501  0.00000000000E+00  0.00000000000E+00  0.27297385211E+04  0.27297385211E+04  0.50400001928E-02 0. -1.
        1   -1    0    0  501    0  0.00000000000E+00  0.00000000000E+00 -0.13262966261E+04  0.13262966261E+04  0.50400001928E-02 0.  1.
    10030    2    1    2    0    0  0.00000000000E+00  0.00000000000E+00  0.14034418950E+04  0.40560351472E+04  0.38054923417E+04 0.  0.
        2    1    3    3  502    0  0.11931928515E+04  0.12908742069E+04  0.14779384674E+04  0.22965991188E+04  0.25500000920E-02 0. -1.
       -2    1    3    3    0  502 -0.11931928515E+04 -0.12908742069E+04 -0.74496572327E+02  0.17594360285E+04  0.25500000920E-02 0.  1.
</event>
<event>
 5   0  0.1370688E-07  0.3779074E+04  0.7818609E-02  0.8050661E-01
        2   -1    0    0  501    0  0.00000000000E+00  0.00000000000E+00  0.33651848570E+04  0.33651848570E+04  0.25500000920E-02 0.  1.
       -2   -1    0    0    0  501  0.00000000000E+00  0.00000000000E+00 -0.10609667966E+04  0.10609667966E+04  0.25500000920E-02 0. -1.
    10030    2    1    2    0    0  0.00000000000E+00  0.00000000000E+00  0.23042180604E+04  0.44261516536E+04  0.37790736419E+04 0.  0.
        5    1    3    3  502    0  0.13466038619E+04  0.74590782648E+03  0.24354478917E+04  0.28811714579E+04  0.46999998093E+01 0.  1.
       -5    1    3    3    0  502 -0.13466038619E+04 -0.74590782648E+03 -0.13122983136E+03  0.15449801957E+04  0.46999998093E+01 0. -1.
</event>
<event>
 5   0  0.2203998E-07  0.3684124E+04  0.7818609E-02  0.8071489E-01
        2   -1    0    0  501    0  0.00000000000E+00  0.00000000000E+00  0.17531966829E+04  0.17531966829E+04  0.25500000920E-02 0.  1.
       -2   -1    0    0    0  501  0.00000000000E+00  0.00000000000E+00 -0.19354321566E+04  0.19354321566E+04  0.25500000920E-02 0. -1.
    10030    2    1    2    0    0  0.00000000000E+00  0.00000000000E+00 -0.18223547371E+03  0.36886288395E+04  0.36841244479E+04 0.  0.
        3    1    3    3  502    0 -0.10611564725E+04 -0.13627527594E+03 -0.15924741237E+04  0.19184884297E+04  0.10100000352E+00 0. -1.
       -3    1    3    3    0  502  0.10611564725E+04  0.13627527594E+03  0.14102386500E+04  0.17701404097E+04  0.10100000352E+00 0.  1.
</event>
<event>
 5   0  0.1370688E-07  0.3734102E+04  0.7818609E-02  0.8060446E-01
       -2   -1    0    0    0  501  0.00000000000E+00  0.00000000000E+00  0.18681315588E+04  0.18681315588E+04  0.25500000920E-02 0. -1.
        2   -1    0    0  501    0  0.00000000000E+00  0.00000000000E+00 -0.18659710049E+04  0.18659710049E+04  0.25500000920E-02 0.  1.
    10030    2    1    2    0    0  0.00000000000E+00  0.00000000000E+00  0.21605539209E+01  0.37341025637E+04  0.37341019386E+04 0.  0.
        5    1    3    3  502    0  0.15822844158E+03  0.12352900209E+03 -0.18551424283E+04  0.18659772703E+04  0.46999998093E+01 0.  1.
       -5    1    3    3    0  502 -0.15822844158E+03 -0.12352900209E+03  0.18573029822E+04  0.18681252934E+04  0.46999998093E+01 0. -1.
</event>
<event>
 5   0  0.6661000E-08  0.3784023E+04  0.7818609E-02  0.8049592E-01
       -1   -1    0    0    0  501  0.00000000000E+00  0.00000000000E+00  0.15273569056E+04  0.15273569056E+04  0.50400001928E-02 0.  1.
        1   -1    0    0  501    0  0.00000000000E+00  0.00000000000E+00 -0.23437263690E+04  0.23437263690E+04  0.50400001928E-02 0. -1.
    10030    2    1    2    0    0  0.00000000000E+00  0.00000000000E+00 -0.81636946342E+03  0.38710832746E+04  0.37840225446E+04 0.  0.
        4    1    3    3  502    0 -0.30118972267E+03  0.37568434129E+03  0.14636257016E+04  0.15407971251E+04  0.12699999809E+01 0.  1.
       -4    1    3    3    0  502  0.30118972267E+03 -0.37568434129E+03 -0.22799951650E+04  0.23302861495E+04  0.12699999809E+01 0. -1.
</event>
<event>
 5   0  0.6725199E-08  0.3819907E+04  0.7818609E-02  0.8041896E-01
       -1   -1    0    0    0  501  0.00000000000E+00  0.00000000000E+00  0.16936899696E+04  0.16936899696E+04  0.50400001928E-02 0.  1.
        1   -1    0    0  501    0  0.00000000000E+00  0.00000000000E+00 -0.21538313691E+04  0.21538313691E+04  0.50400001928E-02 0. -1.
    10030    2    1    2    0    0  0.00000000000E+00  0.00000000000E+00 -0.46014139953E+03  0.38475213387E+04  0.38199071119E+04 0.  0.
        5    1    3    3  502    0  0.16592006210E+04 -0.91682889442E+03  0.48071920198E+01  0.18956706258E+04  0.46999998093E+01 0. -1.
       -5    1    3    3    0  502 -0.16592006210E+04  0.91682889442E+03 -0.46494859155E+03  0.19518507128E+04  0.46999998093E+01 0.  1.
</event>
<event>
 5   0  0.6725199E-08  0.3802020E+04  0.7818609E-02  0.8045722E-01
        1   -1    0    0  501    0  0.00000000000E+00  0.00000000000E+00  0.16224310708E+04  0.16224310708E+04  0.50400001928E-02 0. -1.
       -1   -1    0    0    0  501  0.00000000000E+00  0.00000000000E+00 -0.22274217808E+04  0.22274217808E+04  0.50400001928E-02 0.  1.
    10030    2    1    2    0    0  0.00000000000E+00  0.00000000000E+00 -0.60499071003E+03  0.38498528516E+04  0.38020196238E+04 0.  0.
        5    1    3    3  502    0 -0.15714856965E+04 -0.51217582308E+03 -0.12534188226E+04  0.20743606733E+04  0.46999998093E+01 0.  1.
       -5    1    3    3    0  502  0.15714856965E+04  0.51217582308E+03  0.64842811255E+03  0.17754921783E+04  0.46999998093E+01 0. -1.
</event>
<event>
 5   0  0.6661000E-08  0.3796968E+04  0.7818609E-02  0.8046806E-01
       -3   -1    0    0    0  501  0.00000000000E+00  0.00000000000E+00  0.26053452509E+04  0.26053452529E+04  0.10100000352E+00 0.  1.
        3   -1    0    0  501    0  0.00000000000E+00  0.00000000000E+00 -0.13834027055E+04  0.13834027092E+04  0.10100000352E+00 0. -1.
    10030    2    1    2    0    0  0.00000000000E+00  0.00000000000E+00  0.12219425454E+04  0.39887479620E+04  0.37969680958E+04 0.  0.
        5    1    3    3  502    0 -0.18374142930E+03 -0.11033142695E+04 -0.10005091531E+04  0.15007011513E+04  0.46999998093E+01 0. -1.
       -5    1    3    3    0  502  0.18374142930E+03  0.11033142695E+04  0.22224516985E+04  0.24880468107E+04  0.46999998093E+01 0.  1.
</event>
<event>
 5   0  0.2081337E-07  0.3767327E+04  0.7818609E-02  0.8053203E-01
        2   -1    0    0  501    0  0.00000000000E+00  0.00000000000E+00  0.16758653451E+04  0.16758653451E+04  0.25500000920E-02 0.  1.
       -2   -1    0    0    0  501  0.00000000000E+00  0.00000000000E+00 -0.21172270543E+04  0.21172270543E+04  0.25500000920E-02 0. -1.
    10030    2    1    2    0    0  0.00000000000E+00  0.00000000000E+00 -0.44136170916E+03  0.37930923994E+04  0.37673266107E+04 0.  0.
        1    1    3    3  502    0  0.51547445357E+03  0.16673503702E+04 -0.93434191362E+03  0.19795873259E+04  0.50400001928E-02 0. -1.
       -1    1    3    3    0  502 -0.51547445357E+03 -0.16673503702E+04  0.49298020445E+03  0.18135050735E+04  0.50400001928E-02 0.  1.
</event>
<event>
 5   0  0.2081337E-07  0.3794923E+04  0.7818609E-02  0.8047245E-01
       -2   -1    0    0    0  501  0.00000000000E+00  0.00000000000E+00  0.22292922146E+04  0.22292922146E+04  0.25500000920E-02 0.  1.
        2   -1    0    0  501    0  0.00000000000E+00  0.00000000000E+00 -0.16150237808E+04  0.16150237808E+04  0.25500000920E-02 0. -1.
    10030    2    1    2    0    0  0.00000000000E+00  0.00000000000E+00  0.61426843376E+03  0.38443159955E+04  0.37949228930E+04 0.  0.
        1    1    3    3  502    0 -0.12125213478E+04  0.14426278796E+04  0.53132150598E+03  0.19579800204E+04  0.50400001928E-02 0.  1.
       -1    1    3    3    0  502  0.12125213478E+04 -0.14426278796E+04  0.82946927786E+02  0.18863359750E+04  0.50400001928E-02 0. -1.
</event>
<event>
 5   0  0.6661000E-08  0.3873533E+04  0.7818609E-02  0.8030556E-01
       -1   -1    0    0    0  501  0.00000000000E+00  0.00000000000E+00  0.25286894137E+04  0.25286894137E+04  0.50400001928E-02 0. -1.
        1   -1    0    0  501    0  0.00000000000E+00  0.00000000000E+00 -0.14834027879E+04  0.14834027879E+04  0.50400001928E-02 0.  1.
    10030    2    1    2    0    0  0.00000000000E+00  0.00000000000E+00  0.10452866258E+04  0.40120922016E+04  0.38735332326E+04 0.  0.
        4    1    3    3  502    0 -0.24770282004E+03 -0.60682489537E+02  0.25112216927E+04  0.25241384776E+04  0.12699999809E+01 0. -1.
       -4    1    3    3    0  502  0.24770282004E+03  0.60682489537E+02 -0.14659350669E+04  0.14879537240E+04  0.12699999809E+01 0.  1.
</event>
<event>
 5   0  0.2205204E-07  0.3783117E+04  0.7818609E-02  0.8049788E-01
        2   -1    0    0  501    0  0.00000000000E+00  0.00000000000E+00  0.11233273930E+04  0.11233273930E+04  0.25500000920E-02 0. -1.
       -2   -1    0    0    0  501  0.00000000000E+00  0.00000000000E+00 -0.31851743101E+04  0.31851743101E+04  0.25500000920E-02 0.  1.
    10030    2    1    2    0    0  0.00000000000E+00  0.00000000000E+00 -0.20618469171E+04  0.43085017032E+04  0.37831169975E+04 0.  0.
        2    1    3    3  502    0 -0.81634725039E+03  0.16483966118E+04 -0.15330107098E+04  0.23945262704E+04  0.25500000920E-02 0.  1.
       -2    1    3    3    0  502  0.81634725039E+03 -0.16483966118E+04 -0.52883620729E+03  0.19139754328E+04  0.25500000920E-02 0. -1.
</event>
<event>
 5   0  0.6725199E-08  0.3784736E+04  0.7818609E-02  0.8049438E-01
       -1   -1    0    0    0  501  0.00000000000E+00  0.00000000000E+00  0.30286617862E+04  0.30286617862E+04  0.50400001928E-02 0. -1.
        1   -1    0    0  501    0  0.00000000000E+00  0.00000000000E+00 -0.11823890194E+04  0.11823890194E+04  0.50400001928E-02 0.  1.
    10030    2    1    2    0    0  0.00000000000E+00  0.00000000000E+00  0.18462727668E+04  0.42110508057E+04  0.37847358902E+04 0.  0.
        5    1    3    3  502    0 -0.36850711319E+03 -0.46313375561E+03 -0.10767539194E+04  0.12287031622E+04  0.46999998093E+01 0.  1.
       -5    1    3    3    0  502  0.36850711319E+03  0.46313375561E+03  0.29230266862E+04  0.29823476434E+04  0.46999998093E+01 0. -1.
</event>
<event>
 5   0  0.1370688E-07  0.3667782E+04  0.7818609E-02  0.8075140E-01
       -2   -1    0    0    0  501  0.00000000000E+00  0.00000000000E+00  0.18952428402E+04  0.18952428402E+04  0.25500000920E-02 0.  1.
        2   -1    0    0  501    0  0.00000000000E+00  0.00000000000E+00 -0.17745247289E+04  0.17745247289E+04  0.25500000920E-02 0. -1.
    10030    2    1    2    0    0  0.00000000000E+00  0.00000000000E+00  0.12071811124E+03  0.36697675691E+04  0.36677815023E+04 0.  0.
        5    1    3    3  502    0  0.16608918356E+04  0.61900810653E+02 -0.71513469844E+03  0.18093736836E+04  0.46999998093E+01 0. -1.
       -5    1    3    3    0  502 -0.16608918356E+04 -0.61900810653E+02  0.83585280968E+03  0.18603938855E+04  0.46999998093E+01 0.  1.
</event>
<event>
 5   0  0.1370688E-07  0.3798394E+04  0.7818609E-02  0.8046500E-01
       -2   -1    0    0    0  501  0.00000000000E+00  0.00000000000E+00  0.15308338451E+04  0.15308338451E+04  0.25500000920E-02 0.  1.
        2   -1    0    0  501    0  0.00000000000E+00  0.00000000000E+00 -0.23561987675E+04  0.23561987675E+04  0.25500000920E-02 0. -1.
    10030    2    1    2    0    0  0.00000000000E+00  0.00000000000E+00 -0.82536492231E+03  0.38870326126E+04  0.37983937758E+04 0.  0.
        5    1    3    3  502    0 -0.13124530029E+03 -0.17435019510E+04  0.34617635769E+03  0.17823817050E+04  0.46999998093E+01 0.  1.
       -5    1    3    3    0  502  0.13124530029E+03  0.17435019510E+04 -0.11715412800E+04  0.21046509075E+04  0.46999998093E+01 0. -1.
</event>
<event>
 5   0  0.6661000E-08  0.3845465E+04  0.7818609E-02  0.8036468E-01
        1   -1    0    0  501    0  0.00000000000E+00  0.00000000000E+00  0.18421162787E+04  0.18421162787E+04  0.50400001928E-02 0.  1.
       -1   -1    0    0    0  501  0.00000000000E+00  0.00000000000E+00 -0.20068763084E+04  0.20068763084E+04  0.50400001928E-02 0. -1.
    10030    2    1    2    0    0  0.00000000000E+00  0.00000000000E+00 -0.16476002969E+03  0.38489925872E+04  0.38454646103E+04 0.  0.
        1    1    3    3  502    0  0.42485326174E+03  0.16277735075E+04  0.84946962172E+03  0.18846075252E+04  0.50400001928E-02 0.  1.
       -1    1    3    3    0  502 -0.42485326174E+03 -0.16277735075E+04 -0.10142296514E+04  0.19643850620E+04  0.50400001928E-02 0. -1.
</event>
<event>
 5   0  0.6661000E-08  0.3843173E+04  0.7818609E-02  0.8036953E-01
        1   -1    0    0  501    0  0.00000000000E+00  0.00000000000E+00  0.24986717574E+04  0.24986717575E+04  0.50400001928E-02 0.  1.
       -1   -1    0    0    0  501  0.00000000000E+00  0.00000000000E+00 -0.14777830879E+04  0.14777830879E+04  0.50400001928E-02 0. -1.
    10030    2    1    2    0    0  0.00000000000E+00  0.00000000000E+00  0.10208886695E+04  0.39764548454E+04  0.38431730981E+04 0.  0.
        2    1    3    3  502    0 -0.13653655093E+04  0.13204475407E+04  0.81155257946E+03  0.20655319583E+04  0.25500000920E-02 0. -1.
       -2    1    3    3    0  502  0.13653655093E+04 -0.13204475407E+04  0.20933609007E+03  0.19109228870E+04  0.25500000920E-02 0.  1.
</event>
<event>
 5   0  0.2203998E-07  0.3798210E+04  0.7818609E-02  0.8046539E-01
       -2   -1    0    0    0  501  0.00000000000E+00  0.00000000000E+00  0.16977011601E+04  0.16977011601E+04  0.25500000920E-02 0. -1.
        2   -1    0    0  501    0  0.00000000000E+00  0.00000000000E+00 -0.21244024868E+04  0.21244024868E+04  0.25500000920E-02 0.  1.
    10030    2    1    2    0    0  0.00000000000E+00  0.00000000000E+00 -0.42670132671E+03  0.38221036469E+04  0.37982104030E+04 0.  0.
        3    1    3    3  502    0  0.16469784414E+04 -0.69083255710E+03  0.43632117518E+03  0.18385221746E+04  0.10100000352E+00 0. -1.
       -3    1    3    3    0  502 -0.16469784414E+04  0.69083255710E+03 -0.86302250189E+03  0.19835814723E+04  0.10100000352E+00 0.  1.
</event>
<event>
 5   0  0.2081337E-07  0.3818979E+04  0.7818609E-02  0.8042094E-01
        2   -1    0    0  501    0  0.00000000000E+00  0.00000000000E+00  0.28685117070E+04  0.28685117070E+04  0.25500000920E-02 0. -1.
       -2   -1    0    0    0  501  0.00000000000E+00  0.00000000000E+00 -0.12710948777E+04  0.12710948777E+04  0.25500000920E-02 0.  1.
    10030    2    1    2    0    0  0.00000000000E+00  0.00000000000E+00  0.15974168293E+04  0.41396065847E+04  0.38189792026E+04 0.  0.
        1    1    3    3  502    0  0.11410872296E+04 -0.11333188484E+04  0.19145301390E+04  0.25003834367E+04  0.50400001928E-02 0. -1.
       -1    1    3    3    0  502 -0.11410872296E+04  0.11333188484E+04 -0.31711330969E+03  0.16392231480E+04  0.50400001928E-02 0.  1.
</event>
<event>
 5   0  0.1370688E-07  0.3795208E+04  0.7818609E-02  0.8047184E-01
       -2   -1    0    0    0  501  0.00000000000E+00  0.00000000000E+00  0.17364461837E+04  0.17364461837E+04  0.25500000920E-02 0. -1.
        2   -1    0    0  501    0  0.00000000000E+00  0.00000000000E+00 -0.20737186405E+04  0.20737186405E+04  0.25500000920E-02 0.  1.
    10030    2    1    2    0    0  0.00000000000E+00  0.00000000000E+00 -0.33727245683E+03  0.38101648241E+04  0.37952079359E+04 0.  0.
        5    1    3    3  502    0 -0.94918189112E+03  0.15333700754E+04  0.42420659346E+03  0.18526044841E+04  0.46999998093E+01 0.  1.
       -5    1    3    3    0  502  0.94918189112E+03 -0.15333700754E+04 -0.76147905029E+03  0.19575603400E+04  0.46999998093E+01 0. -1.
</event>
<event>
 5   0  0.1370688E-07  0.3708702E+04  0.7818609E-02  0.8066036E-01
        2   -1    0    0  501    0  0.00000000000E+00  0.00000000000E+00  0.12788425391E+04  0.12788425391E+04  0.25500000920E-02 0.  1.
       -2   -1    0    0    0  501  0.00000000000E+00  0.00000000000E+00 -0.26888511738E+04  0.26888511738E+04  0.25500000920E-02 0. -1.
    10030    2    1    2    0    0  0.00000000000E+00  0.00000000000E+00 -0.14100086347E+04  0.39676937130E+04  0.37087018012E+04 0.  0.
        5    1    3    3  502    0  0.18328785646E+04  0.24676268759E+03 -0.56044008468E+03  0.19324727255E+04  0.46999998093E+01 0.  1.
       -5    1    3    3    0  502 -0.18328785646E+04 -0.24676268759E+03 -0.84956855003E+03  0.20352209874E+04  0.46999998093E+01 0. -1.
</event>
<event>
 5   0  0.2203998E-07  0.3831537E+04  0.7818609E-02  0.8039421E-01
       -2   -1    0    0    0  501  0.00000000000E+00  0.00000000000E+00  0.20587972794E+04  0.20587972794E+04  0.25500000920E-02 0.  1.
        2   -1    0    0  501    0  0.00000000000E+00  0.00000000000E+00 -0.17826766809E+04  0.17826766810E+04  0.25500000920E-02 0. -1.
    10030    2    1    2    0    0  0.00000000000E+00  0.00000000000E+00  0.27612059842E+03  0.38414739603E+04  0.38315374986E+04 0.  0.
        3    1    3    3  502    0 -0.12223857212E+03  0.16691919075E+04 -0.79657288770E+03  0.18535566537E+04  0.10100000352E+00 0. -1.
       -3    1    3    3    0  502  0.12223857212E+03 -0.16691919075E+04  0.10726934861E+04  0.19879173067E+04  0.10100000352E+00 0.  1.
</event>
<event>
 5   0  0.2135314E-07  0.3818299E+04  0.7818609E-02  0.8042239E-01
       -2   -1    0    0    0  501  0.00000000000E+00  0.00000000000E+00  0.16378922415E+04  0.16378922415E+04  0.25500000920E-02 0. -1.
        2   -1    0    0  501    0  0.00000000000E+00  0.00000000000E+00 -0.22253310196E+04  0.22253310196E+04  0.25500000920E-02 0.  1.
    10030    2    1    2    0    0  0.00000000000E+00  0.00000000000E+00 -0.58743877816E+03  0.38632232611E+04  0.38182993134E+04 0.  0.
        4    1    3    3  502    0  0.47777385398E+03 -0.76116229207E+03 -0.19979405541E+04  0.21907541991E+04  0.12699999809E+01 0.  1.
       -4    1    3    3    0  502 -0.47777385398E+03  0.76116229207E+03  0.14105017759E+04  0.16724690620E+04  0.12699999809E+01 0. -1.
</event>
<event>
 5   0  0.6725199E-08  0.3781455E+04  0.7818609E-02  0.8050146E-01
       -1   -1    0    0    0  501  0.00000000000E+00  0.00000000000E+00  0.12691132618E+04  0.12691132618E+04  0.50400001928E-02 0.  1.
        1   -1    0    0  501    0  0.00000000000E+00  0.00000000000E+00 -0.28168096261E+04  0.28168096261E+04  0.50400001928E-02 0. -1.
    10030    2    1    2    0    0  0.00000000000E+00  0.00000000000E+00 -0.15476963643E+04  0.40859228879E+04  0.37814549859E+04 0.  0.
        5    1    3    3  502    0  0.34519050578E+03  0.11307283926E+04  0.82046241013E+03  0.14390565797E+04  0.46999998093E+01 0.  1.
       -5    1    3    3    0  502 -0.34519050578E+03 -0.11307283926E+04 -0.23681587744E+04  0.26468663083E+04  0.46999998093E+01 0. -1.
</event>
<event>
 5   0  0.2203998E-07  0.3680163E+04  0.7818609E-02  0.8072372E-01
        2   -1    0    0  501    0  0.00000000000E+00  0.00000000000E+00  0.26051199060E+04  0.26051199060E+04  0.25500000920E-02 0. -1.
       -2   -1    0    0    0  501  0.00000000000E+00  0.00000000000E+00 -0.12997098514E+04  0.12997098514E+04  0.25500000920E-02 0.  1.
    10030    2    1    2    0    0  0.00000000000E+00  0.00000000000E+00  0.13054100546E+04  0.39048297574E+04  0.36801630431E+04 0.  0.
        3    1    3    3  502    0 -0.53350012103E+03  0.13342949306E+04  0.18721879180E+04  0.23600959623E+04  0.10100000352E+00 0.  1.
       -3    1    3    3    0  502  0.53350012103E+03 -0.13342949306E+04 -0.56677786337E+03  0.15447337951E+04  0.10100000352E+00 0. -1.
</event>
<event>
 5   0  0.2135314E-07  0.3809065E+04  0.7818609E-02  0.8044212E-01
        2   -1    0    0  501    0  0.00000000000E+00  0.00000000000E+00  0.18686826862E+04  0.18686826862E+04  0.25500000920E-02 0.  1.
       -2   -1    0    0    0  501  0.00000000000E+00  0.00000000000E+00 -0.19410701620E+04  0.19410701620E+04  0.25500000920E-02 0. -1.
    10030    2    1    2    0    0  0.00000000000E+00  0.00000000000E+00 -0.72387475853E+02  0.38097528482E+04  0.38090650845E+04 0.  0.
        4    1    3    3  502    0  0.14135600303E+03  0.11469420908E+04 -0.15503313126E+04  0.19336459012E+04  0.12699999809E+01 0. -1.
       -4    1    3    3    0  502 -0.14135600303E+03 -0.11469420908E+04  0.14779438368E+04  0.18761069471E+04  0.12699999809E+01 0.  1.
</event>
<event>
 5   0  0.2081337E-07  0.3815775E+04  0.7818609E-02  0.8042778E-01
       -2   -1    0    0    0  501  0.00000000000E+00  0.00000000000E+00  0.16999756794E+04  0.16999756794E+04  0.25500000920E-02 0. -1.
        2   -1    0    0  501    0  0.00000000000E+00  0.00000000000E+00 -0.21412271656E+04  0.21412271656E+04  0.25500000920E-02 0.  1.
    10030    2    1    2    0    0  0.00000000000E+00  0.00000000000E+00 -0.44125148623E+03  0.38412028450E+04  0.38157746818E+04 0.  0.
        1    1    3    3  502    0  0.12540709548E+04 -0.84894231961E+03 -0.13888058458E+04  0.20547940771E+04  0.50400001928E-02 0.  1.
       -1    1    3    3    0  502 -0.12540709548E+04  0.84894231961E+03  0.94755435957E+03  0.17864087679E+04  0.50400001928E-02 0. -1.
</event>
<event>
 5   0  0.6661000E-08  0.3733634E+04  0.7818609E-02  0.8060549E-01
        1   -1    0    0  501    0  0.00000000000E+00  0.00000000000E+00  0.22860198888E+04  0.22860198888E+04  0.50400001928E-02 0. -1.
       -1   -1    0    0    0  501  0.00000000000E+00  0.00000000000E+00 -0.15244857822E+04  0.15244857822E+04  0.50400001928E-02 0.  1.
    10030    2    1    2    0    0  0.00000000000E+00  0.00000000000E+00  0.76153410661E+03  0.38105056710E+04  0.37336335215E+04 0.  0.
        4    1    3    3  502    0  0.11355386222E+04  0.30615876371E+03  0.18603826397E+04  0.22009557765E+04  0.12699999809E+01 0. -1.
       -4    1    3    3    0  502 -0.11355386222E+04 -0.30615876371E+03 -0.10988485331E+04  0.16095498944E+04  0.12699999809E+01 0.  1.
</event>
<event>
 5   0  0.2203998E-07  0.3721254E+04  0.7818609E-02  0.8063268E-01
        2   -1    0    0  501    0  0.00000000000E+00  0.00000000000E+00  0.24181341041E+04  0.24181341041E+04  0.25500000920E-02 0.  1.
       -2   -1    0    0    0  501  0.00000000000E+00  0.00000000000E+00 -0.14316544987E+04  0.14316544987E+04  0.25500000920E-02 0. -1.
    10030    2    1    2    0    0  0.00000000000E+00  0.00000000000E+00  0.98647960542E+03  0.38497886028E+04  0.37212538578E+04 0.  0.
        3    1    3    3  502    0  0.13972422821E+04  0.12148705537E+04  0.68325792821E+03  0.19735850283E+04  0.10100000352E+00 0.  1.
       -3    1    3    3    0  502 -0.13972422821E+04 -0.12148705537E+04  0.30322167722E+03  0.18762035745E+04  0.10100000352E+00 0. -1.
</event>
<event>
 5   0  0.1370688E-07  0.3808119E+04  0.7818609E-02  0.8044415E-01
       -2   -1    0    0    0  501  0.00000000000E+00  0.00000000000E+00  0.15553255658E+04  0.15553255658E+04  0.25500000920E-02 0. -1.
        2   -1    0    0  501    0  0.00000000000E+00  0.00000000000E+00 -0.23309863933E+04  0.23309863933E+04  0.25500000920E-02 0.  1.
    10030    2    1    2    0    0  0.00000000000E+00  0.00000000000E+00 -0.77566082746E+03  0.38863119591E+04  0.38081190796E+04 0.  0.
        5    1    3    3  502    0  0.10539588807E+04  0.90863427094E+03 -0.17141212218E+04  0.22078675715E+04  0.46999998093E+01 0.  1.
       -5    1    3    3    0  502 -0.10539588807E+04 -0.90863427094E+03  0.93846039431E+03  0.16784443876E+04  0.46999998093E+01 0. -1.
</event>
<event>
 5   0  0.6661000E-08  0.3760088E+04  0.7818609E-02  0.8054775E-01
       -1   -1    0    0    0  501  0.00000000000E+00  0.00000000000E+00  0.25117764796E+04  0.25117764796E+04  0.50400001928E-02 0. -1.
        1   -1    0    0  501    0  0.00000000000E+00  0.00000000000E+00 -0.14071971008E+04  0.14071971008E+04  0.50400001928E-02 0.  1.
    10030    2    1    2    0    0  0.00000000000E+00  0.00000000000E+00  0.11045793788E+04  0.39189735804E+04  0.37600875415E+04 0.  0.
        1    1    3    3  502    0 -0.18311962705E+04  0.31227017777E+03  0.85395416587E+03  0.20445122065E+04  0.50400001928E-02 0.  1.
       -1    1    3    3    0  502  0.18311962705E+04 -0.31227017777E+03  0.25062521297E+03  0.18744613740E+04  0.50400001928E-02 0. -1.
</event>
<event>
 5   0  0.6661000E-08  0.3811459E+04  0.7818609E-02  0.8043700E-01
        3   -1    0    0  501    0  0.00000000000E+00  0.00000000000E+00  0.18588637454E+04  0.18588637482E+04  0.10100000352E+00 0. -1.
       -3   -1    0    0    0  501  0.00000000000E+00  0.00000000000E+00 -0.19537769667E+04  0.19537769693E+04  0.10100000352E+00 0.  1.
    10030    2    1    2    0    0  0.00000000000E+00  0.00000000000E+00 -0.94913221254E+02  0.38126407175E+04  0.38114591328E+04 0.  0.
        4    1    3    3  502    0  0.12780597232E+04  0.40930862039E+03 -0.14009589890E+04  0.19400149238E+04  0.12699999809E+01 0.  1.
       -4    1    3    3    0  502 -0.12780597232E+04 -0.40930862039E+03  0.13060457678E+04  0.18726257937E+04  0.12699999809E+01 0. -1.
</event>
<event>
 5   0  0.6661000E-08  0.3801875E+04  0.7818609E-02  0.8045753E-01
        1   -1    0    0  501    0  0.00000000000E+00  0.00000000000E+00  0.29226528124E+04  0.29226528124E+04  0.50400001928E-02 0. -1.
       -1   -1    0    0    0  501  0.00000000000E+00  0.00000000000E+00 -0.12363981997E+04  0.12363981997E+04  0.50400001928E-02 0.  1.
    10030    2    1    2    0    0  0.00000000000E+00  0.00000000000E+00  0.16862546127E+04  0.41590510120E+04  0.38018746300E+04 0.  0.
        2    1    3    3  502    0  0.66951072576E+03 -0.13564143180E+04  0.21025731103E+04  0.25901579292E+04  0.25500000920E-02 0. -1.
       -2    1    3    3    0  502 -0.66951072576E+03  0.13564143180E+04 -0.41631849761E+03  0.15688930829E+04  0.25500000920E-02 0.  1.
</event>
<event>
 5   0  0.2135314E-07  0.3843007E+04  0.7818609E-02  0.8036988E-01
        2   -1    0    0  501    0  0.00000000000E+00  0.00000000000E+00  0.21048801794E+04  0.21048801794E+04  0.25500000920E-02 0. -1.
       -2   -1    0    0    0  501  0.00000000000E+00  0.00000000000E+00 -0.17541028240E+04  0.17541028240E+04  0.25500000920E-02 0.  1.
    10030    2    1    2    0    0  0.00000000000E+00  0.00000000000E+00  0.35077735541E+03  0.38589830034E+04  0.38430072947E+04 0.  0.
        4    1    3    3  502    0  0.15417667600E+04  0.83684184691E+03  0.96275646037E+03  0.20010623763E+04  0.12699999809E+01 0.  1.
       -4    1    3    3    0  502 -0.15417667600E+04 -0.83684184691E+03 -0.61197910496E+03  0.18579206271E+04  0.12699999809E+01 0. -1.
</event>
<event>
 5   0  0.6661000E-08  0.3802645E+04  0.7818609E-02  0.8045588E-01
        1   -1    0    0  501    0  0.00000000000E+00  0.00000000000E+00  0.18558633616E+04  0.18558633616E+04  0.50400001928E-02 0. -1.
       -1   -1    0    0    0  501  0.00000000000E+00  0.00000000000E+00 -0.19478949690E+04  0.19478949690E+04  0.50400001928E-02 0.  1.
    10030    2    1    2    0    0  0.00000000000E+00  0.00000000000E+00 -0.92031607405E+02  0.38037583305E+04  0.38026448191E+04 0.  0.
        3    1    3    3  502    0  0.10444531513E+04 -0.16964707671E+03  0.15341190025E+04  0.18636479388E+04  0.10100000352E+00 0. -1.
       -3    1    3    3    0  502 -0.10444531513E+04  0.16964707671E+03 -0.16261506099E+04  0.19401103917E+04  0.10100000352E+00 0.  1.
</event>
<event>
 5   0  0.1370688E-07  0.3725193E+04  0.7818609E-02  0.8062402E-01
       -2   -1    0    0    0  501  0.00000000000E+00  0.00000000000E+00  0.20370751838E+04  0.20370751838E+04  0.25500000920E-02 0. -1.
        2   -1    0    0  501    0  0.00000000000E+00  0.00000000000E+00 -0.17030618256E+04  0.17030618256E+04  0.25500000920E-02 0.  1.
    10030    2    1    2    0    0  0.00000000000E+00  0.00000000000E+00  0.33401335817E+03  0.37401370094E+04  0.37251926024E+04 0.  0.
        5    1    3    3  502    0  0.38926778898E+03 -0.58189299554E+03  0.18999419558E+04  0.20248284853E+04  0.46999998093E+01 0. -1.
       -5    1    3    3    0  502 -0.38926778898E+03  0.58189299554E+03 -0.15659285976E+04  0.17153085240E+04  0.46999998093E+01 0.  1.
</event>
<event>
 5   0  0.2205204E-07  0.3795625E+04  0.7818609E-02  0.8047094E-01
        2   -1    0    0  501    0  0.00000000000E+00  0.00000000000E+00  0.20285991031E+04  0.20285991031E+04  0.25500000920E-02 0. -1.
       -2   -1    0    0    0  501  0.00000000000E+00  0.00000000000E+00 -0.17754575868E+04  0.17754575868E+04  0.25500000920E-02 0.  1.
    10030    2    1    2    0    0  0.00000000000E+00  0.00000000000E+00  0.25314151626E+03  0.38040566899E+04  0.37956246749E+04 0.  0.
        2    1    3    3  502    0 -0.21974731334E+03  0.10299659213E+04 -0.14557249904E+04  0.17967342398E+04  0.25500000920E-02 0.  1.
       -2    1    3    3    0  502  0.21974731334E+03 -0.10299659213E+04  0.17088665067E+04  0.20073224501E+04  0.25500000920E-02 0. -1.
</event>
<event>
 5   0  0.1370688E-07  0.3859902E+04  0.7818609E-02  0.8033421E-01
        2   -1    0    0  501    0  0.00000000000E+00  0.00000000000E+00  0.23360293729E+04  0.23360293729E+04  0.25500000920E-02 0. -1.
       -2   -1    0    0    0  501  0.00000000000E+00  0.00000000000E+00 -0.15944623575E+04  0.15944623575E+04  0.25500000920E-02 0.  1.
    10030    2    1    2    0    0  0.00000000000E+00  0.00000000000E+00  0.74156701545E+03  0.39304917304E+04  0.38599020200E+04 0.  0.
        5    1    3    3  502    0 -0.11229888056E+04 -0.72411335675E+02  0.19673673034E+04  0.22664737933E+04  0.46999998093E+01 0. -1.
       -5    1    3    3    0  502  0.11229888056E+04  0.72411335675E+02 -0.12258002879E+04  0.16640179371E+04  0.46999998093E+01 0.  1.
</event>
<event>
 5   0  0.6661000E-08  0.3862888E+04  0.7818609E-02  0.8032792E-01
       -1   -1    0    0    0  501  0.00000000000E+00  0.00000000000E+00  0.12015340314E+04  0.12015340314E+04  0.50400001928E-02 0.  1.
        1   -1    0    0  501    0  0.00000000000E+00  0.00000000000E+00 -0.31047612522E+04  0.31047612522E+04  0.50400001928E-02 0. -1.
    10030    2    1    2    0    0  0.00000000000E+00  0.00000000000E+00 -0.19032272208E+04  0.43062952836E+04  0.38628881961E+04 0.  0.
        3    1    3    3  502    0 -0.34689697929E+03  0.17067749783E+04 -0.18823487502E+04  0.25644990092E+04  0.10100000352E+00 0. -1.
       -3    1    3    3    0  502  0.34689697929E+03 -0.17067749783E+04 -0.20878470606E+02  0.17417962744E+04  0.10100000352E+00 0.  1.
</event>
<event>
 5   0  0.6661000E-08  0.3777264E+04  0.7818609E-02  0.8051052E-01
        1   -1    0    0  501    0  0.00000000000E+00  0.00000000000E+00  0.23928978003E+04  0.23928978004E+04  0.50400001928E-02 0.  1.
       -1   -1    0    0    0  501  0.00000000000E+00  0.00000000000E+00 -0.14906327056E+04  0.14906327056E+04  0.50400001928E-02 0. -1.
    10030    2    1    2    0    0  0.00000000000E+00  0.00000000000E+00  0.90226509479E+03  0.38835305059E+04  0.37772644717E+04 0.  0.
        2    1    3    3  502    0 -0.14029924449E+04  0.15021440450E+03 -0.83956539204E+03  0.16418959210E+04  0.25500000920E-02 0. -1.
       -2    1    3    3    0  502  0.14029924449E+04 -0.15021440450E+03  0.17418304868E+04  0.22416345850E+04  0.25500000920E-02 0.  1.
</event>
<event>
 5   0  0.2203998E-07  0.3809244E+04  0.7818609E-02  0.8044174E-01
        2   -1    0    0  501    0  0.00000000000E+00  0.00000000000E+00  0.26671716073E+04  0.26671716073E+04  0.25500000920E-02 0. -1.
       -2   -1    0    0    0  501  0.00000000000E+00  0.00000000000E+00 -0.13600867263E+04  0.13600867263E+04  0.25500000920E-02 0.  1.
    10030    2    1    2    0    0  0.00000000000E+00  0.00000000000E+00  0.13070848809E+04  0.40272583336E+04  0.38092438620E+04 0.  0.
        3    1    3    3  502    0 -0.50609341914E+03 -0.18345481467E+04  0.73466217484E+03  0.20399573458E+04  0.10100000352E+00 0. -1.
       -3    1    3    3    0  502  0.50609341914E+03  0.18345481467E+04  0.57242270609E+03  0.19873009878E+04  0.10100000352E+00 0.  1.
</event>
<event>
 5   0  0.1370688E-07  0.3804437E+04  0.7818609E-02  0.8045203E-01
        2   -1    0    0  501    0  0.00000000000E+00  0.00000000000E+00  0.29337577379E+04  0.29337577379E+04  0.25500000920E-02 0.  1.
       -2   -1    0    0    0  501  0.00000000000E+00  0.00000000000E+00 -0.12333792747E+04  0.12333792747E+04  0.25500000920E-02 0. -1.
    10030    2    1    2    0    0  0.00000000000E+00  0.00000000000E+00  0.17003784632E+04  0.41671370125E+04  0.38044374043E+04 0.  0.
        5    1    3    3  502    0 -0.16124278715E+04 -0.98170206117E+01  0.19555530092E+04  0.25346064145E+04  0.46999998093E+01 0.  1.
       -5    1    3    3    0  502  0.16124278715E+04  0.98170206117E+01 -0.25517454602E+03  0.16325305980E+04  0.46999998093E+01 0. -1.
</event>
<event>
 5   0  0.2135314E-07  0.3759749E+04  0.7818609E-02  0.8054848E-01
        2   -1    0    0  501    0  0.00000000000E+00  0.00000000000E+00  0.18957626845E+04  0.18957626845E+04  0.25500000920E-02 0. -1.
       -2   -1    0    0    0  501  0.00000000000E+00  0.00000000000E+00 -0.18641190210E+04  0.18641190210E+04  0.25500000920E-02 0.  1.
    10030    2    1    2    0    0  0.00000000000E+00  0.00000000000E+00  0.31643663545E+02  0.37598817055E+04  0.37597485445E+04 0.  0.
        4    1    3    3  502    0  0.93907332047E+03 -0.35917811312E+03 -0.15726481152E+04  0.18665720788E+04  0.12699999809E+01 0.  1.
       -4    1    3    3    0  502 -0.93907332047E+03  0.35917811312E+03  0.16042917788E+04  0.18933096267E+04  0.12699999809E+01 0. -1.
</event>
<event>
 5   0  0.6661000E-08  0.3839207E+04  0.7818609E-02  0.8037793E-01
       -1   -1    0    0    0  501  0.00000000000E+00  0.00000000000E+00  0.15355280509E+04  0.15355280509E+04  0.50400001928E-02 0. -1.
        1   -1    0    0  501    0  0.00000000000E+00  0.00000000000E+00 -0.23997457922E+04  0.23997457922E+04  0.50400001928E-02 0.  1.
    10030    2    1    2    0    0  0.00000000000E+00  0.00000000000E+00 -0.86421774133E+03  0.39352738431E+04  0.38392066780E+04 0.  0.
        4    1    3    3  502    0 -0.15841832479E+04 -0.10813927789E+04 -0.51036356742E+03  0.19848222815E+04  0.12699999809E+01 0. -1.
       -4    1    3    3    0  502  0.15841832479E+04  0.10813927789E+04 -0.35385417391E+03  0.19504515617E+04  0.12699999809E+01 0.  1.
</event>
<event>
 5   0  0.6661000E-08  0.3779994E+04  0.7818609E-02  0.8050462E-01
       -1   -1    0    0    0  501  0.00000000000E+00  0.00000000000E+00  0.16263225728E+04  0.16263225728E+04  0.50400001928E-02 0.  1.
        1   -1    0    0  501    0  0.00000000000E+00  0.00000000000E+00 -0.21964208247E+04  0.21964208247E+04  0.50400001928E-02 0. -1.
    10030    2    1    2    0    0  0.00000000000E+00  0.00000000000E+00 -0.57009825191E+03  0.38227433976E+04  0.37799940565E+04 0.  0.
        1    1    3    3  502    0  0.90661041056E+03  0.15093521531E+04 -0.97984325031E+03  0.20149886237E+04  0.50400001928E-02 0. -1.
       -1    1    3    3    0  502 -0.90661041056E+03 -0.15093521531E+04  0.40974499840E+03  0.18077547738E+04  0.50400001928E-02 0.  1.
</event>
<event>
 5   0  0.6661000E-08  0.3781395E+04  0.7818609E-02  0.8050159E-01
        1   -1    0    0  501    0  0.00000000000E+00  0.00000000000E+00  0.19484130827E+04  0.19484130827E+04  0.50400001928E-02 0.  1.
       -1   -1    0    0    0  501  0.00000000000E+00  0.00000000000E+00 -0.18346919073E+04  0.18346919073E+04  0.50400001928E-02 0. -1.
    10030    2    1    2    0    0  0.00000000000E+00  0.00000000000E+00  0.11372117543E+03  0.37831049899E+04  0.37813953588E+04 0.  0.
        3    1    3    3  502    0  0.36717118085E+03 -0.11505782084E+04  0.15121978986E+04  0.19353003344E+04  0.10100000352E+00 0.  1.
       -3    1    3    3    0  502 -0.36717118085E+03  0.11505782084E+04 -0.13984767232E+04  0.18478046555E+04  0.10100000352E+00 0. -1.
</event>
<event>
 5   0  0.6661000E-08  0.3788061E+04  0.7818609E-02  0.8048722E-01
        1   -1    0    0  501    0  0.00000000000E+00  0.00000000000E+00  0.30947380677E+04  0.30947380677E+04  0.50400001928E-02 0.  1.
       -1   -1    0    0    0  501  0.00000000000E+00  0.00000000000E+00 -0.11591778287E+04  0.11591778287E+04  0.50400001928E-02 0. -1.
    10030    2    1    2    0    0  0.00000000000E+00  0.00000000000E+00  0.19355602390E+04  0.42539158965E+04  0.37880611156E+04 0.  0.
        1    1    3    3  502    0 -0.12005218222E+04 -0.11730955286E+04 -0.17596044456E+02  0.16786051905E+04  0.50400001928E-02 0. -1.
       -1    1    3    3    0  502  0.12005218222E+04  0.11730955286E+04  0.19531562834E+04  0.25753107060E+04  0.50400001928E-02 0.  1.
</event>
<event>
 5   0  0.2205204E-07  0.3784178E+04  0.7818609E-02  0.8049559E-01
        2   -1    0    0  501    0  0.00000000000E+00  0.00000000000E+00  0.16698212201E+04  0.16698212201E+04  0.25500000920E-02 0. -1.
       -2   -1    0    0    0  501  0.00000000000E+00  0.00000000000E+00 -0.21439423732E+04  0.21439423732E+04  0.25500000920E-02 0.  1.
    10030    2    1    2    0    0  0.00000000000E+00  0.00000000000E+00 -0.47412115310E+03  0.38137635934E+04  0.37841778339E+04 0.  0.
        2    1    3    3  502    0  0.18005203792E+04 -0.56105334779E+03 -0.83072095508E+02  0.18877381884E+04  0.25500000920E-02 0. -1.
       -2    1    3    3    0  502 -0.18005203792E+04  0.56105334779E+03 -0.39104905759E+03  0.19260254049E+04  0.25500000920E-02 0.  1.
</event>
<event>
 5   0  0.6661000E-08  0.3748297E+04  0.7818609E-02  0.8057342E-01
       -1   -1    0    0    0  501  0.00000000000E+00  0.00000000000E+00  0.13047734835E+04  0.13047734836E+04  0.50400001928E-02 0. -1.
        1   -1    0    0  501    0  0.00000000000E+00  0.00000000000E+00 -0.26919870856E+04  0.26919870856E+04  0.50400001928E-02 0.  1.
    10030    2    1    2    0    0  0.00000000000E+00  0.00000000000E+00 -0.13872136021E+04  0.39967605692E+04  0.37482974094E+04 0.  0.
        4    1    3    3  502    0 -0.13478656235E+04 -0.10123708272E+04  0.17970454492E+03  0.16952674618E+04  0.12699999809E+01 0. -1.
       -4    1    3    3    0  502  0.13478656235E+04  0.10123708272E+04 -0.15669181470E+04  0.23014931073E+04  0.12699999809E+01 0.  1.
</event>
<event>
 5   0  0.1370688E-07  0.3766342E+04  0.7818609E-02  0.8053417E-01
        2   -1    0    0  501    0  0.00000000000E+00  0.00000000000E+00  0.24195748998E+04  0.24195748998E+04  0.25500000920E-02 0. -1.
       -2   -1    0    0    0  501  0.00000000000E+00  0.00000000000E+00 -0.14656844219E+04  0.14656844219E+04  0.25500000920E-02 0.  1.
    10030    2    1    2    0    0  0.00000000000E+00  0.00000000000E+00  0.95389047790E+03  0.38852593217E+04  0.37663421185E+04 0.  0.
        5    1    3    3  502    0 -0.13854131142E+03  0.69389303850E+03  0.22772200633E+04  0.23846246142E+04  0.46999998093E+01 0. -1.
       -5    1    3    3    0  502  0.13854131142E+03 -0.69389303850E+03 -0.13233295854E+04  0.15006347075E+04  0.46999998093E+01 0.  1.
</event>
<event>
 5   0  0.6661000E-08  0.3790657E+04  0.7818609E-02  0.8048163E-01
       -3   -1    0    0    0  501  0.00000000000E+00  0.00000000000E+00  0.18014889623E+04  0.18014889651E+04  0.10100000352E+00 0. -1.
        3   -1    0    0  501    0  0.00000000000E+00  0.00000000000E+00 -0.19940561007E+04  0.19940561033E+04  0.10100000352E+00 0.  1.
    10030    2    1    2    0    0  0.00000000000E+00  0.00000000000E+00 -0.19256713847E+03  0.37955450684E+04  0.37906569699E+04 0.  0.
        1    1    3    3  502    0 -0.81110307158E+03 -0.15039851643E+04 -0.91734737912E+03  0.19394292411E+04  0.50400001928E-02 0.  1.
       -1    1    3    3    0  502  0.81110307158E+03  0.15039851643E+04  0.72478024065E+03  0.18561158273E+04  0.50400001928E-02 0. -1.
</event>
<event>
 5   0  0.2135314E-07  0.3877687E+04  0.7818609E-02  0.8029686E-01
        2   -1    0    0  501    0  0.00000000000E+00  0.00000000000E+00  0.21133671562E+04  0.21133671562E+04  0.25500000920E-02 0.  1.
       -2   -1    0    0    0  501  0.00000000000E+00  0.00000000000E+00 -0.17787320777E+04  0.17787320777E+04  0.25500000920E-02 0. -1.
    10030    2    1    2    0    0  0.00000000000E+00  0.00000000000E+00  0.33463507851E+03  0.38920992338E+04  0.38776869149E+04 0.  0.
        4    1    3    3  502    0  0.71884471689E+02  0.83431482690E+03 -0.15878566649E+04  0.17951431723E+04  0.12699999809E+01 0. -1.
       -4    1    3    3    0  502 -0.71884471689E+02 -0.83431482690E+03  0.19224917434E+04  0.20969560616E+04  0.12699999809E+01 0.  1.
</event>
<event>
 5   0  0.6661000E-08  0.3772402E+04  0.7818609E-02  0.8052103E-01
       -1   -1    0    0    0  501  0.00000000000E+00  0.00000000000E+00  0.12172211864E+04  0.12172211864E+04  0.50400001928E-02 0. -1.
        1   -1    0    0  501    0  0.00000000000E+00  0.00000000000E+00 -0.29228496651E+04  0.29228496651E+04  0.50400001928E-02 0.  1.
    10030    2    1    2    0    0  0.00000000000E+00  0.00000000000E+00 -0.17056284787E+04  0.41400708515E+04  0.37724021722E+04 0.  0.
        1    1    3    3  502    0  0.12791565463E+04  0.17146307616E+02  0.66835744200E+03  0.14433423488E+04  0.50400001928E-02 0. -1.
       -1    1    3    3    0  502 -0.12791565463E+04 -0.17146307616E+02 -0.23739859207E+04  0.26967285027E+04  0.50400001928E-02 0.  1.
</event>
<event>
 5   0  0.1370688E-07  0.3762269E+04  0.7818609E-02  0.8054301E-01
        2   -1    0    0  501    0  0.00000000000E+00  0.00000000000E+00  0.22744531798E+04  0.22744531798E+04  0.25500000920E-02 0.  1.
       -2   -1    0    0    0  501  0.00000000000E+00  0.00000000000E+00 -0.15558322700E+04  0.15558322700E+04  0.25500000920E-02 0. -1.
    10030    2    1    2    0    0  0.00000000000E+00  0.00000000000E+00  0.71862090976E+03  0.38302854498E+04  0.37622693437E+04 0.  0.
        5    1    3    3  502    0  0.10016588011E+04 -0.14782466088E+04  0.96171031552E+03  0.20281622744E+04  0.46999998093E+01 0. -1.
       -5    1    3    3    0  502 -0.10016588011E+04  0.14782466088E+04 -0.24308940576E+03  0.18021231754E+04  0.46999998093E+01 0.  1.
</event>
<event>
 5   0  0.6661000E-08  0.3852089E+04  0.7818609E-02  0.8035068E-01
       -3   -1    0    0    0  501  0.00000000000E+00  0.00000000000E+00  0.12049012131E+04  0.12049012173E+04  0.10100000352E+00 0.  1.
        3   -1    0    0  501    0  0.00000000000E+00  0.00000000000E+00 -0.30787980175E+04  0.30787980191E+04  0.10100000352E+00 0. -1.
    10030    2    1    2    0    0  0.00000000000E+00  0.00000000000E+00 -0.18738968044E+04  0.42836992364E+04  0.38520890325E+04 0.  0.
        2    1    3    3  502    0  0.39317681613E+02  0.15436903948E+04  0.34317110366E+03  0.15818635597E+04  0.25500000920E-02 0.  1.
       -2    1    3    3    0  502 -0.39317681613E+02 -0.15436903948E+04 -0.22170679081E+04  0.27018356767E+04  0.25500000920E-02 0. -1.
</event>
<event>
 5   0  0.2081337E-07  0.3796416E+04  0.7818609E-02  0.8046924E-01
       -2   -1    0    0    0  501  0.00000000000E+00  0.00000000000E+00  0.35226627488E+04  0.35226627488E+04  0.25500000920E-02 0.  1.
        2   -1    0    0  501    0  0.00000000000E+00  0.00000000000E+00 -0.10228607673E+04  0.10228607673E+04  0.25500000920E-02 0. -1.
    10030    2    1    2    0    0  0.00000000000E+00  0.00000000000E+00  0.24998019816E+04  0.45455235161E+04  0.37964159530E+04 0.  0.
        1    1    3    3  502    0 -0.11646016194E+04 -0.23975523363E+03 -0.52173325419E+03  0.12984548866E+04  0.50400001928E-02 0. -1.
       -1    1    3    3    0  502  0.11646016194E+04  0.23975523363E+03  0.30215352357E+04  0.32470686295E+04  0.50400001928E-02 0.  1.
</event>
<event>
 5   0  0.2203998E-07  0.3798037E+04  0.7818609E-02  0.8046576E-01
       -2   -1    0    0    0  501  0.00000000000E+00  0.00000000000E+00  0.19485388162E+04  0.19485388162E+04  0.25500000920E-02 0. -1.
        2   -1    0    0  501    0  0.00000000000E+00  0.00000000000E+00 -0.18507563003E+04  0.18507563003E+04  0.25500000920E-02 0.  1.
    10030    2    1    2    0    0  0.00000000000E+00  0.00000000000E+00  0.97782515986E+02  0.37992951165E+04  0.37980365930E+04 0.  0.
        3    1    3    3  502    0 -0.36896670900E+03 -0.49288415872E+03  0.18459272477E+04  0.19458979008E+04  0.10100000352E+00 0. -1.
       -3    1    3    3    0  502  0.36896670900E+03  0.49288415872E+03 -0.17481447317E+04  0.18533972158E+04  0.10100000352E+00 0.  1.
</event>
<event>
 5   0  0.6661000E-08  0.3809155E+04  0.7818609E-02  0.8044193E-01
       -1   -1    0    0    0  501  0.00000000000E+00  0.00000000000E+00  0.18182678156E+04  0.18182678156E+04  0.50400001928E-02 0.  1.
        1   -1    0    0  501    0  0.00000000000E+00  0.00000000000E+00 -0.19949843156E+04  0.19949843156E+04  0.50400001928E-02 0. -1.
    10030    2    1    2    0    0  0.00000000000E+00  0.00000000000E+00 -0.17671650002E+03  0.38132521312E+04  0.38091551681E+04 0.  0.
        4    1    3    3  502    0 -0.14359822342E+04  0.11318528054E+04 -0.62210936678E+03  0.19313615475E+04  0.12699999809E+01 0.  1.
       -4    1    3    3    0  502  0.14359822342E+04 -0.11318528054E+04  0.44539286677E+03  0.18818905836E+04  0.12699999809E+01 0. -1.
</event>
<event>
 5   0  0.1370688E-07  0.3742052E+04  0.7818609E-02  0.8058706E-01
       -2   -1    0    0    0  501  0.00000000000E+00  0.00000000000E+00  0.11494259514E+04  0.11494259514E+04  0.25500000920E-02 0. -1.
        2   -1    0    0  501    0  0.00000000000E+00  0.00000000000E+00 -0.30456401455E+04  0.30456401455E+04  0.25500000920E-02 0.  1.
    10030    2    1    2    0    0  0.00000000000E+00  0.00000000000E+00 -0.18962141941E+04  0.41950660969E+04  0.37420517484E+04 0.  0.
        5    1    3    3  502    0 -0.14090210584E+03  0.11989203583E+04  0.65444173302E+03  0.13731640473E+04  0.46999998093E+01 0. -1.
       -5    1    3    3    0  502  0.14090210584E+03 -0.11989203583E+04 -0.25506559272E+04  0.28219020496E+04  0.46999998093E+01 0.  1.
</event>
<event>
 5   0  0.2081337E-07  0.3753269E+04  0.7818609E-02  0.8056258E-01
       -2   -1    0    0    0  501  0.00000000000E+00  0.00000000000E+00  0.17923955607E+04  0.17923955607E+04  0.25500000920E-02 0. -1.
        2   -1    0    0  501    0  0.00000000000E+00  0.00000000000E+00 -0.19648321914E+04  0.19648321914E+04  0.25500000920E-02 0.  1.
    10030    2    1    2    0    0  0.00000000000E+00  0.00000000000E+00 -0.17243663067E+03  0.37572277521E+04  0.37532687074E+04 0.  0.
        1    1    3    3  502    0  0.12424479851E+04 -0.99339692601E+03 -0.10828799066E+04  0.19243553051E+04  0.50400001928E-02 0.  1.
       -1    1    3    3    0  502 -0.12424479851E+04  0.99339692601E+03  0.91044327593E+03  0.18328724470E+04  0.50400001928E-02 0. -1.
</event>
<event>
 5   0  0.2203998E-07  0.3768492E+04  0.7818609E-02  0.8052950E-01
       -2   -1    0    0    0  501  0.00000000000E+00  0.00000000000E+00  0.23360595369E+04  0.23360595369E+04  0.25500000920E-02 0.  1.
        2   -1    0    0  501    0  0.00000000000E+00  0.00000000000E+00 -0.15198172697E+04  0.15198172697E+04  0.25500000920E-02 0. -1.
    10030    2    1    2    0    0  0.00000000000E+00  0.00000000000E+00  0.81624226723E+03  0.38558768066E+04  0.37684923390E+04 0.  0.
        3    1    3    3  502    0  0.55335307675E+03 -0.18011549079E+04  0.40300647861E+03  0.19268556930E+04  0.10100000352E+00 0. -1.
       -3    1    3    3    0  502 -0.55335307675E+03  0.18011549079E+04  0.41323578862E+03  0.19290211136E+04  0.10100000352E+00 0.  1.
</event>
<event>
 5   0  0.6725199E-08  0.3797084E+04  0.7818609E-02  0.8046781E-01
       -1   -1    0    0    0  501  0.00000000000E+00  0.00000000000E+00  0.13642560203E+04  0.13642560203E+04  0.50400001928E-02 0. -1.
        1   -1    0    0  501    0  0.00000000000E+00  0.00000000000E+00 -0.26420708644E+04  0.26420708644E+04  0.50400001928E-02 0.  1.
    10030    2    1    2    0    0  0.00000000000E+00  0.00000000000E+00 -0.12778148441E+04  0.40063268847E+04  0.37970836613E+04 0.  0.
        5    1    3    3  502    0 -0.43654862779E+03  0.93065975991E+03 -0.23230291805E+04  0.25403127674E+04  0.46999998093E+01 0.  1.
       -5    1    3    3    0  502  0.43654862779E+03 -0.93065975991E+03  0.10452143363E+04  0.14660141173E+04  0.46999998093E+01 0. -1.
</event>
<event>
 5   0  0.2203998E-07  0.3528729E+04  0.7818609E-02  0.8107015E-01
       -2   -1    0    0    0  501  0.00000000000E+00  0.00000000000E+00  0.24917668923E+04  0.24917668923E+04  0.25500000920E-02 0. -1.
        2   -1    0    0  501    0  0.00000000000E+00  0.00000000000E+00 -0.12493073750E+04  0.12493073750E+04  0.25500000920E-02 0.  1.
    10030    2    1    2    0    0  0.00000000000E+00  0.00000000000E+00  0.12424595173E+04  0.37410742673E+04  0.35287293778E+04 0.  0.
        3    1    3    3  502    0 -0.20888405333E+03 -0.54821042825E+03  0.23853370190E+04  0.24564201444E+04  0.10100000352E+00 0. -1.
       -3    1    3    3    0  502  0.20888405333E+03  0.54821042825E+03 -0.11428775017E+04  0.12846541229E+04  0.10100000352E+00 0.  1.
</event>
<event>
 5   0  0.6661000E-08  0.3768411E+04  0.7818609E-02  0.8052968E-01
       -1   -1    0    0    0  501  0.00000000000E+00  0.00000000000E+00  0.15071574810E+04  0.15071574810E+04  0.50400001928E-02 0. -1.
        1   -1    0    0  501    0  0.00000000000E+00  0.00000000000E+00 -0.23555798870E+04  0.23555798870E+04  0.50400001928E-02 0.  1.
    10030    2    1    2    0    0  0.00000000000E+00  0.00000000000E+00 -0.84842240594E+03  0.38627373680E+04  0.37684107254E+04 0.  0.
        2    1    3    3  502    0  0.13538335122E+04  0.74928349389E+03 -0.15262690525E+04  0.21734277429E+04  0.25500000920E-02 0.  1.
       -2    1    3    3    0  502 -0.13538335122E+04 -0.74928349389E+03  0.67784664656E+03  0.16893096251E+04  0.25500000920E-02 0. -1.
</event>
<event>
 5   0  0.6661000E-08  0.3799362E+04  0.7818609E-02  0.8046292E-01
       -1   -1    0    0    0  501  0.00000000000E+00  0.00000000000E+00  0.22289495737E+04  0.22289495737E+04  0.50400001928E-02 0.  1.
        1   -1    0    0  501    0  0.00000000000E+00  0.00000000000E+00 -0.16190530736E+04  0.16190530736E+04  0.50400001928E-02 0. -1.
    10030    2    1    2    0    0  0.00000000000E+00  0.00000000000E+00  0.60989650016E+03  0.38480026473E+04  0.37993618718E+04 0.  0.
        4    1    3    3  502    0 -0.12449365407E+04  0.13527876472E+04  0.78949203042E+03  0.20008000119E+04  0.12699999809E+01 0. -1.
       -4    1    3    3    0  502  0.12449365407E+04 -0.13527876472E+04 -0.17959553026E+03  0.18472026354E+04  0.12699999809E+01 0.  1.
</event>
<event>
 5   0  0.2203998E-07  0.3759239E+04  0.7818609E-02  0.8054959E-01
        2   -1    0    0  501    0  0.00000000000E+00  0.00000000000E+00  0.16061768233E+04  0.16061768233E+04  0.25500000920E-02 0. -1.
       -2   -1    0    0    0  501  0.00000000000E+00  0.00000000000E+00 -0.21996148336E+04  0.21996148336E+04  0.25500000920E-02 0.  1.
    10030    2    1    2    0    0  0.00000000000E+00  0.00000000000E+00 -0.59343801026E+03  0.38057916569E+04  0.37592394795E+04 0.  0.
        3    1    3    3  502    0 -0.16635139847E+04  0.77365335238E+03 -0.71062421667E+03  0.19674361679E+04  0.10100000352E+00 0. -1.
       -3    1    3    3    0  502  0.16635139847E+04 -0.77365335238E+03  0.11718620641E+03  0.18383554891E+04  0.10100000352E+00 0.  1.
</event>
<event>
 5   0  0.6661000E-08  0.3830174E+04  0.7818609E-02  0.8039710E-01
        1   -1    0    0  501    0  0.00000000000E+00  0.00000000000E+00  0.18648708017E+04  0.18648708017E+04  0.50400001928E-02 0.  1.
       -1   -1    0    0    0  501  0.00000000000E+00  0.00000000000E+00 -0.19666553819E+04  0.19666553819E+04  0.50400001928E-02 0. -1.
    10030    2    1    2    0    0  0.00000000000E+00  0.00000000000E+00 -0.10178458023E+03  0.38315261837E+04  0.38301739902E+04 0.  0.
        3    1    3    3  502    0 -0.15722381007E+04 -0.10762954976E+04  0.14208393967E+03  0.19106366739E+04  0.10100000352E+00 0. -1.
       -3    1    3    3    0  502  0.15722381007E+04  0.10762954976E+04 -0.24386851990E+03  0.19208895098E+04  0.10100000352E+00 0.  1.
</event>
<event>
 5   0  0.6661000E-08  0.3622319E+04  0.7818609E-02  0.8085398E-01
        1   -1    0    0  501    0  0.00000000000E+00  0.00000000000E+00  0.12827502135E+04  0.12827502135E+04  0.50400001928E-02 0.  1.
       -1   -1    0    0    0  501  0.00000000000E+00  0.00000000000E+00 -0.25572384333E+04  0.25572384333E+04  0.50400001928E-02 0. -1.
    10030    2    1    2    0    0  0.00000000000E+00  0.00000000000E+00 -0.12744882199E+04  0.38399886468E+04  0.36223186752E+04 0.  0.
        4    1    3    3  502    0  0.37825195157E+02 -0.38881757790E+03 -0.25120439407E+04  0.25422384285E+04  0.12699999809E+01 0. -1.
       -4    1    3    3    0  502 -0.37825195157E+02  0.38881757790E+03  0.12375557208E+04  0.12977502184E+04  0.12699999809E+01 0.  1.
</event>
<event>
 5   0  0.6661000E-08  0.3387587E+04  0.7818609E-02  0.8140960E-01
        1   -1    0    0  501    0  0.00000000000E+00  0.00000000000E+00  0.20230463236E+04  0.20230463237E+04  0.50400001928E-02 0.  1.
       -1   -1    0    0    0  501  0.00000000000E+00  0.00000000000E+00 -0.14181268962E+04  0.14181268962E+04  0.50400001928E-02 0. -1.
    10030    2    1    2    0    0  0.00000000000E+00  0.00000000000E+00  0.60491942745E+03  0.34411732199E+04  0.33875869901E+04 0.  0.
        2    1    3    3  502    0 -0.44846256975E+03 -0.69556733414E+03 -0.11987548676E+04  0.14566900238E+04  0.25500000920E-02 0. -1.
       -2    1    3    3    0  502  0.44846256975E+03  0.69556733414E+03  0.18036742951E+04  0.19844831961E+04  0.25500000920E-02 0.  1.
</event>
<event>
 5   0  0.2205204E-07  0.3810255E+04  0.7818609E-02  0.8043958E-01
        2   -1    0    0  501    0  0.00000000000E+00  0.00000000000E+00  0.21474397046E+04  0.21474397046E+04  0.25500000920E-02 0. -1.
       -2   -1    0    0    0  501  0.00000000000E+00  0.00000000000E+00 -0.16901573268E+04  0.16901573268E+04  0.25500000920E-02 0.  1.
    10030    2    1    2    0    0  0.00000000000E+00  0.00000000000E+00  0.45728237780E+03  0.38375970315E+04  0.38102550837E+04 0.  0.
        2    1    3    3  502    0  0.14847184769E+04  0.10142693629E+04  0.86274592329E+03  0.19943574966E+04  0.25500000920E-02 0. -1.
       -2    1    3    3    0  502 -0.14847184769E+04 -0.10142693629E+04 -0.40546354549E+03  0.18432395349E+04  0.25500000920E-02 0.  1.
</event>
<event>
 5   0  0.2205204E-07  0.3801196E+04  0.7818609E-02  0.8045898E-01
        2   -1    0    0  501    0  0.00000000000E+00  0.00000000000E+00  0.18210076116E+04  0.18210076116E+04  0.25500000920E-02 0.  1.
       -2   -1    0    0    0  501  0.00000000000E+00  0.00000000000E+00 -0.19836667036E+04  0.19836667036E+04  0.25500000920E-02 0. -1.
    10030    2    1    2    0    0  0.00000000000E+00  0.00000000000E+00 -0.16265909206E+03  0.38046743152E+04  0.38011956888E+04 0.  0.
        2    1    3    3  502    0  0.17254343167E+03 -0.10416499137E+04 -0.16631132045E+04  0.19699622609E+04  0.25500000920E-02 0. -1.
       -2    1    3    3    0  502 -0.17254343167E+03  0.10416499137E+04  0.15004541124E+04  0.18347120543E+04  0.25500000920E-02 0.  1.
</event>
<event>
 5   0  0.2205204E-07  0.3811125E+04  0.7818609E-02  0.8043772E-01
        2   -1    0    0  501    0  0.00000000000E+00  0.00000000000E+00  0.30610889877E+04  0.30610889877E+04  0.25500000920E-02 0.  1.
       -2   -1    0    0    0  501  0.00000000000E+00  0.00000000000E+00 -0.11862343947E+04  0.11862343947E+04  0.25500000920E-02 0. -1.
    10030    2    1    2    0    0  0.00000000000E+00  0.00000000000E+00  0.18748545931E+04  0.42473233824E+04  0.38111253154E+04 0.  0.
        2    1    3    3  502    0 -0.34500850363E+03  0.13831748375E+04  0.23466565564E+04  0.27457240379E+04  0.25500000920E-02 0.  1.
       -2    1    3    3    0  502  0.34500850363E+03 -0.13831748375E+04 -0.47180196331E+03  0.15015993445E+04  0.25500000920E-02 0. -1.
</event>
<event>
 5   0  0.1370688E-07  0.3699031E+04  0.7818609E-02  0.8068177E-01
        2   -1    0    0  501    0  0.00000000000E+00  0.00000000000E+00  0.24216491149E+04  0.24216491149E+04  0.25500000920E-02 0. -1.
       -2   -1    0    0    0  501  0.00000000000E+00  0.00000000000E+00 -0.14125532181E+04  0.14125532181E+04  0.25500000920E-02 0.  1.
    10030    2    1    2    0    0  0.00000000000E+00  0.00000000000E+00  0.10090958968E+04  0.38342023329E+04  0.36990313598E+04 0.  0.
        5    1    3    3  502    0  0.19630922690E+02  0.52503998937E+03 -0.13335644003E+04  0.14333417120E+04  0.46999998093E+01 0.  1.
       -5    1    3    3    0  502 -0.19630922690E+02 -0.52503998937E+03  0.23426602971E+04  0.24008606210E+04  0.46999998093E+01 0. -1.
</event>
<event>
 5   0  0.6661000E-08  0.3801316E+04  0.7818609E-02  0.8045873E-01
        1   -1    0    0  501    0  0.00000000000E+00  0.00000000000E+00  0.17993139722E+04  0.17993139722E+04  0.50400001928E-02 0.  1.
       -1   -1    0    0    0  501  0.00000000000E+00  0.00000000000E+00 -0.20077097476E+04  0.20077097476E+04  0.50400001928E-02 0. -1.
    10030    2    1    2    0    0  0.00000000000E+00  0.00000000000E+00 -0.20839577536E+03  0.38070237198E+04  0.38013156675E+04 0.  0.
        4    1    3    3  502    0  0.13183818764E+04 -0.66527748430E+03 -0.13025621118E+04  0.19691100962E+04  0.12699999809E+01 0. -1.
       -4    1    3    3    0  502 -0.13183818764E+04  0.66527748430E+03  0.10941663364E+04  0.18379136236E+04  0.12699999809E+01 0.  1.
</event>
<event>
 5   0  0.6661000E-08  0.3825926E+04  0.7818609E-02  0.8040614E-01
       -1   -1    0    0    0  501  0.00000000000E+00  0.00000000000E+00  0.15130965398E+04  0.15130965398E+04  0.50400001928E-02 0.  1.
        1   -1    0    0  501    0  0.00000000000E+00  0.00000000000E+00 -0.24185028893E+04  0.24185028893E+04  0.50400001928E-02 0. -1.
    10030    2    1    2    0    0  0.00000000000E+00  0.00000000000E+00 -0.90540634952E+03  0.39315994292E+04  0.38259264778E+04 0.  0.
        3    1    3    3  502    0  0.95291513220E+03 -0.36980642562E+03 -0.21143445207E+04  0.23484583888E+04  0.10100000352E+00 0. -1.
       -3    1    3    3    0  502 -0.95291513220E+03  0.36980642562E+03  0.12089381712E+04  0.15831410403E+04  0.10100000352E+00 0.  1.
</event>
<event>
 5   0  0.1370688E-07  0.3729409E+04  0.7818609E-02  0.8061475E-01
        2   -1    0    0  501    0  0.00000000000E+00  0.00000000000E+00  0.24808637104E+04  0.24808637104E+04  0.25500000920E-02 0. -1.
       -2   -1    0    0    0  501  0.00000000000E+00  0.00000000000E+00 -0.14015778032E+04  0.14015778032E+04  0.25500000920E-02 0.  1.
    10030    2    1    2    0    0  0.00000000000E+00  0.00000000000E+00  0.10792859072E+04  0.38824415135E+04  0.37294093415E+04 0.  0.
        5    1    3    3  502    0 -0.15399316677E+04 -0.33683544104E+03 -0.49735105023E+03  0.16529451935E+04  0.46999998093E+01 0.  1.
       -5    1    3    3    0  502  0.15399316677E+04  0.33683544104E+03  0.15766369575E+04  0.22294963201E+04  0.46999998093E+01 0. -1.
</event>
<event>
 5   0  0.6661000E-08  0.3751022E+04  0.7818609E-02  0.8056748E-01
        1   -1    0    0  501    0  0.00000000000E+00  0.00000000000E+00  0.17579904543E+04  0.17579904543E+04  0.50400001928E-02 0. -1.
       -1   -1    0    0    0  501  0.00000000000E+00  0.00000000000E+00 -0.20008878467E+04  0.20008878467E+04  0.50400001928E-02 0.  1.
    10030    2    1    2    0    0  0.00000000000E+00  0.00000000000E+00 -0.24289739235E+03  0.37588783010E+04  0.37510221192E+04 0.  0.
        2    1    3    3  502    0  0.12252488040E+04  0.12551080237E+04  0.54402872841E+03  0.18364362336E+04  0.25500000920E-02 0. -1.
       -2    1    3    3    0  502 -0.12252488040E+04 -0.12551080237E+04 -0.78692612077E+03  0.19224420674E+04  0.25500000920E-02 0.  1.
</event>
<event>
 5   0  0.1370688E-07  0.3800163E+04  0.7818609E-02  0.8046120E-01
       -2   -1    0    0    0  501  0.00000000000E+00  0.00000000000E+00  0.11634904747E+04  0.11634904747E+04  0.25500000920E-02 0. -1.
        2   -1    0    0  501    0  0.00000000000E+00  0.00000000000E+00 -0.31029981845E+04  0.31029981845E+04  0.25500000920E-02 0.  1.
    10030    2    1    2    0    0  0.00000000000E+00  0.00000000000E+00 -0.19395077098E+04  0.42664886592E+04  0.38001625390E+04 0.  0.
        5    1    3    3  502    0  0.12201713353E+04 -0.13667809855E+04 -0.15348901627E+04  0.23901502571E+04  0.46999998093E+01 0.  1.
       -5    1    3    3    0  502 -0.12201713353E+04  0.13667809855E+04 -0.40461754712E+03  0.18763384021E+04  0.46999998093E+01 0. -1.
</event>
<event>
 5   0  0.6661000E-08  0.3755389E+04  0.7818609E-02  0.8055797E-01
       -1   -1    0    0    0  501  0.00000000000E+00  0.00000000000E+00  0.19724675676E+04  0.19724675676E+04  0.50400001928E-02 0.  1.
        1   -1    0    0  501    0  0.00000000000E+00  0.00000000000E+00 -0.17874754544E+04  0.17874754544E+04  0.50400001928E-02 0. -1.
    10030    2    1    2    0    0  0.00000000000E+00  0.00000000000E+00  0.18499211327E+03  0.37599430220E+04  0.37553893868E+04 0.  0.
        4    1    3    3  502    0  0.17472427802E+04 -0.68692523488E+03  0.60643371734E+02  0.18784043342E+04  0.12699999809E+01 0.  1.
       -4    1    3    3    0  502 -0.17472427802E+04  0.68692523488E+03  0.12434874153E+03  0.18815386878E+04  0.12699999809E+01 0. -1.
</event>
<event>
 5   0  0.6725199E-08  0.3817091E+04  0.7818609E-02  0.8042497E-01
        1   -1    0    0  501    0  0.00000000000E+00  0.00000000000E+00  0.19579111355E+04  0.19579111355E+04  0.50400001928E-02 0. -1.
       -1   -1    0    0    0  501  0.00000000000E+00  0.00000000000E+00 -0.18604246846E+04  0.18604246846E+04  0.50400001928E-02 0.  1.
    10030    2    1    2    0    0  0.00000000000E+00  0.00000000000E+00  0.97486450910E+02  0.38183358201E+04  0.38170911473E+04 0.  0.
        5    1    3    3  502    0 -0.45596135341E+03  0.13117135712E+04 -0.12608936971E+04  0.18757313918E+04  0.46999998093E+01 0.  1.
       -5    1    3    3    0  502  0.45596135341E+03 -0.13117135712E+04  0.13583801480E+04  0.19426044284E+04  0.46999998093E+01 0. -1.
</event>
<event>
 5   0  0.6661000E-08  0.3806086E+04  0.7818609E-02  0.8044850E-01
       -1   -1    0    0    0  501  0.00000000000E+00  0.00000000000E+00  0.20782092542E+04  0.20782092542E+04  0.50400001928E-02 0.  1.
        1   -1    0    0  501    0  0.00000000000E+00  0.00000000000E+00 -0.17426406773E+04  0.17426406773E+04  0.50400001928E-02 0. -1.
    10030    2    1    2    0    0  0.00000000000E+00  0.00000000000E+00  0.33556857696E+03  0.38208499315E+04  0.38060856440E+04 0.  0.
        3    1    3    3  502    0  0.59856768239E+03 -0.11729779761E+04 -0.12113758853E+04  0.17892993457E+04  0.10100000352E+00 0. -1.
       -3    1    3    3    0  502 -0.59856768239E+03  0.11729779761E+04  0.15469444623E+04  0.20315505858E+04  0.10100000352E+00 0.  1.
</event>
<event>
 5   0  0.6661000E-08  0.3787425E+04  0.7818609E-02  0.8048859E-01
        1   -1    0    0  501    0  0.00000000000E+00  0.00000000000E+00  0.13119320146E+04  0.13119320147E+04  0.50400001928E-02 0.  1.
       -1   -1    0    0    0  501  0.00000000000E+00  0.00000000000E+00 -0.27334855763E+04  0.27334855763E+04  0.50400001928E-02 0. -1.
    10030    2    1    2    0    0  0.00000000000E+00  0.00000000000E+00 -0.14215535617E+04  0.40454175910E+04  0.37874251091E+04 0.  0.
        1    1    3    3  502    0  0.18184544487E+04 -0.46819306905E+03 -0.44878085368E+03  0.19306438269E+04  0.50400001928E-02 0. -1.
       -1    1    3    3    0  502 -0.18184544487E+04  0.46819306905E+03 -0.97277270800E+03  0.21147737641E+04  0.50400001928E-02 0.  1.
</event>
<event>
 5   0  0.2135314E-07  0.3753199E+04  0.7818609E-02  0.8056273E-01
        2   -1    0    0  501    0  0.00000000000E+00  0.00000000000E+00  0.14130036139E+04  0.14130036139E+04  0.25500000920E-02 0.  1.
       -2   -1    0    0    0  501  0.00000000000E+00  0.00000000000E+00 -0.24922980562E+04  0.24922980562E+04  0.25500000920E-02 0. -1.
    10030    2    1    2    0    0  0.00000000000E+00  0.00000000000E+00 -0.10792944424E+04  0.39053016701E+04  0.37531992541E+04 0.  0.
        4    1    3    3  502    0  0.48294457194E+03 -0.11483502004E+04 -0.19999768715E+04  0.23562369876E+04  0.12699999809E+01 0. -1.
       -4    1    3    3    0  502 -0.48294457194E+03  0.11483502004E+04  0.92068242915E+03  0.15490646825E+04  0.12699999809E+01 0.  1.
</event>
<event>
 5   0  0.2205204E-07  0.3772259E+04  0.7818609E-02  0.8052134E-01
        2   -1    0    0  501    0  0.00000000000E+00  0.00000000000E+00  0.20104234991E+04  0.20104234991E+04  0.25500000920E-02 0. -1.
       -2   -1    0    0    0  501  0.00000000000E+00  0.00000000000E+00 -0.17695197875E+04  0.17695197875E+04  0.25500000920E-02 0.  1.
    10030    2    1    2    0    0  0.00000000000E+00  0.00000000000E+00  0.24090371167E+03  0.37799432866E+04  0.37722588262E+04 0.  0.
        2    1    3    3  502    0  0.10403431312E+04  0.45216925617E+03  0.16304101498E+04  0.19862044515E+04  0.25500000920E-02 0. -1.
       -2    1    3    3    0  502 -0.10403431312E+04 -0.45216925617E+03 -0.13895064381E+04  0.17937388350E+04  0.25500000920E-02 0.  1.
</event>
<event>
 5   0  0.6661000E-08  0.3838439E+04  0.7818609E-02  0.8037956E-01
       -1   -1    0    0    0  501  0.00000000000E+00  0.00000000000E+00  0.15361061126E+04  0.15361061126E+04  0.50400001928E-02 0. -1.
        1   -1    0    0  501    0  0.00000000000E+00  0.00000000000E+00 -0.23978838750E+04  0.23978838750E+04  0.50400001928E-02 0.  1.
    10030    2    1    2    0    0  0.00000000000E+00  0.00000000000E+00 -0.86177776246E+03  0.39339899876E+04  0.38384393067E+04 0.  0.
        3    1    3    3  502    0 -0.13116401963E+04  0.57984224577E+03  0.87631678993E+03  0.16806392120E+04  0.10100000352E+00 0. -1.
       -3    1    3    3    0  502  0.13116401963E+04 -0.57984224577E+03 -0.17380945524E+04  0.22533507756E+04  0.10100000352E+00 0.  1.
</event>
<event>
 5   0  0.2203998E-07  0.3811334E+04  0.7818609E-02  0.8043727E-01
        2   -1    0    0  501    0  0.00000000000E+00  0.00000000000E+00  0.19078132141E+04  0.19078132141E+04  0.25500000920E-02 0.  1.
       -2   -1    0    0    0  501  0.00000000000E+00  0.00000000000E+00 -0.19035233144E+04  0.19035233144E+04  0.25500000920E-02 0. -1.
    10030    2    1    2    0    0  0.00000000000E+00  0.00000000000E+00  0.42898996551E+01  0.38113365285E+04  0.38113341142E+04 0.  0.
        3    1    3    3  502    0 -0.98687582044E+03 -0.80799358097E+03  0.14180517089E+04  0.19072619566E+04  0.10100000352E+00 0.  1.
       -3    1    3    3    0  502  0.98687582044E+03  0.80799358097E+03 -0.14137618092E+04  0.19040745719E+04  0.10100000352E+00 0. -1.
</event>
<event>
 5   0  0.6661000E-08  0.3796593E+04  0.7818609E-02  0.8046887E-01
        1   -1    0    0  501    0  0.00000000000E+00  0.00000000000E+00  0.25510511578E+04  0.25510511578E+04  0.50400001928E-02 0.  1.
       -1   -1    0    0    0  501  0.00000000000E+00  0.00000000000E+00 -0.14125662166E+04  0.14125662166E+04  0.50400001928E-02 0. -1.
    10030    2    1    2    0    0  0.00000000000E+00  0.00000000000E+00  0.11384849412E+04  0.39636173744E+04  0.37965925156E+04 0.  0.
        1    1    3    3  502    0 -0.13307049857E+04 -0.47821772228E+03 -0.75299098008E+03  0.16020185283E+04  0.50400001928E-02 0. -1.
       -1    1    3    3    0  502  0.13307049857E+04  0.47821772228E+03  0.18914759213E+04  0.23615988461E+04  0.50400001928E-02 0.  1.
</event>
<event>
 5   0  0.6661000E-08  0.3802784E+04  0.7818609E-02  0.8045558E-01
        1   -1    0    0  501    0  0.00000000000E+00  0.00000000000E+00  0.16505459941E+04  0.16505459941E+04  0.50400001928E-02 0.  1.
       -1   -1    0    0    0  501  0.00000000000E+00  0.00000000000E+00 -0.21903615418E+04  0.21903615418E+04  0.50400001928E-02 0. -1.
    10030    2    1    2    0    0  0.00000000000E+00  0.00000000000E+00 -0.53981554773E+03  0.38409075359E+04  0.38027844895E+04 0.  0.
        4    1    3    3  502    0  0.14709065581E+04  0.11033368472E+04 -0.75888149000E+03  0.19891759676E+04  0.12699999809E+01 0.  1.
       -4    1    3    3    0  502 -0.14709065581E+04 -0.11033368472E+04  0.21906594227E+03  0.18517315683E+04  0.12699999809E+01 0. -1.
</event>
<event>
 5   0  0.6725199E-08  0.3823411E+04  0.7818609E-02  0.8041150E-01
       -1   -1    0    0    0  501  0.00000000000E+00  0.00000000000E+00  0.20151932891E+04  0.20151932891E+04  0.50400001928E-02 0.  1.
        1   -1    0    0  501    0  0.00000000000E+00  0.00000000000E+00 -0.18135323361E+04  0.18135323361E+04  0.50400001928E-02 0. -1.
    10030    2    1    2    0    0  0.00000000000E+00  0.00000000000E+00  0.20166095295E+03  0.38287256252E+04  0.38234111437E+04 0.  0.
        5    1    3    3  502    0 -0.96114964906E+03 -0.12710005828E+04 -0.95673642583E+03  0.18586602185E+04  0.46999998093E+01 0. -1.
       -5    1    3    3    0  502  0.96114964906E+03  0.12710005828E+04  0.11583973788E+04  0.19700654067E+04  0.46999998093E+01 0.  1.
</event>
<event>
 5   0  0.2203998E-07  0.3783677E+04  0.7818609E-02  0.8049667E-01
       -2   -1    0    0    0  501  0.00000000000E+00  0.00000000000E+00  0.18284592581E+04  0.18284592581E+04  0.25500000920E-02 0. -1.
        2   -1    0    0  501    0  0.00000000000E+00  0.00000000000E+00 -0.19574141252E+04  0.19574141252E+04  0.25500000920E-02 0.  1.
    10030    2    1    2    0    0  0.00000000000E+00  0.00000000000E+00 -0.12895486712E+03  0.37858733834E+04  0.37836765080E+04 0.  0.
        3    1    3    3  502    0 -0.62560481592E+03  0.72107265583E+03 -0.16987428870E+04  0.19486032349E+04  0.10100000352E+00 0.  1.
       -3    1    3    3    0  502  0.62560481592E+03 -0.72107265583E+03  0.15697880199E+04  0.18372701484E+04  0.10100000352E+00 0. -1.
</event>
<event>
 5   0  0.6661000E-08  0.3792909E+04  0.7818609E-02  0.8047678E-01
        1   -1    0    0  501    0  0.00000000000E+00  0.00000000000E+00  0.21379320835E+04  0.21379320835E+04  0.50400001928E-02 0. -1.
       -1   -1    0    0    0  501  0.00000000000E+00  0.00000000000E+00 -0.16822516225E+04  0.16822516225E+04  0.50400001928E-02 0.  1.
    10030    2    1    2    0    0  0.00000000000E+00  0.00000000000E+00  0.45568046105E+03  0.38201837060E+04  0.37929090241E+04 0.  0.
        4    1    3    3  502    0 -0.88699154317E+03 -0.64639235292E+03 -0.13298778902E+04  0.17242835867E+04  0.12699999809E+01 0.  1.
       -4    1    3    3    0  502  0.88699154317E+03  0.64639235292E+03  0.17855583512E+04  0.20959001193E+04  0.12699999809E+01 0. -1.
</event>
<event>
 5   0  0.2081337E-07  0.3827851E+04  0.7818609E-02  0.8040204E-01
        2   -1    0    0  501    0  0.00000000000E+00  0.00000000000E+00  0.13090825980E+04  0.13090825980E+04  0.25500000920E-02 0.  1.
       -2   -1    0    0    0  501  0.00000000000E+00  0.00000000000E+00 -0.27982280292E+04  0.27982280292E+04  0.25500000920E-02 0. -1.
    10030    2    1    2    0    0  0.00000000000E+00  0.00000000000E+00 -0.14891454311E+04  0.41073106272E+04  0.38278514173E+04 0.  0.
        1    1    3    3  502    0  0.36909228040E+03 -0.16833395425E+04 -0.16379760523E+04  0.23775673859E+04  0.50400001928E-02 0. -1.
       -1    1    3    3    0  502 -0.36909228040E+03  0.16833395425E+04  0.14883062114E+03  0.17297432412E+04  0.50400001928E-02 0.  1.
</event>
<event>
 5   0  0.6661000E-08  0.3796664E+04  0.7818609E-02  0.8046871E-01
       -1   -1    0    0    0  501  0.00000000000E+00  0.00000000000E+00  0.11764504727E+04  0.11764504727E+04  0.50400001928E-02 0.  1.
        1   -1    0    0  501    0  0.00000000000E+00  0.00000000000E+00 -0.30631677912E+04  0.30631677912E+04  0.50400001928E-02 0. -1.
    10030    2    1    2    0    0  0.00000000000E+00  0.00000000000E+00 -0.18867173185E+04  0.42396182639E+04  0.37966644286E+04 0.  0.
        4    1    3    3  502    0 -0.15067025119E+03 -0.10389096938E+04  0.82282542544E+03  0.13338208913E+04  0.12699999809E+01 0.  1.
       -4    1    3    3    0  502  0.15067025119E+03  0.10389096938E+04 -0.27095427439E+04  0.29057973726E+04  0.12699999809E+01 0. -1.
</event>
<event>
 5   0  0.6725199E-08  0.3794057E+04  0.7818609E-02  0.8047431E-01
       -1   -1    0    0    0  501  0.00000000000E+00  0.00000000000E+00  0.24033169595E+04  0.24033169595E+04  0.50400001928E-02 0.  1.
        1   -1    0    0  501    0  0.00000000000E+00  0.00000000000E+00 -0.14973958764E+04  0.14973958764E+04  0.50400001928E-02 0. -1.
    10030    2    1    2    0    0  0.00000000000E+00  0.00000000000E+00  0.90592108312E+03  0.39007128359E+04  0.37940568814E+04 0.  0.
        5    1    3    3  502    0  0.30560845175E+03 -0.44278533386E+03 -0.14173091562E+04  0.15159956174E+04  0.46999998093E+01 0. -1.
       -5    1    3    3    0  502 -0.30560845175E+03  0.44278533386E+03  0.23232302393E+04  0.23847172185E+04  0.46999998093E+01 0.  1.
</event>
<event>
 5   0  0.1370688E-07  0.3803104E+04  0.7818609E-02  0.8045489E-01
       -2   -1    0    0    0  501  0.00000000000E+00  0.00000000000E+00  0.13481009483E+04  0.13481009483E+04  0.25500000920E-02 0.  1.
        2   -1    0    0  501    0  0.00000000000E+00  0.00000000000E+00 -0.26822179993E+04  0.26822179993E+04  0.25500000920E-02 0. -1.
    10030    2    1    2    0    0  0.00000000000E+00  0.00000000000E+00 -0.13341170510E+04  0.40303189476E+04  0.38031043259E+04 0.  0.
        5    1    3    3  502    0  0.11529211921E+04 -0.57951181430E+03  0.81310425237E+03  0.15251956705E+04  0.46999998093E+01 0.  1.
       -5    1    3    3    0  502 -0.11529211921E+04  0.57951181430E+03 -0.21472213033E+04  0.25051232771E+04  0.46999998093E+01 0. -1.
</event>
<event>
 5   0  0.6661000E-08  0.3791832E+04  0.7818609E-02  0.8047910E-01
       -1   -1    0    0    0  501  0.00000000000E+00  0.00000000000E+00  0.11286005037E+04  0.11286005037E+04  0.50400001928E-02 0. -1.
        1   -1    0    0  501    0  0.00000000000E+00  0.00000000000E+00 -0.31849153000E+04  0.31849153000E+04  0.50400001928E-02 0.  1.
    10030    2    1    2    0    0  0.00000000000E+00  0.00000000000E+00 -0.20563147963E+04  0.43135158037E+04  0.37918317535E+04 0.  0.
        2    1    3    3  502    0  0.10242294365E+03  0.83988208925E+03 -0.29582286592E+04  0.30768505299E+04  0.25500000920E-02 0.  1.
       -2    1    3    3    0  502 -0.10242294365E+03 -0.83988208925E+03  0.90191386290E+03  0.12366652738E+04  0.25500000920E-02 0. -1.
</event>
<event>
 5   0  0.6725199E-08  0.3800208E+04  0.7818609E-02  0.8046110E-01
        1   -1    0    0  501    0  0.00000000000E+00  0.00000000000E+00  0.21990677526E+04  0.21990677526E+04  0.50400001928E-02 0.  1.
       -1   -1    0    0    0  501  0.00000000000E+00  0.00000000000E+00 -0.16417845230E+04  0.16417845230E+04  0.50400001928E-02 0. -1.
    10030    2    1    2    0    0  0.00000000000E+00  0.00000000000E+00  0.55728322958E+03  0.38408522757E+04  0.38002081003E+04 0.  0.
        5    1    3    3  502    0  0.10741351772E+04  0.69759872955E+03  0.16972066566E+04  0.21262509004E+04  0.46999998093E+01 0.  1.
       -5    1    3    3    0  502 -0.10741351772E+04 -0.69759872955E+03 -0.11399234271E+04  0.17146013752E+04  0.46999998093E+01 0. -1.
</event>
<event>
 5   0  0.2205204E-07  0.3792007E+04  0.7818609E-02  0.8047872E-01
       -2   -1    0    0    0  501  0.00000000000E+00  0.00000000000E+00  0.15616130363E+04  0.15616130363E+04  0.25500000920E-02 0. -1.
        2   -1    0    0  501    0  0.00000000000E+00  0.00000000000E+00 -0.23019976220E+04  0.23019976220E+04  0.25500000920E-02 0.  1.
    10030    2    1    2    0    0  0.00000000000E+00  0.00000000000E+00 -0.74038458569E+03  0.38636106582E+04  0.37920071181E+04 0.  0.
        2    1    3    3  502    0 -0.20322298512E+03 -0.12650021873E+04  0.10538032099E+04  0.16589247483E+04  0.25500000920E-02 0. -1.
       -2    1    3    3    0  502  0.20322298512E+03  0.12650021873E+04 -0.17941877956E+04  0.22046859099E+04  0.25500000920E-02 0.  1.
</event>
<event>
 5   0  0.6661000E-08  0.3795228E+04  0.7818609E-02  0.8047180E-01
       -1   -1    0    0    0  501  0.00000000000E+00  0.00000000000E+00  0.15248931263E+04  0.15248931263E+04  0.50400001928E-02 0. -1.
        1   -1    0    0  501    0  0.00000000000E+00  0.00000000000E+00 -0.23614372931E+04  0.23614372931E+04  0.50400001928E-02 0.  1.
    10030    2    1    2    0    0  0.00000000000E+00  0.00000000000E+00 -0.83654416682E+03  0.38863304194E+04  0.37952283180E+04 0.  0.
        4    1    3    3  502    0 -0.17905168114E+04 -0.57132274490E+03 -0.15011242771E+03  0.18854430473E+04  0.12699999809E+01 0. -1.
       -4    1    3    3    0  502  0.17905168114E+04  0.57132274490E+03 -0.68643173911E+03  0.20008873721E+04  0.12699999809E+01 0.  1.
</event>
<event>
 5   0  0.6661000E-08  0.3792941E+04  0.7818609E-02  0.8047671E-01
       -1   -1    0    0    0  501  0.00000000000E+00  0.00000000000E+00  0.16251724977E+04  0.16251724977E+04  0.50400001928E-02 0.  1.
        1   -1    0    0  501    0  0.00000000000E+00  0.00000000000E+00 -0.22130572830E+04  0.22130572830E+04  0.50400001928E-02 0. -1.
    10030    2    1    2    0    0  0.00000000000E+00  0.00000000000E+00 -0.58788478530E+03  0.38382297808E+04  0.37929407231E+04 0.  0.
        4    1    3    3  502    0 -0.14091260044E+03 -0.31275969560E+03  0.15935157879E+04  0.16300212168E+04  0.12699999809E+01 0.  1.
       -4    1    3    3    0  502  0.14091260044E+03  0.31275969560E+03 -0.21814005732E+04  0.22082085639E+04  0.12699999809E+01 0. -1.
</event>
<event>
 5   0  0.6661000E-08  0.3792205E+04  0.7818609E-02  0.8047830E-01
        1   -1    0    0  501    0  0.00000000000E+00  0.00000000000E+00  0.17236252991E+04  0.17236252991E+04  0.50400001928E-02 0. -1.
       -1   -1    0    0    0  501  0.00000000000E+00  0.00000000000E+00 -0.20858386098E+04  0.20858386098E+04  0.50400001928E-02 0.  1.
    10030    2    1    2    0    0  0.00000000000E+00  0.00000000000E+00 -0.36221331073E+03  0.38094639089E+04  0.37922047401E+04 0.  0.
        1    1    3    3  502    0  0.25772621935E+03  0.16423080888E+04 -0.10971811090E+04  0.19918345937E+04  0.50400001928E-02 0.  1.
       -1    1    3    3    0  502 -0.25772621935E+03 -0.16423080888E+04  0.73496779827E+03  0.18176293152E+04  0.50400001928E-02 0. -1.
</event>
<event>
 5   0  0.6661000E-08  0.3357614E+04  0.7818609E-02  0.8148388E-01
        3   -1    0    0  501    0  0.00000000000E+00  0.00000000000E+00  0.23143548487E+04  0.23143548509E+04  0.10100000352E+00 0.  1.
       -3   -1    0    0    0  501  0.00000000000E+00  0.00000000000E+00 -0.12177874386E+04  0.12177874427E+04  0.10100000352E+00 0. -1.
    10030    2    1    2    0    0  0.00000000000E+00  0.00000000000E+00  0.10965674101E+04  0.35321422936E+04  0.33576136016E+04 0.  0.
        3    1    3    3  502    0  0.60435947964E+03  0.12344505460E+03  0.21908227588E+04  0.22760038297E+04  0.10100000352E+00 0.  1.
       -3    1    3    3    0  502 -0.60435947964E+03 -0.12344505460E+03 -0.10942553487E+04  0.12561384639E+04  0.10100000352E+00 0. -1.
</event>
<event>
 5   0  0.2135314E-07  0.3554596E+04  0.7818609E-02  0.8100972E-01
        2   -1    0    0  501    0  0.00000000000E+00  0.00000000000E+00  0.23764318464E+04  0.23764318464E+04  0.25500000920E-02 0. -1.
       -2   -1    0    0    0  501  0.00000000000E+00  0.00000000000E+00 -0.13292147314E+04  0.13292147314E+04  0.25500000920E-02 0.  1.
    10030    2    1    2    0    0  0.00000000000E+00  0.00000000000E+00  0.10472171149E+04  0.37056465778E+04  0.35545960212E+04 0.  0.
        4    1    3    3  502    0 -0.12574502789E+04  0.11553257996E+04  0.98928347882E+01  0.17076470327E+04  0.12699999809E+01 0. -1.
       -4    1    3    3    0  502  0.12574502789E+04 -0.11553257996E+04  0.10373242801E+04  0.19979995451E+04  0.12699999809E+01 0.  1.
</event>
<event>
 5   0  0.6661000E-08  0.3768550E+04  0.7818609E-02  0.8052938E-01
       -1   -1    0    0    0  501  0.00000000000E+00  0.00000000000E+00  0.19364092052E+04  0.19364092053E+04  0.50400001928E-02 0.  1.
        1   -1    0    0  501    0  0.00000000000E+00  0.00000000000E+00 -0.18335446312E+04  0.18335446312E+04  0.50400001928E-02 0. -1.
    10030    2    1    2    0    0  0.00000000000E+00  0.00000000000E+00  0.10286457407E+03  0.37699538364E+04  0.37685502263E+04 0.  0.
        1    1    3    3  502    0 -0.14023449324E+04  0.32270827780E+03 -0.11654831844E+04  0.18517729329E+04  0.50400001928E-02 0. -1.
       -1    1    3    3    0  502  0.14023449324E+04 -0.32270827780E+03  0.12683477585E+04  0.19181809035E+04  0.50400001928E-02 0.  1.
</event>
<event>
 5   0  0.2135314E-07  0.3755453E+04  0.7818609E-02  0.8055783E-01
        2   -1    0    0  501    0  0.00000000000E+00  0.00000000000E+00  0.28343538456E+04  0.28343538456E+04  0.25500000920E-02 0. -1.
       -2   -1    0    0    0  501  0.00000000000E+00  0.00000000000E+00 -0.12439720384E+04  0.12439720384E+04  0.25500000920E-02 0.  1.
    10030    2    1    2    0    0  0.00000000000E+00  0.00000000000E+00  0.15903818072E+04  0.40783258840E+04  0.37554530650E+04 0.  0.
        4    1    3    3  502    0  0.61157425618E+03  0.10894279952E+04 -0.72710308244E+03  0.14455299834E+04  0.12699999809E+01 0.  1.
       -4    1    3    3    0  502 -0.61157425618E+03 -0.10894279952E+04  0.23174848896E+04  0.26327959006E+04  0.12699999809E+01 0. -1.
</event>
<event>
 5   0  0.2203998E-07  0.3733003E+04  0.7818609E-02  0.8060687E-01
        2   -1    0    0  501    0  0.00000000000E+00  0.00000000000E+00  0.22337745828E+04  0.22337745828E+04  0.25500000920E-02 0. -1.
       -2   -1    0    0    0  501  0.00000000000E+00  0.00000000000E+00 -0.15596143922E+04  0.15596143922E+04  0.25500000920E-02 0.  1.
    10030    2    1    2    0    0  0.00000000000E+00  0.00000000000E+00  0.67416019062E+03  0.37933889750E+04  0.37330025386E+04 0.  0.
        3    1    3    3  502    0  0.37283815005E+03  0.18167386824E+04  0.55091038743E+03  0.19346963564E+04  0.10100000352E+00 0. -1.
       -3    1    3    3    0  502 -0.37283815005E+03 -0.18167386824E+04  0.12324980319E+03  0.18586926186E+04  0.10100000352E+00 0.  1.
</event>
<event>
 5   0  0.2081337E-07  0.3826774E+04  0.7818609E-02  0.8040434E-01
        2   -1    0    0  501    0  0.00000000000E+00  0.00000000000E+00  0.16580630922E+04  0.16580630922E+04  0.25500000920E-02 0.  1.
       -2   -1    0    0    0  501  0.00000000000E+00  0.00000000000E+00 -0.22080279122E+04  0.22080279122E+04  0.25500000920E-02 0. -1.
    10030    2    1    2    0    0  0.00000000000E+00  0.00000000000E+00 -0.54996481998E+03  0.38660910043E+04  0.38267738829E+04 0.  0.
        1    1    3    3  502    0  0.45506651433E+03  0.11181899695E+04 -0.17746919556E+04  0.21463843732E+04  0.50400001928E-02 0.  1.
       -1    1    3    3    0  502 -0.45506651433E+03 -0.11181899695E+04  0.12247271356E+04  0.17197066311E+04  0.50400001928E-02 0. -1.
</event>
<event>
 5   0  0.2135314E-07  0.3797167E+04  0.7818609E-02  0.8046763E-01
       -2   -1    0    0    0  501  0.00000000000E+00  0.00000000000E+00  0.21921925321E+04  0.21921925321E+04  0.25500000920E-02 0. -1.
        2   -1    0    0  501    0  0.00000000000E+00  0.00000000000E+00 -0.16442983998E+04  0.16442983998E+04  0.25500000920E-02 0.  1.
    10030    2    1    2    0    0  0.00000000000E+00  0.00000000000E+00  0.54789413230E+03  0.38364909320E+04  0.37971666662E+04 0.  0.
        4    1    3    3  502    0  0.37893242085E+03 -0.13029093462E+04 -0.10677567270E+04  0.17266350468E+04  0.12699999809E+01 0.  1.
       -4    1    3    3    0  502 -0.37893242085E+03  0.13029093462E+04  0.16156508593E+04  0.21098558851E+04  0.12699999809E+01 0. -1.
</event>
<event>
 5   0  0.6661000E-08  0.3760224E+04  0.7818609E-02  0.8054745E-01
       -1   -1    0    0    0  501  0.00000000000E+00  0.00000000000E+00  0.17411907192E+04  0.17411907193E+04  0.50400001928E-02 0. -1.
        1   -1    0    0  501    0  0.00000000000E+00  0.00000000000E+00 -0.20301173473E+04  0.20301173473E+04  0.50400001928E-02 0.  1.
    10030    2    1    2    0    0  0.00000000000E+00  0.00000000000E+00 -0.28892662805E+03  0.37713080666E+04  0.37602241870E+04 0.  0.
        1    1    3    3  502    0 -0.11876126761E+04  0.82915346511E+03  0.10577786095E+04  0.17935481382E+04  0.50400001928E-02 0. -1.
       -1    1    3    3    0  502  0.11876126761E+04 -0.82915346511E+03 -0.13467052376E+04  0.19777599284E+04  0.50400001928E-02 0.  1.
</event>
<event>
 5   0  0.2203998E-07  0.3824322E+04  0.7818609E-02  0.8040956E-01
       -2   -1    0    0    0  501  0.00000000000E+00  0.00000000000E+00  0.17276229209E+04  0.17276229209E+04  0.25500000920E-02 0. -1.
        2   -1    0    0  501    0  0.00000000000E+00  0.00000000000E+00 -0.21164103748E+04  0.21164103748E+04  0.25500000920E-02 0.  1.
    10030    2    1    2    0    0  0.00000000000E+00  0.00000000000E+00 -0.38878745388E+03  0.38440332957E+04  0.38243216777E+04 0.  0.
        3    1    3    3  502    0  0.10666325299E+03  0.10052240521E+04  0.14370885957E+04  0.17570077082E+04  0.10100000352E+00 0. -1.
       -3    1    3    3    0  502 -0.10666325299E+03 -0.10052240521E+04 -0.18258760496E+04  0.20870255875E+04  0.10100000352E+00 0.  1.
</event>
<event>
 5   0  0.6661000E-08  0.3794545E+04  0.7818609E-02  0.8047326E-01
       -1   -1    0    0    0  501  0.00000000000E+00  0.00000000000E+00  0.29242036418E+04  0.29242036418E+04  0.50400001928E-02 0. -1.
        1   -1    0    0  501    0  0.00000000000E+00  0.00000000000E+00 -0.12309825775E+04  0.12309825775E+04  0.50400001928E-02 0.  1.
    10030    2    1    2    0    0  0.00000000000E+00  0.00000000000E+00  0.16932210643E+04  0.41551862194E+04  0.37945454201E+04 0.  0.
        1    1    3    3  502    0  0.78116212513E+03  0.16631902241E+04  0.13639848016E+04  0.22884209679E+04  0.50400001928E-02 0. -1.
       -1    1    3    3    0  502 -0.78116212513E+03 -0.16631902241E+04  0.32923626270E+03  0.18667652514E+04  0.50400001928E-02 0.  1.
</event>
<event>
 5   0  0.2135314E-07  0.3777025E+04  0.7818609E-02  0.8051103E-01
        2   -1    0    0  501    0  0.00000000000E+00  0.00000000000E+00  0.28407064604E+04  0.28407064604E+04  0.25500000920E-02 0.  1.
       -2   -1    0    0    0  501  0.00000000000E+00  0.00000000000E+00 -0.12554904987E+04  0.12554904987E+04  0.25500000920E-02 0. -1.
    10030    2    1    2    0    0  0.00000000000E+00  0.00000000000E+00  0.15852159617E+04  0.40961969591E+04  0.37770252690E+04 0.  0.
        4    1    3    3  502    0 -0.56771897059E+03 -0.12631151766E+04  0.21851347350E+04  0.25870021651E+04  0.12699999809E+01 0.  1.
       -4    1    3    3    0  502  0.56771897059E+03  0.12631151766E+04 -0.59991877329E+03  0.15091947941E+04  0.12699999809E+01 0. -1.
</event>
<event>
 5   0  0.2205204E-07  0.3796646E+04  0.7818609E-02  0.8046875E-01
       -2   -1    0    0    0  501  0.00000000000E+00  0.00000000000E+00  0.12884853444E+04  0.12884853444E+04  0.25500000920E-02 0.  1.
        2   -1    0    0  501    0  0.00000000000E+00  0.00000000000E+00 -0.27967949505E+04  0.27967949505E+04  0.25500000920E-02 0. -1.
    10030    2    1    2    0    0  0.00000000000E+00  0.00000000000E+00 -0.15083096060E+04  0.40852802949E+04  0.37966455221E+04 0.  0.
        2    1    3    3  502    0  0.57065897913E+03  0.16273645400E+03 -0.26944299427E+04  0.27590011852E+04  0.25500000920E-02 0. -1.
       -2    1    3    3    0  502 -0.57065897913E+03 -0.16273645400E+03  0.11861203366E+04  0.13262791097E+04  0.25500000920E-02 0.  1.
</event>
<event>
 5   0  0.2081337E-07  0.3826205E+04  0.7818609E-02  0.8040555E-01
       -2   -1    0    0    0  501  0.00000000000E+00  0.00000000000E+00  0.18070576639E+04  0.18070576639E+04  0.25500000920E-02 0. -1.
        2   -1    0    0  501    0  0.00000000000E+00  0.00000000000E+00 -0.20253706529E+04  0.20253706529E+04  0.25500000920E-02 0.  1.
    10030    2    1    2    0    0  0.00000000000E+00  0.00000000000E+00 -0.21831298899E+03  0.38324283168E+04  0.38262052013E+04 0.  0.
        1    1    3    3  502    0 -0.44264709398E+03 -0.11944054560E+04  0.13205475364E+04  0.18347715496E+04  0.50400001928E-02 0. -1.
       -1    1    3    3    0  502  0.44264709398E+03  0.11944054560E+04 -0.15388605254E+04  0.19976567673E+04  0.50400001928E-02 0.  1.
</event>
<event>
 5   0  0.2203998E-07  0.3801059E+04  0.7818609E-02  0.8045928E-01
       -2   -1    0    0    0  501  0.00000000000E+00  0.00000000000E+00  0.23662167205E+04  0.23662167205E+04  0.25500000920E-02 0. -1.
        2   -1    0    0  501    0  0.00000000000E+00  0.00000000000E+00 -0.15264925370E+04  0.15264925370E+04  0.25500000920E-02 0.  1.
    10030    2    1    2    0    0  0.00000000000E+00  0.00000000000E+00  0.83972418354E+03  0.38927092576E+04  0.38010588866E+04 0.  0.
        3    1    3    3  502    0 -0.15166068795E+04  0.36397444263E+03 -0.69234328283E+03  0.17064328447E+04  0.10100000352E+00 0.  1.
       -3    1    3    3    0  502  0.15166068795E+04 -0.36397444263E+03  0.15320674664E+04  0.21862764129E+04  0.10100000352E+00 0. -1.
</event>
<event>
 5   0  0.6661000E-08  0.3729284E+04  0.7818609E-02  0.8061503E-01
        3   -1    0    0  501    0  0.00000000000E+00  0.00000000000E+00  0.29465884698E+04  0.29465884715E+04  0.10100000352E+00 0.  1.
       -3   -1    0    0    0  501  0.00000000000E+00  0.00000000000E+00 -0.11799711867E+04  0.11799711910E+04  0.10100000352E+00 0. -1.
    10030    2    1    2    0    0  0.00000000000E+00  0.00000000000E+00  0.17666172831E+04  0.41265596625E+04  0.37292838486E+04 0.  0.
        3    1    3    3  502    0  0.99095374625E+03  0.45208295758E+03 -0.79136368262E+03  0.13463375565E+04  0.10100000352E+00 0. -1.
       -3    1    3    3    0  502 -0.99095374625E+03 -0.45208295758E+03  0.25579809657E+04  0.27802221060E+04  0.10100000352E+00 0.  1.
</event>
<event>
 5   0  0.2205204E-07  0.3714944E+04  0.7818609E-02  0.8064658E-01
        2   -1    0    0  501    0  0.00000000000E+00  0.00000000000E+00  0.12989460784E+04  0.12989460784E+04  0.25500000920E-02 0.  1.
       -2   -1    0    0    0  501  0.00000000000E+00  0.00000000000E+00 -0.26561545643E+04  0.26561545643E+04  0.25500000920E-02 0. -1.
    10030    2    1    2    0    0  0.00000000000E+00  0.00000000000E+00 -0.13572084859E+04  0.39551006426E+04  0.37149436361E+04 0.  0.
        2    1    3    3  502    0 -0.10631682469E+04  0.82479119657E+03 -0.20418479834E+04  0.24453528225E+04  0.25500000920E-02 0. -1.
       -2    1    3    3    0  502  0.10631682469E+04 -0.82479119657E+03  0.68463949745E+03  0.15097478202E+04  0.25500000920E-02 0.  1.
</event>
<event>
 5   0  0.6661000E-08  0.3795969E+04  0.7818609E-02  0.8047020E-01
        1   -1    0    0  501    0  0.00000000000E+00  0.00000000000E+00  0.15798462669E+04  0.15798462669E+04  0.50400001928E-02 0. -1.
       -1   -1    0    0    0  501  0.00000000000E+00  0.00000000000E+00 -0.22801872321E+04  0.22801872321E+04  0.50400001928E-02 0.  1.
    10030    2    1    2    0    0  0.00000000000E+00  0.00000000000E+00 -0.70034096519E+03  0.38600334991E+04  0.37959690655E+04 0.  0.
        2    1    3    3  502    0 -0.29970895186E+03  0.12627313623E+04  0.10581322824E+04  0.16745028743E+04  0.25500000920E-02 0. -1.
       -2    1    3    3    0  502  0.29970895186E+03 -0.12627313623E+04 -0.17584732476E+04  0.21855306247E+04  0.25500000920E-02 0.  1.
</event>
<event>
 5   0  0.6661000E-08  0.3830618E+04  0.7818609E-02  0.8039616E-01
       -1   -1    0    0    0  501  0.00000000000E+00  0.00000000000E+00  0.18486793631E+04  0.18486793631E+04  0.50400001928E-02 0.  1.
        1   -1    0    0  501    0  0.00000000000E+00  0.00000000000E+00 -0.19843404393E+04  0.19843404393E+04  0.50400001928E-02 0. -1.
    10030    2    1    2    0    0  0.00000000000E+00  0.00000000000E+00 -0.13566107619E+03  0.38330198025E+04  0.38306183415E+04 0.  0.
        2    1    3    3  502    0  0.80303348935E+03  0.17273442874E+04 -0.26752555723E+03  0.19235776553E+04  0.25500000920E-02 0.  1.
       -2    1    3    3    0  502 -0.80303348935E+03 -0.17273442874E+04  0.13186448104E+03  0.19094421472E+04  0.25500000920E-02 0. -1.
</event>
<event>
 5   0  0.6661000E-08  0.3777117E+04  0.7818609E-02  0.8051083E-01
        1   -1    0    0  501    0  0.00000000000E+00  0.00000000000E+00  0.16887404512E+04  0.16887404512E+04  0.50400001928E-02 0. -1.
       -1   -1    0    0    0  501  0.00000000000E+00  0.00000000000E+00 -0.21120193787E+04  0.21120193787E+04  0.50400001928E-02 0.  1.
    10030    2    1    2    0    0  0.00000000000E+00  0.00000000000E+00 -0.42327892750E+03  0.38007598299E+04  0.37771166561E+04 0.  0.
        4    1    3    3  502    0  0.13841423234E+03 -0.14896761683E+04  0.94811884419E+03  0.17712212007E+04  0.12699999809E+01 0. -1.
       -4    1    3    3    0  502 -0.13841423234E+03  0.14896761683E+04 -0.13713977717E+04  0.20295386292E+04  0.12699999809E+01 0.  1.
</event>
<event>
 5   0  0.6725199E-08  0.3805603E+04  0.7818609E-02  0.8044954E-01
       -1   -1    0    0    0  501  0.00000000000E+00  0.00000000000E+00  0.28100552852E+04  0.28100552852E+04  0.50400001928E-02 0. -1.
        1   -1    0    0  501    0  0.00000000000E+00  0.00000000000E+00 -0.12884633300E+04  0.12884633300E+04  0.50400001928E-02 0.  1.
    10030    2    1    2    0    0  0.00000000000E+00  0.00000000000E+00  0.15215919552E+04  0.40985186152E+04  0.38056028118E+04 0.  0.
        5    1    3    3  502    0  0.32655416625E+03 -0.17961817252E+04  0.18310974770E+03  0.18347909100E+04  0.46999998093E+01 0. -1.
       -5    1    3    3    0  502 -0.32655416625E+03  0.17961817252E+04  0.13384822075E+04  0.22637277052E+04  0.46999998093E+01 0.  1.
</event>
<event>
 5   0  0.6725199E-08  0.3830610E+04  0.7818609E-02  0.8039618E-01
       -1   -1    0    0    0  501  0.00000000000E+00  0.00000000000E+00  0.16337078292E+04  0.16337078292E+04  0.50400001928E-02 0. -1.
        1   -1    0    0  501    0  0.00000000000E+00  0.00000000000E+00 -0.22454407740E+04  0.22454407740E+04  0.50400001928E-02 0.  1.
    10030    2    1    2    0    0  0.00000000000E+00  0.00000000000E+00 -0.61173294479E+03  0.38791486032E+04  0.38306104853E+04 0.  0.
        5    1    3    3  502    0 -0.69029763404E+03  0.35497772508E+02  0.15029923971E+04  0.16543213567E+04  0.46999998093E+01 0. -1.
       -5    1    3    3    0  502  0.69029763404E+03 -0.35497772508E+02 -0.21147253419E+04  0.22248272466E+04  0.46999998093E+01 0.  1.
</event>
<event>
 5   0  0.2203998E-07  0.3807327E+04  0.7818609E-02  0.8044584E-01
        2   -1    0    0  501    0  0.00000000000E+00  0.00000000000E+00  0.21629160723E+04  0.21629160723E+04  0.25500000920E-02 0. -1.
       -2   -1    0    0    0  501  0.00000000000E+00  0.00000000000E+00 -0.16754859436E+04  0.16754859436E+04  0.25500000920E-02 0.  1.
    10030    2    1    2    0    0  0.00000000000E+00  0.00000000000E+00  0.48743012869E+03  0.38384020158E+04  0.38073273966E+04 0.  0.
        3    1    3    3  502    0 -0.84933413250E+03  0.14570159991E+04  0.11339118666E+04  0.20322451185E+04  0.10100000352E+00 0. -1.
       -3    1    3    3    0  502  0.84933413250E+03 -0.14570159991E+04 -0.64648173795E+03  0.18061568974E+04  0.10100000352E+00 0.  1.
</event>
<event>
 5   0  0.2203998E-07  0.3763757E+04  0.7818609E-02  0.8053978E-01
        2   -1    0    0  501    0  0.00000000000E+00  0.00000000000E+00  0.21641451397E+04  0.21641451397E+04  0.25500000920E-02 0.  1.
       -2   -1    0    0    0  501  0.00000000000E+00  0.00000000000E+00 -0.16364272112E+04  0.16364272112E+04  0.25500000920E-02 0. -1.
    10030    2    1    2    0    0  0.00000000000E+00  0.00000000000E+00  0.52771792853E+03  0.38005723509E+04  0.37637566317E+04 0.  0.
        3    1    3    3  502    0  0.96878092224E+03  0.26835476262E+03 -0.13425875500E+04  0.16772275020E+04  0.10100000352E+00 0. -1.
       -3    1    3    3    0  502 -0.96878092224E+03 -0.26835476262E+03  0.18703054785E+04  0.21233448489E+04  0.10100000352E+00 0.  1.
</event>
<event>
 5   0  0.6725199E-08  0.3823545E+04  0.7818609E-02  0.8041121E-01
       -1   -1    0    0    0  501  0.00000000000E+00  0.00000000000E+00  0.21111804017E+04  0.21111804017E+04  0.50400001928E-02 0. -1.
        1   -1    0    0  501    0  0.00000000000E+00  0.00000000000E+00 -0.17311989865E+04  0.17311989865E+04  0.50400001928E-02 0.  1.
    10030    2    1    2    0    0  0.00000000000E+00  0.00000000000E+00  0.37998141521E+03  0.38423793882E+04  0.38235446233E+04 0.  0.
        5    1    3    3  502    0  0.87545343442E+03  0.96958792741E+03  0.15926931147E+04  0.20599060445E+04  0.46999998093E+01 0. -1.
       -5    1    3    3    0  502 -0.87545343442E+03 -0.96958792741E+03 -0.12127116994E+04  0.17824733436E+04  0.46999998093E+01 0.  1.
</event>
<event>
 5   0  0.2081337E-07  0.3790499E+04  0.7818609E-02  0.8048197E-01
        2   -1    0    0  501    0  0.00000000000E+00  0.00000000000E+00  0.96596676331E+03  0.96596676331E+03  0.25500000920E-02 0. -1.
       -2   -1    0    0    0  501  0.00000000000E+00  0.00000000000E+00 -0.37185240666E+04  0.37185240666E+04  0.25500000920E-02 0.  1.
    10030    2    1    2    0    0  0.00000000000E+00  0.00000000000E+00 -0.27525573033E+04  0.46844908299E+04  0.37904989946E+04 0.  0.
        1    1    3    3  502    0 -0.87902411290E+03 -0.10646822376E+04  0.22830060836E+03  0.13994115999E+04  0.50400001928E-02 0. -1.
       -1    1    3    3    0  502  0.87902411290E+03  0.10646822376E+04 -0.29808579117E+04  0.32850792301E+04  0.50400001928E-02 0.  1.
</event>
<event>
 5   0  0.6661000E-08  0.3788021E+04  0.7818609E-02  0.8048730E-01
       -1   -1    0    0    0  501  0.00000000000E+00  0.00000000000E+00  0.16461158042E+04  0.16461158043E+04  0.50400001928E-02 0. -1.
        1   -1    0    0  501    0  0.00000000000E+00  0.00000000000E+00 -0.21792366597E+04  0.21792366597E+04  0.50400001928E-02 0.  1.
    10030    2    1    2    0    0  0.00000000000E+00  0.00000000000E+00 -0.53312085543E+03  0.38253524639E+04  0.37880210700E+04 0.  0.
        2    1    3    3  502    0 -0.72247683456E+03  0.88096374299E+03 -0.17944835734E+04  0.21256154845E+04  0.25500000920E-02 0.  1.
       -2    1    3    3    0  502  0.72247683456E+03 -0.88096374299E+03  0.12613627179E+04  0.16997369794E+04  0.25500000920E-02 0. -1.
</event>
<event>
 5   0  0.2203998E-07  0.3800048E+04  0.7818609E-02  0.8046145E-01
       -2   -1    0    0    0  501  0.00000000000E+00  0.00000000000E+00  0.20301646315E+04  0.20301646315E+04  0.25500000920E-02 0.  1.
        2   -1    0    0  501    0  0.00000000000E+00  0.00000000000E+00 -0.17782259965E+04  0.17782259965E+04  0.25500000920E-02 0. -1.
    10030    2    1    2    0    0  0.00000000000E+00  0.00000000000E+00  0.25193863500E+03  0.38083906280E+04  0.38000481707E+04 0.  0.
        3    1    3    3  502    0  0.68131650553E+03 -0.27085210173E+03 -0.16307446350E+04  0.17879824150E+04  0.10100000352E+00 0. -1.
       -3    1    3    3    0  502 -0.68131650553E+03  0.27085210173E+03  0.18826832700E+04  0.20204082130E+04  0.10100000352E+00 0.  1.
</event>
<event>
 5   0  0.2135314E-07  0.3789354E+04  0.7818609E-02  0.8048443E-01
       -2   -1    0    0    0  501  0.00000000000E+00  0.00000000000E+00  0.18921795861E+04  0.18921795861E+04  0.25500000920E-02 0.  1.
        2   -1    0    0  501    0  0.00000000000E+00  0.00000000000E+00 -0.18971780582E+04  0.18971780582E+04  0.25500000920E-02 0. -1.
    10030    2    1    2    0    0  0.00000000000E+00  0.00000000000E+00 -0.49984720830E+01  0.37893576444E+04  0.37893543477E+04 0.  0.
        4    1    3    3  502    0 -0.16962108912E+04  0.48692522654E+03 -0.69211742313E+03  0.18955884849E+04  0.12699999809E+01 0. -1.
       -4    1    3    3    0  502  0.16962108912E+04 -0.48692522654E+03  0.68711895104E+03  0.18937691595E+04  0.12699999809E+01 0.  1.
</event>
<event>
 5   0  0.1370688E-07  0.3658297E+04  0.7818609E-02  0.8077267E-01
        2   -1    0    0  501    0  0.00000000000E+00  0.00000000000E+00  0.19831881448E+04  0.19831881448E+04  0.25500000920E-02 0.  1.
       -2   -1    0    0    0  501  0.00000000000E+00  0.00000000000E+00 -0.16870731928E+04  0.16870731928E+04  0.25500000920E-02 0. -1.
    10030    2    1    2    0    0  0.00000000000E+00  0.00000000000E+00  0.29611495204E+03  0.36702613376E+04  0.36582966285E+04 0.  0.
        5    1    3    3  502    0  0.26344216521E+03  0.16326088190E+04 -0.63613061716E+03  0.17718627437E+04  0.46999998093E+01 0. -1.
       -5    1    3    3    0  502 -0.26344216521E+03 -0.16326088190E+04  0.93224556920E+03  0.18983985940E+04  0.46999998093E+01 0.  1.
</event>
<event>
 5   0  0.6661000E-08  0.3820326E+04  0.7818609E-02  0.8041807E-01
        1   -1    0    0  501    0  0.00000000000E+00  0.00000000000E+00  0.20269467292E+04  0.20269467292E+04  0.50400001928E-02 0. -1.
       -1   -1    0    0    0  501  0.00000000000E+00  0.00000000000E+00 -0.18001077923E+04  0.18001077923E+04  0.50400001928E-02 0.  1.
    10030    2    1    2    0    0  0.00000000000E+00  0.00000000000E+00  0.22683893689E+03  0.38270545215E+04  0.38203259557E+04 0.  0.
        1    1    3    3  502    0 -0.75104313586E+03 -0.90826642353E+03  0.16192998648E+04  0.20027844967E+04  0.50400001928E-02 0. -1.
       -1    1    3    3    0  502  0.75104313586E+03  0.90826642353E+03 -0.13924609279E+04  0.18242700249E+04  0.50400001928E-02 0.  1.
</event>
<event>
 5   0  0.6661000E-08  0.3774762E+04  0.7818609E-02  0.8051593E-01
       -1   -1    0    0    0  501  0.00000000000E+00  0.00000000000E+00  0.16048131254E+04  0.16048131254E+04  0.50400001928E-02 0.  1.
        1   -1    0    0  501    0  0.00000000000E+00  0.00000000000E+00 -0.22197024244E+04  0.22197024244E+04  0.50400001928E-02 0. -1.
    10030    2    1    2    0    0  0.00000000000E+00  0.00000000000E+00 -0.61488929903E+03  0.38245155498E+04  0.37747622893E+04 0.  0.
        1    1    3    3  502    0  0.59570845864E+03 -0.82207050290E+03 -0.19194970089E+04  0.21714366780E+04  0.50400001928E-02 0. -1.
       -1    1    3    3    0  502 -0.59570845864E+03  0.82207050290E+03  0.13046077099E+04  0.16530788717E+04  0.50400001928E-02 0.  1.
</event>
<event>
 5   0  0.6661000E-08  0.3853235E+04  0.7818609E-02  0.8034826E-01
       -1   -1    0    0    0  501  0.00000000000E+00  0.00000000000E+00  0.22109921334E+04  0.22109921335E+04  0.50400001928E-02 0.  1.
        1   -1    0    0  501    0  0.00000000000E+00  0.00000000000E+00 -0.16788185297E+04  0.16788185297E+04  0.50400001928E-02 0. -1.
    10030    2    1    2    0    0  0.00000000000E+00  0.00000000000E+00  0.53217360379E+03  0.38898106631E+04  0.38532347775E+04 0.  0.
        4    1    3    3  502    0 -0.11684469264E+04 -0.17158098535E+02 -0.12802135918E+04  0.17333525532E+04  0.12699999809E+01 0. -1.
       -4    1    3    3    0  502  0.11684469264E+04  0.17158098535E+02  0.18123871956E+04  0.21564581099E+04  0.12699999809E+01 0.  1.
</event>
<event>
 5   0  0.6661000E-08  0.3720641E+04  0.7818609E-02  0.8063403E-01
        1   -1    0    0  501    0  0.00000000000E+00  0.00000000000E+00  0.15352919329E+04  0.15352919329E+04  0.50400001928E-02 0. -1.
       -1   -1    0    0    0  501  0.00000000000E+00  0.00000000000E+00 -0.22541585663E+04  0.22541585663E+04  0.50400001928E-02 0.  1.
    10030    2    1    2    0    0  0.00000000000E+00  0.00000000000E+00 -0.71886663340E+03  0.37894504993E+04  0.37206405161E+04 0.  0.
        3    1    3    3  502    0  0.12044731913E+04 -0.77130349207E+03  0.85215810819E+03  0.16648838389E+04  0.10100000352E+00 0. -1.
       -3    1    3    3    0  502 -0.12044731913E+04  0.77130349207E+03 -0.15710247416E+04  0.21245666604E+04  0.10100000352E+00 0.  1.
</event>
<event>
 5   0  0.2203998E-07  0.3588862E+04  0.7818609E-02  0.8093048E-01
       -2   -1    0    0    0  501  0.00000000000E+00  0.00000000000E+00  0.14739442515E+04  0.14739442515E+04  0.25500000920E-02 0. -1.
        2   -1    0    0  501    0  0.00000000000E+00  0.00000000000E+00 -0.21846023734E+04  0.21846023734E+04  0.25500000920E-02 0.  1.
    10030    2    1    2    0    0  0.00000000000E+00  0.00000000000E+00 -0.71065812187E+03  0.36585466249E+04  0.35888617193E+04 0.  0.
        3    1    3    3  502    0 -0.65426076585E+03  0.16689446542E+04 -0.43782434615E+03  0.18452976933E+04  0.10100000352E+00 0. -1.
       -3    1    3    3    0  502  0.65426076585E+03 -0.16689446542E+04 -0.27283377572E+03  0.18132489316E+04  0.10100000352E+00 0.  1.
</event>
<event>
 5   0  0.6661000E-08  0.3770140E+04  0.7818609E-02  0.8052593E-01
       -1   -1    0    0    0  501  0.00000000000E+00  0.00000000000E+00  0.14442626044E+04  0.14442626044E+04  0.50400001928E-02 0.  1.
        1   -1    0    0  501    0  0.00000000000E+00  0.00000000000E+00 -0.24604180022E+04  0.24604180022E+04  0.50400001928E-02 0. -1.
    10030    2    1    2    0    0  0.00000000000E+00  0.00000000000E+00 -0.10161553978E+04  0.39046806066E+04  0.37701404280E+04 0.  0.
        2    1    3    3  502    0 -0.18594462661E+04 -0.18062741193E+03 -0.76869836138E+03  0.20201643124E+04  0.25500000920E-02 0. -1.
       -2    1    3    3    0  502  0.18594462661E+04  0.18062741193E+03 -0.24745703646E+03  0.18845162942E+04  0.25500000920E-02 0.  1.
</event>
<event>
 5   0  0.6661000E-08  0.3799301E+04  0.7818609E-02  0.8046305E-01
        1   -1    0    0  501    0  0.00000000000E+00  0.00000000000E+00  0.20841480064E+04  0.20841480064E+04  0.50400001928E-02 0.  1.
       -1   -1    0    0    0  501  0.00000000000E+00  0.00000000000E+00 -0.17314858425E+04  0.17314858425E+04  0.50400001928E-02 0. -1.
    10030    2    1    2    0    0  0.00000000000E+00  0.00000000000E+00  0.35266216394E+03  0.38156338489E+04  0.37993013920E+04 0.  0.
        2    1    3    3  502    0  0.75670408152E+02 -0.40185921636E+03 -0.16867598502E+04  0.17356196682E+04  0.25500000920E-02 0. -1.
       -2    1    3    3    0  502 -0.75670408152E+02  0.40185921636E+03  0.20394220141E+04  0.20800141807E+04  0.25500000920E-02 0.  1.
</event>
<event>
 5   0  0.6661000E-08  0.3920932E+04  0.7818609E-02  0.8020690E-01
        1   -1    0    0  501    0  0.00000000000E+00  0.00000000000E+00  0.27784021435E+04  0.27784021435E+04  0.50400001928E-02 0.  1.
       -1   -1    0    0    0  501  0.00000000000E+00  0.00000000000E+00 -0.13833228186E+04  0.13833228186E+04  0.50400001928E-02 0. -1.
    10030    2    1    2    0    0  0.00000000000E+00  0.00000000000E+00  0.13950793249E+04  0.41617249621E+04  0.39209320751E+04 0.  0.
        3    1    3    3  502    0  0.17504103050E+04  0.71273244760E+03  0.14448047641E+03  0.18954678567E+04  0.10100000352E+00 0. -1.
       -3    1    3    3    0  502 -0.17504103050E+04 -0.71273244760E+03  0.12505988485E+04  0.22662571054E+04  0.10100000352E+00 0.  1.
</event>
<event>
 5   0  0.6661000E-08  0.3336301E+04  0.7818609E-02  0.8153719E-01
        1   -1    0    0  501    0  0.00000000000E+00  0.00000000000E+00  0.16782184354E+04  0.16782184354E+04  0.50400001928E-02 0.  1.
       -1   -1    0    0    0  501  0.00000000000E+00  0.00000000000E+00 -0.16581433820E+04  0.16581433821E+04  0.50400001928E-02 0. -1.
    10030    2    1    2    0    0  0.00000000000E+00  0.00000000000E+00  0.20075053305E+02  0.33363618174E+04  0.33363014206E+04 0.  0.
        4    1    3    3  502    0 -0.16257792866E+03 -0.16077885820E+04  0.42394050370E+03  0.16706713833E+04  0.12699999809E+01 0.  1.
       -4    1    3    3    0  502  0.16257792866E+03  0.16077885820E+04 -0.40386545040E+03  0.16656904341E+04  0.12699999809E+01 0. -1.
</event>
<event>
 5   0  0.2205204E-07  0.3798426E+04  0.7818609E-02  0.8046493E-01
        2   -1    0    0  501    0  0.00000000000E+00  0.00000000000E+00  0.18942398002E+04  0.18942398002E+04  0.25500000920E-02 0.  1.
       -2   -1    0    0    0  501  0.00000000000E+00  0.00000000000E+00 -0.19041989236E+04  0.19041989236E+04  0.25500000920E-02 0. -1.
    10030    2    1    2    0    0  0.00000000000E+00  0.00000000000E+00 -0.99591233320E+01  0.37984387238E+04  0.37984256679E+04 0.  0.
        2    1    3    3  502    0  0.93301734426E+03  0.86210809365E+03  0.14068530634E+04  0.18955176791E+04  0.25500000920E-02 0.  1.
       -2    1    3    3    0  502 -0.93301734426E+03 -0.86210809365E+03 -0.14168121867E+04  0.19029210447E+04  0.25500000920E-02 0. -1.
</event>
<event>
 5   0  0.1370688E-07  0.3816374E+04  0.7818609E-02  0.8042650E-01
        2   -1    0    0  501    0  0.00000000000E+00  0.00000000000E+00  0.13995353216E+04  0.13995353216E+04  0.25500000920E-02 0. -1.
       -2   -1    0    0    0  501  0.00000000000E+00  0.00000000000E+00 -0.26017045578E+04  0.26017045578E+04  0.25500000920E-02 0.  1.
    10030    2    1    2    0    0  0.00000000000E+00  0.00000000000E+00 -0.12021692362E+04  0.40012398794E+04  0.38163738942E+04 0.  0.
        5    1    3    3  502    0  0.10449833359E+04 -0.43132647921E+03  0.10106250160E+04  0.15163831036E+04  0.46999998093E+01 0. -1.
       -5    1    3    3    0  502 -0.10449833359E+04  0.43132647921E+03 -0.22127942522E+04  0.24848567758E+04  0.46999998093E+01 0.  1.
</event>
<event>
 5   0  0.2203998E-07  0.3800927E+04  0.7818609E-02  0.8045956E-01
        2   -1    0    0  501    0  0.00000000000E+00  0.00000000000E+00  0.16818453932E+04  0.16818453932E+04  0.25500000920E-02 0. -1.
       -2   -1    0    0    0  501  0.00000000000E+00  0.00000000000E+00 -0.21474987273E+04  0.21474987273E+04  0.25500000920E-02 0.  1.
    10030    2    1    2    0    0  0.00000000000E+00  0.00000000000E+00 -0.46565333404E+03  0.38293441205E+04  0.38009266456E+04 0.  0.
        3    1    3    3  502    0  0.25751684399E+03  0.17473697410E+04 -0.93960202524E+03  0.20006168831E+04  0.10100000352E+00 0.  1.
       -3    1    3    3    0  502 -0.25751684399E+03 -0.17473697410E+04  0.47394869120E+03  0.18287272374E+04  0.10100000352E+00 0. -1.
</event>
<event>
 5   0  0.1370688E-07  0.3854763E+04  0.7818609E-02  0.8034504E-01
       -2   -1    0    0    0  501  0.00000000000E+00  0.00000000000E+00  0.13994351785E+04  0.13994351785E+04  0.25500000920E-02 0. -1.
        2   -1    0    0  501    0  0.00000000000E+00  0.00000000000E+00 -0.26544987203E+04  0.26544987203E+04  0.25500000920E-02 0.  1.
    10030    2    1    2    0    0  0.00000000000E+00  0.00000000000E+00 -0.12550635419E+04  0.40539338988E+04  0.38547627114E+04 0.  0.
        5    1    3    3  502    0  0.91931846071E+03  0.75677262609E+03 -0.22214002214E+04  0.25204150994E+04  0.46999998093E+01 0.  1.
       -5    1    3    3    0  502 -0.91931846071E+03 -0.75677262609E+03  0.96633667952E+03  0.15335187994E+04  0.46999998093E+01 0. -1.
</event>
<event>
 5   0  0.6661000E-08  0.3791796E+04  0.7818609E-02  0.8047918E-01
        1   -1    0    0  501    0  0.00000000000E+00  0.00000000000E+00  0.23390616332E+04  0.23390616332E+04  0.50400001928E-02 0.  1.
       -1   -1    0    0    0  501  0.00000000000E+00  0.00000000000E+00 -0.15366974251E+04  0.15366974252E+04  0.50400001928E-02 0. -1.
    10030    2    1    2    0    0  0.00000000000E+00  0.00000000000E+00  0.80236420808E+03  0.38757590584E+04  0.37917964023E+04 0.  0.
        4    1    3    3  502    0  0.14396052858E+04  0.11716525052E+04  0.63708865062E+01  0.18561452456E+04  0.12699999809E+01 0.  1.
       -4    1    3    3    0  502 -0.14396052858E+04 -0.11716525052E+04  0.79599332157E+03  0.20196138128E+04  0.12699999809E+01 0. -1.
</event>
<event>
 5   0  0.6661000E-08  0.3797783E+04  0.7818609E-02  0.8046631E-01
       -1   -1    0    0    0  501  0.00000000000E+00  0.00000000000E+00  0.12674350122E+04  0.12674350123E+04  0.50400001928E-02 0. -1.
        1   -1    0    0  501    0  0.00000000000E+00  0.00000000000E+00 -0.28449495060E+04  0.28449495060E+04  0.50400001928E-02 0.  1.
    10030    2    1    2    0    0  0.00000000000E+00  0.00000000000E+00 -0.15775144938E+04  0.41123845183E+04  0.37977828332E+04 0.  0.
        3    1    3    3  502    0 -0.12107990931E+03  0.52529513347E+03  0.11828391471E+04  0.12998860642E+04  0.10100000352E+00 0. -1.
       -3    1    3    3    0  502  0.12107990931E+03 -0.52529513347E+03 -0.27603536409E+04  0.28124984541E+04  0.10100000352E+00 0.  1.
</event>
<event>
 5   0  0.6661000E-08  0.3807080E+04  0.7818609E-02  0.8044637E-01
        1   -1    0    0  501    0  0.00000000000E+00  0.00000000000E+00  0.12559453200E+04  0.12559453200E+04  0.50400001928E-02 0.  1.
       -1   -1    0    0    0  501  0.00000000000E+00  0.00000000000E+00 -0.28850501091E+04  0.28850501091E+04  0.50400001928E-02 0. -1.
    10030    2    1    2    0    0  0.00000000000E+00  0.00000000000E+00 -0.16291047891E+04  0.41409954291E+04  0.38070803420E+04 0.  0.
        3    1    3    3  502    0 -0.10033345935E+04 -0.12383478318E+04  0.31754287106E+03  0.16251212706E+04  0.10100000352E+00 0.  1.
       -3    1    3    3    0  502  0.10033345935E+04  0.12383478318E+04 -0.19466476601E+04  0.25158741586E+04  0.10100000352E+00 0. -1.
</event>
<event>
 5   0  0.6725199E-08  0.3802749E+04  0.7818609E-02  0.8045565E-01
        1   -1    0    0  501    0  0.00000000000E+00  0.00000000000E+00  0.25763507889E+04  0.25763507889E+04  0.50400001928E-02 0. -1.
       -1   -1    0    0    0  501  0.00000000000E+00  0.00000000000E+00 -0.14032349394E+04  0.14032349394E+04  0.50400001928E-02 0.  1.
    10030    2    1    2    0    0  0.00000000000E+00  0.00000000000E+00  0.11731158495E+04  0.39795857283E+04  0.38027492387E+04 0.  0.
        5    1    3    3  502    0 -0.18693056803E+04  0.33372240026E+03  0.68871384193E+03  0.20199067337E+04  0.46999998093E+01 0. -1.
       -5    1    3    3    0  502  0.18693056803E+04 -0.33372240026E+03  0.48440200754E+03  0.19596789946E+04  0.46999998093E+01 0.  1.
</event>
<event>
 5   0  0.2205204E-07  0.3807381E+04  0.7818609E-02  0.8044573E-01
       -2   -1    0    0    0  501  0.00000000000E+00  0.00000000000E+00  0.15961727723E+04  0.15961727723E+04  0.25500000920E-02 0. -1.
        2   -1    0    0  501    0  0.00000000000E+00  0.00000000000E+00 -0.22704539831E+04  0.22704539831E+04  0.25500000920E-02 0.  1.
    10030    2    1    2    0    0  0.00000000000E+00  0.00000000000E+00 -0.67428121083E+03  0.38666267554E+04  0.38073806369E+04 0.  0.
        2    1    3    3  502    0  0.16280552430E+04  0.53757804350E+03  0.50306819297E+03  0.17867936742E+04  0.25500000920E-02 0.  1.
       -2    1    3    3    0  502 -0.16280552430E+04 -0.53757804350E+03 -0.11773494038E+04  0.20798330813E+04  0.25500000920E-02 0. -1.
</event>
<event>
 5   0  0.2203998E-07  0.3798335E+04  0.7818609E-02  0.8046512E-01
       -2   -1    0    0    0  501  0.00000000000E+00  0.00000000000E+00  0.12976693446E+04  0.12976693446E+04  0.25500000920E-02 0.  1.
        2   -1    0    0  501    0  0.00000000000E+00  0.00000000000E+00 -0.27794738423E+04  0.27794738423E+04  0.25500000920E-02 0. -1.
    10030    2    1    2    0    0  0.00000000000E+00  0.00000000000E+00 -0.14818044977E+04  0.40771431870E+04  0.37983354246E+04 0.  0.
        3    1    3    3  502    0  0.17942931324E+03 -0.18011768904E+04 -0.13579032987E+04  0.22628156018E+04  0.10100000352E+00 0. -1.
       -3    1    3    3    0  502 -0.17942931324E+03  0.18011768904E+04 -0.12390119901E+03  0.18143275852E+04  0.10100000352E+00 0.  1.
</event>
<event>
 5   0  0.2203998E-07  0.3797470E+04  0.7818609E-02  0.8046698E-01
       -2   -1    0    0    0  501  0.00000000000E+00  0.00000000000E+00  0.14675826032E+04  0.14675826032E+04  0.25500000920E-02 0. -1.
        2   -1    0    0  501    0  0.00000000000E+00  0.00000000000E+00 -0.24565531661E+04  0.24565531661E+04  0.25500000920E-02 0.  1.
    10030    2    1    2    0    0  0.00000000000E+00  0.00000000000E+00 -0.98897056290E+03  0.39241357694E+04  0.37974700476E+04 0.  0.
        3    1    3    3  502    0 -0.10664826773E+04 -0.75836520573E+02  0.11269470381E+04  0.15534304348E+04  0.10100000352E+00 0. -1.
       -3    1    3    3    0  502  0.10664826773E+04  0.75836520573E+02 -0.21159176010E+04  0.23707053346E+04  0.10100000352E+00 0.  1.
</event>
<event>
 5   0  0.6661000E-08  0.3806893E+04  0.7818609E-02  0.8044677E-01
        1   -1    0    0  501    0  0.00000000000E+00  0.00000000000E+00  0.13562169073E+04  0.13562169073E+04  0.50400001928E-02 0.  1.
       -1   -1    0    0    0  501  0.00000000000E+00  0.00000000000E+00 -0.26714813664E+04  0.26714813664E+04  0.50400001928E-02 0. -1.
    10030    2    1    2    0    0  0.00000000000E+00  0.00000000000E+00 -0.13152644591E+04  0.40276982737E+04  0.38068927995E+04 0.  0.
        2    1    3    3  502    0  0.54189241140E+03 -0.13581968732E+04  0.63155119470E+03  0.15928600200E+04  0.25500000920E-02 0.  1.
       -2    1    3    3    0  502 -0.54189241140E+03  0.13581968732E+04 -0.19468156538E+04  0.24348382537E+04  0.25500000920E-02 0. -1.
</event>
<event>
 5   0  0.2135314E-07  0.3777537E+04  0.7818609E-02  0.8050993E-01
        2   -1    0    0  501    0  0.00000000000E+00  0.00000000000E+00  0.28086767340E+04  0.28086767340E+04  0.25500000920E-02 0. -1.
       -2   -1    0    0    0  501  0.00000000000E+00  0.00000000000E+00 -0.12701522759E+04  0.12701522759E+04  0.25500000920E-02 0.  1.
    10030    2    1    2    0    0  0.00000000000E+00  0.00000000000E+00  0.15385244581E+04  0.40788290099E+04  0.37775373702E+04 0.  0.
        4    1    3    3  502    0 -0.27388155376E+03 -0.51755946158E+02 -0.12478229847E+04  0.12785748306E+04  0.12699999809E+01 0.  1.
       -4    1    3    3    0  502  0.27388155376E+03  0.51755946158E+02  0.27863474428E+04  0.28002541793E+04  0.12699999809E+01 0. -1.
</event>
<event>
 5   0  0.2203998E-07  0.3925543E+04  0.7818609E-02  0.8019738E-01
       -2   -1    0    0    0  501  0.00000000000E+00  0.00000000000E+00  0.21803454574E+04  0.21803454574E+04  0.25500000920E-02 0. -1.
        2   -1    0    0  501    0  0.00000000000E+00  0.00000000000E+00 -0.17669090611E+04  0.17669090611E+04  0.25500000920E-02 0.  1.
    10030    2    1    2    0    0  0.00000000000E+00  0.00000000000E+00  0.41343639631E+03  0.39472545184E+04  0.39255430936E+04 0.  0.
        3    1    3    3  502    0 -0.52079671382E+03  0.14371381279E+04 -0.10313009203E+04  0.18439568363E+04  0.10100000352E+00 0.  1.
       -3    1    3    3    0  502  0.52079671382E+03 -0.14371381279E+04  0.14447373166E+04  0.21032976822E+04  0.10100000352E+00 0. -1.
</event>
<event>
 5   0  0.2203998E-07  0.3788898E+04  0.7818609E-02  0.8048542E-01
        2   -1    0    0  501    0  0.00000000000E+00  0.00000000000E+00  0.23210400309E+04  0.23210400309E+04  0.25500000920E-02 0.  1.
       -2   -1    0    0    0  501  0.00000000000E+00  0.00000000000E+00 -0.15462620754E+04  0.15462620754E+04  0.25500000920E-02 0. -1.
    10030    2    1    2    0    0  0.00000000000E+00  0.00000000000E+00  0.77477795544E+03  0.38673021063E+04  0.37888975575E+04 0.  0.
        3    1    3    3  502    0 -0.93203416916E+03 -0.14099164983E+04  0.12608924643E+04  0.21086493405E+04  0.10100000352E+00 0.  1.
       -3    1    3    3    0  502  0.93203416916E+03  0.14099164983E+04 -0.48611450882E+03  0.17586527658E+04  0.10100000352E+00 0. -1.
</event>
<event>
 5   0  0.6661000E-08  0.3813320E+04  0.7818609E-02  0.8043302E-01
        3   -1    0    0  501    0  0.00000000000E+00  0.00000000000E+00  0.18770066529E+04  0.18770066556E+04  0.10100000352E+00 0. -1.
       -3   -1    0    0    0  501  0.00000000000E+00  0.00000000000E+00 -0.19367821915E+04  0.19367821942E+04  0.10100000352E+00 0.  1.
    10030    2    1    2    0    0  0.00000000000E+00  0.00000000000E+00 -0.59775538613E+02  0.38137888498E+04  0.38133203742E+04 0.  0.
        5    1    3    3  502    0 -0.17619946111E+04  0.70182843175E+03 -0.22521363634E+03  0.19099558710E+04  0.46999998093E+01 0.  1.
       -5    1    3    3    0  502  0.17619946111E+04 -0.70182843175E+03  0.16543809773E+03  0.19038329788E+04  0.46999998093E+01 0. -1.
</event>
<event>
 5   0  0.2203998E-07  0.3798856E+04  0.7818609E-02  0.8046400E-01
        2   -1    0    0  501    0  0.00000000000E+00  0.00000000000E+00  0.13161821338E+04  0.13161821338E+04  0.25500000920E-02 0. -1.
       -2   -1    0    0    0  501  0.00000000000E+00  0.00000000000E+00 -0.27411300657E+04  0.27411300657E+04  0.25500000920E-02 0.  1.
    10030    2    1    2    0    0  0.00000000000E+00  0.00000000000E+00 -0.14249479319E+04  0.40573121995E+04  0.37988558377E+04 0.  0.
        3    1    3    3  502    0  0.86804498545E+03  0.10048433839E+04 -0.21630429068E+04  0.25381030219E+04  0.10100000352E+00 0.  1.
       -3    1    3    3    0  502 -0.86804498545E+03 -0.10048433839E+04  0.73809497487E+03  0.15192091775E+04  0.10100000352E+00 0. -1.
</event>
<event>
 5   0  0.1370688E-07  0.3792186E+04  0.7818609E-02  0.8047834E-01
        2   -1    0    0  501    0  0.00000000000E+00  0.00000000000E+00  0.17815638794E+04  0.17815638794E+04  0.25500000920E-02 0.  1.
       -2   -1    0    0    0  501  0.00000000000E+00  0.00000000000E+00 -0.20179851995E+04  0.20179851995E+04  0.25500000920E-02 0. -1.
    10030    2    1    2    0    0  0.00000000000E+00  0.00000000000E+00 -0.23642132005E+03  0.37995490789E+04  0.37921864619E+04 0.  0.
        5    1    3    3  502    0  0.36162074556E+03  0.44856789131E+03  0.16917197399E+04  0.17871542981E+04  0.46999998093E+01 0.  1.
       -5    1    3    3    0  502 -0.36162074556E+03 -0.44856789131E+03 -0.19281410600E+04  0.20123947808E+04  0.46999998093E+01 0. -1.
</event>
<event>
 5   0  0.6661000E-08  0.3818316E+04  0.7818609E-02  0.8042236E-01
        1   -1    0    0  501    0  0.00000000000E+00  0.00000000000E+00  0.22256806216E+04  0.22256806216E+04  0.50400001928E-02 0.  1.
       -1   -1    0    0    0  501  0.00000000000E+00  0.00000000000E+00 -0.16376496036E+04  0.16376496036E+04  0.50400001928E-02 0. -1.
    10030    2    1    2    0    0  0.00000000000E+00  0.00000000000E+00  0.58803101803E+03  0.38633302252E+04  0.38183163764E+04 0.  0.
        3    1    3    3  502    0 -0.52287495672E+03 -0.91510469849E+03 -0.13166273006E+04  0.16865118702E+04  0.10100000352E+00 0. -1.
       -3    1    3    3    0  502  0.52287495672E+03  0.91510469849E+03  0.19046583186E+04  0.21768183550E+04  0.10100000352E+00 0.  1.
</event>
<event>
 5   0  0.6661000E-08  0.3814982E+04  0.7818609E-02  0.8042947E-01
       -3   -1    0    0    0  501  0.00000000000E+00  0.00000000000E+00  0.17040908276E+04  0.17040908306E+04  0.10100000352E+00 0. -1.
        3   -1    0    0  501    0  0.00000000000E+00  0.00000000000E+00 -0.21351690468E+04  0.21351690492E+04  0.10100000352E+00 0.  1.
    10030    2    1    2    0    0  0.00000000000E+00  0.00000000000E+00 -0.43107821914E+03  0.38392598798E+04  0.38149820437E+04 0.  0.
        3    1    3    3  502    0 -0.50043357565E+03 -0.16887795455E+04  0.52131706052E+03  0.18368945546E+04  0.10100000352E+00 0. -1.
       -3    1    3    3    0  502  0.50043357565E+03  0.16887795455E+04 -0.95239527965E+03  0.20023653252E+04  0.10100000352E+00 0.  1.
</event>
<event>
 5   0  0.6661000E-08  0.3809865E+04  0.7818609E-02  0.8044041E-01
       -1   -1    0    0    0  501  0.00000000000E+00  0.00000000000E+00  0.15400081130E+04  0.15400081130E+04  0.50400001928E-02 0.  1.
        1   -1    0    0  501    0  0.00000000000E+00  0.00000000000E+00 -0.23563308523E+04  0.23563308523E+04  0.50400001928E-02 0. -1.
    10030    2    1    2    0    0  0.00000000000E+00  0.00000000000E+00 -0.81632273930E+03  0.38963389653E+04  0.38098654199E+04 0.  0.
        2    1    3    3  502    0  0.85058930878E+03  0.13260309451E+04 -0.15034068297E+04  0.21776345734E+04  0.25500000920E-02 0. -1.
       -2    1    3    3    0  502 -0.85058930878E+03 -0.13260309451E+04  0.68708409038E+03  0.17187043919E+04  0.25500000920E-02 0.  1.
</event>
<event>
 5   0  0.6661000E-08  0.3808490E+04  0.7818609E-02  0.8044335E-01
        1   -1    0    0  501    0  0.00000000000E+00  0.00000000000E+00  0.21859898656E+04  0.21859898656E+04  0.50400001928E-02 0. -1.
       -1   -1    0    0    0  501  0.00000000000E+00  0.00000000000E+00 -0.16588130502E+04  0.16588130502E+04  0.50400001928E-02 0.  1.
    10030    2    1    2    0    0  0.00000000000E+00  0.00000000000E+00  0.52717681539E+03  0.38448029157E+04  0.38084897356E+04 0.  0.
        4    1    3    3  502    0 -0.33350872226E+03  0.77591908689E+03 -0.14593975022E+04  0.16861557400E+04  0.12699999809E+01 0.  1.
       -4    1    3    3    0  502  0.33350872226E+03 -0.77591908689E+03  0.19865743176E+04  0.21586471757E+04  0.12699999809E+01 0. -1.
</event>
<event>
 5   0  0.2203998E-07  0.3770674E+04  0.7818609E-02  0.8052478E-01
        2   -1    0    0  501    0  0.00000000000E+00  0.00000000000E+00  0.18068734858E+04  0.18068734858E+04  0.25500000920E-02 0.  1.
       -2   -1    0    0    0  501  0.00000000000E+00  0.00000000000E+00 -0.19672078284E+04  0.19672078284E+04  0.25500000920E-02 0. -1.
    10030    2    1    2    0    0  0.00000000000E+00  0.00000000000E+00 -0.16033434260E+03  0.37740813141E+04  0.37706740331E+04 0.  0.
        3    1    3    3  502    0 -0.60368612385E+03 -0.17375152055E+02  0.17074357281E+04  0.18110979012E+04  0.10100000352E+00 0.  1.
       -3    1    3    3    0  502  0.60368612385E+03  0.17375152055E+02 -0.18677700707E+04  0.19629834129E+04  0.10100000352E+00 0. -1.
</event>
<event>
 5   0  0.2203998E-07  0.3796099E+04  0.7818609E-02  0.8046993E-01
       -2   -1    0    0    0  501  0.00000000000E+00  0.00000000000E+00  0.13979112507E+04  0.13979112507E+04  0.25500000920E-02 0. -1.
        2   -1    0    0  501    0  0.00000000000E+00  0.00000000000E+00 -0.25771243410E+04  0.25771243410E+04  0.25500000920E-02 0.  1.
    10030    2    1    2    0    0  0.00000000000E+00  0.00000000000E+00 -0.11792130903E+04  0.39750355917E+04  0.37960985818E+04 0.  0.
        3    1    3    3  502    0  0.16906602332E+04 -0.35988631046E+03  0.23140563617E+03  0.17439606530E+04  0.10100000352E+00 0. -1.
       -3    1    3    3    0  502 -0.16906602332E+04  0.35988631046E+03 -0.14106187264E+04  0.22310749387E+04  0.10100000352E+00 0.  1.
</event>
<event>
 5   0  0.2081337E-07  0.3787353E+04  0.7818609E-02  0.8048874E-01
        2   -1    0    0  501    0  0.00000000000E+00  0.00000000000E+00  0.15397324993E+04  0.15397324993E+04  0.25500000920E-02 0.  1.
       -2   -1    0    0    0  501  0.00000000000E+00  0.00000000000E+00 -0.23289829977E+04  0.23289829977E+04  0.25500000920E-02 0. -1.
    10030    2    1    2    0    0  0.00000000000E+00  0.00000000000E+00 -0.78925049834E+03  0.38687154970E+04  0.37873530662E+04 0.  0.
        1    1    3    3  502    0 -0.74928305970E+03  0.25717848151E+03  0.13623382754E+04  0.15759224130E+04  0.50400001928E-02 0.  1.
       -1    1    3    3    0  502  0.74928305970E+03 -0.25717848151E+03 -0.21515887738E+04  0.22927930841E+04  0.50400001928E-02 0. -1.
</event>
<event>
 5   0  0.6661000E-08  0.3804639E+04  0.7818609E-02  0.8045160E-01
        1   -1    0    0  501    0  0.00000000000E+00  0.00000000000E+00  0.25568638689E+04  0.25568638689E+04  0.50400001928E-02 0. -1.
       -1   -1    0    0    0  501  0.00000000000E+00  0.00000000000E+00 -0.14153352808E+04  0.14153352808E+04  0.50400001928E-02 0.  1.
    10030    2    1    2    0    0  0.00000000000E+00  0.00000000000E+00  0.11415285881E+04  0.39721991497E+04  0.38046390851E+04 0.  0.
        1    1    3    3  502    0 -0.41505842708E+03 -0.10401824400E+04 -0.10346729273E+04  0.15247298360E+04  0.50400001928E-02 0.  1.
       -1    1    3    3    0  502  0.41505842708E+03  0.10401824400E+04  0.21762015153E+04  0.24474693137E+04  0.50400001928E-02 0. -1.
</event>
<event>
 5   0  0.2205204E-07  0.3842571E+04  0.7818609E-02  0.8037081E-01
       -2   -1    0    0    0  501  0.00000000000E+00  0.00000000000E+00  0.13635973804E+04  0.13635973804E+04  0.25500000920E-02 0. -1.
        2   -1    0    0  501    0  0.00000000000E+00  0.00000000000E+00 -0.27070580015E+04  0.27070580015E+04  0.25500000920E-02 0.  1.
    10030    2    1    2    0    0  0.00000000000E+00  0.00000000000E+00 -0.13434606211E+04  0.40706553818E+04  0.38425705975E+04 0.  0.
        2    1    3    3  502    0  0.19196910898E+04  0.19188165458E+02 -0.59136471478E+03  0.20088041945E+04  0.25500000920E-02 0.  1.
       -2    1    3    3    0  502 -0.19196910898E+04 -0.19188165458E+02 -0.75209590633E+03  0.20618511873E+04  0.25500000920E-02 0. -1.
</event>
<event>
 5   0  0.2203998E-07  0.3797001E+04  0.7818609E-02  0.8046799E-01
       -2   -1    0    0    0  501  0.00000000000E+00  0.00000000000E+00  0.20322172021E+04  0.20322172021E+04  0.25500000920E-02 0.  1.
        2   -1    0    0  501    0  0.00000000000E+00  0.00000000000E+00 -0.17735817505E+04  0.17735817505E+04  0.25500000920E-02 0. -1.
    10030    2    1    2    0    0  0.00000000000E+00  0.00000000000E+00  0.25863545162E+03  0.38057989526E+04  0.37970005756E+04 0.  0.
        3    1    3    3  502    0 -0.34210239761E+03 -0.12267540280E+04  0.15405375602E+04  0.19988035122E+04  0.10100000352E+00 0.  1.
       -3    1    3    3    0  502  0.34210239761E+03  0.12267540280E+04 -0.12819021086E+04  0.18069954405E+04  0.10100000352E+00 0. -1.
</event>
<event>
 5   0  0.6661000E-08  0.3832275E+04  0.7818609E-02  0.8039264E-01
        1   -1    0    0  501    0  0.00000000000E+00  0.00000000000E+00  0.24309762283E+04  0.24309762283E+04  0.50400001928E-02 0.  1.
       -1   -1    0    0    0  501  0.00000000000E+00  0.00000000000E+00 -0.15103323995E+04  0.15103323995E+04  0.50400001928E-02 0. -1.
    10030    2    1    2    0    0  0.00000000000E+00  0.00000000000E+00  0.92064382879E+03  0.39413086278E+04  0.38322746039E+04 0.  0.
        1    1    3    3  502    0  0.14523251273E+04 -0.11451412967E+04  0.97556000441E+03  0.20910079357E+04  0.50400001928E-02 0. -1.
       -1    1    3    3    0  502 -0.14523251273E+04  0.11451412967E+04 -0.54916175617E+02  0.18503006921E+04  0.50400001928E-02 0.  1.
</event>
<event>
 5   0  0.2135314E-07  0.3770723E+04  0.7818609E-02  0.8052467E-01
       -2   -1    0    0    0  501  0.00000000000E+00  0.00000000000E+00  0.16066478037E+04  0.16066478037E+04  0.25500000920E-02 0.  1.
        2   -1    0    0  501    0  0.00000000000E+00  0.00000000000E+00 -0.22124251659E+04  0.22124251659E+04  0.25500000920E-02 0. -1.
    10030    2    1    2    0    0  0.00000000000E+00  0.00000000000E+00 -0.60577736220E+03  0.38190729696E+04  0.37707230254E+04 0.  0.
        4    1    3    3  502    0 -0.47434265993E+02  0.16614590465E+04  0.59840395093E+03  0.17665743897E+04  0.12699999809E+01 0.  1.
       -4    1    3    3    0  502  0.47434265993E+02 -0.16614590465E+04 -0.12041813131E+04  0.20524985799E+04  0.12699999809E+01 0. -1.
</event>
<event>
 5   0  0.6725199E-08  0.3755704E+04  0.7818609E-02  0.8055728E-01
        1   -1    0    0  501    0  0.00000000000E+00  0.00000000000E+00  0.20985588484E+04  0.20985588484E+04  0.50400001928E-02 0. -1.
       -1   -1    0    0    0  501  0.00000000000E+00  0.00000000000E+00 -0.16803569566E+04  0.16803569566E+04  0.50400001928E-02 0.  1.
    10030    2    1    2    0    0  0.00000000000E+00  0.00000000000E+00  0.41820189176E+03  0.37789158050E+04  0.37557039073E+04 0.  0.
        5    1    3    3  502    0 -0.11370190018E+04  0.10456743248E+04  0.12834354103E+04  0.20083514499E+04  0.46999998093E+01 0. -1.
       -5    1    3    3    0  502  0.11370190018E+04 -0.10456743248E+04 -0.86523351849E+03  0.17705643551E+04  0.46999998093E+01 0.  1.
</event>
<event>
 5   0  0.1370688E-07  0.3782312E+04  0.7818609E-02  0.8049961E-01
       -2   -1    0    0    0  501  0.00000000000E+00  0.00000000000E+00  0.17930208216E+04  0.17930208216E+04  0.25500000920E-02 0.  1.
        2   -1    0    0  501    0  0.00000000000E+00  0.00000000000E+00 -0.19946618782E+04  0.19946618782E+04  0.25500000920E-02 0. -1.
    10030    2    1    2    0    0  0.00000000000E+00  0.00000000000E+00 -0.20164105662E+03  0.37876826998E+04  0.37823116105E+04 0.  0.
        5    1    3    3  502    0 -0.35646838165E+03  0.94441819767E+03  0.15006542149E+04  0.18085852488E+04  0.46999998093E+01 0.  1.
       -5    1    3    3    0  502  0.35646838165E+03 -0.94441819767E+03 -0.17022952716E+04  0.19790974511E+04  0.46999998093E+01 0. -1.
</event>
<event>
 5   0  0.2135314E-07  0.3777123E+04  0.7818609E-02  0.8051082E-01
        2   -1    0    0  501    0  0.00000000000E+00  0.00000000000E+00  0.24254162884E+04  0.24254162884E+04  0.25500000920E-02 0. -1.
       -2   -1    0    0    0  501  0.00000000000E+00  0.00000000000E+00 -0.14705367001E+04  0.14705367001E+04  0.25500000920E-02 0.  1.
    10030    2    1    2    0    0  0.00000000000E+00  0.00000000000E+00  0.95487958832E+03  0.38959529885E+04  0.37771225371E+04 0.  0.
        4    1    3    3  502    0 -0.22862997775E+03 -0.18394795495E+04  0.85034577858E+03  0.20393739813E+04  0.12699999809E+01 0.  1.
       -4    1    3    3    0  502  0.22862997775E+03  0.18394795495E+04  0.10453380974E+03  0.18565790072E+04  0.12699999809E+01 0. -1.
</event>
<event>
 5   0  0.2203998E-07  0.3771840E+04  0.7818609E-02  0.8052225E-01
        2   -1    0    0  501    0  0.00000000000E+00  0.00000000000E+00  0.12079797595E+04  0.12079797595E+04  0.25500000920E-02 0. -1.
       -2   -1    0    0    0  501  0.00000000000E+00  0.00000000000E+00 -0.29443321743E+04  0.29443321743E+04  0.25500000920E-02 0.  1.
    10030    2    1    2    0    0  0.00000000000E+00  0.00000000000E+00 -0.17363524148E+04  0.41523119338E+04  0.37718396953E+04 0.  0.
        3    1    3    3  502    0  0.96598456838E+03  0.27532850326E+03 -0.26253557816E+04  0.28109473423E+04  0.10100000352E+00 0.  1.
       -3    1    3    3    0  502 -0.96598456838E+03 -0.27532850326E+03  0.88900336674E+03  0.13413645915E+04  0.10100000352E+00 0. -1.
</event>
<event>
 5   0  0.2203998E-07  0.3818478E+04  0.7818609E-02  0.8042201E-01
        2   -1    0    0  501    0  0.00000000000E+00  0.00000000000E+00  0.24808129960E+04  0.24808129960E+04  0.25500000920E-02 0.  1.
       -2   -1    0    0    0  501  0.00000000000E+00  0.00000000000E+00 -0.14693545430E+04  0.14693545430E+04  0.25500000920E-02 0. -1.
    10030    2    1    2    0    0  0.00000000000E+00  0.00000000000E+00  0.10114584530E+04  0.39501675390E+04  0.38184781502E+04 0.  0.
        3    1    3    3  502    0 -0.18179435552E+04 -0.83181582073E+02  0.11030110144E+04  0.21280205012E+04  0.10100000352E+00 0.  1.
       -3    1    3    3    0  502  0.18179435552E+04  0.83181582073E+02 -0.91552561405E+02  0.18221470377E+04  0.10100000352E+00 0. -1.
</event>
<event>
 5   0  0.2135314E-07  0.3771629E+04  0.7818609E-02  0.8052271E-01
       -2   -1    0    0    0  501  0.00000000000E+00  0.00000000000E+00  0.14253285159E+04  0.14253285159E+04  0.25500000920E-02 0. -1.
        2   -1    0    0  501    0  0.00000000000E+00  0.00000000000E+00 -0.24950707701E+04  0.24950707701E+04  0.25500000920E-02 0.  1.
    10030    2    1    2    0    0  0.00000000000E+00  0.00000000000E+00 -0.10697422542E+04  0.39203992860E+04  0.37716285702E+04 0.  0.
        4    1    3    3  502    0  0.95704562957E+03 -0.49996822505E+03  0.10722022494E+04  0.15216845401E+04  0.12699999809E+01 0. -1.
       -4    1    3    3    0  502 -0.95704562957E+03  0.49996822505E+03 -0.21419445035E+04  0.23987147459E+04  0.12699999809E+01 0.  1.
</event>
<event>
 5   0  0.2203998E-07  0.3572753E+04  0.7818609E-02  0.8096762E-01
       -2   -1    0    0    0  501  0.00000000000E+00  0.00000000000E+00  0.17631737882E+04  0.17631737882E+04  0.25500000920E-02 0.  1.
        2   -1    0    0  501    0  0.00000000000E+00  0.00000000000E+00 -0.18098841544E+04  0.18098841544E+04  0.25500000920E-02 0. -1.
    10030    2    1    2    0    0  0.00000000000E+00  0.00000000000E+00 -0.46710366237E+02  0.35730579426E+04  0.35727526087E+04 0.  0.
        3    1    3    3  502    0  0.34882807595E+03 -0.11645807170E+04  0.12856535481E+04  0.17694163808E+04  0.10100000352E+00 0.  1.
       -3    1    3    3    0  502 -0.34882807595E+03  0.11645807170E+04 -0.13323639143E+04  0.18036415617E+04  0.10100000352E+00 0. -1.
</event>
<event>
 5   0  0.6661000E-08  0.3861697E+04  0.7818609E-02  0.8033043E-01
       -3   -1    0    0    0  501  0.00000000000E+00  0.00000000000E+00  0.17946040910E+04  0.17946040938E+04  0.10100000352E+00 0. -1.
        3   -1    0    0  501    0  0.00000000000E+00  0.00000000000E+00 -0.20774363756E+04  0.20774363780E+04  0.10100000352E+00 0.  1.
    10030    2    1    2    0    0  0.00000000000E+00  0.00000000000E+00 -0.28283228459E+03  0.38720404719E+04  0.38616969476E+04 0.  0.
        3    1    3    3  502    0  0.10913151950E+04  0.15717248747E+04 -0.40073578883E+03  0.19549621785E+04  0.10100000352E+00 0.  1.
       -3    1    3    3    0  502 -0.10913151950E+04 -0.15717248747E+04  0.11790350424E+03  0.19170782934E+04  0.10100000352E+00 0. -1.
</event>
<event>
 5   0  0.6661000E-08  0.3767763E+04  0.7818609E-02  0.8053108E-01
        1   -1    0    0  501    0  0.00000000000E+00  0.00000000000E+00  0.22100917457E+04  0.22100917457E+04  0.50400001928E-02 0. -1.
       -1   -1    0    0    0  501  0.00000000000E+00  0.00000000000E+00 -0.16058203937E+04  0.16058203937E+04  0.50400001928E-02 0.  1.
    10030    2    1    2    0    0  0.00000000000E+00  0.00000000000E+00  0.60427135198E+03  0.38159121394E+04  0.37677634731E+04 0.  0.
        3    1    3    3  502    0  0.42239149328E+03 -0.14265511352E+04  0.14725629473E+04  0.20932998732E+04  0.10100000352E+00 0. -1.
       -3    1    3    3    0  502 -0.42239149328E+03  0.14265511352E+04 -0.86829159534E+03  0.17226122662E+04  0.10100000352E+00 0.  1.
</event>
<event>
 5   0  0.2081337E-07  0.3782943E+04  0.7818609E-02  0.8049825E-01
       -2   -1    0    0    0  501  0.00000000000E+00  0.00000000000E+00  0.27178100129E+04  0.27178100129E+04  0.25500000920E-02 0. -1.
        2   -1    0    0  501    0  0.00000000000E+00  0.00000000000E+00 -0.13163778213E+04  0.13163778213E+04  0.25500000920E-02 0.  1.
    10030    2    1    2    0    0  0.00000000000E+00  0.00000000000E+00  0.14014321916E+04  0.40341878342E+04  0.37829432052E+04 0.  0.
        1    1    3    3  502    0 -0.31723144477E+03 -0.12780997261E+04 -0.74721102183E+03  0.15141000663E+04  0.50400001928E-02 0.  1.
       -1    1    3    3    0  502  0.31723144477E+03  0.12780997261E+04  0.21486432134E+04  0.25200877679E+04  0.50400001928E-02 0. -1.
</event>
<event>
 5   0  0.6661000E-08  0.3889845E+04  0.7818609E-02  0.8027145E-01
        1   -1    0    0  501    0  0.00000000000E+00  0.00000000000E+00  0.18274102526E+04  0.18274102526E+04  0.50400001928E-02 0.  1.
       -1   -1    0    0    0  501  0.00000000000E+00  0.00000000000E+00 -0.20699910424E+04  0.20699910424E+04  0.50400001928E-02 0. -1.
    10030    2    1    2    0    0  0.00000000000E+00  0.00000000000E+00 -0.24258078982E+03  0.38974012950E+04  0.38898446518E+04 0.  0.
        1    1    3    3  502    0 -0.14681989816E+04  0.56854133246E+03  0.10228014937E+04  0.18774904505E+04  0.50400001928E-02 0.  1.
       -1    1    3    3    0  502  0.14681989816E+04 -0.56854133246E+03 -0.12653822836E+04  0.20199108445E+04  0.50400001928E-02 0. -1.
</event>
<event>
 5   0  0.2135314E-07  0.3411813E+04  0.7818609E-02  0.8135013E-01
        2   -1    0    0  501    0  0.00000000000E+00  0.00000000000E+00  0.21974848154E+04  0.21974848154E+04  0.25500000920E-02 0. -1.
       -2   -1    0    0    0  501  0.00000000000E+00  0.00000000000E+00 -0.13242941599E+04  0.13242941599E+04  0.25500000920E-02 0.  1.
    10030    2    1    2    0    0  0.00000000000E+00  0.00000000000E+00  0.87319065548E+03  0.35217789753E+04  0.34118126019E+04 0.  0.
        4    1    3    3  502    0  0.64973078615E+03  0.50325041500E+03  0.19796698253E+04  0.21434797187E+04  0.12699999809E+01 0. -1.
       -4    1    3    3    0  502 -0.64973078615E+03 -0.50325041500E+03 -0.11064791698E+04  0.13782992566E+04  0.12699999809E+01 0.  1.
</event>
<event>
 5   0  0.2081337E-07  0.3772895E+04  0.7818609E-02  0.8051997E-01
        2   -1    0    0  501    0  0.00000000000E+00  0.00000000000E+00  0.22151358117E+04  0.22151358117E+04  0.25500000920E-02 0.  1.
       -2   -1    0    0    0  501  0.00000000000E+00  0.00000000000E+00 -0.16065306015E+04  0.16065306016E+04  0.25500000920E-02 0. -1.
    10030    2    1    2    0    0  0.00000000000E+00  0.00000000000E+00  0.60860521018E+03  0.38216664133E+04  0.37728946278E+04 0.  0.
        1    1    3    3  502    0  0.10098467495E+04 -0.61899992260E+03  0.17915235547E+04  0.21476750240E+04  0.50400001928E-02 0.  1.
       -1    1    3    3    0  502 -0.10098467495E+04  0.61899992260E+03 -0.11829183445E+04  0.16739913893E+04  0.50400001928E-02 0. -1.
</event>
<event>
 5   0  0.6725199E-08  0.3769559E+04  0.7818609E-02  0.8052719E-01
        1   -1    0    0  501    0  0.00000000000E+00  0.00000000000E+00  0.20405443907E+04  0.20405443907E+04  0.50400001928E-02 0. -1.
       -1   -1    0    0    0  501  0.00000000000E+00  0.00000000000E+00 -0.17409051714E+04  0.17409051714E+04  0.50400001928E-02 0.  1.
    10030    2    1    2    0    0  0.00000000000E+00  0.00000000000E+00  0.29963921934E+03  0.37814495621E+04  0.37695592752E+04 0.  0.
        5    1    3    3  502    0  0.12385439155E+04 -0.13777222300E+04 -0.19806327529E+03  0.18631588029E+04  0.46999998093E+01 0.  1.
       -5    1    3    3    0  502 -0.12385439155E+04  0.13777222300E+04  0.49770249463E+03  0.19182907592E+04  0.46999998093E+01 0. -1.
</event>
<event>
 5   0  0.2135314E-07  0.3848115E+04  0.7818609E-02  0.8035908E-01
       -2   -1    0    0    0  501  0.00000000000E+00  0.00000000000E+00  0.22147332466E+04  0.22147332466E+04  0.25500000920E-02 0. -1.
        2   -1    0    0  501    0  0.00000000000E+00  0.00000000000E+00 -0.16715320093E+04  0.16715320093E+04  0.25500000920E-02 0.  1.
    10030    2    1    2    0    0  0.00000000000E+00  0.00000000000E+00  0.54320123727E+03  0.38862652559E+04  0.38481151302E+04 0.  0.
        4    1    3    3  502    0  0.74608265324E+03 -0.15064128208E+03 -0.15130244769E+04  0.16936873389E+04  0.12699999809E+01 0.  1.
       -4    1    3    3    0  502 -0.74608265324E+03  0.15064128208E+03  0.20562257142E+04  0.21925779170E+04  0.12699999809E+01 0. -1.
</event>
<event>
 5   0  0.2081337E-07  0.3767945E+04  0.7818609E-02  0.8053069E-01
        2   -1    0    0  501    0  0.00000000000E+00  0.00000000000E+00  0.21230896076E+04  0.21230896076E+04  0.25500000920E-02 0.  1.
       -2   -1    0    0    0  501  0.00000000000E+00  0.00000000000E+00 -0.16717862086E+04  0.16717862086E+04  0.25500000920E-02 0. -1.
    10030    2    1    2    0    0  0.00000000000E+00  0.00000000000E+00  0.45130339893E+03  0.37948758162E+04  0.37679447584E+04 0.  0.
        1    1    3    3  502    0 -0.10501306458E+04  0.86783231806E+03  0.15362769804E+04  0.20533032572E+04  0.50400001928E-02 0.  1.
       -1    1    3    3    0  502  0.10501306458E+04 -0.86783231806E+03 -0.10849735815E+04  0.17415725590E+04  0.50400001928E-02 0. -1.
</event>
<event>
 5   0  0.6661000E-08  0.3838289E+04  0.7818609E-02  0.8037988E-01
       -1   -1    0    0    0  501  0.00000000000E+00  0.00000000000E+00  0.23797274093E+04  0.23797274093E+04  0.50400001928E-02 0.  1.
        1   -1    0    0  501    0  0.00000000000E+00  0.00000000000E+00 -0.15477044521E+04  0.15477044521E+04  0.50400001928E-02 0. -1.
    10030    2    1    2    0    0  0.00000000000E+00  0.00000000000E+00  0.83202295724E+03  0.39274318614E+04  0.38382885280E+04 0.  0.
        4    1    3    3  502    0 -0.26932305493E+03 -0.12727315268E+04  0.18597133196E+04  0.22695628855E+04  0.12699999809E+01 0.  1.
       -4    1    3    3    0  502  0.26932305493E+03  0.12727315268E+04 -0.10276903624E+04  0.16578689759E+04  0.12699999809E+01 0. -1.
</event>
<event>
 5   0  0.6725199E-08  0.3377149E+04  0.7818609E-02  0.8143538E-01
       -1   -1    0    0    0  501  0.00000000000E+00  0.00000000000E+00  0.15077180933E+04  0.15077180933E+04  0.50400001928E-02 0. -1.
        1   -1    0    0  501    0  0.00000000000E+00  0.00000000000E+00 -0.18911250401E+04  0.18911250401E+04  0.50400001928E-02 0.  1.
    10030    2    1    2    0    0  0.00000000000E+00  0.00000000000E+00 -0.38340694676E+03  0.33988431334E+04  0.33771487617E+04 0.  0.
        5    1    3    3  502    0  0.63921451369E+01 -0.16403257065E+04  0.21155999393E+03  0.16539313782E+04  0.46999998093E+01 0.  1.
       -5    1    3    3    0  502 -0.63921451369E+01  0.16403257065E+04 -0.59496694069E+03  0.17449117552E+04  0.46999998093E+01 0. -1.
</event>
<event>
 5   0  0.6661000E-08  0.3797558E+04  0.7818609E-02  0.8046679E-01
       -1   -1    0    0    0  501  0.00000000000E+00  0.00000000000E+00  0.22067952455E+04  0.22067952455E+04  0.50400001928E-02 0. -1.
        1   -1    0    0  501    0  0.00000000000E+00  0.00000000000E+00 -0.16337542955E+04  0.16337542955E+04  0.50400001928E-02 0.  1.
    10030    2    1    2    0    0  0.00000000000E+00  0.00000000000E+00  0.57304095003E+03  0.38405495410E+04  0.37975577477E+04 0.  0.
        3    1    3    3  502    0  0.32227238521E+02 -0.26636158696E+03  0.21875278263E+04  0.22039203913E+04  0.10100000352E+00 0. -1.
       -3    1    3    3    0  502 -0.32227238521E+02  0.26636158696E+03 -0.16144868763E+04  0.16366291498E+04  0.10100000352E+00 0.  1.
</event>
<event>
 5   0  0.2135314E-07  0.3798727E+04  0.7818609E-02  0.8046428E-01
        2   -1    0    0  501    0  0.00000000000E+00  0.00000000000E+00  0.15126881210E+04  0.15126881210E+04  0.25500000920E-02 0.  1.
       -2   -1    0    0    0  501  0.00000000000E+00  0.00000000000E+00 -0.23848815568E+04  0.23848815568E+04  0.25500000920E-02 0. -1.
    10030    2    1    2    0    0  0.00000000000E+00  0.00000000000E+00 -0.87219343578E+03  0.38975696779E+04  0.37987271558E+04 0.  0.
        4    1    3    3  502    0 -0.94505360438E+03 -0.10725287709E+04  0.84709946046E+03  0.16616327477E+04  0.12699999809E+01 0.  1.
       -4    1    3    3    0  502  0.94505360438E+03  0.10725287709E+04 -0.17192928962E+04  0.22359369301E+04  0.12699999809E+01 0. -1.
</event>
<event>
 5   0  0.2081337E-07  0.3793816E+04  0.7818609E-02  0.8047483E-01
       -2   -1    0    0    0  501  0.00000000000E+00  0.00000000000E+00  0.22975078930E+04  0.22975078930E+04  0.25500000920E-02 0.  1.
        2   -1    0    0  501    0  0.00000000000E+00  0.00000000000E+00 -0.15661579053E+04  0.15661579053E+04  0.25500000920E-02 0. -1.
    10030    2    1    2    0    0  0.00000000000E+00  0.00000000000E+00  0.73134998771E+03  0.38636657982E+04  0.37938160994E+04 0.  0.
        1    1    3    3  502    0 -0.19212949589E+03  0.87683216961E+02 -0.15541475922E+04  0.15684313271E+04  0.50400001928E-02 0. -1.
       -1    1    3    3    0  502  0.19212949589E+03 -0.87683216961E+02  0.22854975799E+04  0.22952344711E+04  0.50400001928E-02 0.  1.
</event>
<event>
 5   0  0.2135314E-07  0.3793451E+04  0.7818609E-02  0.8047562E-01
        2   -1    0    0  501    0  0.00000000000E+00  0.00000000000E+00  0.26540672822E+04  0.26540672822E+04  0.25500000920E-02 0. -1.
       -2   -1    0    0    0  501  0.00000000000E+00  0.00000000000E+00 -0.13554919130E+04  0.13554919130E+04  0.25500000920E-02 0.  1.
    10030    2    1    2    0    0  0.00000000000E+00  0.00000000000E+00  0.12985753692E+04  0.40095591952E+04  0.37934505335E+04 0.  0.
        4    1    3    3  502    0 -0.16367734018E+04 -0.84025631050E+03  0.16204074571E+03  0.18469750004E+04  0.12699999809E+01 0.  1.
       -4    1    3    3    0  502  0.16367734018E+04  0.84025631050E+03  0.11365346235E+04  0.21625841948E+04  0.12699999809E+01 0. -1.
</event>
<event>
 5   0  0.1370688E-07  0.3784825E+04  0.7818609E-02  0.8049419E-01
       -2   -1    0    0    0  501  0.00000000000E+00  0.00000000000E+00  0.33434457337E+04  0.33434457337E+04  0.25500000920E-02 0.  1.
        2   -1    0    0  501    0  0.00000000000E+00  0.00000000000E+00 -0.10711177881E+04  0.10711177881E+04  0.25500000920E-02 0. -1.
    10030    2    1    2    0    0  0.00000000000E+00  0.00000000000E+00  0.22723279457E+04  0.44145635218E+04  0.37848245396E+04 0.  0.
        5    1    3    3  502    0  0.15994261183E+04 -0.90980804281E+03  0.16516053415E+04  0.24725971926E+04  0.46999998093E+01 0. -1.
       -5    1    3    3    0  502 -0.15994261183E+04  0.90980804281E+03  0.62072260417E+03  0.19419663293E+04  0.46999998093E+01 0.  1.
</event>
<event>
 5   0  0.2205204E-07  0.3818598E+04  0.7818609E-02  0.8042176E-01
        2   -1    0    0  501    0  0.00000000000E+00  0.00000000000E+00  0.21244096474E+04  0.21244096474E+04  0.25500000920E-02 0. -1.
       -2   -1    0    0    0  501  0.00000000000E+00  0.00000000000E+00 -0.17159694384E+04  0.17159694384E+04  0.25500000920E-02 0.  1.
    10030    2    1    2    0    0  0.00000000000E+00  0.00000000000E+00  0.40844020902E+03  0.38403790857E+04  0.38185976638E+04 0.  0.
        2    1    3    3  502    0 -0.14097325820E+04 -0.20473783766E+03  0.14827537698E+04  0.20561668893E+04  0.25500000920E-02 0. -1.
       -2    1    3    3    0  502  0.14097325820E+04  0.20473783766E+03 -0.10743135608E+04  0.17842121964E+04  0.25500000920E-02 0.  1.
</event>
<event>
 5   0  0.6661000E-08  0.3657226E+04  0.7818609E-02  0.8077508E-01
        1   -1    0    0  501    0  0.00000000000E+00  0.00000000000E+00  0.12398287583E+04  0.12398287583E+04  0.50400001928E-02 0.  1.
       -1   -1    0    0    0  501  0.00000000000E+00  0.00000000000E+00 -0.26970059596E+04  0.26970059596E+04  0.50400001928E-02 0. -1.
    10030    2    1    2    0    0  0.00000000000E+00  0.00000000000E+00 -0.14571772013E+04  0.39368347179E+04  0.36572260253E+04 0.  0.
        3    1    3    3  502    0  0.28784606900E+03 -0.81465649738E+03  0.10062411201E+04  0.13262887205E+04  0.10100000352E+00 0.  1.
       -3    1    3    3    0  502 -0.28784606900E+03  0.81465649738E+03 -0.24634183214E+04  0.26105459974E+04  0.10100000352E+00 0. -1.
</event>
<event>
 5   0  0.2081337E-07  0.3546756E+04  0.7818609E-02  0.8102798E-01
        2   -1    0    0  501    0  0.00000000000E+00  0.00000000000E+00  0.12289909832E+04  0.12289909832E+04  0.25500000920E-02 0. -1.
       -2   -1    0    0    0  501  0.00000000000E+00  0.00000000000E+00 -0.25589039969E+04  0.25589039969E+04  0.25500000920E-02 0.  1.
    10030    2    1    2    0    0  0.00000000000E+00  0.00000000000E+00 -0.13299130137E+04  0.37878949802E+04  0.35467562303E+04 0.  0.
        1    1    3    3  502    0 -0.29763841846E+03 -0.25886217367E+03 -0.25114563863E+04  0.25422453527E+04  0.50400001928E-02 0.  1.
       -1    1    3    3    0  502  0.29763841846E+03  0.25886217367E+03  0.11815433726E+04  0.12456496275E+04  0.50400001928E-02 0. -1.
</event>
<event>
 5   0  0.6661000E-08  0.3828416E+04  0.7818609E-02  0.8040084E-01
        1   -1    0    0  501    0  0.00000000000E+00  0.00000000000E+00  0.14975925513E+04  0.14975925513E+04  0.50400001928E-02 0. -1.
       -1   -1    0    0    0  501  0.00000000000E+00  0.00000000000E+00 -0.24467216787E+04  0.24467216787E+04  0.50400001928E-02 0.  1.
    10030    2    1    2    0    0  0.00000000000E+00  0.00000000000E+00 -0.94912912746E+03  0.39443142300E+04  0.38284159446E+04 0.  0.
        2    1    3    3  502    0 -0.88436049868E+03  0.51521693464E+03 -0.21411409458E+04  0.23731891057E+04  0.25500000920E-02 0.  1.
       -2    1    3    3    0  502  0.88436049868E+03 -0.51521693464E+03  0.11920118183E+04  0.15711251244E+04  0.25500000920E-02 0. -1.
</event>
<event>
 5   0  0.6661000E-08  0.3718939E+04  0.7818609E-02  0.8063778E-01
       -1   -1    0    0    0  501  0.00000000000E+00  0.00000000000E+00  0.21613228976E+04  0.21613228976E+04  0.50400001928E-02 0.  1.
        1   -1    0    0  501    0  0.00000000000E+00  0.00000000000E+00 -0.15997729904E+04  0.15997729904E+04  0.50400001928E-02 0. -1.
    10030    2    1    2    0    0  0.00000000000E+00  0.00000000000E+00  0.56154990722E+03  0.37610958880E+04  0.37189385556E+04 0.  0.
        2    1    3    3  502    0 -0.70068230369E+03 -0.13223933110E+04 -0.83534137407E+03  0.17139063483E+04  0.25500000920E-02 0. -1.
       -2    1    3    3    0  502  0.70068230369E+03  0.13223933110E+04  0.13968912813E+04  0.20471895397E+04  0.25500000920E-02 0.  1.
</event>
<event>
 5   0  0.2203998E-07  0.3798516E+04  0.7818609E-02  0.8046473E-01
       -2   -1    0    0    0  501  0.00000000000E+00  0.00000000000E+00  0.13476916533E+04  0.13476916533E+04  0.25500000920E-02 0.  1.
        2   -1    0    0  501    0  0.00000000000E+00  0.00000000000E+00 -0.26765630773E+04  0.26765630773E+04  0.25500000920E-02 0. -1.
    10030    2    1    2    0    0  0.00000000000E+00  0.00000000000E+00 -0.13288714240E+04  0.40242547306E+04  0.37985164045E+04 0.  0.
        3    1    3    3  502    0  0.80781024001E+03  0.14846269378E+04 -0.15822374648E+04  0.23151997610E+04  0.10100000352E+00 0. -1.
       -3    1    3    3    0  502 -0.80781024001E+03 -0.14846269378E+04  0.25336604082E+03  0.17090549696E+04  0.10100000352E+00 0.  1.
</event>
<event>
 5   0  0.1370688E-07  0.3540855E+04  0.7818609E-02  0.8104176E-01
        2   -1    0    0  501    0  0.00000000000E+00  0.00000000000E+00  0.20216516085E+04  0.20216516085E+04  0.25500000920E-02 0. -1.
       -2   -1    0    0    0  501  0.00000000000E+00  0.00000000000E+00 -0.15504221990E+04  0.15504221990E+04  0.25500000920E-02 0.  1.
    10030    2    1    2    0    0  0.00000000000E+00  0.00000000000E+00  0.47122940945E+03  0.35720738075E+04  0.35408549998E+04 0.  0.
        5    1    3    3  502    0  0.14963138226E+04 -0.76763676086E+03 -0.32259030948E+03  0.17123982744E+04  0.46999998093E+01 0. -1.
       -5    1    3    3    0  502 -0.14963138226E+04  0.76763676086E+03  0.79381971893E+03  0.18596755331E+04  0.46999998093E+01 0.  1.
</event>
<event>
 5   0  0.6661000E-08  0.3774923E+04  0.7818609E-02  0.8051558E-01
        3   -1    0    0  501    0  0.00000000000E+00  0.00000000000E+00  0.15127020871E+04  0.15127020905E+04  0.10100000352E+00 0.  1.
       -3   -1    0    0    0  501  0.00000000000E+00  0.00000000000E+00 -0.23550650671E+04  0.23550650693E+04  0.10100000352E+00 0. -1.
    10030    2    1    2    0    0  0.00000000000E+00  0.00000000000E+00 -0.84236297995E+03  0.38677671598E+04  0.37749234975E+04 0.  0.
        5    1    3    3  502    0 -0.16172683254E+04  0.55638685451E+03  0.39680629018E+03  0.17557336046E+04  0.46999998093E+01 0.  1.
       -5    1    3    3    0  502  0.16172683254E+04 -0.55638685451E+03 -0.12391692701E+04  0.21120335552E+04  0.46999998093E+01 0. -1.
</event>
<event>
 5   0  0.6725199E-08  0.3738026E+04  0.7818609E-02  0.8059587E-01
        1   -1    0    0  501    0  0.00000000000E+00  0.00000000000E+00  0.15609750344E+04  0.15609750344E+04  0.50400001928E-02 0.  1.
       -1   -1    0    0    0  501  0.00000000000E+00  0.00000000000E+00 -0.22378386921E+04  0.22378386921E+04  0.50400001928E-02 0. -1.
    10030    2    1    2    0    0  0.00000000000E+00  0.00000000000E+00 -0.67686365775E+03  0.37988137265E+04  0.37380263934E+04 0.  0.
        5    1    3    3  502    0  0.14749652040E+04 -0.11460889314E+04 -0.27299491970E+03  0.18877474693E+04  0.46999998093E+01 0.  1.
       -5    1    3    3    0  502 -0.14749652040E+04  0.11460889314E+04 -0.40386873805E+03  0.19110662572E+04  0.46999998093E+01 0. -1.
</event>
<event>
 5   0  0.1370688E-07  0.3802794E+04  0.7818609E-02  0.8045556E-01
       -2   -1    0    0    0  501  0.00000000000E+00  0.00000000000E+00  0.27159766574E+04  0.27159766574E+04  0.25500000920E-02 0. -1.
        2   -1    0    0  501    0  0.00000000000E+00  0.00000000000E+00 -0.13311273780E+04  0.13311273780E+04  0.25500000920E-02 0.  1.
    10030    2    1    2    0    0  0.00000000000E+00  0.00000000000E+00  0.13848492794E+04  0.40471040354E+04  0.38027941762E+04 0.  0.
        5    1    3    3  502    0 -0.17268487746E+03  0.28133086110E+03  0.26852416734E+04  0.27054596754E+04  0.46999998093E+01 0. -1.
       -5    1    3    3    0  502  0.17268487746E+03 -0.28133086110E+03 -0.13003923940E+04  0.13416443600E+04  0.46999998093E+01 0.  1.
</event>
<event>
 5   0  0.2081337E-07  0.3777972E+04  0.7818609E-02  0.8050899E-01
       -2   -1    0    0    0  501  0.00000000000E+00  0.00000000000E+00  0.14549869010E+04  0.14549869010E+04  0.25500000920E-02 0. -1.
        2   -1    0    0  501    0  0.00000000000E+00  0.00000000000E+00 -0.24524402028E+04  0.24524402028E+04  0.25500000920E-02 0.  1.
    10030    2    1    2    0    0  0.00000000000E+00  0.00000000000E+00 -0.99745330184E+03  0.39074271038E+04  0.37779721389E+04 0.  0.
        1    1    3    3  502    0 -0.19880129297E+03 -0.16419535109E+04 -0.14425388037E+04  0.21946415393E+04  0.50400001928E-02 0.  1.
       -1    1    3    3    0  502  0.19880129297E+03  0.16419535109E+04  0.44508550182E+03  0.17127855645E+04  0.50400001928E-02 0. -1.
</event>
<event>
 5   0  0.6661000E-08  0.3730045E+04  0.7818609E-02  0.8061336E-01
       -1   -1    0    0    0  501  0.00000000000E+00  0.00000000000E+00  0.33173440713E+04  0.33173440713E+04  0.50400001928E-02 0. -1.
        1   -1    0    0  501    0  0.00000000000E+00  0.00000000000E+00 -0.10485223967E+04  0.10485223967E+04  0.50400001928E-02 0.  1.
    10030    2    1    2    0    0  0.00000000000E+00  0.00000000000E+00  0.22688216746E+04  0.43658664680E+04  0.37300453383E+04 0.  0.
        4    1    3    3  502    0 -0.81276621199E+02 -0.55055013173E+03  0.32178931322E+04  0.32656621319E+04  0.12699999809E+01 0. -1.
       -4    1    3    3    0  502  0.81276621199E+02  0.55055013173E+03 -0.94907145762E+03  0.11002043361E+04  0.12699999809E+01 0.  1.
</event>
<event>
 5   0  0.6725199E-08  0.3780304E+04  0.7818609E-02  0.8050395E-01
        1   -1    0    0  501    0  0.00000000000E+00  0.00000000000E+00  0.20832632336E+04  0.20832632336E+04  0.50400001928E-02 0.  1.
       -1   -1    0    0    0  501  0.00000000000E+00  0.00000000000E+00 -0.17149418798E+04  0.17149418799E+04  0.50400001928E-02 0. -1.
    10030    2    1    2    0    0  0.00000000000E+00  0.00000000000E+00  0.36832135375E+03  0.37982051135E+04  0.37803044142E+04 0.  0.
        5    1    3    3  502    0 -0.10351074107E+04 -0.32207995714E+03  0.17398693395E+04  0.20499634775E+04  0.46999998093E+01 0.  1.
       -5    1    3    3    0  502  0.10351074107E+04  0.32207995714E+03 -0.13715479858E+04  0.17482416360E+04  0.46999998093E+01 0. -1.
</event>
<event>
 5   0  0.1370688E-07  0.3807980E+04  0.7818609E-02  0.8044445E-01
       -2   -1    0    0    0  501  0.00000000000E+00  0.00000000000E+00  0.18315946918E+04  0.18315946918E+04  0.25500000920E-02 0. -1.
        2   -1    0    0  501    0  0.00000000000E+00  0.00000000000E+00 -0.19792466232E+04  0.19792466232E+04  0.25500000920E-02 0.  1.
    10030    2    1    2    0    0  0.00000000000E+00  0.00000000000E+00 -0.14765193141E+03  0.38108413150E+04  0.38079798365E+04 0.  0.
        5    1    3    3  502    0 -0.10769923326E+04 -0.93726349083E+03  0.11867952413E+04  0.18565775962E+04  0.46999998093E+01 0. -1.
       -5    1    3    3    0  502  0.10769923326E+04  0.93726349083E+03 -0.13344471728E+04  0.19542637188E+04  0.46999998093E+01 0.  1.
</event>
<event>
 5   0  0.2205204E-07  0.3811428E+04  0.7818609E-02  0.8043707E-01
       -2   -1    0    0    0  501  0.00000000000E+00  0.00000000000E+00  0.20619261589E+04  0.20619261589E+04  0.25500000920E-02 0.  1.
        2   -1    0    0  501    0  0.00000000000E+00  0.00000000000E+00 -0.17613364911E+04  0.17613364911E+04  0.25500000920E-02 0. -1.
    10030    2    1    2    0    0  0.00000000000E+00  0.00000000000E+00  0.30058966783E+03  0.38232626501E+04  0.38114279664E+04 0.  0.
        2    1    3    3  502    0 -0.58928729396E+03 -0.10527443767E+04  0.16300755800E+04  0.20279735290E+04  0.25500000920E-02 0.  1.
       -2    1    3    3    0  502  0.58928729396E+03  0.10527443767E+04 -0.13294859122E+04  0.17952891211E+04  0.25500000920E-02 0. -1.
</event>
<event>
 5   0  0.2203998E-07  0.3839663E+04  0.7818609E-02  0.8037696E-01
        2   -1    0    0  501    0  0.00000000000E+00  0.00000000000E+00  0.16319553082E+04  0.16319553082E+04  0.25500000920E-02 0. -1.
       -2   -1    0    0    0  501  0.00000000000E+00  0.00000000000E+00 -0.22584890107E+04  0.22584890107E+04  0.25500000920E-02 0.  1.
    10030    2    1    2    0    0  0.00000000000E+00  0.00000000000E+00 -0.62653370252E+03  0.38904443189E+04  0.38396630735E+04 0.  0.
        3    1    3    3  502    0 -0.15105730481E+04 -0.10257700869E+04 -0.91416841137E+03  0.20419939028E+04  0.10100000352E+00 0.  1.
       -3    1    3    3    0  502  0.15105730481E+04  0.10257700869E+04  0.28763470885E+03  0.18484504161E+04  0.10100000352E+00 0. -1.
</event>
<event>
 5   0  0.6661000E-08  0.3795078E+04  0.7818609E-02  0.8047212E-01
        1   -1    0    0  501    0  0.00000000000E+00  0.00000000000E+00  0.19928778494E+04  0.19928778494E+04  0.50400001928E-02 0.  1.
       -1   -1    0    0    0  501  0.00000000000E+00  0.00000000000E+00 -0.18067612774E+04  0.18067612774E+04  0.50400001928E-02 0. -1.
    10030    2    1    2    0    0  0.00000000000E+00  0.00000000000E+00  0.18611657204E+03  0.37996391268E+04  0.37950781435E+04 0.  0.
        1    1    3    3  502    0 -0.80919439061E+03  0.54506423092E+03 -0.15364000373E+04  0.18200043001E+04  0.50400001928E-02 0. -1.
       -1    1    3    3    0  502  0.80919439061E+03 -0.54506423092E+03  0.17225166094E+04  0.19796348267E+04  0.50400001928E-02 0.  1.
</event>
<event>
 5   0  0.2203998E-07  0.3758654E+04  0.7818609E-02  0.8055086E-01
        2   -1    0    0  501    0  0.00000000000E+00  0.00000000000E+00  0.12348087479E+04  0.12348087479E+04  0.25500000920E-02 0.  1.
       -2   -1    0    0    0  501  0.00000000000E+00  0.00000000000E+00 -0.28602573857E+04  0.28602573857E+04  0.25500000920E-02 0. -1.
    10030    2    1    2    0    0  0.00000000000E+00  0.00000000000E+00 -0.16254486378E+04  0.40950661336E+04  0.37586544619E+04 0.  0.
        3    1    3    3  502    0  0.78541327032E+03 -0.16796633347E+03 -0.26638490054E+04  0.27822972933E+04  0.10100000352E+00 0. -1.
       -3    1    3    3    0  502 -0.78541327032E+03  0.16796633347E+03  0.10384003676E+04  0.13127688403E+04  0.10100000352E+00 0.  1.
</event>
<event>
 5   0  0.1370688E-07  0.3800796E+04  0.7818609E-02  0.8045984E-01
        2   -1    0    0  501    0  0.00000000000E+00  0.00000000000E+00  0.14867720566E+04  0.14867720566E+04  0.25500000920E-02 0.  1.
       -2   -1    0    0    0  501  0.00000000000E+00  0.00000000000E+00 -0.24290969281E+04  0.24290969281E+04  0.25500000920E-02 0. -1.
    10030    2    1    2    0    0  0.00000000000E+00  0.00000000000E+00 -0.94232487152E+03  0.39158689848E+04  0.38007964616E+04 0.  0.
        5    1    3    3  502    0  0.12760470982E+04  0.12715201678E+04 -0.10948254741E+04  0.21080143839E+04  0.46999998093E+01 0. -1.
       -5    1    3    3    0  502 -0.12760470982E+04 -0.12715201678E+04  0.15250060263E+03  0.18078546008E+04  0.46999998093E+01 0.  1.
</event>
<event>
 5   0  0.6661000E-08  0.3751656E+04  0.7818609E-02  0.8056610E-01
        1   -1    0    0  501    0  0.00000000000E+00  0.00000000000E+00  0.30919329618E+04  0.30919329618E+04  0.50400001928E-02 0. -1.
       -1   -1    0    0    0  501  0.00000000000E+00  0.00000000000E+00 -0.11380359361E+04  0.11380359362E+04  0.50400001928E-02 0.  1.
    10030    2    1    2    0    0  0.00000000000E+00  0.00000000000E+00  0.19538970256E+04  0.42299688979E+04  0.37516560731E+04 0.  0.
        4    1    3    3  502    0  0.88752723819E+03  0.57730528407E+02 -0.88518923838E+03  0.12548302726E+04  0.12699999809E+01 0.  1.
       -4    1    3    3    0  502 -0.88752723819E+03 -0.57730528407E+02  0.28390862640E+04  0.29751386253E+04  0.12699999809E+01 0. -1.
</event>
<event>
 5   0  0.1370688E-07  0.3801228E+04  0.7818609E-02  0.8045891E-01
       -2   -1    0    0    0  501  0.00000000000E+00  0.00000000000E+00  0.19743032891E+04  0.19743032891E+04  0.25500000920E-02 0.  1.
        2   -1    0    0  501    0  0.00000000000E+00  0.00000000000E+00 -0.18296748077E+04  0.18296748077E+04  0.25500000920E-02 0. -1.
    10030    2    1    2    0    0  0.00000000000E+00  0.00000000000E+00  0.14462848144E+03  0.38039780968E+04  0.38012276916E+04 0.  0.
        5    1    3    3  502    0  0.38427890037E+03  0.18399630766E+04  0.35390103587E+03  0.19126950697E+04  0.46999998093E+01 0.  1.
       -5    1    3    3    0  502 -0.38427890037E+03 -0.18399630766E+04 -0.20927255443E+03  0.18912830271E+04  0.46999998093E+01 0. -1.
</event>
<event>
 5   0  0.2135314E-07  0.3827822E+04  0.7818609E-02  0.8040211E-01
        2   -1    0    0  501    0  0.00000000000E+00  0.00000000000E+00  0.23518689250E+04  0.23518689250E+04  0.25500000920E-02 0. -1.
       -2   -1    0    0    0  501  0.00000000000E+00  0.00000000000E+00 -0.15575079325E+04  0.15575079325E+04  0.25500000920E-02 0.  1.
    10030    2    1    2    0    0  0.00000000000E+00  0.00000000000E+00  0.79436099245E+03  0.39093768575E+04  0.38278215773E+04 0.  0.
        4    1    3    3  502    0 -0.16047220050E+04 -0.32135086770E+03 -0.61625854831E+03  0.17487639363E+04  0.12699999809E+01 0.  1.
       -4    1    3    3    0  502  0.16047220050E+04  0.32135086770E+03  0.14106195408E+04  0.21606129212E+04  0.12699999809E+01 0. -1.
</event>
<event>
 5   0  0.2135314E-07  0.3794110E+04  0.7818609E-02  0.8047420E-01
        2   -1    0    0  501    0  0.00000000000E+00  0.00000000000E+00  0.26220899290E+04  0.26220899290E+04  0.25500000920E-02 0. -1.
       -2   -1    0    0    0  501  0.00000000000E+00  0.00000000000E+00 -0.13724998377E+04  0.13724998377E+04  0.25500000920E-02 0.  1.
    10030    2    1    2    0    0  0.00000000000E+00  0.00000000000E+00  0.12495900913E+04  0.39945897668E+04  0.37941101735E+04 0.  0.
        4    1    3    3  502    0  0.10376242331E+04 -0.53368435469E+03  0.21996029845E+04  0.24899272965E+04  0.12699999809E+01 0. -1.
       -4    1    3    3    0  502 -0.10376242331E+04  0.53368435469E+03 -0.95001289317E+03  0.15046624703E+04  0.12699999809E+01 0.  1.
</event>
<event>
 5   0  0.2205204E-07  0.3758237E+04  0.7818609E-02  0.8055177E-01
        2   -1    0    0  501    0  0.00000000000E+00  0.00000000000E+00  0.14609488872E+04  0.14609488872E+04  0.25500000920E-02 0.  1.
       -2   -1    0    0    0  501  0.00000000000E+00  0.00000000000E+00 -0.24169816889E+04  0.24169816889E+04  0.25500000920E-02 0. -1.
    10030    2    1    2    0    0  0.00000000000E+00  0.00000000000E+00 -0.95603280164E+03  0.38779305761E+04  0.37582371978E+04 0.  0.
        2    1    3    3  502    0 -0.14875581189E+03 -0.25751002298E+03 -0.23925460232E+04  0.24109575228E+04  0.25500000920E-02 0. -1.
       -2    1    3    3    0  502  0.14875581189E+03  0.25751002298E+03  0.14365132215E+04  0.14669730533E+04  0.25500000920E-02 0.  1.
</event>
<event>
 5   0  0.2081337E-07  0.3794473E+04  0.7818609E-02  0.8047342E-01
        2   -1    0    0  501    0  0.00000000000E+00  0.00000000000E+00  0.16863723611E+04  0.16863723611E+04  0.25500000920E-02 0. -1.
       -2   -1    0    0    0  501  0.00000000000E+00  0.00000000000E+00 -0.21344672575E+04  0.21344672575E+04  0.25500000920E-02 0.  1.
    10030    2    1    2    0    0  0.00000000000E+00  0.00000000000E+00 -0.44809489645E+03  0.38208396186E+04  0.37944731327E+04 0.  0.
        1    1    3    3  502    0  0.78495349639E+03 -0.17857109084E+02 -0.19631954946E+04  0.21143810957E+04  0.50400001928E-02 0.  1.
       -1    1    3    3    0  502 -0.78495349639E+03  0.17857109084E+02  0.15151005982E+04  0.17064585229E+04  0.50400001928E-02 0. -1.
</event>
<event>
 5   0  0.2135314E-07  0.3734919E+04  0.7818609E-02  0.8060267E-01
       -2   -1    0    0    0  501  0.00000000000E+00  0.00000000000E+00  0.14926772375E+04  0.14926772375E+04  0.25500000920E-02 0. -1.
        2   -1    0    0  501    0  0.00000000000E+00  0.00000000000E+00 -0.23363421041E+04  0.23363421041E+04  0.25500000920E-02 0.  1.
    10030    2    1    2    0    0  0.00000000000E+00  0.00000000000E+00 -0.84366486657E+03  0.38290193416E+04  0.37349188360E+04 0.  0.
        4    1    3    3  502    0  0.14417508185E+04  0.89883009422E+03 -0.12165152066E+04  0.20896056617E+04  0.12699999809E+01 0.  1.
       -4    1    3    3    0  502 -0.14417508185E+04 -0.89883009422E+03  0.37285033999E+03  0.17394136799E+04  0.12699999809E+01 0. -1.
</event>
<event>
 5   0  0.1370688E-07  0.3728007E+04  0.7818609E-02  0.8061783E-01
       -2   -1    0    0    0  501  0.00000000000E+00  0.00000000000E+00  0.15513253356E+04  0.15513253356E+04  0.25500000920E-02 0.  1.
        2   -1    0    0  501    0  0.00000000000E+00  0.00000000000E+00 -0.22397035303E+04  0.22397035303E+04  0.25500000920E-02 0. -1.
    10030    2    1    2    0    0  0.00000000000E+00  0.00000000000E+00 -0.68837819468E+03  0.37910288659E+04  0.37280068834E+04 0.  0.
        5    1    3    3  502    0 -0.16324225861E+04  0.89696566574E+03 -0.41706533475E+03  0.19087473611E+04  0.46999998093E+01 0. -1.
       -5    1    3    3    0  502  0.16324225861E+04 -0.89696566574E+03 -0.27131285993E+03  0.18822815047E+04  0.46999998093E+01 0.  1.
</event>
<event>
 5   0  0.6661000E-08  0.3820392E+04  0.7818609E-02  0.8041793E-01
       -1   -1    0    0    0  501  0.00000000000E+00  0.00000000000E+00  0.13501526016E+04  0.13501526016E+04  0.50400001928E-02 0. -1.
        1   -1    0    0  501    0  0.00000000000E+00  0.00000000000E+00 -0.27025448952E+04  0.27025448952E+04  0.50400001928E-02 0.  1.
    10030    2    1    2    0    0  0.00000000000E+00  0.00000000000E+00 -0.13523922936E+04  0.40526974969E+04  0.38203916141E+04 0.  0.
        1    1    3    3  502    0 -0.53372827232E+03  0.18126424777E+04 -0.97305038565E+03  0.21254095309E+04  0.50400001928E-02 0.  1.
       -1    1    3    3    0  502  0.53372827232E+03 -0.18126424777E+04 -0.37934190796E+03  0.19272879660E+04  0.50400001928E-02 0. -1.
</event>
<event>
 5   0  0.6661000E-08  0.3804109E+04  0.7818609E-02  0.8045274E-01
        1   -1    0    0  501    0  0.00000000000E+00  0.00000000000E+00  0.15049388350E+04  0.15049388350E+04  0.50400001928E-02 0. -1.
       -1   -1    0    0    0  501  0.00000000000E+00  0.00000000000E+00 -0.24039588341E+04  0.24039588341E+04  0.50400001928E-02 0.  1.
    10030    2    1    2    0    0  0.00000000000E+00  0.00000000000E+00 -0.89901999911E+03  0.39088976691E+04  0.38041088351E+04 0.  0.
        1    1    3    3  502    0  0.96058128694E+03 -0.28161895364E+03 -0.21114005573E+04  0.23366724112E+04  0.50400001928E-02 0.  1.
       -1    1    3    3    0  502 -0.96058128694E+03  0.28161895364E+03  0.12123805582E+04  0.15722252580E+04  0.50400001928E-02 0. -1.
</event>
<event>
 5   0  0.6661000E-08  0.3781849E+04  0.7818609E-02  0.8050061E-01
       -1   -1    0    0    0  501  0.00000000000E+00  0.00000000000E+00  0.13133177387E+04  0.13133177388E+04  0.50400001928E-02 0. -1.
        1   -1    0    0  501    0  0.00000000000E+00  0.00000000000E+00 -0.27225663557E+04  0.27225663557E+04  0.50400001928E-02 0.  1.
    10030    2    1    2    0    0  0.00000000000E+00  0.00000000000E+00 -0.14092486169E+04  0.40358840944E+04  0.37818485902E+04 0.  0.
        4    1    3    3  502    0  0.98211035290E+03 -0.16157346615E+04 -0.68188990255E+03  0.20100036552E+04  0.12699999809E+01 0. -1.
       -4    1    3    3    0  502 -0.98211035290E+03  0.16157346615E+04 -0.72735871436E+03  0.20258804392E+04  0.12699999809E+01 0.  1.
</event>
<event>
 5   0  0.6661000E-08  0.3769546E+04  0.7818609E-02  0.8052722E-01
       -1   -1    0    0    0  501  0.00000000000E+00  0.00000000000E+00  0.13150062089E+04  0.13150062089E+04  0.50400001928E-02 0. -1.
        1   -1    0    0  501    0  0.00000000000E+00  0.00000000000E+00 -0.27014082929E+04  0.27014082929E+04  0.50400001928E-02 0.  1.
    10030    2    1    2    0    0  0.00000000000E+00  0.00000000000E+00 -0.13864020840E+04  0.40164145019E+04  0.37695456905E+04 0.  0.
        1    1    3    3  502    0  0.13817287076E+04 -0.23646838211E+03 -0.20355823569E+04  0.24715758230E+04  0.50400001928E-02 0.  1.
       -1    1    3    3    0  502 -0.13817287076E+04  0.23646838211E+03  0.64918027291E+03  0.15448386789E+04  0.50400001928E-02 0. -1.
</event>
<event>
 5   0  0.2081337E-07  0.3845135E+04  0.7818609E-02  0.8036538E-01
       -2   -1    0    0    0  501  0.00000000000E+00  0.00000000000E+00  0.12851354370E+04  0.12851354370E+04  0.25500000920E-02 0.  1.
        2   -1    0    0  501    0  0.00000000000E+00  0.00000000000E+00 -0.28761676699E+04  0.28761676699E+04  0.25500000920E-02 0. -1.
    10030    2    1    2    0    0  0.00000000000E+00  0.00000000000E+00 -0.15910322328E+04  0.41613031069E+04  0.38451345856E+04 0.  0.
        1    1    3    3  502    0  0.41248266575E+03 -0.12923763606E+04 -0.22698420286E+04  0.26443451820E+04  0.50400001928E-02 0. -1.
       -1    1    3    3    0  502 -0.41248266575E+03  0.12923763606E+04  0.67880979573E+03  0.15169579249E+04  0.50400001928E-02 0.  1.
</event>
<event>
 5   0  0.2135314E-07  0.4135642E+04  0.7818609E-02  0.7977729E-01
       -2   -1    0    0    0  501  0.00000000000E+00  0.00000000000E+00  0.16277173292E+04  0.16277173292E+04  0.25500000920E-02 0.  1.
        2   -1    0    0  501    0  0.00000000000E+00  0.00000000000E+00 -0.26269204088E+04  0.26269204088E+04  0.25500000920E-02 0. -1.
    10030    2    1    2    0    0  0.00000000000E+00  0.00000000000E+00 -0.99920307963E+03  0.42546377380E+04  0.41356420888E+04 0.  0.
        4    1    3    3  502    0 -0.20379268120E+04  0.12742714269E+03 -0.83533311208E+03  0.22061655397E+04  0.12699999809E+01 0.  1.
       -4    1    3    3    0  502  0.20379268120E+04 -0.12742714269E+03 -0.16386996756E+03  0.20484721982E+04  0.12699999809E+01 0. -1.
</event>
<event>
 5   0  0.2205204E-07  0.3856589E+04  0.7818609E-02  0.8034119E-01
        2   -1    0    0  501    0  0.00000000000E+00  0.00000000000E+00  0.16540254741E+04  0.16540254741E+04  0.25500000920E-02 0.  1.
       -2   -1    0    0    0  501  0.00000000000E+00  0.00000000000E+00 -0.22480421922E+04  0.22480421922E+04  0.25500000920E-02 0. -1.
    10030    2    1    2    0    0  0.00000000000E+00  0.00000000000E+00 -0.59401671801E+03  0.39020676663E+04  0.38565886754E+04 0.  0.
        2    1    3    3  502    0 -0.12851915148E+04  0.55095477929E+03 -0.16404656659E+04  0.21555500457E+04  0.25500000920E-02 0. -1.
       -2    1    3    3    0  502  0.12851915148E+04 -0.55095477929E+03  0.10464489479E+04  0.17465176206E+04  0.25500000920E-02 0.  1.
</event>
<event>
 5   0  0.6725199E-08  0.3787222E+04  0.7818609E-02  0.8048903E-01
        1   -1    0    0  501    0  0.00000000000E+00  0.00000000000E+00  0.27312245941E+04  0.27312245941E+04  0.50400001928E-02 0. -1.
       -1   -1    0    0    0  501  0.00000000000E+00  0.00000000000E+00 -0.13128770751E+04  0.13128770751E+04  0.50400001928E-02 0.  1.
    10030    2    1    2    0    0  0.00000000000E+00  0.00000000000E+00  0.14183475190E+04  0.40441016692E+04  0.37872217556E+04 0.  0.
        5    1    3    3  502    0 -0.13575687806E+04 -0.24906590846E+01  0.21188446700E+04  0.25164506796E+04  0.46999998093E+01 0. -1.
       -5    1    3    3    0  502  0.13575687806E+04  0.24906590846E+01 -0.70049715100E+03  0.15276509896E+04  0.46999998093E+01 0.  1.
</event>
<event>
 5   0  0.6661000E-08  0.3752676E+04  0.7818609E-02  0.8056388E-01
       -1   -1    0    0    0  501  0.00000000000E+00  0.00000000000E+00  0.29035963937E+04  0.29035963937E+04  0.50400001928E-02 0.  1.
        1   -1    0    0  501    0  0.00000000000E+00  0.00000000000E+00 -0.12125113269E+04  0.12125113269E+04  0.50400001928E-02 0. -1.
    10030    2    1    2    0    0  0.00000000000E+00  0.00000000000E+00  0.16910850668E+04  0.41161077207E+04  0.37526755875E+04 0.  0.
        3    1    3    3  502    0 -0.13262722050E+04 -0.89257821970E+03  0.19229948022E+04  0.25007204681E+04  0.10100000352E+00 0.  1.
       -3    1    3    3    0  502  0.13262722050E+04  0.89257821970E+03 -0.23190973541E+03  0.16153872525E+04  0.10100000352E+00 0. -1.
</event>
<event>
 5   0  0.2081337E-07  0.3770420E+04  0.7818609E-02  0.8052533E-01
       -2   -1    0    0    0  501  0.00000000000E+00  0.00000000000E+00  0.19353252099E+04  0.19353252099E+04  0.25500000920E-02 0.  1.
        2   -1    0    0  501    0  0.00000000000E+00  0.00000000000E+00 -0.18363924244E+04  0.18363924244E+04  0.25500000920E-02 0. -1.
    10030    2    1    2    0    0  0.00000000000E+00  0.00000000000E+00  0.98932785576E+02  0.37717176343E+04  0.37704198993E+04 0.  0.
        1    1    3    3  502    0 -0.66799905147E+03 -0.16569387823E+04  0.65162680992E+03  0.19016535858E+04  0.50400001928E-02 0.  1.
       -1    1    3    3    0  502  0.66799905147E+03  0.16569387823E+04 -0.55269402434E+03  0.18700640485E+04  0.50400001928E-02 0. -1.
</event>
<event>
 5   0  0.6661000E-08  0.3785776E+04  0.7818609E-02  0.8049214E-01
       -1   -1    0    0    0  501  0.00000000000E+00  0.00000000000E+00  0.15763658224E+04  0.15763658224E+04  0.50400001928E-02 0. -1.
        1   -1    0    0  501    0  0.00000000000E+00  0.00000000000E+00 -0.22729654029E+04  0.22729654029E+04  0.50400001928E-02 0.  1.
    10030    2    1    2    0    0  0.00000000000E+00  0.00000000000E+00 -0.69659958050E+03  0.38493312253E+04  0.37857759979E+04 0.  0.
        4    1    3    3  502    0 -0.13597121127E+04  0.10689768489E+04  0.43369857639E+03  0.17831501903E+04  0.12699999809E+01 0. -1.
       -4    1    3    3    0  502  0.13597121127E+04 -0.10689768489E+04 -0.11302981569E+04  0.20661810350E+04  0.12699999809E+01 0.  1.
</event>
<event>
 5   0  0.6661000E-08  0.3768208E+04  0.7818609E-02  0.8053012E-01
        1   -1    0    0  501    0  0.00000000000E+00  0.00000000000E+00  0.24288305423E+04  0.24288305423E+04  0.50400001928E-02 0. -1.
       -1   -1    0    0    0  501  0.00000000000E+00  0.00000000000E+00 -0.14615465079E+04  0.14615465079E+04  0.50400001928E-02 0.  1.
    10030    2    1    2    0    0  0.00000000000E+00  0.00000000000E+00  0.96728403443E+03  0.38903770502E+04  0.37682084854E+04 0.  0.
        1    1    3    3  502    0  0.11357763861E+03 -0.67534530395E+03  0.22957855219E+04  0.23957508890E+04  0.50400001928E-02 0. -1.
       -1    1    3    3    0  502 -0.11357763861E+03  0.67534530395E+03 -0.13285014874E+04  0.14946261612E+04  0.50400001928E-02 0.  1.
</event>
<event>
 5   0  0.6661000E-08  0.3893626E+04  0.7818609E-02  0.8026356E-01
        1   -1    0    0  501    0  0.00000000000E+00  0.00000000000E+00  0.14726617791E+04  0.14726617791E+04  0.50400001928E-02 0.  1.
       -1   -1    0    0    0  501  0.00000000000E+00  0.00000000000E+00 -0.25736264951E+04  0.25736264951E+04  0.50400001928E-02 0. -1.
    10030    2    1    2    0    0  0.00000000000E+00  0.00000000000E+00 -0.11009647160E+04  0.40462882743E+04  0.38936262651E+04 0.  0.
        1    1    3    3  502    0 -0.34844102962E+03  0.48869473425E+03  0.13741153942E+04  0.14994755120E+04  0.50400001928E-02 0.  1.
       -1    1    3    3    0  502  0.34844102962E+03 -0.48869473425E+03 -0.24750801102E+04  0.25468127623E+04  0.50400001928E-02 0. -1.
</event>
<event>
 5   0  0.6661000E-08  0.3637401E+04  0.7818609E-02  0.8081978E-01
        3   -1    0    0  501    0  0.00000000000E+00  0.00000000000E+00  0.17379888279E+04  0.17379888309E+04  0.10100000352E+00 0.  1.
       -3   -1    0    0    0  501  0.00000000000E+00  0.00000000000E+00 -0.19031608772E+04  0.19031608799E+04  0.10100000352E+00 0. -1.
    10030    2    1    2    0    0  0.00000000000E+00  0.00000000000E+00 -0.16517204922E+03  0.36411497107E+04  0.36374014640E+04 0.  0.
        3    1    3    3  502    0  0.10993691156E+04 -0.85455331806E+03  0.10885762152E+04  0.17674478811E+04  0.10100000352E+00 0.  1.
       -3    1    3    3    0  502 -0.10993691156E+04  0.85455331806E+03 -0.12537482644E+04  0.18737018297E+04  0.10100000352E+00 0. -1.
</event>
<event>
 5   0  0.6725199E-08  0.3786165E+04  0.7818609E-02  0.8049130E-01
       -1   -1    0    0    0  501  0.00000000000E+00  0.00000000000E+00  0.21585608239E+04  0.21585608239E+04  0.50400001928E-02 0.  1.
        1   -1    0    0  501    0  0.00000000000E+00  0.00000000000E+00 -0.16602550945E+04  0.16602550945E+04  0.50400001928E-02 0. -1.
    10030    2    1    2    0    0  0.00000000000E+00  0.00000000000E+00  0.49830572944E+03  0.38188159184E+04  0.37861651336E+04 0.  0.
        5    1    3    3  502    0  0.15974306840E+04 -0.22563676286E+03 -0.74986474690E+03  0.17790491751E+04  0.46999998093E+01 0. -1.
       -5    1    3    3    0  502 -0.15974306840E+04  0.22563676286E+03  0.12481704763E+04  0.20397667433E+04  0.46999998093E+01 0.  1.
</event>
<event>
 5   0  0.6661000E-08  0.3656488E+04  0.7818609E-02  0.8077674E-01
        1   -1    0    0  501    0  0.00000000000E+00  0.00000000000E+00  0.18118227176E+04  0.18118227176E+04  0.50400001928E-02 0.  1.
       -1   -1    0    0    0  501  0.00000000000E+00  0.00000000000E+00 -0.18448139374E+04  0.18448139374E+04  0.50400001928E-02 0. -1.
    10030    2    1    2    0    0  0.00000000000E+00  0.00000000000E+00 -0.32991219804E+02  0.36566366549E+04  0.36564878238E+04 0.  0.
        3    1    3    3  502    0 -0.16555468077E+04 -0.66967886787E+03  0.37489069806E+03  0.18247871285E+04  0.10100000352E+00 0.  1.
       -3    1    3    3    0  502  0.16555468077E+04  0.66967886787E+03 -0.40788191786E+03  0.18318495265E+04  0.10100000352E+00 0. -1.
</event>
<event>
 5   0  0.2135314E-07  0.3864267E+04  0.7818609E-02  0.8032502E-01
       -2   -1    0    0    0  501  0.00000000000E+00  0.00000000000E+00  0.20855202300E+04  0.20855202300E+04  0.25500000920E-02 0.  1.
        2   -1    0    0  501    0  0.00000000000E+00  0.00000000000E+00 -0.17900277818E+04  0.17900277818E+04  0.25500000920E-02 0. -1.
    10030    2    1    2    0    0  0.00000000000E+00  0.00000000000E+00  0.29549244817E+03  0.38755480118E+04  0.38642666322E+04 0.  0.
        4    1    3    3  502    0  0.12164788012E+02  0.17540090459E+03  0.20774799504E+04  0.20849071962E+04  0.12699999809E+01 0.  1.
       -4    1    3    3    0  502 -0.12164788012E+02 -0.17540090459E+03 -0.17819875022E+04  0.17906408156E+04  0.12699999809E+01 0. -1.
</event>
<event>
 5   0  0.2081337E-07  0.3796277E+04  0.7818609E-02  0.8046954E-01
       -2   -1    0    0    0  501  0.00000000000E+00  0.00000000000E+00  0.20100965740E+04  0.20100965740E+04  0.25500000920E-02 0.  1.
        2   -1    0    0  501    0  0.00000000000E+00  0.00000000000E+00 -0.17924159240E+04  0.17924159240E+04  0.25500000920E-02 0. -1.
    10030    2    1    2    0    0  0.00000000000E+00  0.00000000000E+00  0.21768065003E+03  0.38025124980E+04  0.37962766538E+04 0.  0.
        1    1    3    3  502    0 -0.19931063917E+02 -0.27085826841E+03 -0.17728534206E+04  0.17935358095E+04  0.50400001928E-02 0. -1.
       -1    1    3    3    0  502  0.19931063917E+02  0.27085826841E+03  0.19905340706E+04  0.20089766886E+04  0.50400001928E-02 0.  1.
</event>
<event>
 5   0  0.6661000E-08  0.3780552E+04  0.7818609E-02  0.8050341E-01
       -1   -1    0    0    0  501  0.00000000000E+00  0.00000000000E+00  0.20402259650E+04  0.20402259650E+04  0.50400001928E-02 0.  1.
        1   -1    0    0  501    0  0.00000000000E+00  0.00000000000E+00 -0.17513471534E+04  0.17513471534E+04  0.50400001928E-02 0. -1.
    10030    2    1    2    0    0  0.00000000000E+00  0.00000000000E+00  0.28887881162E+03  0.37915731184E+04  0.37805523068E+04 0.  0.
        4    1    3    3  502    0 -0.15871092630E+04 -0.45298159452E+03  0.10685560083E+04  0.19661947242E+04  0.12699999809E+01 0.  1.
       -4    1    3    3    0  502  0.15871092630E+04  0.45298159452E+03 -0.77967719670E+03  0.18253783941E+04  0.12699999809E+01 0. -1.
</event>
<event>
 5   0  0.1370688E-07  0.3805081E+04  0.7818609E-02  0.8045065E-01
        2   -1    0    0  501    0  0.00000000000E+00  0.00000000000E+00  0.26539202210E+04  0.26539202210E+04  0.25500000920E-02 0.  1.
       -2   -1    0    0    0  501  0.00000000000E+00  0.00000000000E+00 -0.13638917924E+04  0.13638917924E+04  0.25500000920E-02 0. -1.
    10030    2    1    2    0    0  0.00000000000E+00  0.00000000000E+00  0.12900284285E+04  0.40178120134E+04  0.38050808176E+04 0.  0.
        5    1    3    3  502    0  0.73284401920E+03 -0.66778277512E+03  0.23595693390E+04  0.25594108202E+04  0.46999998093E+01 0.  1.
       -5    1    3    3    0  502 -0.73284401920E+03  0.66778277512E+03 -0.10695409104E+04  0.14584011932E+04  0.46999998093E+01 0. -1.
</event>
<event>
 5   0  0.6661000E-08  0.3803110E+04  0.7818609E-02  0.8045488E-01
        1   -1    0    0  501    0  0.00000000000E+00  0.00000000000E+00  0.23204300837E+04  0.23204300837E+04  0.50400001928E-02 0.  1.
       -1   -1    0    0    0  501  0.00000000000E+00  0.00000000000E+00 -0.15582938313E+04  0.15582938313E+04  0.50400001928E-02 0. -1.
    10030    2    1    2    0    0  0.00000000000E+00  0.00000000000E+00  0.76213625237E+03  0.38787239150E+04  0.38031102458E+04 0.  0.
        2    1    3    3  502    0  0.32730005638E+03  0.15919251687E+04 -0.62575788206E+03  0.17415292121E+04  0.25500000920E-02 0. -1.
       -2    1    3    3    0  502 -0.32730005638E+03 -0.15919251687E+04  0.13878941344E+04  0.21371947029E+04  0.25500000920E-02 0.  1.
</event>
<event>
 5   0  0.6661000E-08  0.3843136E+04  0.7818609E-02  0.8036961E-01
        1   -1    0    0  501    0  0.00000000000E+00  0.00000000000E+00  0.24675602875E+04  0.24675602875E+04  0.50400001928E-02 0.  1.
       -1   -1    0    0    0  501  0.00000000000E+00  0.00000000000E+00 -0.14963864697E+04  0.14963864697E+04  0.50400001928E-02 0. -1.
    10030    2    1    2    0    0  0.00000000000E+00  0.00000000000E+00  0.97117381780E+03  0.39639467573E+04  0.38431361295E+04 0.  0.
        1    1    3    3  502    0  0.65302933924E+03  0.10796406996E+04 -0.10092304594E+04  0.16157405356E+04  0.50400001928E-02 0. -1.
       -1    1    3    3    0  502 -0.65302933924E+03 -0.10796406996E+04  0.19804042772E+04  0.23482062217E+04  0.50400001928E-02 0.  1.
</event>
<event>
 5   0  0.6661000E-08  0.3795008E+04  0.7818609E-02  0.8047227E-01
       -1   -1    0    0    0  501  0.00000000000E+00  0.00000000000E+00  0.13393418821E+04  0.13393418821E+04  0.50400001928E-02 0.  1.
        1   -1    0    0  501    0  0.00000000000E+00  0.00000000000E+00 -0.26882767982E+04  0.26882767982E+04  0.50400001928E-02 0. -1.
    10030    2    1    2    0    0  0.00000000000E+00  0.00000000000E+00 -0.13489349161E+04  0.40276186804E+04  0.37950081458E+04 0.  0.
        1    1    3    3  502    0 -0.56893027714E+03 -0.10588234354E+04 -0.22327030392E+04  0.25356954842E+04  0.50400001928E-02 0. -1.
       -1    1    3    3    0  502  0.56893027714E+03  0.10588234354E+04  0.88376812309E+03  0.14919231961E+04  0.50400001928E-02 0.  1.
</event>
<event>
 5   0  0.6661000E-08  0.3789086E+04  0.7818609E-02  0.8048501E-01
       -1   -1    0    0    0  501  0.00000000000E+00  0.00000000000E+00  0.18942359399E+04  0.18942359399E+04  0.50400001928E-02 0. -1.
        1   -1    0    0  501    0  0.00000000000E+00  0.00000000000E+00 -0.18948501163E+04  0.18948501163E+04  0.50400001928E-02 0.  1.
    10030    2    1    2    0    0  0.00000000000E+00  0.00000000000E+00 -0.61417642034E+00  0.37890860563E+04  0.37890860065E+04 0.  0.
        3    1    3    3  502    0  0.16852599984E+04 -0.17911382797E+03 -0.84713066738E+03  0.18946802905E+04  0.10100000352E+00 0.  1.
       -3    1    3    3    0  502 -0.16852599984E+04  0.17911382797E+03  0.84651649096E+03  0.18944057657E+04  0.10100000352E+00 0. -1.
</event>
<event>
 5   0  0.1370688E-07  0.3799405E+04  0.7818609E-02  0.8046283E-01
       -2   -1    0    0    0  501  0.00000000000E+00  0.00000000000E+00  0.13598435209E+04  0.13598435209E+04  0.25500000920E-02 0.  1.
        2   -1    0    0  501    0  0.00000000000E+00  0.00000000000E+00 -0.26538862309E+04  0.26538862309E+04  0.25500000920E-02 0. -1.
    10030    2    1    2    0    0  0.00000000000E+00  0.00000000000E+00 -0.12940427100E+04  0.40137297518E+04  0.37994052147E+04 0.  0.
        5    1    3    3  502    0  0.54244274892E+03  0.16385542047E+04 -0.14853503631E+04  0.22771455397E+04  0.46999998093E+01 0. -1.
       -5    1    3    3    0  502 -0.54244274892E+03 -0.16385542047E+04  0.19130765310E+03  0.17365842121E+04  0.46999998093E+01 0.  1.
</event>
<event>
 5   0  0.2081337E-07  0.3856946E+04  0.7818609E-02  0.8034044E-01
       -2   -1    0    0    0  501  0.00000000000E+00  0.00000000000E+00  0.17157663499E+04  0.17157663499E+04  0.25500000920E-02 0. -1.
        2   -1    0    0  501    0  0.00000000000E+00  0.00000000000E+00 -0.21675488881E+04  0.21675488881E+04  0.25500000920E-02 0.  1.
    10030    2    1    2    0    0  0.00000000000E+00  0.00000000000E+00 -0.45178253820E+03  0.38833152381E+04  0.38569456538E+04 0.  0.
        1    1    3    3  502    0  0.83530470454E+03 -0.49463230479E+01 -0.19759490561E+04  0.21452582800E+04  0.50400001928E-02 0.  1.
       -1    1    3    3    0  502 -0.83530470454E+03  0.49463230479E+01  0.15241665179E+04  0.17380569581E+04  0.50400001928E-02 0. -1.
</event>
<event>
 5   0  0.6661000E-08  0.3842473E+04  0.7818609E-02  0.8037101E-01
        1   -1    0    0  501    0  0.00000000000E+00  0.00000000000E+00  0.24561501421E+04  0.24561501421E+04  0.50400001928E-02 0. -1.
       -1   -1    0    0    0  501  0.00000000000E+00  0.00000000000E+00 -0.15028188602E+04  0.15028188602E+04  0.50400001928E-02 0.  1.
    10030    2    1    2    0    0  0.00000000000E+00  0.00000000000E+00  0.95333128190E+03  0.39589690024E+04  0.38424725150E+04 0.  0.
        4    1    3    3  502    0  0.97043002113E+03 -0.28196305126E+03 -0.12068595009E+04  0.15740867371E+04  0.12699999809E+01 0.  1.
       -4    1    3    3    0  502 -0.97043002113E+03  0.28196305126E+03  0.21601907828E+04  0.23848822653E+04  0.12699999809E+01 0. -1.
</event>
<event>
 5   0  0.6661000E-08  0.3784450E+04  0.7818609E-02  0.8049500E-01
        1   -1    0    0  501    0  0.00000000000E+00  0.00000000000E+00  0.21992493446E+04  0.21992493446E+04  0.50400001928E-02 0.  1.
       -1   -1    0    0    0  501  0.00000000000E+00  0.00000000000E+00 -0.16280625419E+04  0.16280625419E+04  0.50400001928E-02 0. -1.
    10030    2    1    2    0    0  0.00000000000E+00  0.00000000000E+00  0.57118680273E+03  0.38273118865E+04  0.37844500145E+04 0.  0.
        3    1    3    3  502    0 -0.71880526972E+03 -0.61220204969E+02 -0.14835292169E+04  0.16496326491E+04  0.10100000352E+00 0. -1.
       -3    1    3    3    0  502  0.71880526972E+03  0.61220204969E+02  0.20547160197E+04  0.21776792374E+04  0.10100000352E+00 0.  1.
</event>
<event>
 5   0  0.1370688E-07  0.3816116E+04  0.7818609E-02  0.8042705E-01
        2   -1    0    0  501    0  0.00000000000E+00  0.00000000000E+00  0.14644947867E+04  0.14644947867E+04  0.25500000920E-02 0.  1.
       -2   -1    0    0    0  501  0.00000000000E+00  0.00000000000E+00 -0.24859662103E+04  0.24859662103E+04  0.25500000920E-02 0. -1.
    10030    2    1    2    0    0  0.00000000000E+00  0.00000000000E+00 -0.10214714236E+04  0.39504609970E+04  0.38161155930E+04 0.  0.
        5    1    3    3  502    0 -0.59400690241E+03 -0.30852466671E+03 -0.23604327714E+04  0.24535070060E+04  0.46999998093E+01 0. -1.
       -5    1    3    3    0  502  0.59400690241E+03  0.30852466671E+03  0.13389613478E+04  0.14969539910E+04  0.46999998093E+01 0.  1.
</event>
<event>
 5   0  0.6661000E-08  0.3814028E+04  0.7818609E-02  0.8043151E-01
        1   -1    0    0  501    0  0.00000000000E+00  0.00000000000E+00  0.21185325486E+04  0.21185325486E+04  0.50400001928E-02 0.  1.
       -1   -1    0    0    0  501  0.00000000000E+00  0.00000000000E+00 -0.17166134452E+04  0.17166134452E+04  0.50400001928E-02 0. -1.
    10030    2    1    2    0    0  0.00000000000E+00  0.00000000000E+00  0.40191910342E+03  0.38351459939E+04  0.38140275076E+04 0.  0.
        3    1    3    3  502    0  0.15845130291E+02  0.42525465270E+02  0.21179895032E+04  0.21184756381E+04  0.10100000352E+00 0.  1.
       -3    1    3    3    0  502 -0.15845130291E+02 -0.42525465270E+02 -0.17160703998E+04  0.17166703558E+04  0.10100000352E+00 0. -1.
</event>
<event>
 5   0  0.6661000E-08  0.3775132E+04  0.7818609E-02  0.8051513E-01
       -1   -1    0    0    0  501  0.00000000000E+00  0.00000000000E+00  0.13323654627E+04  0.13323654627E+04  0.50400001928E-02 0.  1.
        1   -1    0    0  501    0  0.00000000000E+00  0.00000000000E+00 -0.26741205582E+04  0.26741205582E+04  0.50400001928E-02 0. -1.
    10030    2    1    2    0    0  0.00000000000E+00  0.00000000000E+00 -0.13417550955E+04  0.40064860209E+04  0.37751322492E+04 0.  0.
        1    1    3    3  502    0 -0.11688810212E+04 -0.13033725252E+01  0.90205123688E+03  0.14764758632E+04  0.50400001928E-02 0.  1.
       -1    1    3    3    0  502  0.11688810212E+04  0.13033725252E+01 -0.22438063324E+04  0.25300101577E+04  0.50400001928E-02 0. -1.
</event>
<event>
 5   0  0.2135314E-07  0.3762210E+04  0.7818609E-02  0.8054313E-01
       -2   -1    0    0    0  501  0.00000000000E+00  0.00000000000E+00  0.17210237218E+04  0.17210237218E+04  0.25500000920E-02 0. -1.
        2   -1    0    0  501    0  0.00000000000E+00  0.00000000000E+00 -0.20560762472E+04  0.20560762472E+04  0.25500000920E-02 0.  1.
    10030    2    1    2    0    0  0.00000000000E+00  0.00000000000E+00 -0.33505252534E+03  0.37770999690E+04  0.37622099863E+04 0.  0.
        4    1    3    3  502    0 -0.51808827900E+03 -0.13326510072E+04  0.10596782334E+04  0.17796892265E+04  0.12699999809E+01 0. -1.
       -4    1    3    3    0  502  0.51808827900E+03  0.13326510072E+04 -0.13947307587E+04  0.19974107424E+04  0.12699999809E+01 0.  1.
</event>
<event>
 5   0  0.2205204E-07  0.3822900E+04  0.7818609E-02  0.8041258E-01
       -2   -1    0    0    0  501  0.00000000000E+00  0.00000000000E+00  0.25971788255E+04  0.25971788255E+04  0.25500000920E-02 0. -1.
        2   -1    0    0  501    0  0.00000000000E+00  0.00000000000E+00 -0.14067730685E+04  0.14067730685E+04  0.25500000920E-02 0.  1.
    10030    2    1    2    0    0  0.00000000000E+00  0.00000000000E+00  0.11904057570E+04  0.40039518940E+04  0.38229000645E+04 0.  0.
        2    1    3    3  502    0  0.77647583307E+03  0.15070816463E+03 -0.12273276566E+04  0.14601235724E+04  0.25500000920E-02 0.  1.
       -2    1    3    3    0  502 -0.77647583307E+03 -0.15070816463E+03  0.24177334136E+04  0.25438283215E+04  0.25500000920E-02 0. -1.
</event>
<event>
 5   0  0.1370688E-07  0.3772884E+04  0.7818609E-02  0.8051999E-01
       -2   -1    0    0    0  501  0.00000000000E+00  0.00000000000E+00  0.20003731365E+04  0.20003731365E+04  0.25500000920E-02 0.  1.
        2   -1    0    0  501    0  0.00000000000E+00  0.00000000000E+00 -0.17789995099E+04  0.17789995099E+04  0.25500000920E-02 0. -1.
    10030    2    1    2    0    0  0.00000000000E+00  0.00000000000E+00  0.22137362661E+03  0.37793726464E+04  0.37728836873E+04 0.  0.
        5    1    3    3  502    0  0.46744090418E+03  0.17843464035E+04  0.50664839443E+03  0.19128794453E+04  0.46999998093E+01 0.  1.
       -5    1    3    3    0  502 -0.46744090418E+03 -0.17843464035E+04 -0.28527476783E+03  0.18664932011E+04  0.46999998093E+01 0. -1.
</event>
<event>
 5   0  0.2205204E-07  0.3853163E+04  0.7818609E-02  0.8034842E-01
       -2   -1    0    0    0  501  0.00000000000E+00  0.00000000000E+00  0.12919006860E+04  0.12919006860E+04  0.25500000920E-02 0.  1.
        2   -1    0    0  501    0  0.00000000000E+00  0.00000000000E+00 -0.28730657089E+04  0.28730657089E+04  0.25500000920E-02 0. -1.
    10030    2    1    2    0    0  0.00000000000E+00  0.00000000000E+00 -0.15811650229E+04  0.41649663949E+04  0.38531626284E+04 0.  0.
        2    1    3    3  502    0  0.10738351827E+04  0.52656007095E+03  0.84204846636E+03  0.14626801180E+04  0.25500000920E-02 0.  1.
       -2    1    3    3    0  502 -0.10738351827E+04 -0.52656007095E+03 -0.24232134893E+04  0.27022862769E+04  0.25500000920E-02 0. -1.
</event>
<event>
 5   0  0.6661000E-08  0.3795778E+04  0.7818609E-02  0.8047061E-01
       -1   -1    0    0    0  501  0.00000000000E+00  0.00000000000E+00  0.22902964716E+04  0.22902964716E+04  0.50400001928E-02 0.  1.
        1   -1    0    0  501    0  0.00000000000E+00  0.00000000000E+00 -0.15727147057E+04  0.15727147057E+04  0.50400001928E-02 0. -1.
    10030    2    1    2    0    0  0.00000000000E+00  0.00000000000E+00  0.71758176585E+03  0.38630111773E+04  0.37957781502E+04 0.  0.
        2    1    3    3  502    0 -0.14650083357E+04 -0.80672622326E+02 -0.86636999002E+03  0.17039232540E+04  0.25500000920E-02 0. -1.
       -2    1    3    3    0  502  0.14650083357E+04  0.80672622326E+02  0.15839517559E+04  0.21590879233E+04  0.25500000920E-02 0.  1.
</event>
<event>
 5   0  0.6725199E-08  0.3785860E+04  0.7818609E-02  0.8049196E-01
       -1   -1    0    0    0  501  0.00000000000E+00  0.00000000000E+00  0.18529921898E+04  0.18529921898E+04  0.50400001928E-02 0. -1.
        1   -1    0    0  501    0  0.00000000000E+00  0.00000000000E+00 -0.19337283545E+04  0.19337283545E+04  0.50400001928E-02 0.  1.
    10030    2    1    2    0    0  0.00000000000E+00  0.00000000000E+00 -0.80736164650E+02  0.37867205443E+04  0.37858597640E+04 0.  0.
        5    1    3    3  502    0 -0.44185349297E+03  0.18316820958E+04 -0.22170364580E+03  0.18972265036E+04  0.46999998093E+01 0.  1.
       -5    1    3    3    0  502  0.44185349297E+03 -0.18316820958E+04  0.14096748115E+03  0.18894940408E+04  0.46999998093E+01 0. -1.
</event>
<event>
 5   0  0.6661000E-08  0.3810087E+04  0.7818609E-02  0.8043994E-01
       -1   -1    0    0    0  501  0.00000000000E+00  0.00000000000E+00  0.22415216110E+04  0.22415216110E+04  0.50400001928E-02 0. -1.
        1   -1    0    0  501    0  0.00000000000E+00  0.00000000000E+00 -0.16190744704E+04  0.16190744704E+04  0.50400001928E-02 0.  1.
    10030    2    1    2    0    0  0.00000000000E+00  0.00000000000E+00  0.62244714055E+03  0.38605960814E+04  0.38100868312E+04 0.  0.
        1    1    3    3  502    0  0.38636883901E+03  0.18336828449E+04 -0.36128103870E+02  0.18742942393E+04  0.50400001928E-02 0. -1.
       -1    1    3    3    0  502 -0.38636883901E+03 -0.18336828449E+04  0.65857524442E+03  0.19863018421E+04  0.50400001928E-02 0.  1.
</event>
<event>
 5   0  0.2205204E-07  0.3794996E+04  0.7818609E-02  0.8047230E-01
        2   -1    0    0  501    0  0.00000000000E+00  0.00000000000E+00  0.24801347767E+04  0.24801347767E+04  0.25500000920E-02 0. -1.
       -2   -1    0    0    0  501  0.00000000000E+00  0.00000000000E+00 -0.14517352843E+04  0.14517352843E+04  0.25500000920E-02 0.  1.
    10030    2    1    2    0    0  0.00000000000E+00  0.00000000000E+00  0.10283994924E+04  0.39318700610E+04  0.37949962662E+04 0.  0.
        2    1    3    3  502    0  0.14819192689E+04 -0.10494332898E+04  0.10846053619E+04  0.21151273579E+04  0.25500000920E-02 0. -1.
       -2    1    3    3    0  502 -0.14819192689E+04  0.10494332898E+04 -0.56205869502E+02  0.18167427030E+04  0.25500000920E-02 0.  1.
</event>
<event>
 5   0  0.2135314E-07  0.3808627E+04  0.7818609E-02  0.8044306E-01
        2   -1    0    0  501    0  0.00000000000E+00  0.00000000000E+00  0.20390516954E+04  0.20390516954E+04  0.25500000920E-02 0.  1.
       -2   -1    0    0    0  501  0.00000000000E+00  0.00000000000E+00 -0.17784785711E+04  0.17784785711E+04  0.25500000920E-02 0. -1.
    10030    2    1    2    0    0  0.00000000000E+00  0.00000000000E+00  0.26057312432E+03  0.38175302665E+04  0.38086269156E+04 0.  0.
        4    1    3    3  502    0  0.11635329531E+04  0.11275699496E+04  0.11332180558E+04  0.19772222179E+04  0.12699999809E+01 0.  1.
       -4    1    3    3    0  502 -0.11635329531E+04 -0.11275699496E+04 -0.87264493144E+03  0.18403080485E+04  0.12699999809E+01 0. -1.
</event>
<event>
 5   0  0.2081337E-07  0.3798496E+04  0.7818609E-02  0.8046478E-01
       -2   -1    0    0    0  501  0.00000000000E+00  0.00000000000E+00  0.20296891865E+04  0.20296891865E+04  0.25500000920E-02 0. -1.
        2   -1    0    0  501    0  0.00000000000E+00  0.00000000000E+00 -0.17771894340E+04  0.17771894340E+04  0.25500000920E-02 0.  1.
    10030    2    1    2    0    0  0.00000000000E+00  0.00000000000E+00  0.25249975253E+03  0.38068786205E+04  0.37984955846E+04 0.  0.
        1    1    3    3  502    0 -0.13825921541E+04 -0.97988588837E+03 -0.73320013496E+03  0.18464343629E+04  0.50400001928E-02 0.  1.
       -1    1    3    3    0  502  0.13825921541E+04  0.97988588837E+03  0.98569988749E+03  0.19604442575E+04  0.50400001928E-02 0. -1.
</event>
<event>
 5   0  0.2081337E-07  0.3765850E+04  0.7818609E-02  0.8053523E-01
       -2   -1    0    0    0  501  0.00000000000E+00  0.00000000000E+00  0.12907197441E+04  0.12907197441E+04  0.25500000920E-02 0. -1.
        2   -1    0    0  501    0  0.00000000000E+00  0.00000000000E+00 -0.27468448268E+04  0.27468448268E+04  0.25500000920E-02 0.  1.
    10030    2    1    2    0    0  0.00000000000E+00  0.00000000000E+00 -0.14561250827E+04  0.40375645710E+04  0.37658501575E+04 0.  0.
        1    1    3    3  502    0  0.70300743272E+02  0.45664356139E+03  0.12290018597E+04  0.13129779540E+04  0.50400001928E-02 0. -1.
       -1    1    3    3    0  502 -0.70300743272E+02 -0.45664356139E+03 -0.26851269424E+04  0.27245866170E+04  0.50400001928E-02 0.  1.
</event>
<event>
 5   0  0.1370688E-07  0.3797187E+04  0.7818609E-02  0.8046759E-01
       -2   -1    0    0    0  501  0.00000000000E+00  0.00000000000E+00  0.34176721943E+04  0.34176721943E+04  0.25500000920E-02 0.  1.
        2   -1    0    0  501    0  0.00000000000E+00  0.00000000000E+00 -0.10547113059E+04  0.10547113059E+04  0.25500000920E-02 0. -1.
    10030    2    1    2    0    0  0.00000000000E+00  0.00000000000E+00  0.23629608884E+04  0.44723835002E+04  0.37971871185E+04 0.  0.
        5    1    3    3  502    0  0.13475957489E+04  0.12295568190E+04  0.56179853271E+03  0.19087859898E+04  0.46999998093E+01 0. -1.
       -5    1    3    3    0  502 -0.13475957489E+04 -0.12295568190E+04  0.18011623557E+04  0.25635975104E+04  0.46999998093E+01 0.  1.
</event>
<event>
 5   0  0.1370688E-07  0.3805561E+04  0.7818609E-02  0.8044963E-01
        2   -1    0    0  501    0  0.00000000000E+00  0.00000000000E+00  0.24233407032E+04  0.24233407032E+04  0.25500000920E-02 0. -1.
       -2   -1    0    0    0  501  0.00000000000E+00  0.00000000000E+00 -0.14940420047E+04  0.14940420047E+04  0.25500000920E-02 0.  1.
    10030    2    1    2    0    0  0.00000000000E+00  0.00000000000E+00  0.92929869853E+03  0.39173827079E+04  0.38055605643E+04 0.  0.
        5    1    3    3  502    0 -0.11624143536E+04 -0.12503694904E+04 -0.40022899130E+03  0.17535211226E+04  0.46999998093E+01 0.  1.
       -5    1    3    3    0  502  0.11624143536E+04  0.12503694904E+04  0.13295276898E+04  0.21638615852E+04  0.46999998093E+01 0. -1.
</event>
<event>
 5   0  0.2081337E-07  0.3776850E+04  0.7818609E-02  0.8051141E-01
        2   -1    0    0  501    0  0.00000000000E+00  0.00000000000E+00  0.25869877030E+04  0.25869877030E+04  0.25500000920E-02 0. -1.
       -2   -1    0    0    0  501  0.00000000000E+00  0.00000000000E+00 -0.13784946850E+04  0.13784946850E+04  0.25500000920E-02 0.  1.
    10030    2    1    2    0    0  0.00000000000E+00  0.00000000000E+00  0.12084930181E+04  0.39654823880E+04  0.37768499037E+04 0.  0.
        1    1    3    3  502    0  0.12527820077E+04  0.77338941960E+03  0.18459161158E+04  0.23611438456E+04  0.50400001928E-02 0. -1.
       -1    1    3    3    0  502 -0.12527820077E+04 -0.77338941960E+03 -0.63742309771E+03  0.16043385424E+04  0.50400001928E-02 0.  1.
</event>
<event>
 5   0  0.1370688E-07  0.3744382E+04  0.7818609E-02  0.8058197E-01
       -2   -1    0    0    0  501  0.00000000000E+00  0.00000000000E+00  0.18678079012E+04  0.18678079012E+04  0.25500000920E-02 0.  1.
        2   -1    0    0  501    0  0.00000000000E+00  0.00000000000E+00 -0.18765844367E+04  0.18765844367E+04  0.25500000920E-02 0. -1.
    10030    2    1    2    0    0  0.00000000000E+00  0.00000000000E+00 -0.87765354376E+01  0.37443923379E+04  0.37443820522E+04 0.  0.
        5    1    3    3  502    0  0.16349681948E+03  0.15073091245E+04 -0.11027378338E+04  0.18747706064E+04  0.46999998093E+01 0. -1.
       -5    1    3    3    0  502 -0.16349681948E+03 -0.15073091245E+04  0.10939612983E+04  0.18696217315E+04  0.46999998093E+01 0.  1.
</event>
<event>
 5   0  0.2135314E-07  0.3808696E+04  0.7818609E-02  0.8044291E-01
        2   -1    0    0  501    0  0.00000000000E+00  0.00000000000E+00  0.21143207675E+04  0.21143207675E+04  0.25500000920E-02 0. -1.
       -2   -1    0    0    0  501  0.00000000000E+00  0.00000000000E+00 -0.17152272199E+04  0.17152272199E+04  0.25500000920E-02 0.  1.
    10030    2    1    2    0    0  0.00000000000E+00  0.00000000000E+00  0.39909354755E+03  0.38295479874E+04  0.38086955941E+04 0.  0.
        4    1    3    3  502    0  0.11616307886E+03 -0.15378073907E+03  0.21044897182E+04  0.21132962319E+04  0.12699999809E+01 0. -1.
       -4    1    3    3    0  502 -0.11616307886E+03  0.15378073907E+03 -0.17053961707E+04  0.17162517556E+04  0.12699999809E+01 0.  1.
</event>
<event>
 5   0  0.6661000E-08  0.3803118E+04  0.7818609E-02  0.8045486E-01
        1   -1    0    0  501    0  0.00000000000E+00  0.00000000000E+00  0.11621740683E+04  0.11621740683E+04  0.50400001928E-02 0.  1.
       -1   -1    0    0    0  501  0.00000000000E+00  0.00000000000E+00 -0.31113466713E+04  0.31113466713E+04  0.50400001928E-02 0. -1.
    10030    2    1    2    0    0  0.00000000000E+00  0.00000000000E+00 -0.19491726030E+04  0.42735207396E+04  0.38031178888E+04 0.  0.
        1    1    3    3  502    0  0.11559593948E+04 -0.14207803304E+04 -0.15487324746E+04  0.23986310986E+04  0.50400001928E-02 0. -1.
       -1    1    3    3    0  502 -0.11559593948E+04  0.14207803304E+04 -0.40044012845E+03  0.18748896410E+04  0.50400001928E-02 0.  1.
</event>
<event>
 5   0  0.2203998E-07  0.3801610E+04  0.7818609E-02  0.8045809E-01
        2   -1    0    0  501    0  0.00000000000E+00  0.00000000000E+00  0.16248343480E+04  0.16248343480E+04  0.25500000920E-02 0.  1.
       -2   -1    0    0    0  501  0.00000000000E+00  0.00000000000E+00 -0.22236480325E+04  0.22236480325E+04  0.25500000920E-02 0. -1.
    10030    2    1    2    0    0  0.00000000000E+00  0.00000000000E+00 -0.59881368457E+03  0.38484823805E+04  0.38016100279E+04 0.  0.
        3    1    3    3  502    0  0.13766403910E+04 -0.10169633221E+04 -0.11364672502E+04  0.20544855769E+04  0.10100000352E+00 0. -1.
       -3    1    3    3    0  502 -0.13766403910E+04  0.10169633221E+04  0.53765356568E+03  0.17939968036E+04  0.10100000352E+00 0.  1.
</event>
<event>
 5   0  0.2081337E-07  0.3594682E+04  0.7818609E-02  0.8091711E-01
        2   -1    0    0  501    0  0.00000000000E+00  0.00000000000E+00  0.17816198497E+04  0.17816198497E+04  0.25500000920E-02 0. -1.
       -2   -1    0    0    0  501  0.00000000000E+00  0.00000000000E+00 -0.18132012880E+04  0.18132012880E+04  0.25500000920E-02 0.  1.
    10030    2    1    2    0    0  0.00000000000E+00  0.00000000000E+00 -0.31581438320E+02  0.35948211377E+04  0.35946824094E+04 0.  0.
        1    1    3    3  502    0 -0.81947560545E+03  0.44653592821E+03 -0.15519166662E+04  0.18109058347E+04  0.50400001928E-02 0.  1.
       -1    1    3    3    0  502  0.81947560545E+03 -0.44653592821E+03  0.15203352279E+04  0.17839153030E+04  0.50400001928E-02 0. -1.
</event>
<event>
 5   0  0.6661000E-08  0.3612390E+04  0.7818609E-02  0.8087660E-01
        1   -1    0    0  501    0  0.00000000000E+00  0.00000000000E+00  0.14339987215E+04  0.14339987215E+04  0.50400001928E-02 0.  1.
       -1   -1    0    0    0  501  0.00000000000E+00  0.00000000000E+00 -0.22749946968E+04  0.22749946968E+04  0.50400001928E-02 0. -1.
    10030    2    1    2    0    0  0.00000000000E+00  0.00000000000E+00 -0.84099597527E+03  0.37089934183E+04  0.36123895064E+04 0.  0.
        2    1    3    3  502    0  0.87254978713E+03 -0.10433320948E+04 -0.16407477260E+04  0.21311823225E+04  0.25500000920E-02 0. -1.
       -2    1    3    3    0  502 -0.87254978713E+03  0.10433320948E+04  0.79975175077E+03  0.15778110958E+04  0.25500000920E-02 0.  1.
</event>
<event>
 5   0  0.2203998E-07  0.3842358E+04  0.7818609E-02  0.8037126E-01
       -2   -1    0    0    0  501  0.00000000000E+00  0.00000000000E+00  0.17444548665E+04  0.17444548665E+04  0.25500000920E-02 0. -1.
        2   -1    0    0  501    0  0.00000000000E+00  0.00000000000E+00 -0.21158059494E+04  0.21158059494E+04  0.25500000920E-02 0.  1.
    10030    2    1    2    0    0  0.00000000000E+00  0.00000000000E+00 -0.37135108296E+03  0.38602608159E+04  0.38423576018E+04 0.  0.
        3    1    3    3  502    0  0.83447460281E+03  0.95315659166E+03  0.12653784724E+04  0.17905412700E+04  0.10100000352E+00 0. -1.
       -3    1    3    3    0  502 -0.83447460281E+03 -0.95315659166E+03 -0.16367295554E+04  0.20697195459E+04  0.10100000352E+00 0.  1.
</event>
<event>
 5   0  0.2081337E-07  0.3806080E+04  0.7818609E-02  0.8044851E-01
        2   -1    0    0  501    0  0.00000000000E+00  0.00000000000E+00  0.15078915230E+04  0.15078915230E+04  0.25500000920E-02 0.  1.
       -2   -1    0    0    0  501  0.00000000000E+00  0.00000000000E+00 -0.24017381418E+04  0.24017381418E+04  0.25500000920E-02 0. -1.
    10030    2    1    2    0    0  0.00000000000E+00  0.00000000000E+00 -0.89384661876E+03  0.39096296648E+04  0.38060796547E+04 0.  0.
        1    1    3    3  502    0 -0.69533426581E+03  0.15323949216E+03 -0.22597575110E+04  0.23692775464E+04  0.50400001928E-02 0. -1.
       -1    1    3    3    0  502  0.69533426581E+03 -0.15323949216E+03  0.13659108923E+04  0.15403521184E+04  0.50400001928E-02 0.  1.
</event>
<event>
 5   0  0.6661000E-08  0.3787437E+04  0.7818609E-02  0.8048856E-01
       -1   -1    0    0    0  501  0.00000000000E+00  0.00000000000E+00  0.18648326934E+04  0.18648326934E+04  0.50400001928E-02 0.  1.
        1   -1    0    0  501    0  0.00000000000E+00  0.00000000000E+00 -0.19230521466E+04  0.19230521466E+04  0.50400001928E-02 0. -1.
    10030    2    1    2    0    0  0.00000000000E+00  0.00000000000E+00 -0.58219453180E+02  0.37878848401E+04  0.37874373997E+04 0.  0.
        2    1    3    3  502    0 -0.21591243763E+03 -0.12369378204E+04 -0.14468586449E+04  0.19157330948E+04  0.25500000920E-02 0. -1.
       -2    1    3    3    0  502  0.21591243763E+03  0.12369378204E+04  0.13886391918E+04  0.18721517452E+04  0.25500000920E-02 0.  1.
</event>
<event>
 5   0  0.1370688E-07  0.3848146E+04  0.7818609E-02  0.8035901E-01
       -2   -1    0    0    0  501  0.00000000000E+00  0.00000000000E+00  0.29835570905E+04  0.29835570905E+04  0.25500000920E-02 0. -1.
        2   -1    0    0  501    0  0.00000000000E+00  0.00000000000E+00 -0.12408201498E+04  0.12408201498E+04  0.25500000920E-02 0.  1.
    10030    2    1    2    0    0  0.00000000000E+00  0.00000000000E+00  0.17427369407E+04  0.42243772404E+04  0.38481464401E+04 0.  0.
        5    1    3    3  502    0 -0.13366067843E+04  0.13779155302E+04  0.10139380810E+04  0.21710047043E+04  0.46999998093E+01 0.  1.
       -5    1    3    3    0  502  0.13366067843E+04 -0.13779155302E+04  0.72879885974E+03  0.20533725361E+04  0.46999998093E+01 0. -1.
</event>
<event>
 5   0  0.6661000E-08  0.3813070E+04  0.7818609E-02  0.8043356E-01
        1   -1    0    0  501    0  0.00000000000E+00  0.00000000000E+00  0.24200332330E+04  0.24200332330E+04  0.50400001928E-02 0. -1.
       -1   -1    0    0    0  501  0.00000000000E+00  0.00000000000E+00 -0.15019944677E+04  0.15019944678E+04  0.50400001928E-02 0.  1.
    10030    2    1    2    0    0  0.00000000000E+00  0.00000000000E+00  0.91803876520E+03  0.39220277007E+04  0.38130704309E+04 0.  0.
        1    1    3    3  502    0 -0.12815825898E+04 -0.90466419091E+03  0.15734957338E+04  0.22218820980E+04  0.50400001928E-02 0. -1.
       -1    1    3    3    0  502  0.12815825898E+04  0.90466419091E+03 -0.65545696860E+03  0.17001456028E+04  0.50400001928E-02 0.  1.
</event>
<event>
 5   0  0.2081337E-07  0.3798498E+04  0.7818609E-02  0.8046477E-01
       -2   -1    0    0    0  501  0.00000000000E+00  0.00000000000E+00  0.13997405288E+04  0.13997405288E+04  0.25500000920E-02 0.  1.
        2   -1    0    0  501    0  0.00000000000E+00  0.00000000000E+00 -0.25770113410E+04  0.25770113410E+04  0.25500000920E-02 0. -1.
    10030    2    1    2    0    0  0.00000000000E+00  0.00000000000E+00 -0.11772708123E+04  0.39767518698E+04  0.37984982386E+04 0.  0.
        1    1    3    3  502    0 -0.13328367347E+03  0.15550225927E+04  0.54441258000E+03  0.16529503497E+04  0.50400001928E-02 0.  1.
       -1    1    3    3    0  502  0.13328367347E+03 -0.15550225927E+04 -0.17216833923E+04  0.23238015200E+04  0.50400001928E-02 0. -1.
</event>
<event>
 5   0  0.2205204E-07  0.3786304E+04  0.7818609E-02  0.8049100E-01
        2   -1    0    0  501    0  0.00000000000E+00  0.00000000000E+00  0.21535832709E+04  0.21535832709E+04  0.25500000920E-02 0. -1.
       -2   -1    0    0    0  501  0.00000000000E+00  0.00000000000E+00 -0.16642144860E+04  0.16642144860E+04  0.25500000920E-02 0.  1.
    10030    2    1    2    0    0  0.00000000000E+00  0.00000000000E+00  0.48936878487E+03  0.38177977569E+04  0.37863039900E+04 0.  0.
        2    1    3    3  502    0  0.18179100288E+04  0.12810408975E+03 -0.27223654242E+03  0.18426394834E+04  0.25500000920E-02 0. -1.
       -2    1    3    3    0  502 -0.18179100288E+04 -0.12810408975E+03  0.76160532729E+03  0.19751582735E+04  0.25500000920E-02 0.  1.
</event>
<event>
 5   0  0.6725199E-08  0.3798569E+04  0.7818609E-02  0.8046462E-01
        1   -1    0    0  501    0  0.00000000000E+00  0.00000000000E+00  0.13572799279E+04  0.13572799279E+04  0.50400001928E-02 0. -1.
       -1   -1    0    0    0  501  0.00000000000E+00  0.00000000000E+00 -0.26577286132E+04  0.26577286132E+04  0.50400001928E-02 0.  1.
    10030    2    1    2    0    0  0.00000000000E+00  0.00000000000E+00 -0.13004486854E+04  0.40150085411E+04  0.37985690466E+04 0.  0.
        5    1    3    3  502    0  0.18620129244E+04 -0.10232751240E+03 -0.10308785876E+04  0.21307969877E+04  0.46999998093E+01 0.  1.
       -5    1    3    3    0  502 -0.18620129244E+04  0.10232751240E+03 -0.26957009777E+03  0.18842115534E+04  0.46999998093E+01 0. -1.
</event>
<event>
 5   0  0.6661000E-08  0.3813884E+04  0.7818609E-02  0.8043182E-01
       -1   -1    0    0    0  501  0.00000000000E+00  0.00000000000E+00  0.15295999635E+04  0.15295999635E+04  0.50400001928E-02 0. -1.
        1   -1    0    0  501    0  0.00000000000E+00  0.00000000000E+00 -0.23773712361E+04  0.23773712361E+04  0.50400001928E-02 0.  1.
    10030    2    1    2    0    0  0.00000000000E+00  0.00000000000E+00 -0.84777127262E+03  0.39069711997E+04  0.38138835620E+04 0.  0.
        3    1    3    3  502    0 -0.25035450802E+03  0.72803233899E+03 -0.22110933099E+04  0.23412906914E+04  0.10100000352E+00 0.  1.
       -3    1    3    3    0  502  0.25035450802E+03 -0.72803233899E+03  0.13633220373E+04  0.15656805082E+04  0.10100000352E+00 0. -1.
</event>
<event>
 5   0  0.2203998E-07  0.3600992E+04  0.7818609E-02  0.8090265E-01
        2   -1    0    0  501    0  0.00000000000E+00  0.00000000000E+00  0.18286565613E+04  0.18286565613E+04  0.25500000920E-02 0.  1.
       -2   -1    0    0    0  501  0.00000000000E+00  0.00000000000E+00 -0.17727689121E+04  0.17727689121E+04  0.25500000920E-02 0. -1.
    10030    2    1    2    0    0  0.00000000000E+00  0.00000000000E+00  0.55887649161E+02  0.36014254735E+04  0.36009918094E+04 0.  0.
        3    1    3    3  502    0 -0.82991809055E+03  0.15964603974E+04  0.93797446757E+02  0.18017346666E+04  0.10100000352E+00 0. -1.
       -3    1    3    3    0  502  0.82991809055E+03 -0.15964603974E+04 -0.37909797596E+02  0.17996908069E+04  0.10100000352E+00 0.  1.
</event>
<event>
 5   0  0.1370688E-07  0.3459541E+04  0.7818609E-02  0.8123446E-01
        2   -1    0    0  501    0  0.00000000000E+00  0.00000000000E+00  0.22638170607E+04  0.22638170607E+04  0.25500000920E-02 0. -1.
       -2   -1    0    0    0  501  0.00000000000E+00  0.00000000000E+00 -0.13217086620E+04  0.13217086620E+04  0.25500000920E-02 0.  1.
    10030    2    1    2    0    0  0.00000000000E+00  0.00000000000E+00  0.94210839869E+03  0.35855257227E+04  0.34595413674E+04 0.  0.
        5    1    3    3  502    0 -0.26301593209E+03 -0.75672743508E+03  0.20599421115E+04  0.22102482630E+04  0.46999998093E+01 0. -1.
       -5    1    3    3    0  502  0.26301593209E+03  0.75672743508E+03 -0.11178337128E+04  0.13752774596E+04  0.46999998093E+01 0.  1.
</event>
<event>
 5   0  0.6725199E-08  0.3819146E+04  0.7818609E-02  0.8042059E-01
        1   -1    0    0  501    0  0.00000000000E+00  0.00000000000E+00  0.23875764324E+04  0.23875764324E+04  0.50400001928E-02 0.  1.
       -1   -1    0    0    0  501  0.00000000000E+00  0.00000000000E+00 -0.15272677515E+04  0.15272677515E+04  0.50400001928E-02 0. -1.
    10030    2    1    2    0    0  0.00000000000E+00  0.00000000000E+00  0.86030868091E+03  0.39148441840E+04  0.38191457105E+04 0.  0.
        5    1    3    3  502    0  0.94492718685E+03  0.95180851716E+03 -0.96317739323E+03  0.16512297304E+04  0.46999998093E+01 0. -1.
       -5    1    3    3    0  502 -0.94492718685E+03 -0.95180851716E+03  0.18234860741E+04  0.22636144536E+04  0.46999998093E+01 0.  1.
</event>
<event>
 5   0  0.2081337E-07  0.3678940E+04  0.7818609E-02  0.8072645E-01
       -2   -1    0    0    0  501  0.00000000000E+00  0.00000000000E+00  0.17339870821E+04  0.17339870821E+04  0.25500000920E-02 0.  1.
        2   -1    0    0  501    0  0.00000000000E+00  0.00000000000E+00 -0.19513701449E+04  0.19513701449E+04  0.25500000920E-02 0. -1.
    10030    2    1    2    0    0  0.00000000000E+00  0.00000000000E+00 -0.21738306285E+03  0.36853572270E+04  0.36789404038E+04 0.  0.
        1    1    3    3  502    0 -0.11610344673E+04  0.10186054493E+04  0.89209681731E+03  0.17836464972E+04  0.50400001928E-02 0.  1.
       -1    1    3    3    0  502  0.11610344673E+04 -0.10186054493E+04 -0.11094798802E+04  0.19017107298E+04  0.50400001928E-02 0. -1.
</event>
<event>
 5   0  0.6661000E-08  0.3821118E+04  0.7818609E-02  0.8041638E-01
        1   -1    0    0  501    0  0.00000000000E+00  0.00000000000E+00  0.20038372662E+04  0.20038372663E+04  0.50400001928E-02 0.  1.
       -1   -1    0    0    0  501  0.00000000000E+00  0.00000000000E+00 -0.18216223975E+04  0.18216223975E+04  0.50400001928E-02 0. -1.
    10030    2    1    2    0    0  0.00000000000E+00  0.00000000000E+00  0.18221486879E+03  0.38254596637E+04  0.38211175565E+04 0.  0.
        4    1    3    3  502    0 -0.77551764227E+03 -0.26408881624E+03  0.18190649130E+04  0.19950361618E+04  0.12699999809E+01 0.  1.
       -4    1    3    3    0  502  0.77551764227E+03  0.26408881624E+03 -0.16368500442E+04  0.18304235019E+04  0.12699999809E+01 0. -1.
</event>
<event>
 5   0  0.2203998E-07  0.3808520E+04  0.7818609E-02  0.8044329E-01
       -2   -1    0    0    0  501  0.00000000000E+00  0.00000000000E+00  0.15465502695E+04  0.15465502695E+04  0.25500000920E-02 0.  1.
        2   -1    0    0  501    0  0.00000000000E+00  0.00000000000E+00 -0.23447061568E+04  0.23447061568E+04  0.25500000920E-02 0. -1.
    10030    2    1    2    0    0  0.00000000000E+00  0.00000000000E+00 -0.79815588728E+03  0.38912564264E+04  0.38085198904E+04 0.  0.
        3    1    3    3  502    0 -0.10126446247E+04 -0.56969637743E+03 -0.19405622314E+04  0.22618100898E+04  0.10100000352E+00 0. -1.
       -3    1    3    3    0  502  0.10126446247E+04  0.56969637743E+03  0.11424063441E+04  0.16294463365E+04  0.10100000352E+00 0.  1.
</event>
<event>
 5   0  0.2135314E-07  0.3833442E+04  0.7818609E-02  0.8039016E-01
       -2   -1    0    0    0  501  0.00000000000E+00  0.00000000000E+00  0.15971037073E+04  0.15971037073E+04  0.25500000920E-02 0.  1.
        2   -1    0    0  501    0  0.00000000000E+00  0.00000000000E+00 -0.23003015529E+04  0.23003015529E+04  0.25500000920E-02 0. -1.
    10030    2    1    2    0    0  0.00000000000E+00  0.00000000000E+00 -0.70319784566E+03  0.38974052602E+04  0.38334423893E+04 0.  0.
        4    1    3    3  502    0 -0.80835094688E+03 -0.13263471900E+04 -0.14933645248E+04  0.21547081794E+04  0.12699999809E+01 0. -1.
       -4    1    3    3    0  502  0.80835094688E+03  0.13263471900E+04  0.79016667910E+03  0.17426970808E+04  0.12699999809E+01 0.  1.
</event>
<event>
 5   0  0.2205204E-07  0.3815398E+04  0.7818609E-02  0.8042859E-01
        2   -1    0    0  501    0  0.00000000000E+00  0.00000000000E+00  0.29632565576E+04  0.29632565576E+04  0.25500000920E-02 0.  1.
       -2   -1    0    0    0  501  0.00000000000E+00  0.00000000000E+00 -0.12281473826E+04  0.12281473826E+04  0.25500000920E-02 0. -1.
    10030    2    1    2    0    0  0.00000000000E+00  0.00000000000E+00  0.17351091750E+04  0.41914039402E+04  0.38153981629E+04 0.  0.
        2    1    3    3  502    0  0.99283095581E+03  0.15225241158E+04  0.15038820497E+04  0.23591214911E+04  0.25500000920E-02 0.  1.
       -2    1    3    3    0  502 -0.99283095581E+03 -0.15225241158E+04  0.23122712530E+03  0.18322824492E+04  0.25500000920E-02 0. -1.
</event>
<event>
 5   0  0.2135314E-07  0.3740804E+04  0.7818609E-02  0.8058979E-01
       -2   -1    0    0    0  501  0.00000000000E+00  0.00000000000E+00  0.12390412340E+04  0.12390412340E+04  0.25500000920E-02 0.  1.
        2   -1    0    0  501    0  0.00000000000E+00  0.00000000000E+00 -0.28234757588E+04  0.28234757588E+04  0.25500000920E-02 0. -1.
    10030    2    1    2    0    0  0.00000000000E+00  0.00000000000E+00 -0.15844345248E+04  0.40625169928E+04  0.37408035973E+04 0.  0.
        4    1    3    3  502    0  0.16473816640E+04 -0.70361929140E+03 -0.20793772423E+03  0.18033818687E+04  0.12699999809E+01 0.  1.
       -4    1    3    3    0  502 -0.16473816640E+04  0.70361929140E+03 -0.13764968006E+04  0.22591351241E+04  0.12699999809E+01 0. -1.
</event>
<event>
 5   0  0.2081337E-07  0.3812466E+04  0.7818609E-02  0.8043485E-01
        2   -1    0    0  501    0  0.00000000000E+00  0.00000000000E+00  0.24643937911E+04  0.24643937911E+04  0.25500000920E-02 0.  1.
       -2   -1    0    0    0  501  0.00000000000E+00  0.00000000000E+00 -0.14744903701E+04  0.14744903701E+04  0.25500000920E-02 0. -1.
    10030    2    1    2    0    0  0.00000000000E+00  0.00000000000E+00  0.98990342102E+03  0.39388841612E+04  0.38124663477E+04 0.  0.
        1    1    3    3  502    0  0.40352930513E+03 -0.29762818688E+03 -0.14051360850E+04  0.14919201906E+04  0.50400001928E-02 0. -1.
       -1    1    3    3    0  502 -0.40352930513E+03  0.29762818688E+03  0.23950395061E+04  0.24469639706E+04  0.50400001928E-02 0.  1.
</event>
<event>
 5   0  0.6725199E-08  0.3331693E+04  0.7818609E-02  0.8154878E-01
       -1   -1    0    0    0  501  0.00000000000E+00  0.00000000000E+00  0.93385005430E+03  0.93385005431E+03  0.50400001928E-02 0.  1.
        1   -1    0    0  501    0  0.00000000000E+00  0.00000000000E+00 -0.29716171947E+04  0.29716171947E+04  0.50400001928E-02 0. -1.
    10030    2    1    2    0    0  0.00000000000E+00  0.00000000000E+00 -0.20377671404E+04  0.39054672490E+04  0.33316931903E+04 0.  0.
        5    1    3    3  502    0 -0.79831140522E+03  0.27398289585E+03 -0.27024152862E+04  0.28311549226E+04  0.46999998093E+01 0. -1.
       -5    1    3    3    0  502  0.79831140522E+03 -0.27398289585E+03  0.66464814578E+03  0.10743123264E+04  0.46999998093E+01 0.  1.
</event>
<event>
 5   0  0.6661000E-08  0.3760642E+04  0.7818609E-02  0.8054654E-01
        1   -1    0    0  501    0  0.00000000000E+00  0.00000000000E+00  0.24725694513E+04  0.24725694513E+04  0.50400001928E-02 0.  1.
       -1   -1    0    0    0  501  0.00000000000E+00  0.00000000000E+00 -0.14299321716E+04  0.14299321716E+04  0.50400001928E-02 0. -1.
    10030    2    1    2    0    0  0.00000000000E+00  0.00000000000E+00  0.10426372797E+04  0.39025016229E+04  0.37606417563E+04 0.  0.
        1    1    3    3  502    0  0.68852926452E+03  0.10268454818E+03 -0.12912794428E+04  0.14669762315E+04  0.50400001928E-02 0. -1.
       -1    1    3    3    0  502 -0.68852926452E+03 -0.10268454818E+03  0.23339167225E+04  0.24355253914E+04  0.50400001928E-02 0.  1.
</event>
<event>
 5   0  0.2081337E-07  0.3769279E+04  0.7818609E-02  0.8052780E-01
        2   -1    0    0  501    0  0.00000000000E+00  0.00000000000E+00  0.28610535886E+04  0.28610535886E+04  0.25500000920E-02 0.  1.
       -2   -1    0    0    0  501  0.00000000000E+00  0.00000000000E+00 -0.12414535781E+04  0.12414535781E+04  0.25500000920E-02 0. -1.
    10030    2    1    2    0    0  0.00000000000E+00  0.00000000000E+00  0.16196000105E+04  0.41025071667E+04  0.37692785594E+04 0.  0.
        1    1    3    3  502    0  0.28542190525E+02  0.22702285580E+03  0.28458798601E+04  0.28550632588E+04  0.50400001928E-02 0.  1.
       -1    1    3    3    0  502 -0.28542190525E+02 -0.22702285580E+03 -0.12262798496E+04  0.12474439078E+04  0.50400001928E-02 0. -1.
</event>
<event>
 5   0  0.6661000E-08  0.3791896E+04  0.7818609E-02  0.8047896E-01
       -1   -1    0    0    0  501  0.00000000000E+00  0.00000000000E+00  0.13818513591E+04  0.13818513591E+04  0.50400001928E-02 0. -1.
        1   -1    0    0  501    0  0.00000000000E+00  0.00000000000E+00 -0.26013065584E+04  0.26013065585E+04  0.50400001928E-02 0.  1.
    10030    2    1    2    0    0  0.00000000000E+00  0.00000000000E+00 -0.12194551994E+04  0.39831579175E+04  0.37918960973E+04 0.  0.
        2    1    3    3  502    0  0.22278143595E+03  0.18442034122E+04 -0.10082046540E+04  0.21135738497E+04  0.25500000920E-02 0.  1.
       -2    1    3    3    0  502 -0.22278143595E+03 -0.18442034122E+04 -0.21125054532E+03  0.18695840678E+04  0.25500000920E-02 0. -1.
</event>
<event>
 5   0  0.6661000E-08  0.3800674E+04  0.7818609E-02  0.8046010E-01
        1   -1    0    0  501    0  0.00000000000E+00  0.00000000000E+00  0.25280653289E+04  0.25280653289E+04  0.50400001928E-02 0.  1.
       -1   -1    0    0    0  501  0.00000000000E+00  0.00000000000E+00 -0.14284757602E+04  0.14284757602E+04  0.50400001928E-02 0. -1.
    10030    2    1    2    0    0  0.00000000000E+00  0.00000000000E+00  0.10995895687E+04  0.39565410892E+04  0.38006736469E+04 0.  0.
        3    1    3    3  502    0 -0.43706077360E+03  0.58207870052E+03  0.23771884730E+04  0.24861341033E+04  0.10100000352E+00 0.  1.
       -3    1    3    3    0  502  0.43706077360E+03 -0.58207870052E+03 -0.12775989043E+04  0.14704069858E+04  0.10100000352E+00 0. -1.
</event>
<event>
 5   0  0.6661000E-08  0.3806179E+04  0.7818609E-02  0.8044830E-01
        1   -1    0    0  501    0  0.00000000000E+00  0.00000000000E+00  0.30435465574E+04  0.30435465574E+04  0.50400001928E-02 0.  1.
       -1   -1    0    0    0  501  0.00000000000E+00  0.00000000000E+00 -0.11899768000E+04  0.11899768000E+04  0.50400001928E-02 0. -1.
    10030    2    1    2    0    0  0.00000000000E+00  0.00000000000E+00  0.18535697573E+04  0.42335233574E+04  0.38061790778E+04 0.  0.
        4    1    3    3  502    0 -0.39454804964E+03 -0.11630507185E+04 -0.69018853503E+03  0.14087998311E+04  0.12699999809E+01 0. -1.
       -4    1    3    3    0  502  0.39454804964E+03  0.11630507185E+04  0.25437582924E+04  0.28247235263E+04  0.12699999809E+01 0.  1.
</event>
<event>
 5   0  0.2081337E-07  0.3775668E+04  0.7818609E-02  0.8051397E-01
        2   -1    0    0  501    0  0.00000000000E+00  0.00000000000E+00  0.10214446032E+04  0.10214446032E+04  0.25500000920E-02 0.  1.
       -2   -1    0    0    0  501  0.00000000000E+00  0.00000000000E+00 -0.34890955586E+04  0.34890955586E+04  0.25500000920E-02 0. -1.
    10030    2    1    2    0    0  0.00000000000E+00  0.00000000000E+00 -0.24676509554E+04  0.45105401618E+04  0.37756683268E+04 0.  0.
        1    1    3    3  502    0  0.64196791652E+03 -0.32331183884E+03 -0.33192275074E+04  0.33961632171E+04  0.50400001928E-02 0. -1.
       -1    1    3    3    0  502 -0.64196791652E+03  0.32331183884E+03  0.85157655204E+03  0.11143769447E+04  0.50400001928E-02 0.  1.
</event>
<event>
 5   0  0.6661000E-08  0.3847015E+04  0.7818609E-02  0.8036140E-01
       -1   -1    0    0    0  501  0.00000000000E+00  0.00000000000E+00  0.18221242437E+04  0.18221242437E+04  0.50400001928E-02 0. -1.
        1   -1    0    0  501    0  0.00000000000E+00  0.00000000000E+00 -0.20305315763E+04  0.20305315763E+04  0.50400001928E-02 0.  1.
    10030    2    1    2    0    0  0.00000000000E+00  0.00000000000E+00 -0.20840733267E+03  0.38526558200E+04  0.38470148494E+04 0.  0.
        2    1    3    3  502    0 -0.19196547755E+04  0.10673213252E+03 -0.16272399424E+03  0.19294935355E+04  0.25500000920E-02 0.  1.
       -2    1    3    3    0  502  0.19196547755E+04 -0.10673213252E+03 -0.45683338431E+02  0.19231622845E+04  0.25500000920E-02 0. -1.
</event>
<event>
 5   0  0.6661000E-08  0.3796738E+04  0.7818609E-02  0.8046855E-01
        1   -1    0    0  501    0  0.00000000000E+00  0.00000000000E+00  0.31579163757E+04  0.31579163757E+04  0.50400001928E-02 0. -1.
       -1   -1    0    0    0  501  0.00000000000E+00  0.00000000000E+00 -0.11411968848E+04  0.11411968849E+04  0.50400001928E-02 0.  1.
    10030    2    1    2    0    0  0.00000000000E+00  0.00000000000E+00  0.20167194909E+04  0.42991132606E+04  0.37967377210E+04 0.  0.
        3    1    3    3  502    0  0.12805118406E+04 -0.24353923870E+03  0.25711150182E+04  0.28826471136E+04  0.10100000352E+00 0. -1.
       -3    1    3    3    0  502 -0.12805118406E+04  0.24353923870E+03 -0.55439552729E+03  0.14164661470E+04  0.10100000352E+00 0.  1.
</event>
<event>
 5   0  0.6725199E-08  0.3784240E+04  0.7818609E-02  0.8049545E-01
       -1   -1    0    0    0  501  0.00000000000E+00  0.00000000000E+00  0.24037197975E+04  0.24037197975E+04  0.50400001928E-02 0. -1.
        1   -1    0    0  501    0  0.00000000000E+00  0.00000000000E+00 -0.14894072202E+04  0.14894072202E+04  0.50400001928E-02 0.  1.
    10030    2    1    2    0    0  0.00000000000E+00  0.00000000000E+00  0.91431257728E+03  0.38931270176E+04  0.37842397501E+04 0.  0.
        5    1    3    3  502    0 -0.91599606801E+01 -0.17241733397E+04 -0.34452061646E+03  0.17582872790E+04  0.46999998093E+01 0.  1.
       -5    1    3    3    0  502  0.91599606801E+01  0.17241733397E+04  0.12588331937E+04  0.21348397387E+04  0.46999998093E+01 0. -1.
</event>
<event>
 5   0  0.2081337E-07  0.3797401E+04  0.7818609E-02  0.8046713E-01
       -2   -1    0    0    0  501  0.00000000000E+00  0.00000000000E+00  0.15990579348E+04  0.15990579348E+04  0.25500000920E-02 0. -1.
        2   -1    0    0  501    0  0.00000000000E+00  0.00000000000E+00 -0.22544924289E+04  0.22544924289E+04  0.25500000920E-02 0.  1.
    10030    2    1    2    0    0  0.00000000000E+00  0.00000000000E+00 -0.65543449411E+03  0.38535503638E+04  0.37974012206E+04 0.  0.
        1    1    3    3  502    0 -0.41488405191E+03  0.11803956654E+04 -0.17769802119E+04  0.21732743446E+04  0.50400001928E-02 0.  1.
       -1    1    3    3    0  502  0.41488405191E+03 -0.11803956654E+04  0.11215457178E+04  0.16802760192E+04  0.50400001928E-02 0. -1.
</event>
<event>
 5   0  0.6661000E-08  0.3733514E+04  0.7818609E-02  0.8060575E-01
        3   -1    0    0  501    0  0.00000000000E+00  0.00000000000E+00  0.15857383988E+04  0.15857384020E+04  0.10100000352E+00 0. -1.
       -3   -1    0    0    0  501  0.00000000000E+00  0.00000000000E+00 -0.21975772098E+04  0.21975772122E+04  0.10100000352E+00 0.  1.
    10030    2    1    2    0    0  0.00000000000E+00  0.00000000000E+00 -0.61183881105E+03  0.37833156142E+04  0.37335144711E+04 0.  0.
        4    1    3    3  502    0  0.53286816987E+03  0.16543055312E+04  0.38442081776E+03  0.17800158019E+04  0.12699999809E+01 0. -1.
       -4    1    3    3    0  502 -0.53286816987E+03 -0.16543055312E+04 -0.99625962881E+03  0.20032998123E+04  0.12699999809E+01 0.  1.
</event>
<event>
 5   0  0.6661000E-08  0.3823330E+04  0.7818609E-02  0.8041167E-01
       -1   -1    0    0    0  501  0.00000000000E+00  0.00000000000E+00  0.13146922721E+04  0.13146922721E+04  0.50400001928E-02 0. -1.
        1   -1    0    0  501    0  0.00000000000E+00  0.00000000000E+00 -0.27797099465E+04  0.27797099465E+04  0.50400001928E-02 0.  1.
    10030    2    1    2    0    0  0.00000000000E+00  0.00000000000E+00 -0.14650176744E+04  0.40944022186E+04  0.38233300592E+04 0.  0.
        3    1    3    3  502    0 -0.13230887928E+04  0.85355687739E+03  0.42848642766E+03  0.16317855023E+04  0.10100000352E+00 0. -1.
       -3    1    3    3    0  502  0.13230887928E+04 -0.85355687739E+03 -0.18935041020E+04  0.24626167163E+04  0.10100000352E+00 0.  1.
</event>
<event>
 5   0  0.2205204E-07  0.3795855E+04  0.7818609E-02  0.8047045E-01
       -2   -1    0    0    0  501  0.00000000000E+00  0.00000000000E+00  0.12149063334E+04  0.12149063334E+04  0.25500000920E-02 0.  1.
        2   -1    0    0  501    0  0.00000000000E+00  0.00000000000E+00 -0.29649433948E+04  0.29649433948E+04  0.25500000920E-02 0. -1.
    10030    2    1    2    0    0  0.00000000000E+00  0.00000000000E+00 -0.17500370615E+04  0.41798497282E+04  0.37958548489E+04 0.  0.
        2    1    3    3  502    0 -0.44926763112E+03  0.20885592801E+03  0.11424425070E+04  0.12452457929E+04  0.25500000920E-02 0.  1.
       -2    1    3    3    0  502  0.44926763112E+03 -0.20885592801E+03 -0.28924795684E+04  0.29346039353E+04  0.25500000920E-02 0. -1.
</event>
<event>
 5   0  0.6661000E-08  0.3838671E+04  0.7818609E-02  0.8037907E-01
        1   -1    0    0  501    0  0.00000000000E+00  0.00000000000E+00  0.22640914902E+04  0.22640914902E+04  0.50400001928E-02 0.  1.
       -1   -1    0    0    0  501  0.00000000000E+00  0.00000000000E+00 -0.16270760519E+04  0.16270760519E+04  0.50400001928E-02 0. -1.
    10030    2    1    2    0    0  0.00000000000E+00  0.00000000000E+00  0.63701543828E+03  0.38911675421E+04  0.38386711466E+04 0.  0.
        2    1    3    3  502    0  0.96936644824E+02  0.75725054421E+03 -0.14665471993E+04  0.16533559168E+04  0.25500000920E-02 0. -1.
       -2    1    3    3    0  502 -0.96936644824E+02 -0.75725054421E+03  0.21035626376E+04  0.22378116252E+04  0.25500000920E-02 0.  1.
</event>
<event>
 5   0  0.1370688E-07  0.3781042E+04  0.7818609E-02  0.8050236E-01
        2   -1    0    0  501    0  0.00000000000E+00  0.00000000000E+00  0.16721653718E+04  0.16721653718E+04  0.25500000920E-02 0. -1.
       -2   -1    0    0    0  501  0.00000000000E+00  0.00000000000E+00 -0.21373899575E+04  0.21373899575E+04  0.25500000920E-02 0.  1.
    10030    2    1    2    0    0  0.00000000000E+00  0.00000000000E+00 -0.46522458570E+03  0.38095553294E+04  0.37810419056E+04 0.  0.
        5    1    3    3  502    0 -0.12726696810E+04  0.13931650332E+04 -0.11576159669E+03  0.18905078059E+04  0.46999998093E+01 0. -1.
       -5    1    3    3    0  502  0.12726696810E+04 -0.13931650332E+04 -0.34946298901E+03  0.19190475235E+04  0.46999998093E+01 0.  1.
</event>
<event>
 5   0  0.2135314E-07  0.3806991E+04  0.7818609E-02  0.8044656E-01
       -2   -1    0    0    0  501  0.00000000000E+00  0.00000000000E+00  0.16728962158E+04  0.16728962158E+04  0.25500000920E-02 0.  1.
        2   -1    0    0  501    0  0.00000000000E+00  0.00000000000E+00 -0.21658817630E+04  0.21658817630E+04  0.25500000920E-02 0. -1.
    10030    2    1    2    0    0  0.00000000000E+00  0.00000000000E+00 -0.49298554722E+03  0.38387779788E+04  0.38069911506E+04 0.  0.
        4    1    3    3  502    0  0.12264073376E+04  0.13000819571E+04 -0.90694693157E+03  0.20042061776E+04  0.12699999809E+01 0.  1.
       -4    1    3    3    0  502 -0.12264073376E+04 -0.13000819571E+04  0.41396138435E+03  0.18345718011E+04  0.12699999809E+01 0. -1.
</event>
<event>
 5   0  0.2135314E-07  0.3798980E+04  0.7818609E-02  0.8046374E-01
       -2   -1    0    0    0  501  0.00000000000E+00  0.00000000000E+00  0.15716372647E+04  0.15716372647E+04  0.25500000920E-02 0. -1.
        2   -1    0    0  501    0  0.00000000000E+00  0.00000000000E+00 -0.22957342907E+04  0.22957342907E+04  0.25500000920E-02 0.  1.
    10030    2    1    2    0    0  0.00000000000E+00  0.00000000000E+00 -0.72409702597E+03  0.38673715554E+04  0.37989796320E+04 0.  0.
        4    1    3    3  502    0 -0.11705574951E+04 -0.11279248861E+04  0.63831232331E+03  0.17463858775E+04  0.12699999809E+01 0. -1.
       -4    1    3    3    0  502  0.11705574951E+04  0.11279248861E+04 -0.13624093493E+04  0.21209856779E+04  0.12699999809E+01 0.  1.
</event>
<event>
 5   0  0.6725199E-08  0.3702250E+04  0.7818609E-02  0.8067463E-01
       -1   -1    0    0    0  501  0.00000000000E+00  0.00000000000E+00  0.30899517041E+04  0.30899517041E+04  0.50400001928E-02 0. -1.
        1   -1    0    0  501    0  0.00000000000E+00  0.00000000000E+00 -0.11089702668E+04  0.11089702668E+04  0.50400001928E-02 0.  1.
    10030    2    1    2    0    0  0.00000000000E+00  0.00000000000E+00  0.19809814373E+04  0.41989219709E+04  0.37022504322E+04 0.  0.
        5    1    3    3  502    0 -0.15820955949E+04 -0.78515169886E+03  0.16190543671E+04  0.23960068438E+04  0.46999998093E+01 0. -1.
       -5    1    3    3    0  502  0.15820955949E+04  0.78515169886E+03  0.36192707018E+03  0.18029151272E+04  0.46999998093E+01 0.  1.
</event>
<event>
 5   0  0.6725199E-08  0.3804175E+04  0.7818609E-02  0.8045260E-01
        1   -1    0    0  501    0  0.00000000000E+00  0.00000000000E+00  0.19177565110E+04  0.19177565110E+04  0.50400001928E-02 0. -1.
       -1   -1    0    0    0  501  0.00000000000E+00  0.00000000000E+00 -0.18865465341E+04  0.18865465341E+04  0.50400001928E-02 0.  1.
    10030    2    1    2    0    0  0.00000000000E+00  0.00000000000E+00  0.31209976870E+02  0.38043030451E+04  0.38041750217E+04 0.  0.
        5    1    3    3  502    0  0.90750797069E+03  0.85879369627E+03  0.14498141501E+04  0.19139175765E+04  0.46999998093E+01 0. -1.
       -5    1    3    3    0  502 -0.90750797069E+03 -0.85879369627E+03 -0.14186041732E+04  0.18903854686E+04  0.46999998093E+01 0.  1.
</event>
<event>
 5   0  0.6725199E-08  0.3806061E+04  0.7818609E-02  0.8044855E-01
        1   -1    0    0  501    0  0.00000000000E+00  0.00000000000E+00  0.17022923905E+04  0.17022923905E+04  0.50400001928E-02 0. -1.
       -1   -1    0    0    0  501  0.00000000000E+00  0.00000000000E+00 -0.21274405439E+04  0.21274405440E+04  0.50400001928E-02 0.  1.
    10030    2    1    2    0    0  0.00000000000E+00  0.00000000000E+00 -0.42514815347E+03  0.38297329344E+04  0.38060614021E+04 0.  0.
        5    1    3    3  502    0  0.14636885964E+04 -0.37627457398E+03  0.95113811651E+03  0.17856798898E+04  0.46999998093E+01 0. -1.
       -5    1    3    3    0  502 -0.14636885964E+04  0.37627457398E+03 -0.13762862700E+04  0.20440530446E+04  0.46999998093E+01 0.  1.
</event>
<event>
 5   0  0.2081337E-07  0.3725075E+04  0.7818609E-02  0.8062428E-01
       -2   -1    0    0    0  501  0.00000000000E+00  0.00000000000E+00  0.25774596890E+04  0.25774596890E+04  0.25500000920E-02 0. -1.
        2   -1    0    0  501    0  0.00000000000E+00  0.00000000000E+00 -0.13459165100E+04  0.13459165100E+04  0.25500000920E-02 0.  1.
    10030    2    1    2    0    0  0.00000000000E+00  0.00000000000E+00  0.12315431790E+04  0.39233761990E+04  0.37250747908E+04 0.  0.
        1    1    3    3  502    0 -0.97486353150E+03 -0.48210237518E+03 -0.97676030876E+03  0.14617942078E+04  0.50400001928E-02 0.  1.
       -1    1    3    3    0  502  0.97486353150E+03  0.48210237518E+03  0.22083034878E+04  0.24615819912E+04  0.50400001928E-02 0. -1.
</event>
<event>
 5   0  0.1370688E-07  0.3786956E+04  0.7818609E-02  0.8048960E-01
       -2   -1    0    0    0  501  0.00000000000E+00  0.00000000000E+00  0.16357816174E+04  0.16357816175E+04  0.25500000920E-02 0. -1.
        2   -1    0    0  501    0  0.00000000000E+00  0.00000000000E+00 -0.21917711373E+04  0.21917711373E+04  0.25500000920E-02 0.  1.
    10030    2    1    2    0    0  0.00000000000E+00  0.00000000000E+00 -0.55598951981E+03  0.38275527547E+04  0.37869559997E+04 0.  0.
        5    1    3    3  502    0 -0.73986513990E+03  0.11273317844E+04  0.10655255002E+04  0.17186169029E+04  0.46999998093E+01 0. -1.
       -5    1    3    3    0  502  0.73986513990E+03 -0.11273317844E+04 -0.16215150200E+04  0.21089358519E+04  0.46999998093E+01 0.  1.
</event>
<event>
 5   0  0.6661000E-08  0.3801212E+04  0.7818609E-02  0.8045895E-01
        1   -1    0    0  501    0  0.00000000000E+00  0.00000000000E+00  0.26276755121E+04  0.26276755121E+04  0.50400001928E-02 0. -1.
       -1   -1    0    0    0  501  0.00000000000E+00  0.00000000000E+00 -0.13747144552E+04  0.13747144552E+04  0.50400001928E-02 0.  1.
    10030    2    1    2    0    0  0.00000000000E+00  0.00000000000E+00  0.12529610569E+04  0.40023899673E+04  0.38012121804E+04 0.  0.
        3    1    3    3  502    0 -0.10345214628E+04  0.15910438453E+04  0.73513258240E+03  0.20352088587E+04  0.10100000352E+00 0. -1.
       -3    1    3    3    0  502  0.10345214628E+04 -0.15910438453E+04  0.51782847448E+03  0.19671811086E+04  0.10100000352E+00 0.  1.
</event>
<event>
 5   0  0.2135314E-07  0.3810151E+04  0.7818609E-02  0.8043980E-01
        2   -1    0    0  501    0  0.00000000000E+00  0.00000000000E+00  0.19379955703E+04  0.19379955703E+04  0.25500000920E-02 0.  1.
       -2   -1    0    0    0  501  0.00000000000E+00  0.00000000000E+00 -0.18727146152E+04  0.18727146152E+04  0.25500000920E-02 0. -1.
    10030    2    1    2    0    0  0.00000000000E+00  0.00000000000E+00  0.65280955095E+02  0.38107101855E+04  0.38101509832E+04 0.  0.
        4    1    3    3  502    0  0.31961391758E+03  0.18730056978E+04  0.17052882125E+03  0.19077172464E+04  0.12699999809E+01 0. -1.
       -4    1    3    3    0  502 -0.31961391758E+03 -0.18730056978E+04 -0.10524786615E+03  0.19029929392E+04  0.12699999809E+01 0.  1.
</event>
<event>
 5   0  0.2081337E-07  0.3795186E+04  0.7818609E-02  0.8047189E-01
       -2   -1    0    0    0  501  0.00000000000E+00  0.00000000000E+00  0.18280696187E+04  0.18280696187E+04  0.25500000920E-02 0.  1.
        2   -1    0    0  501    0  0.00000000000E+00  0.00000000000E+00 -0.19697606959E+04  0.19697606959E+04  0.25500000920E-02 0. -1.
    10030    2    1    2    0    0  0.00000000000E+00  0.00000000000E+00 -0.14169107718E+03  0.37978303146E+04  0.37951862586E+04 0.  0.
        1    1    3    3  502    0  0.14120718625E+04  0.72834177681E+03 -0.11090802850E+04  0.19376500631E+04  0.50400001928E-02 0. -1.
       -1    1    3    3    0  502 -0.14120718625E+04 -0.72834177681E+03  0.96738920779E+03  0.18601802515E+04  0.50400001928E-02 0.  1.
</event>
<event>
 5   0  0.6661000E-08  0.3535385E+04  0.7818609E-02  0.8105455E-01
        1   -1    0    0  501    0  0.00000000000E+00  0.00000000000E+00  0.20896130769E+04  0.20896130770E+04  0.50400001928E-02 0.  1.
       -1   -1    0    0    0  501  0.00000000000E+00  0.00000000000E+00 -0.14953665375E+04  0.14953665375E+04  0.50400001928E-02 0. -1.
    10030    2    1    2    0    0  0.00000000000E+00  0.00000000000E+00  0.59424653943E+03  0.35849796145E+04  0.35353853943E+04 0.  0.
        1    1    3    3  502    0 -0.16151283536E+04 -0.47746195039E+03  0.84142865164E+03  0.18827139157E+04  0.50400001928E-02 0.  1.
       -1    1    3    3    0  502  0.16151283536E+04  0.47746195039E+03 -0.24718211221E+03  0.17022656988E+04  0.50400001928E-02 0. -1.
</event>
<event>
 5   0  0.2203998E-07  0.3794964E+04  0.7818609E-02  0.8047236E-01
       -2   -1    0    0    0  501  0.00000000000E+00  0.00000000000E+00  0.19747635464E+04  0.19747635464E+04  0.25500000920E-02 0. -1.
        2   -1    0    0  501    0  0.00000000000E+00  0.00000000000E+00 -0.18232246935E+04  0.18232246935E+04  0.25500000920E-02 0.  1.
    10030    2    1    2    0    0  0.00000000000E+00  0.00000000000E+00  0.15153885294E+03  0.37979882400E+04  0.37949638532E+04 0.  0.
        3    1    3    3  502    0 -0.39205589651E+03 -0.18387667166E+04 -0.18069011263E+03  0.18887614436E+04  0.10100000352E+00 0.  1.
       -3    1    3    3    0  502  0.39205589651E+03  0.18387667166E+04  0.33222896556E+03  0.19092267963E+04  0.10100000352E+00 0. -1.
</event>
<event>
 5   0  0.6661000E-08  0.3799370E+04  0.7818609E-02  0.8046290E-01
       -1   -1    0    0    0  501  0.00000000000E+00  0.00000000000E+00  0.19508704994E+04  0.19508704995E+04  0.50400001928E-02 0.  1.
        1   -1    0    0  501    0  0.00000000000E+00  0.00000000000E+00 -0.18498426320E+04  0.18498426320E+04  0.50400001928E-02 0. -1.
    10030    2    1    2    0    0  0.00000000000E+00  0.00000000000E+00  0.10102786748E+03  0.38007131314E+04  0.37993701685E+04 0.  0.
        3    1    3    3  502    0  0.10512509720E+03  0.54119580868E+03  0.18690836929E+04  0.19486965004E+04  0.10100000352E+00 0.  1.
       -3    1    3    3    0  502 -0.10512509720E+03 -0.54119580868E+03 -0.17680558254E+04  0.18520166310E+04  0.10100000352E+00 0. -1.
</event>
<event>
 5   0  0.6725199E-08  0.3767640E+04  0.7818609E-02  0.8053135E-01
       -1   -1    0    0    0  501  0.00000000000E+00  0.00000000000E+00  0.18300282623E+04  0.18300282623E+04  0.50400001928E-02 0. -1.
        1   -1    0    0  501    0  0.00000000000E+00  0.00000000000E+00 -0.19391925704E+04  0.19391925705E+04  0.50400001928E-02 0.  1.
    10030    2    1    2    0    0  0.00000000000E+00  0.00000000000E+00 -0.10916430813E+03  0.37692208328E+04  0.37676396908E+04 0.  0.
        5    1    3    3  502    0 -0.49257919242E+03 -0.41543207541E+03 -0.18255049829E+04  0.19358999465E+04  0.46999998093E+01 0.  1.
       -5    1    3    3    0  502  0.49257919242E+03  0.41543207541E+03  0.17163406748E+04  0.18333208863E+04  0.46999998093E+01 0. -1.
</event>
<event>
 5   0  0.6661000E-08  0.3925064E+04  0.7818609E-02  0.8019836E-01
        1   -1    0    0  501    0  0.00000000000E+00  0.00000000000E+00  0.18903792480E+04  0.18903792480E+04  0.50400001928E-02 0. -1.
       -1   -1    0    0    0  501  0.00000000000E+00  0.00000000000E+00 -0.20374388165E+04  0.20374388165E+04  0.50400001928E-02 0.  1.
    10030    2    1    2    0    0  0.00000000000E+00  0.00000000000E+00 -0.14705956853E+03  0.39278180645E+04  0.39250641053E+04 0.  0.
        1    1    3    3  502    0 -0.70869922108E+03 -0.14642707343E+04  0.10250513392E+04  0.19227775788E+04  0.50400001928E-02 0. -1.
       -1    1    3    3    0  502  0.70869922108E+03  0.14642707343E+04 -0.11721109078E+04  0.20050404857E+04  0.50400001928E-02 0.  1.
</event>
<event>
 5   0  0.6661000E-08  0.3796898E+04  0.7818609E-02  0.8046821E-01
        1   -1    0    0  501    0  0.00000000000E+00  0.00000000000E+00  0.17698682040E+04  0.17698682040E+04  0.50400001928E-02 0.  1.
       -1   -1    0    0    0  501  0.00000000000E+00  0.00000000000E+00 -0.20363709361E+04  0.20363709361E+04  0.50400001928E-02 0. -1.
    10030    2    1    2    0    0  0.00000000000E+00  0.00000000000E+00 -0.26650273215E+03  0.38062391401E+04  0.37968977713E+04 0.  0.
        4    1    3    3  502    0  0.99254553982E+03 -0.12231666553E+02  0.14890038771E+04  0.17895335765E+04  0.12699999809E+01 0.  1.
       -4    1    3    3    0  502 -0.99254553982E+03  0.12231666553E+02 -0.17555066093E+04  0.20167055636E+04  0.12699999809E+01 0. -1.
</event>
<event>
 5   0  0.2203998E-07  0.3475830E+04  0.7818609E-02  0.8119542E-01
        2   -1    0    0  501    0  0.00000000000E+00  0.00000000000E+00  0.19969324864E+04  0.19969324864E+04  0.25500000920E-02 0.  1.
       -2   -1    0    0    0  501  0.00000000000E+00  0.00000000000E+00 -0.15124939355E+04  0.15124939355E+04  0.25500000920E-02 0. -1.
    10030    2    1    2    0    0  0.00000000000E+00  0.00000000000E+00  0.48443855092E+03  0.35094264218E+04  0.34758298435E+04 0.  0.
        3    1    3    3  502    0  0.34151993823E+03 -0.22950247779E+02 -0.14781237079E+04  0.15172383755E+04  0.10100000352E+00 0. -1.
       -3    1    3    3    0  502 -0.34151993823E+03  0.22950247779E+02  0.19625622588E+04  0.19921880463E+04  0.10100000352E+00 0.  1.
</event>
<event>
 5   0  0.6661000E-08  0.3768552E+04  0.7818609E-02  0.8052937E-01
       -1   -1    0    0    0  501  0.00000000000E+00  0.00000000000E+00  0.14940077285E+04  0.14940077285E+04  0.50400001928E-02 0. -1.
        1   -1    0    0  501    0  0.00000000000E+00  0.00000000000E+00 -0.23764909867E+04  0.23764909867E+04  0.50400001928E-02 0.  1.
    10030    2    1    2    0    0  0.00000000000E+00  0.00000000000E+00 -0.88248325827E+03  0.38704987152E+04  0.37685519239E+04 0.  0.
        1    1    3    3  502    0  0.10677804819E+04  0.26573661676E+03 -0.20122366653E+04  0.22934401026E+04  0.50400001928E-02 0.  1.
       -1    1    3    3    0  502 -0.10677804819E+04 -0.26573661676E+03  0.11297534070E+04  0.15770586126E+04  0.50400001928E-02 0. -1.
</event>
<event>
 5   0  0.6661000E-08  0.3800857E+04  0.7818609E-02  0.8045971E-01
        1   -1    0    0  501    0  0.00000000000E+00  0.00000000000E+00  0.21052407149E+04  0.21052407149E+04  0.50400001928E-02 0. -1.
       -1   -1    0    0    0  501  0.00000000000E+00  0.00000000000E+00 -0.17155417959E+04  0.17155417959E+04  0.50400001928E-02 0.  1.
    10030    2    1    2    0    0  0.00000000000E+00  0.00000000000E+00  0.38969891901E+03  0.38207825108E+04  0.38008569754E+04 0.  0.
        2    1    3    3  502    0  0.13752428352E+04  0.56969375290E+03  0.13824762672E+04  0.20315226943E+04  0.25500000920E-02 0. -1.
       -2    1    3    3    0  502 -0.13752428352E+04 -0.56969375290E+03 -0.99277734819E+03  0.17892598165E+04  0.25500000920E-02 0.  1.
</event>
<event>
 5   0  0.6661000E-08  0.3801717E+04  0.7818609E-02  0.8045787E-01
        1   -1    0    0  501    0  0.00000000000E+00  0.00000000000E+00  0.24687861275E+04  0.24687861275E+04  0.50400001928E-02 0. -1.
       -1   -1    0    0    0  501  0.00000000000E+00  0.00000000000E+00 -0.14635788282E+04  0.14635788282E+04  0.50400001928E-02 0.  1.
    10030    2    1    2    0    0  0.00000000000E+00  0.00000000000E+00  0.10052072993E+04  0.39323649558E+04  0.38017170372E+04 0.  0.
        3    1    3    3  502    0 -0.10727785504E+03 -0.16628876271E+04 -0.44346443852E+03  0.17243446631E+04  0.10100000352E+00 0.  1.
       -3    1    3    3    0  502  0.10727785504E+03  0.16628876271E+04  0.14486717379E+04  0.22080202927E+04  0.10100000352E+00 0. -1.
</event>
<event>
 5   0  0.2081337E-07  0.3801556E+04  0.7818609E-02  0.8045821E-01
        2   -1    0    0  501    0  0.00000000000E+00  0.00000000000E+00  0.16478980297E+04  0.16478980297E+04  0.25500000920E-02 0. -1.
       -2   -1    0    0    0  501  0.00000000000E+00  0.00000000000E+00 -0.21924635181E+04  0.21924635181E+04  0.25500000920E-02 0.  1.
    10030    2    1    2    0    0  0.00000000000E+00  0.00000000000E+00 -0.54456548834E+03  0.38403615478E+04  0.38015556351E+04 0.  0.
        1    1    3    3  502    0 -0.18224685495E+04 -0.26793524149E+03  0.20130483738E+03  0.18530257810E+04  0.50400001928E-02 0. -1.
       -1    1    3    3    0  502  0.18224685495E+04  0.26793524149E+03 -0.74587032572E+03  0.19873357668E+04  0.50400001928E-02 0.  1.
</event>
<event>
 5   0  0.2203998E-07  0.3819307E+04  0.7818609E-02  0.8042024E-01
        2   -1    0    0  501    0  0.00000000000E+00  0.00000000000E+00  0.24255335318E+04  0.24255335318E+04  0.25500000920E-02 0. -1.
       -2   -1    0    0    0  501  0.00000000000E+00  0.00000000000E+00 -0.15034946703E+04  0.15034946703E+04  0.25500000920E-02 0.  1.
    10030    2    1    2    0    0  0.00000000000E+00  0.00000000000E+00  0.92203886149E+03  0.39290282022E+04  0.38193071298E+04 0.  0.
        3    1    3    3  502    0 -0.73266472154E+03 -0.12744122466E+04  0.17149931102E+04  0.22587885130E+04  0.10100000352E+00 0. -1.
       -3    1    3    3    0  502  0.73266472154E+03  0.12744122466E+04 -0.79295424872E+03  0.16702396891E+04  0.10100000352E+00 0.  1.
</event>
<event>
 5   0  0.6661000E-08  0.3517270E+04  0.7818609E-02  0.8109709E-01
        1   -1    0    0  501    0  0.00000000000E+00  0.00000000000E+00  0.11890789658E+04  0.11890789658E+04  0.50400001928E-02 0. -1.
       -1   -1    0    0    0  501  0.00000000000E+00  0.00000000000E+00 -0.26010026731E+04  0.26010026731E+04  0.50400001928E-02 0.  1.
    10030    2    1    2    0    0  0.00000000000E+00  0.00000000000E+00 -0.14119237073E+04  0.37900816389E+04  0.35172702874E+04 0.  0.
        4    1    3    3  502    0  0.11045862319E+04 -0.37294812086E+02  0.76809376310E+03  0.13459090937E+04  0.12699999809E+01 0. -1.
       -4    1    3    3    0  502 -0.11045862319E+04  0.37294812086E+02 -0.21800174704E+04  0.24441725452E+04  0.12699999809E+01 0.  1.
</event>
<event>
 5   0  0.1370688E-07  0.3793914E+04  0.7818609E-02  0.8047462E-01
        2   -1    0    0  501    0  0.00000000000E+00  0.00000000000E+00  0.24910393841E+04  0.24910393841E+04  0.25500000920E-02 0.  1.
       -2   -1    0    0    0  501  0.00000000000E+00  0.00000000000E+00 -0.14445560519E+04  0.14445560519E+04  0.25500000920E-02 0. -1.
    10030    2    1    2    0    0  0.00000000000E+00  0.00000000000E+00  0.10464833322E+04  0.39355954361E+04  0.37939140834E+04 0.  0.
        5    1    3    3  502    0  0.13918624443E+04 -0.11059147890E+04 -0.16336382943E+03  0.17852278329E+04  0.46999998093E+01 0. -1.
       -5    1    3    3    0  502 -0.13918624443E+04  0.11059147890E+04  0.12098471616E+04  0.21503676032E+04  0.46999998093E+01 0.  1.
</event>
<event>
 5   0  0.6661000E-08  0.3792476E+04  0.7818609E-02  0.8047771E-01
        1   -1    0    0  501    0  0.00000000000E+00  0.00000000000E+00  0.24201767694E+04  0.24201767694E+04  0.50400001928E-02 0.  1.
       -1   -1    0    0    0  501  0.00000000000E+00  0.00000000000E+00 -0.14857256378E+04  0.14857256378E+04  0.50400001928E-02 0. -1.
    10030    2    1    2    0    0  0.00000000000E+00  0.00000000000E+00  0.93445113165E+03  0.39059024072E+04  0.37924760641E+04 0.  0.
        2    1    3    3  502    0 -0.56320220462E+03 -0.17530176569E+04  0.93404907321E+03  0.20646344228E+04  0.25500000920E-02 0.  1.
       -2    1    3    3    0  502  0.56320220462E+03  0.17530176569E+04  0.40205844618E+00  0.18412679844E+04  0.25500000920E-02 0. -1.
</event>
<event>
 5   0  0.6661000E-08  0.3815054E+04  0.7818609E-02  0.8042932E-01
        1   -1    0    0  501    0  0.00000000000E+00  0.00000000000E+00  0.25553916853E+04  0.25553916853E+04  0.50400001928E-02 0. -1.
       -1   -1    0    0    0  501  0.00000000000E+00  0.00000000000E+00 -0.14239143277E+04  0.14239143278E+04  0.50400001928E-02 0.  1.
    10030    2    1    2    0    0  0.00000000000E+00  0.00000000000E+00  0.11314773576E+04  0.39793060131E+04  0.38150537788E+04 0.  0.
        1    1    3    3  502    0  0.41706325800E+03  0.97029918634E+03 -0.10911207297E+04  0.15185409837E+04  0.50400001928E-02 0.  1.
       -1    1    3    3    0  502 -0.41706325800E+03 -0.97029918634E+03  0.22225980873E+04  0.24607650294E+04  0.50400001928E-02 0. -1.
</event>
<event>
 5   0  0.6725199E-08  0.3833533E+04  0.7818609E-02  0.8038997E-01
        1   -1    0    0  501    0  0.00000000000E+00  0.00000000000E+00  0.25233366075E+04  0.25233366075E+04  0.50400001928E-02 0. -1.
       -1   -1    0    0    0  501  0.00000000000E+00  0.00000000000E+00 -0.14560065458E+04  0.14560065458E+04  0.50400001928E-02 0.  1.
    10030    2    1    2    0    0  0.00000000000E+00  0.00000000000E+00  0.10673300617E+04  0.39793431533E+04  0.38335334186E+04 0.  0.
        5    1    3    3  502    0  0.61021220567E+03 -0.17368991388E+04 -0.20294830515E+02  0.18410897655E+04  0.46999998093E+01 0.  1.
       -5    1    3    3    0  502 -0.61021220567E+03  0.17368991388E+04  0.10876248922E+04  0.21382533878E+04  0.46999998093E+01 0. -1.
</event>
<event>
 5   0  0.6661000E-08  0.3816064E+04  0.7818609E-02  0.8042716E-01
       -1   -1    0    0    0  501  0.00000000000E+00  0.00000000000E+00  0.15353363214E+04  0.15353363214E+04  0.50400001928E-02 0.  1.
        1   -1    0    0  501    0  0.00000000000E+00  0.00000000000E+00 -0.23711976731E+04  0.23711976731E+04  0.50400001928E-02 0. -1.
    10030    2    1    2    0    0  0.00000000000E+00  0.00000000000E+00 -0.83586135165E+03  0.39065339945E+04  0.38160638950E+04 0.  0.
        4    1    3    3  502    0  0.26570258531E+03 -0.61658991070E+03  0.14104133743E+04  0.15620654536E+04  0.12699999809E+01 0.  1.
       -4    1    3    3    0  502 -0.26570258531E+03  0.61658991070E+03 -0.22462747260E+04  0.23444685409E+04  0.12699999809E+01 0. -1.
</event>
<event>
 5   0  0.2135314E-07  0.3795971E+04  0.7818609E-02  0.8047020E-01
        2   -1    0    0  501    0  0.00000000000E+00  0.00000000000E+00  0.17083230546E+04  0.17083230546E+04  0.25500000920E-02 0.  1.
       -2   -1    0    0    0  501  0.00000000000E+00  0.00000000000E+00 -0.21087045403E+04  0.21087045403E+04  0.25500000920E-02 0. -1.
    10030    2    1    2    0    0  0.00000000000E+00  0.00000000000E+00 -0.40038148571E+03  0.38170275948E+04  0.37959708015E+04 0.  0.
        4    1    3    3  502    0 -0.10404029803E+04  0.13993881992E+04 -0.95376180372E+03  0.19875585236E+04  0.12699999809E+01 0. -1.
       -4    1    3    3    0  502  0.10404029803E+04 -0.13993881992E+04  0.55338031801E+03  0.18294690713E+04  0.12699999809E+01 0.  1.
</event>
<event>
 5   0  0.6661000E-08  0.3711529E+04  0.7818609E-02  0.8065412E-01
       -3   -1    0    0    0  501  0.00000000000E+00  0.00000000000E+00  0.19230460649E+04  0.19230460676E+04  0.10100000352E+00 0.  1.
        3   -1    0    0  501    0  0.00000000000E+00  0.00000000000E+00 -0.17908373247E+04  0.17908373275E+04  0.10100000352E+00 0. -1.
    10030    2    1    2    0    0  0.00000000000E+00  0.00000000000E+00  0.13220874020E+03  0.37138833951E+04  0.37115294316E+04 0.  0.
        3    1    3    3  502    0  0.13740954113E+04 -0.11326992914E+04  0.58865850731E+03  0.18755438497E+04  0.10100000352E+00 0.  1.
       -3    1    3    3    0  502 -0.13740954113E+04  0.11326992914E+04 -0.45644976711E+03  0.18383395454E+04  0.10100000352E+00 0. -1.
</event>
<event>
 5   0  0.2135314E-07  0.3849984E+04  0.7818609E-02  0.8035513E-01
        2   -1    0    0  501    0  0.00000000000E+00  0.00000000000E+00  0.19859896223E+04  0.19859896223E+04  0.25500000920E-02 0. -1.
       -2   -1    0    0    0  501  0.00000000000E+00  0.00000000000E+00 -0.18658680546E+04  0.18658680546E+04  0.25500000920E-02 0.  1.
    10030    2    1    2    0    0  0.00000000000E+00  0.00000000000E+00  0.12012156767E+03  0.38518576768E+04  0.38499842041E+04 0.  0.
        4    1    3    3  502    0  0.22122387976E+03 -0.99483986975E+03 -0.15738127762E+04  0.18749759035E+04  0.12699999809E+01 0.  1.
       -4    1    3    3    0  502 -0.22122387976E+03  0.99483986975E+03  0.16939343439E+04  0.19768817733E+04  0.12699999809E+01 0. -1.
</event>
<event>
 5   0  0.6661000E-08  0.3800892E+04  0.7818609E-02  0.8045964E-01
        1   -1    0    0  501    0  0.00000000000E+00  0.00000000000E+00  0.23279173610E+04  0.23279173610E+04  0.50400001928E-02 0.  1.
       -1   -1    0    0    0  501  0.00000000000E+00  0.00000000000E+00 -0.15514703103E+04  0.15514703103E+04  0.50400001928E-02 0. -1.
    10030    2    1    2    0    0  0.00000000000E+00  0.00000000000E+00  0.77644705070E+03  0.38793876713E+04  0.38008918271E+04 0.  0.
        1    1    3    3  502    0 -0.65733774580E+03 -0.13894400719E+04 -0.75247001433E+03  0.17113876673E+04  0.50400001928E-02 0. -1.
       -1    1    3    3    0  502  0.65733774580E+03  0.13894400719E+04  0.15289170650E+04  0.21680000040E+04  0.50400001928E-02 0.  1.
</event>
<event>
 5   0  0.6661000E-08  0.3759964E+04  0.7818609E-02  0.8054801E-01
       -1   -1    0    0    0  501  0.00000000000E+00  0.00000000000E+00  0.20112195327E+04  0.20112195327E+04  0.50400001928E-02 0.  1.
        1   -1    0    0  501    0  0.00000000000E+00  0.00000000000E+00 -0.17573083511E+04  0.17573083511E+04  0.50400001928E-02 0. -1.
    10030    2    1    2    0    0  0.00000000000E+00  0.00000000000E+00  0.25391118157E+03  0.37685278838E+04  0.37599642981E+04 0.  0.
        2    1    3    3  502    0  0.15995710274E+04  0.53468551677E+03 -0.70548816052E+03  0.18281765829E+04  0.25500000920E-02 0. -1.
       -2    1    3    3    0  502 -0.15995710274E+04 -0.53468551677E+03  0.95939934208E+03  0.19403513009E+04  0.25500000920E-02 0.  1.
</event>
<event>
 5   0  0.2135314E-07  0.3809385E+04  0.7818609E-02  0.8044144E-01
       -2   -1    0    0    0  501  0.00000000000E+00  0.00000000000E+00  0.16873046561E+04  0.16873046561E+04  0.25500000920E-02 0.  1.
        2   -1    0    0  501    0  0.00000000000E+00  0.00000000000E+00 -0.21500879423E+04  0.21500879423E+04  0.25500000920E-02 0. -1.
    10030    2    1    2    0    0  0.00000000000E+00  0.00000000000E+00 -0.46278328626E+03  0.38373925984E+04  0.38093849352E+04 0.  0.
        4    1    3    3  502    0  0.24296846615E+03 -0.14388768674E+04  0.10017208971E+04  0.17699849388E+04  0.12699999809E+01 0.  1.
       -4    1    3    3    0  502 -0.24296846615E+03  0.14388768674E+04 -0.14645041834E+04  0.20674076596E+04  0.12699999809E+01 0. -1.
</event>
<event>
 5   0  0.2135314E-07  0.3950894E+04  0.7818609E-02  0.8014527E-01
       -2   -1    0    0    0  501  0.00000000000E+00  0.00000000000E+00  0.22053533115E+04  0.22053533115E+04  0.25500000920E-02 0.  1.
        2   -1    0    0  501    0  0.00000000000E+00  0.00000000000E+00 -0.17695083941E+04  0.17695083941E+04  0.25500000920E-02 0. -1.
    10030    2    1    2    0    0  0.00000000000E+00  0.00000000000E+00  0.43584491741E+03  0.39748617056E+04  0.39508941756E+04 0.  0.
        4    1    3    3  502    0 -0.14331334481E+04 -0.13585501464E+04  0.16412279825E+03  0.19815317020E+04  0.12699999809E+01 0.  1.
       -4    1    3    3    0  502  0.14331334481E+04  0.13585501464E+04  0.27172211916E+03  0.19933300036E+04  0.12699999809E+01 0. -1.
</event>
<event>
 5   0  0.1370688E-07  0.3791866E+04  0.7818609E-02  0.8047903E-01
       -2   -1    0    0    0  501  0.00000000000E+00  0.00000000000E+00  0.21167450683E+04  0.21167450683E+04  0.25500000920E-02 0. -1.
        2   -1    0    0  501    0  0.00000000000E+00  0.00000000000E+00 -0.16981551068E+04  0.16981551068E+04  0.25500000920E-02 0.  1.
    10030    2    1    2    0    0  0.00000000000E+00  0.00000000000E+00  0.41858996144E+03  0.38149001751E+04  0.37918657400E+04 0.  0.
        5    1    3    3  502    0  0.11175805602E+04 -0.10258495436E+04 -0.93479632113E+03  0.17819146575E+04  0.46999998093E+01 0. -1.
       -5    1    3    3    0  502 -0.11175805602E+04  0.10258495436E+04  0.13533862826E+04  0.20329855176E+04  0.46999998093E+01 0.  1.
</event>
<event>
 5   0  0.2081337E-07  0.3798018E+04  0.7818609E-02  0.8046580E-01
        2   -1    0    0  501    0  0.00000000000E+00  0.00000000000E+00  0.13403678577E+04  0.13403678577E+04  0.25500000920E-02 0. -1.
       -2   -1    0    0    0  501  0.00000000000E+00  0.00000000000E+00 -0.26904815432E+04  0.26904815432E+04  0.25500000920E-02 0.  1.
    10030    2    1    2    0    0  0.00000000000E+00  0.00000000000E+00 -0.13501136855E+04  0.40308494009E+04  0.37980178947E+04 0.  0.
        1    1    3    3  502    0 -0.23101565581E+03 -0.15854018831E+04 -0.17570491097E+04  0.23778328239E+04  0.50400001928E-02 0.  1.
       -1    1    3    3    0  502  0.23101565581E+03  0.15854018831E+04  0.40693542420E+03  0.16530165770E+04  0.50400001928E-02 0. -1.
</event>
<event>
 5   0  0.6725199E-08  0.3823222E+04  0.7818609E-02  0.8041190E-01
        1   -1    0    0  501    0  0.00000000000E+00  0.00000000000E+00  0.23400681576E+04  0.23400681576E+04  0.50400001928E-02 0. -1.
       -1   -1    0    0    0  501  0.00000000000E+00  0.00000000000E+00 -0.15616026095E+04  0.15616026095E+04  0.50400001928E-02 0.  1.
    10030    2    1    2    0    0  0.00000000000E+00  0.00000000000E+00  0.77846554815E+03  0.39016707671E+04  0.38232219613E+04 0.  0.
        5    1    3    3  502    0 -0.13721749889E+04  0.25291024398E+03  0.17227222517E+04  0.22168946384E+04  0.46999998093E+01 0. -1.
       -5    1    3    3    0  502  0.13721749889E+04 -0.25291024398E+03 -0.94425670352E+03  0.16847761287E+04  0.46999998093E+01 0.  1.
</event>
<event>
 5   0  0.1370688E-07  0.3884113E+04  0.7818609E-02  0.8028342E-01
       -2   -1    0    0    0  501  0.00000000000E+00  0.00000000000E+00  0.14648962057E+04  0.14648962057E+04  0.25500000920E-02 0. -1.
        2   -1    0    0  501    0  0.00000000000E+00  0.00000000000E+00 -0.25746416833E+04  0.25746416833E+04  0.25500000920E-02 0.  1.
    10030    2    1    2    0    0  0.00000000000E+00  0.00000000000E+00 -0.11097454776E+04  0.40395378890E+04  0.38841126826E+04 0.  0.
        5    1    3    3  502    0  0.16091158298E+04  0.10433802516E+04 -0.87316618654E+03  0.21072108064E+04  0.46999998093E+01 0. -1.
       -5    1    3    3    0  502 -0.16091158298E+04 -0.10433802516E+04 -0.23657929111E+03  0.19323270826E+04  0.46999998093E+01 0.  1.
</event>
<event>
 5   0  0.1370688E-07  0.3767889E+04  0.7818609E-02  0.8053081E-01
        2   -1    0    0  501    0  0.00000000000E+00  0.00000000000E+00  0.17922402335E+04  0.17922402335E+04  0.25500000920E-02 0. -1.
       -2   -1    0    0    0  501  0.00000000000E+00  0.00000000000E+00 -0.19803405591E+04  0.19803405591E+04  0.25500000920E-02 0.  1.
    10030    2    1    2    0    0  0.00000000000E+00  0.00000000000E+00 -0.18810032568E+03  0.37725807926E+04  0.37678885472E+04 0.  0.
        5    1    3    3  502    0 -0.64132960061E+03  0.66849440819E+03 -0.17365306364E+04  0.19681842321E+04  0.46999998093E+01 0.  1.
       -5    1    3    3    0  502  0.64132960061E+03 -0.66849440819E+03  0.15484303107E+04  0.18043965605E+04  0.46999998093E+01 0. -1.
</event>
<event>
 5   0  0.1370688E-07  0.3859945E+04  0.7818609E-02  0.8033412E-01
       -2   -1    0    0    0  501  0.00000000000E+00  0.00000000000E+00  0.13622707647E+04  0.13622707647E+04  0.25500000920E-02 0. -1.
        2   -1    0    0  501    0  0.00000000000E+00  0.00000000000E+00 -0.27342531520E+04  0.27342531520E+04  0.25500000920E-02 0.  1.
    10030    2    1    2    0    0  0.00000000000E+00  0.00000000000E+00 -0.13719823874E+04  0.40965239167E+04  0.38599446277E+04 0.  0.
        5    1    3    3  502    0  0.40235589227E+03  0.17977847267E+04 -0.12964418298E+04  0.22527103000E+04  0.46999998093E+01 0.  1.
       -5    1    3    3    0  502 -0.40235589227E+03 -0.17977847267E+04 -0.75540557566E+02  0.18438136168E+04  0.46999998093E+01 0. -1.
</event>
<event>
 5   0  0.6661000E-08  0.3795707E+04  0.7818609E-02  0.8047077E-01
        1   -1    0    0  501    0  0.00000000000E+00  0.00000000000E+00  0.20239235937E+04  0.20239235937E+04  0.50400001928E-02 0.  1.
       -1   -1    0    0    0  501  0.00000000000E+00  0.00000000000E+00 -0.17796361908E+04  0.17796361909E+04  0.50400001928E-02 0. -1.
    10030    2    1    2    0    0  0.00000000000E+00  0.00000000000E+00  0.24428740288E+03  0.38035597846E+04  0.37957068775E+04 0.  0.
        1    1    3    3  502    0  0.12044838076E+04  0.87901847327E+03  0.12986224933E+04  0.19773404106E+04  0.50400001928E-02 0. -1.
       -1    1    3    3    0  502 -0.12044838076E+04 -0.87901847327E+03 -0.10543350904E+04  0.18262193740E+04  0.50400001928E-02 0.  1.
</event>
<event>
 5   0  0.6661000E-08  0.3816975E+04  0.7818609E-02  0.8042522E-01
        1   -1    0    0  501    0  0.00000000000E+00  0.00000000000E+00  0.28579542417E+04  0.28579542417E+04  0.50400001928E-02 0. -1.
       -1   -1    0    0    0  501  0.00000000000E+00  0.00000000000E+00 -0.12744518402E+04  0.12744518402E+04  0.50400001928E-02 0.  1.
    10030    2    1    2    0    0  0.00000000000E+00  0.00000000000E+00  0.15835024016E+04  0.41324060819E+04  0.38169752645E+04 0.  0.
        2    1    3    3  502    0  0.16110078223E+04  0.10175611670E+04  0.67540850909E+03  0.20216215240E+04  0.25500000920E-02 0. -1.
       -2    1    3    3    0  502 -0.16110078223E+04 -0.10175611670E+04  0.90809389247E+03  0.21107845579E+04  0.25500000920E-02 0.  1.
</event>
<event>
 5   0  0.6661000E-08  0.3802544E+04  0.7818609E-02  0.8045609E-01
       -1   -1    0    0    0  501  0.00000000000E+00  0.00000000000E+00  0.15531085185E+04  0.15531085185E+04  0.50400001928E-02 0. -1.
        1   -1    0    0  501    0  0.00000000000E+00  0.00000000000E+00 -0.23274840687E+04  0.23274840687E+04  0.50400001928E-02 0.  1.
    10030    2    1    2    0    0  0.00000000000E+00  0.00000000000E+00 -0.77437555022E+03  0.38805925872E+04  0.38025440609E+04 0.  0.
        3    1    3    3  502    0 -0.33931137385E+03  0.11905240053E+04 -0.18598435799E+04  0.22341660116E+04  0.10100000352E+00 0.  1.
       -3    1    3    3    0  502  0.33931137385E+03 -0.11905240053E+04  0.10854680296E+04  0.16464265757E+04  0.10100000352E+00 0. -1.
</event>
<event>
 5   0  0.6661000E-08  0.3799019E+04  0.7818609E-02  0.8046365E-01
        1   -1    0    0  501    0  0.00000000000E+00  0.00000000000E+00  0.31291043711E+04  0.31291043711E+04  0.50400001928E-02 0. -1.
       -1   -1    0    0    0  501  0.00000000000E+00  0.00000000000E+00 -0.11530892251E+04  0.11530892251E+04  0.50400001928E-02 0.  1.
    10030    2    1    2    0    0  0.00000000000E+00  0.00000000000E+00  0.19760151460E+04  0.42821935962E+04  0.37990191021E+04 0.  0.
        3    1    3    3  502    0  0.69896814572E+03 -0.14974296608E+04 -0.67752029742E+02  0.16539172910E+04  0.10100000352E+00 0.  1.
       -3    1    3    3    0  502 -0.69896814572E+03  0.14974296608E+04  0.20437671758E+04  0.26282763052E+04  0.10100000352E+00 0. -1.
</event>
<event>
 5   0  0.2205204E-07  0.3853728E+04  0.7818609E-02  0.8034722E-01
       -2   -1    0    0    0  501  0.00000000000E+00  0.00000000000E+00  0.17873368937E+04  0.17873368937E+04  0.25500000920E-02 0.  1.
        2   -1    0    0  501    0  0.00000000000E+00  0.00000000000E+00 -0.20772830507E+04  0.20772830507E+04  0.25500000920E-02 0. -1.
    10030    2    1    2    0    0  0.00000000000E+00  0.00000000000E+00 -0.28994615701E+03  0.38646199444E+04  0.38537278758E+04 0.  0.
        2    1    3    3  502    0 -0.12399068437E+04  0.10786111996E+04  0.86386902273E+03  0.18566207985E+04  0.25500000920E-02 0. -1.
       -2    1    3    3    0  502  0.12399068437E+04 -0.10786111996E+04 -0.11538151797E+04  0.20079991459E+04  0.25500000920E-02 0.  1.
</event>
<event>
 5   0  0.6661000E-08  0.3878908E+04  0.7818609E-02  0.8029430E-01
        1   -1    0    0  501    0  0.00000000000E+00  0.00000000000E+00  0.18286905729E+04  0.18286905729E+04  0.50400001928E-02 0.  1.
       -1   -1    0    0    0  501  0.00000000000E+00  0.00000000000E+00 -0.20569268504E+04  0.20569268504E+04  0.50400001928E-02 0. -1.
    10030    2    1    2    0    0  0.00000000000E+00  0.00000000000E+00 -0.22823627751E+03  0.38856174234E+04  0.38789084757E+04 0.  0.
        3    1    3    3  502    0  0.60477477504E+03 -0.16586625953E+04 -0.91835704152E+03  0.19900486927E+04  0.10100000352E+00 0.  1.
       -3    1    3    3    0  502 -0.60477477504E+03  0.16586625953E+04  0.69012076401E+03  0.18955687307E+04  0.10100000352E+00 0. -1.
</event>
<event>
 5   0  0.1370688E-07  0.3803375E+04  0.7818609E-02  0.8045431E-01
        2   -1    0    0  501    0  0.00000000000E+00  0.00000000000E+00  0.16478816758E+04  0.16478816758E+04  0.25500000920E-02 0. -1.
       -2   -1    0    0    0  501  0.00000000000E+00  0.00000000000E+00 -0.21945846975E+04  0.21945846975E+04  0.25500000920E-02 0.  1.
    10030    2    1    2    0    0  0.00000000000E+00  0.00000000000E+00 -0.54670302170E+03  0.38424663734E+04  0.38033752953E+04 0.  0.
        5    1    3    3  502    0  0.15121101116E+04 -0.25291720130E+03 -0.14100600504E+04  0.20829631624E+04  0.46999998093E+01 0.  1.
       -5    1    3    3    0  502 -0.15121101116E+04  0.25291720130E+03  0.86335702873E+03  0.17595032109E+04  0.46999998093E+01 0. -1.
</event>
<event>
 5   0  0.6661000E-08  0.3834679E+04  0.7818609E-02  0.8038754E-01
       -1   -1    0    0    0  501  0.00000000000E+00  0.00000000000E+00  0.15369078388E+04  0.15369078388E+04  0.50400001928E-02 0. -1.
        1   -1    0    0  501    0  0.00000000000E+00  0.00000000000E+00 -0.23919391109E+04  0.23919391109E+04  0.50400001928E-02 0.  1.
    10030    2    1    2    0    0  0.00000000000E+00  0.00000000000E+00 -0.85503127214E+03  0.39288469497E+04  0.38346785886E+04 0.  0.
        1    1    3    3  502    0  0.99724069627E+03 -0.60235155080E+02  0.12491533177E+04  0.15995315850E+04  0.50400001928E-02 0. -1.
       -1    1    3    3    0  502 -0.99724069627E+03  0.60235155080E+02 -0.21041845899E+04  0.23293153647E+04  0.50400001928E-02 0.  1.
</event>
<event>
 5   0  0.2081337E-07  0.3793588E+04  0.7818609E-02  0.8047532E-01
        2   -1    0    0  501    0  0.00000000000E+00  0.00000000000E+00  0.25295624991E+04  0.25295624991E+04  0.25500000920E-02 0.  1.
       -2   -1    0    0    0  501  0.00000000000E+00  0.00000000000E+00 -0.14223120722E+04  0.14223120722E+04  0.25500000920E-02 0. -1.
    10030    2    1    2    0    0  0.00000000000E+00  0.00000000000E+00  0.11072504269E+04  0.39518745713E+04  0.37935878954E+04 0.  0.
        1    1    3    3  502    0  0.77308857114E+03  0.12384339207E+04 -0.70786986292E+03  0.16224870593E+04  0.50400001928E-02 0. -1.
       -1    1    3    3    0  502 -0.77308857114E+03 -0.12384339207E+04  0.18151202898E+04  0.23293875120E+04  0.50400001928E-02 0.  1.
</event>
<event>
 5   0  0.2205204E-07  0.3801165E+04  0.7818609E-02  0.8045905E-01
       -2   -1    0    0    0  501  0.00000000000E+00  0.00000000000E+00  0.18729599130E+04  0.18729599130E+04  0.25500000920E-02 0.  1.
        2   -1    0    0  501    0  0.00000000000E+00  0.00000000000E+00 -0.19286126210E+04  0.19286126210E+04  0.25500000920E-02 0. -1.
    10030    2    1    2    0    0  0.00000000000E+00  0.00000000000E+00 -0.55652708009E+02  0.38015725340E+04  0.38011651513E+04 0.  0.
        2    1    3    3  502    0 -0.11184854198E+03 -0.10268927423E+04  0.15677114577E+04  0.18774285646E+04  0.25500000920E-02 0.  1.
       -2    1    3    3    0  502  0.11184854198E+03  0.10268927423E+04 -0.16233641657E+04  0.19241439694E+04  0.25500000920E-02 0. -1.
</event>
<event>
 5   0  0.6661000E-08  0.3802249E+04  0.7818609E-02  0.8045672E-01
       -1   -1    0    0    0  501  0.00000000000E+00  0.00000000000E+00  0.28067827295E+04  0.28067827295E+04  0.50400001928E-02 0.  1.
        1   -1    0    0  501    0  0.00000000000E+00  0.00000000000E+00 -0.12876930928E+04  0.12876930928E+04  0.50400001928E-02 0. -1.
    10030    2    1    2    0    0  0.00000000000E+00  0.00000000000E+00  0.15190896366E+04  0.40944758223E+04  0.38022491943E+04 0.  0.
        3    1    3    3  502    0 -0.46862072853E+03 -0.15617106191E+04  0.18122946480E+04  0.24378181528E+04  0.10100000352E+00 0. -1.
       -3    1    3    3    0  502  0.46862072853E+03  0.15617106191E+04 -0.29320501132E+03  0.16566576695E+04  0.10100000352E+00 0.  1.
</event>
<event>
 5   0  0.2081337E-07  0.3676557E+04  0.7818609E-02  0.8073177E-01
        2   -1    0    0  501    0  0.00000000000E+00  0.00000000000E+00  0.19189702869E+04  0.19189702869E+04  0.25500000920E-02 0. -1.
       -2   -1    0    0    0  501  0.00000000000E+00  0.00000000000E+00 -0.17609792950E+04  0.17609792950E+04  0.25500000920E-02 0.  1.
    10030    2    1    2    0    0  0.00000000000E+00  0.00000000000E+00  0.15799099183E+03  0.36799495819E+04  0.36765565101E+04 0.  0.
        1    1    3    3  502    0  0.65203377049E+03  0.16239746891E+04 -0.48439617598E+03  0.18157867397E+04  0.50400001928E-02 0.  1.
       -1    1    3    3    0  502 -0.65203377049E+03 -0.16239746891E+04  0.64238716781E+03  0.18641628422E+04  0.50400001928E-02 0. -1.
</event>
<event>
 5   0  0.6661000E-08  0.3813802E+04  0.7818609E-02  0.8043199E-01
       -1   -1    0    0    0  501  0.00000000000E+00  0.00000000000E+00  0.15544340984E+04  0.15544340984E+04  0.50400001928E-02 0. -1.
        1   -1    0    0  501    0  0.00000000000E+00  0.00000000000E+00 -0.23392899040E+04  0.23392899040E+04  0.50400001928E-02 0.  1.
    10030    2    1    2    0    0  0.00000000000E+00  0.00000000000E+00 -0.78485580564E+03  0.38937240024E+04  0.38138022984E+04 0.  0.
        1    1    3    3  502    0 -0.11902326230E+04 -0.11089836132E+04 -0.14081500691E+04  0.21516005596E+04  0.50400001928E-02 0.  1.
       -1    1    3    3    0  502  0.11902326230E+04  0.11089836132E+04  0.62329426346E+03  0.17421234428E+04  0.50400001928E-02 0. -1.
</event>
<event>
 5   0  0.6661000E-08  0.3759870E+04  0.7818609E-02  0.8054822E-01
       -1   -1    0    0    0  501  0.00000000000E+00  0.00000000000E+00  0.21596550703E+04  0.21596550703E+04  0.50400001928E-02 0. -1.
        1   -1    0    0  501    0  0.00000000000E+00  0.00000000000E+00 -0.16364441504E+04  0.16364441504E+04  0.50400001928E-02 0.  1.
    10030    2    1    2    0    0  0.00000000000E+00  0.00000000000E+00  0.52321091984E+03  0.37960992207E+04  0.37598696290E+04 0.  0.
        3    1    3    3  502    0  0.52625220807E+03  0.16134317034E+04 -0.55492199362E+03  0.17855088007E+04  0.10100000352E+00 0.  1.
       -3    1    3    3    0  502 -0.52625220807E+03 -0.16134317034E+04  0.10781329135E+04  0.20105904201E+04  0.10100000352E+00 0. -1.
</event>
<event>
 5   0  0.2135314E-07  0.3797043E+04  0.7818609E-02  0.8046790E-01
        2   -1    0    0  501    0  0.00000000000E+00  0.00000000000E+00  0.12605115965E+04  0.12605115965E+04  0.25500000920E-02 0.  1.
       -2   -1    0    0    0  501  0.00000000000E+00  0.00000000000E+00 -0.28594603800E+04  0.28594603800E+04  0.25500000920E-02 0. -1.
    10030    2    1    2    0    0  0.00000000000E+00  0.00000000000E+00 -0.15989487835E+04  0.41199719764E+04  0.37970425168E+04 0.  0.
        4    1    3    3  502    0 -0.11152839033E+04  0.25545498523E+03 -0.24433362022E+04  0.26979638330E+04  0.12699999809E+01 0.  1.
       -4    1    3    3    0  502  0.11152839033E+04 -0.25545498523E+03  0.84438741869E+03  0.14220081435E+04  0.12699999809E+01 0. -1.
</event>
<event>
 5   0  0.1370688E-07  0.3706355E+04  0.7818609E-02  0.8066555E-01
       -2   -1    0    0    0  501  0.00000000000E+00  0.00000000000E+00  0.11082098156E+04  0.11082098156E+04  0.25500000920E-02 0. -1.
        2   -1    0    0  501    0  0.00000000000E+00  0.00000000000E+00 -0.30989316540E+04  0.30989316540E+04  0.25500000920E-02 0.  1.
    10030    2    1    2    0    0  0.00000000000E+00  0.00000000000E+00 -0.19907218383E+04  0.42071414696E+04  0.37063548005E+04 0.  0.
        5    1    3    3  502    0 -0.17634741478E+04  0.54654921539E+03 -0.11772887398E+04  0.21896547631E+04  0.46999998093E+01 0.  1.
       -5    1    3    3    0  502  0.17634741478E+04 -0.54654921539E+03 -0.81343309860E+03  0.20174867065E+04  0.46999998093E+01 0. -1.
</event>
<event>
 5   0  0.6661000E-08  0.3782023E+04  0.7818609E-02  0.8050024E-01
        3   -1    0    0  501    0  0.00000000000E+00  0.00000000000E+00  0.13904164311E+04  0.13904164347E+04  0.10100000352E+00 0.  1.
       -3   -1    0    0    0  501  0.00000000000E+00  0.00000000000E+00 -0.25718374941E+04  0.25718374961E+04  0.10100000352E+00 0. -1.
    10030    2    1    2    0    0  0.00000000000E+00  0.00000000000E+00 -0.11814210631E+04  0.39622539308E+04  0.37820233321E+04 0.  0.
        2    1    3    3  502    0  0.10926302061E+03 -0.17111627576E+04  0.24472991068E+03  0.17320245725E+04  0.25500000920E-02 0. -1.
       -2    1    3    3    0  502 -0.10926302061E+03  0.17111627576E+04 -0.14261509737E+04  0.22302293583E+04  0.25500000920E-02 0.  1.
</event>
<event>
 5   0  0.2081337E-07  0.3843417E+04  0.7818609E-02  0.8036901E-01
        2   -1    0    0  501    0  0.00000000000E+00  0.00000000000E+00  0.13374609596E+04  0.13374609596E+04  0.25500000920E-02 0.  1.
       -2   -1    0    0    0  501  0.00000000000E+00  0.00000000000E+00 -0.27611750881E+04  0.27611750881E+04  0.25500000920E-02 0. -1.
    10030    2    1    2    0    0  0.00000000000E+00  0.00000000000E+00 -0.14237141285E+04  0.40986360476E+04  0.38434171685E+04 0.  0.
        1    1    3    3  502    0  0.15692608640E+04  0.11075524640E+04 -0.77682692476E+03  0.20718861434E+04  0.50400001928E-02 0. -1.
       -1    1    3    3    0  502 -0.15692608640E+04 -0.11075524640E+04 -0.64688720377E+03  0.20267499043E+04  0.50400001928E-02 0.  1.
</event>
<event>
 5   0  0.1370688E-07  0.3790290E+04  0.7818609E-02  0.8048242E-01
       -2   -1    0    0    0  501  0.00000000000E+00  0.00000000000E+00  0.17778202168E+04  0.17778202168E+04  0.25500000920E-02 0. -1.
        2   -1    0    0  501    0  0.00000000000E+00  0.00000000000E+00 -0.20202122770E+04  0.20202122770E+04  0.25500000920E-02 0.  1.
    10030    2    1    2    0    0  0.00000000000E+00  0.00000000000E+00 -0.24239206021E+03  0.37980324939E+04  0.37902898192E+04 0.  0.
        5    1    3    3  502    0 -0.49492715694E+03 -0.53823402515E+03 -0.18731678375E+04  0.20108278379E+04  0.46999998093E+01 0.  1.
       -5    1    3    3    0  502  0.49492715694E+03  0.53823402515E+03  0.16307757773E+04  0.17872046559E+04  0.46999998093E+01 0. -1.
</event>
<event>
 5   0  0.2135314E-07  0.3783225E+04  0.7818609E-02  0.8049764E-01
        2   -1    0    0  501    0  0.00000000000E+00  0.00000000000E+00  0.17141921960E+04  0.17141921960E+04  0.25500000920E-02 0. -1.
       -2   -1    0    0    0  501  0.00000000000E+00  0.00000000000E+00 -0.20873962857E+04  0.20873962857E+04  0.25500000920E-02 0.  1.
    10030    2    1    2    0    0  0.00000000000E+00  0.00000000000E+00 -0.37320408969E+03  0.38015884817E+04  0.37832253028E+04 0.  0.
        4    1    3    3  502    0 -0.81994781539E+03 -0.14768960043E+04  0.66879986758E+03  0.18168189517E+04  0.12699999809E+01 0. -1.
       -4    1    3    3    0  502  0.81994781539E+03  0.14768960043E+04 -0.10420039573E+04  0.19847695300E+04  0.12699999809E+01 0.  1.
</event>
<event>
 5   0  0.6661000E-08  0.3792396E+04  0.7818609E-02  0.8047789E-01
       -1   -1    0    0    0  501  0.00000000000E+00  0.00000000000E+00  0.13419178858E+04  0.13419178858E+04  0.50400001928E-02 0. -1.
        1   -1    0    0  501    0  0.00000000000E+00  0.00000000000E+00 -0.26794243683E+04  0.26794243683E+04  0.50400001928E-02 0.  1.
    10030    2    1    2    0    0  0.00000000000E+00  0.00000000000E+00 -0.13375064824E+04  0.40213422541E+04  0.37923963314E+04 0.  0.
        3    1    3    3  502    0  0.57784610498E+03  0.97931825804E+03  0.94028474215E+03  0.14755018733E+04  0.10100000352E+00 0. -1.
       -3    1    3    3    0  502 -0.57784610498E+03 -0.97931825804E+03 -0.22777912246E+04  0.25458403808E+04  0.10100000352E+00 0.  1.
</event>
<event>
 5   0  0.6661000E-08  0.3805278E+04  0.7818609E-02  0.8045023E-01
       -1   -1    0    0    0  501  0.00000000000E+00  0.00000000000E+00  0.13142409437E+04  0.13142409437E+04  0.50400001928E-02 0.  1.
        1   -1    0    0  501    0  0.00000000000E+00  0.00000000000E+00 -0.27544679617E+04  0.27544679617E+04  0.50400001928E-02 0. -1.
    10030    2    1    2    0    0  0.00000000000E+00  0.00000000000E+00 -0.14402270180E+04  0.40687089054E+04  0.38052776894E+04 0.  0.
        3    1    3    3  502    0 -0.17228515468E+04 -0.13305051506E+03 -0.15715537368E+04  0.23357442176E+04  0.10100000352E+00 0. -1.
       -3    1    3    3    0  502  0.17228515468E+04  0.13305051506E+03  0.13132671885E+03  0.17329646878E+04  0.10100000352E+00 0.  1.
</event>
<event>
 5   0  0.2203998E-07  0.3806815E+04  0.7818609E-02  0.8044694E-01
        2   -1    0    0  501    0  0.00000000000E+00  0.00000000000E+00  0.17527993762E+04  0.17527993762E+04  0.25500000920E-02 0. -1.
       -2   -1    0    0    0  501  0.00000000000E+00  0.00000000000E+00 -0.20669565066E+04  0.20669565066E+04  0.25500000920E-02 0.  1.
    10030    2    1    2    0    0  0.00000000000E+00  0.00000000000E+00 -0.31415713042E+03  0.38197558828E+04  0.38068149813E+04 0.  0.
        3    1    3    3  502    0  0.79922069293E+03 -0.61815591376E+03  0.14615043928E+04  0.17767570318E+04  0.10100000352E+00 0. -1.
       -3    1    3    3    0  502 -0.79922069293E+03  0.61815591376E+03 -0.17756615232E+04  0.20429988510E+04  0.10100000352E+00 0.  1.
</event>
<event>
 5   0  0.2135314E-07  0.3807867E+04  0.7818609E-02  0.8044469E-01
        2   -1    0    0  501    0  0.00000000000E+00  0.00000000000E+00  0.23647179567E+04  0.23647179567E+04  0.25500000920E-02 0.  1.
       -2   -1    0    0    0  501  0.00000000000E+00  0.00000000000E+00 -0.15329370259E+04  0.15329370259E+04  0.25500000920E-02 0. -1.
    10030    2    1    2    0    0  0.00000000000E+00  0.00000000000E+00  0.83178093078E+03  0.38976549826E+04  0.38078674933E+04 0.  0.
        4    1    3    3  502    0  0.17870167297E+04 -0.59341219878E+03  0.70430615211E+03  0.20103769792E+04  0.12699999809E+01 0.  1.
       -4    1    3    3    0  502 -0.17870167297E+04  0.59341219878E+03  0.12747477867E+03  0.18872780033E+04  0.12699999809E+01 0. -1.
</event>
<event>
 5   0  0.6661000E-08  0.3803615E+04  0.7818609E-02  0.8045380E-01
       -1   -1    0    0    0  501  0.00000000000E+00  0.00000000000E+00  0.11740752290E+04  0.11740752290E+04  0.50400001928E-02 0.  1.
        1   -1    0    0  501    0  0.00000000000E+00  0.00000000000E+00 -0.30806135831E+04  0.30806135831E+04  0.50400001928E-02 0. -1.
    10030    2    1    2    0    0  0.00000000000E+00  0.00000000000E+00 -0.19065383540E+04  0.42546888121E+04  0.38036151741E+04 0.  0.
        2    1    3    3  502    0  0.17527549869E+04  0.56343605948E+03 -0.14865236527E+04  0.23662972779E+04  0.25500000920E-02 0. -1.
       -2    1    3    3    0  502 -0.17527549869E+04 -0.56343605948E+03 -0.42001470134E+03  0.18883915342E+04  0.25500000920E-02 0.  1.
</event>
<event>
 5   0  0.6661000E-08  0.3801065E+04  0.7818609E-02  0.8045926E-01
       -1   -1    0    0    0  501  0.00000000000E+00  0.00000000000E+00  0.13787673032E+04  0.13787673032E+04  0.50400001928E-02 0. -1.
        1   -1    0    0  501    0  0.00000000000E+00  0.00000000000E+00 -0.26197492980E+04  0.26197492981E+04  0.50400001928E-02 0.  1.
    10030    2    1    2    0    0  0.00000000000E+00  0.00000000000E+00 -0.12409819948E+04  0.39985166013E+04  0.38010654690E+04 0.  0.
        1    1    3    3  502    0  0.12662429520E+04 -0.59204507463E+03  0.73408582321E+03  0.15788510315E+04  0.50400001928E-02 0. -1.
       -1    1    3    3    0  502 -0.12662429520E+04  0.59204507463E+03 -0.19750678180E+04  0.24196655698E+04  0.50400001928E-02 0.  1.
</event>
<event>
 5   0  0.1370688E-07  0.3727123E+04  0.7818609E-02  0.8061978E-01
        2   -1    0    0  501    0  0.00000000000E+00  0.00000000000E+00  0.26530933618E+04  0.26530933618E+04  0.25500000920E-02 0. -1.
       -2   -1    0    0    0  501  0.00000000000E+00  0.00000000000E+00 -0.13089856439E+04  0.13089856439E+04  0.25500000920E-02 0.  1.
    10030    2    1    2    0    0  0.00000000000E+00  0.00000000000E+00  0.13441077179E+04  0.39620790057E+04  0.37271228166E+04 0.  0.
        5    1    3    3  502    0  0.13394237342E+03  0.74369038803E+03 -0.11388062118E+04  0.13667178314E+04  0.46999998093E+01 0.  1.
       -5    1    3    3    0  502 -0.13394237342E+03 -0.74369038803E+03  0.24829139297E+04  0.25953611743E+04  0.46999998093E+01 0. -1.
</event>
<event>
 5   0  0.6661000E-08  0.3932051E+04  0.7818609E-02  0.8018396E-01
        3   -1    0    0  501    0  0.00000000000E+00  0.00000000000E+00  0.25175106889E+04  0.25175106909E+04  0.10100000352E+00 0.  1.
       -3   -1    0    0    0  501  0.00000000000E+00  0.00000000000E+00 -0.15353488164E+04  0.15353488198E+04  0.10100000352E+00 0. -1.
    10030    2    1    2    0    0  0.00000000000E+00  0.00000000000E+00  0.98216187246E+03  0.40528595107E+04  0.39320514073E+04 0.  0.
        1    1    3    3  502    0  0.54199656862E+03  0.10047074232E+03 -0.14540681206E+04  0.15550462211E+04  0.50400001928E-02 0. -1.
       -1    1    3    3    0  502 -0.54199656862E+03 -0.10047074232E+03  0.24362299931E+04  0.24978132896E+04  0.50400001928E-02 0.  1.
</event>
<event>
 5   0  0.2135314E-07  0.3830744E+04  0.7818609E-02  0.8039589E-01
       -2   -1    0    0    0  501  0.00000000000E+00  0.00000000000E+00  0.12727875007E+04  0.12727875007E+04  0.25500000920E-02 0. -1.
        2   -1    0    0  501    0  0.00000000000E+00  0.00000000000E+00 -0.28823742877E+04  0.28823742877E+04  0.25500000920E-02 0.  1.
    10030    2    1    2    0    0  0.00000000000E+00  0.00000000000E+00 -0.16095867870E+04  0.41551617884E+04  0.38307440351E+04 0.  0.
        4    1    3    3  502    0 -0.37309458963E+03 -0.17273674941E+04 -0.16060322670E+04  0.23879571370E+04  0.12699999809E+01 0.  1.
       -4    1    3    3    0  502  0.37309458963E+03  0.17273674941E+04 -0.35545199570E+01  0.17672046514E+04  0.12699999809E+01 0. -1.
</event>
<event>
 5   0  0.2135314E-07  0.3817338E+04  0.7818609E-02  0.8042444E-01
        2   -1    0    0  501    0  0.00000000000E+00  0.00000000000E+00  0.22243141008E+04  0.22243141008E+04  0.25500000920E-02 0.  1.
       -2   -1    0    0    0  501  0.00000000000E+00  0.00000000000E+00 -0.16378161564E+04  0.16378161564E+04  0.25500000920E-02 0. -1.
    10030    2    1    2    0    0  0.00000000000E+00  0.00000000000E+00  0.58649794442E+03  0.38621302572E+04  0.38173381150E+04 0.  0.
        4    1    3    3  502    0  0.36903793292E+02 -0.11229056606E+04  0.18543175937E+04  0.21681269252E+04  0.12699999809E+01 0.  1.
       -4    1    3    3    0  502 -0.36903793292E+02  0.11229056606E+04 -0.12678196493E+04  0.16940033319E+04  0.12699999809E+01 0. -1.
</event>
<event>
 5   0  0.1370688E-07  0.3798229E+04  0.7818609E-02  0.8046535E-01
       -2   -1    0    0    0  501  0.00000000000E+00  0.00000000000E+00  0.27970059398E+04  0.27970059398E+04  0.25500000920E-02 0. -1.
        2   -1    0    0  501    0  0.00000000000E+00  0.00000000000E+00 -0.12894634066E+04  0.12894634066E+04  0.25500000920E-02 0.  1.
    10030    2    1    2    0    0  0.00000000000E+00  0.00000000000E+00  0.15075425332E+04  0.40864693464E+04  0.37982294862E+04 0.  0.
        5    1    3    3  502    0 -0.11788200832E+04  0.83460151322E+03 -0.57286369071E+03  0.15538247560E+04  0.46999998093E+01 0.  1.
       -5    1    3    3    0  502  0.11788200832E+04 -0.83460151322E+03  0.20804062240E+04  0.25326445904E+04  0.46999998093E+01 0. -1.
</event>
<event>
 5   0  0.6661000E-08  0.3783487E+04  0.7818609E-02  0.8049708E-01
       -1   -1    0    0    0  501  0.00000000000E+00  0.00000000000E+00  0.28237458490E+04  0.28237458490E+04  0.50400001928E-02 0. -1.
        1   -1    0    0  501    0  0.00000000000E+00  0.00000000000E+00 -0.12673565527E+04  0.12673565528E+04  0.50400001928E-02 0.  1.
    10030    2    1    2    0    0  0.00000000000E+00  0.00000000000E+00  0.15563892963E+04  0.40911024018E+04  0.37834866486E+04 0.  0.
        3    1    3    3  502    0 -0.17533698408E+04 -0.15370699748E+03  0.15279383555E+04  0.23307782537E+04  0.10100000352E+00 0. -1.
       -3    1    3    3    0  502  0.17533698408E+04  0.15370699748E+03  0.28450940804E+02  0.17603241480E+04  0.10100000352E+00 0.  1.
</event>
<event>
 5   0  0.6661000E-08  0.3801091E+04  0.7818609E-02  0.8045921E-01
        1   -1    0    0  501    0  0.00000000000E+00  0.00000000000E+00  0.18592180679E+04  0.18592180679E+04  0.50400001928E-02 0.  1.
       -1   -1    0    0    0  501  0.00000000000E+00  0.00000000000E+00 -0.19427912887E+04  0.19427912887E+04  0.50400001928E-02 0. -1.
    10030    2    1    2    0    0  0.00000000000E+00  0.00000000000E+00 -0.83573220782E+02  0.38020093567E+04  0.38010907204E+04 0.  0.
        2    1    3    3  502    0 -0.16842526632E+04  0.61270152253E+03  0.59079209911E+03  0.18870997572E+04  0.25500000920E-02 0.  1.
       -2    1    3    3    0  502  0.16842526632E+04 -0.61270152253E+03 -0.67436531989E+03  0.19149095994E+04  0.25500000920E-02 0. -1.
</event>
<event>
 5   0  0.2081337E-07  0.3793518E+04  0.7818609E-02  0.8047547E-01
        2   -1    0    0  501    0  0.00000000000E+00  0.00000000000E+00  0.16041239982E+04  0.16041239982E+04  0.25500000920E-02 0.  1.
       -2   -1    0    0    0  501  0.00000000000E+00  0.00000000000E+00 -0.22427786695E+04  0.22427786695E+04  0.25500000920E-02 0. -1.
    10030    2    1    2    0    0  0.00000000000E+00  0.00000000000E+00 -0.63865467125E+03  0.38469026677E+04  0.37935182016E+04 0.  0.
        1    1    3    3  502    0  0.14533841859E+03 -0.33145469502E+03  0.15687846908E+04  0.16099909556E+04  0.50400001928E-02 0.  1.
       -1    1    3    3    0  502 -0.14533841859E+03  0.33145469502E+03 -0.22074393621E+04  0.22369117122E+04  0.50400001928E-02 0. -1.
</event>
<event>
 5   0  0.6661000E-08  0.3797748E+04  0.7818609E-02  0.8046638E-01
       -1   -1    0    0    0  501  0.00000000000E+00  0.00000000000E+00  0.14153858276E+04  0.14153858276E+04  0.50400001928E-02 0.  1.
        1   -1    0    0  501    0  0.00000000000E+00  0.00000000000E+00 -0.25475184735E+04  0.25475184736E+04  0.50400001928E-02 0. -1.
    10030    2    1    2    0    0  0.00000000000E+00  0.00000000000E+00 -0.11321326460E+04  0.39629043012E+04  0.37977475129E+04 0.  0.
        2    1    3    3  502    0 -0.12614595947E+04  0.15414557388E+03  0.90620639502E+03  0.15608495114E+04  0.25500000920E-02 0.  1.
       -2    1    3    3    0  502  0.12614595947E+04 -0.15414557388E+03 -0.20383390410E+04  0.24020547897E+04  0.25500000920E-02 0. -1.
</event>
<event>
 5   0  0.2081337E-07  0.3792299E+04  0.7818609E-02  0.8047810E-01
        2   -1    0    0  501    0  0.00000000000E+00  0.00000000000E+00  0.27885506181E+04  0.27885506181E+04  0.25500000920E-02 0.  1.
       -2   -1    0    0    0  501  0.00000000000E+00  0.00000000000E+00 -0.12893374967E+04  0.12893374967E+04  0.25500000920E-02 0. -1.
    10030    2    1    2    0    0  0.00000000000E+00  0.00000000000E+00  0.14992131213E+04  0.40778881148E+04  0.37922989721E+04 0.  0.
        1    1    3    3  502    0  0.38021804457E+03  0.12203830351E+04  0.22556064532E+04  0.25926166291E+04  0.50400001928E-02 0.  1.
       -1    1    3    3    0  502 -0.38021804457E+03 -0.12203830351E+04 -0.75639333180E+03  0.14852714857E+04  0.50400001928E-02 0. -1.
</event>
<event>
 5   0  0.6725199E-08  0.3819061E+04  0.7818609E-02  0.8042077E-01
        1   -1    0    0  501    0  0.00000000000E+00  0.00000000000E+00  0.13448243503E+04  0.13448243503E+04  0.50400001928E-02 0.  1.
       -1   -1    0    0    0  501  0.00000000000E+00  0.00000000000E+00 -0.27113621646E+04  0.27113621646E+04  0.50400001928E-02 0. -1.
    10030    2    1    2    0    0  0.00000000000E+00  0.00000000000E+00 -0.13665378143E+04  0.40561865150E+04  0.38190605450E+04 0.  0.
        5    1    3    3  502    0 -0.64310585302E+03 -0.17170786335E+04 -0.12496125727E+04  0.22188956360E+04  0.46999998093E+01 0. -1.
       -5    1    3    3    0  502  0.64310585302E+03  0.17170786335E+04 -0.11692524165E+03  0.18372908790E+04  0.46999998093E+01 0.  1.
</event>
<event>
 5   0  0.2205204E-07  0.3798283E+04  0.7818609E-02  0.8046523E-01
        2   -1    0    0  501    0  0.00000000000E+00  0.00000000000E+00  0.29702481821E+04  0.29702481821E+04  0.25500000920E-02 0.  1.
       -2   -1    0    0    0  501  0.00000000000E+00  0.00000000000E+00 -0.12142888802E+04  0.12142888802E+04  0.25500000920E-02 0. -1.
    10030    2    1    2    0    0  0.00000000000E+00  0.00000000000E+00  0.17559593019E+04  0.41845370624E+04  0.37982834750E+04 0.  0.
        2    1    3    3  502    0  0.94847656795E+03 -0.15917222762E+04  0.41901998179E+03  0.18996750643E+04  0.25500000920E-02 0. -1.
       -2    1    3    3    0  502 -0.94847656795E+03  0.15917222762E+04  0.13369393201E+04  0.22848619981E+04  0.25500000920E-02 0.  1.
</event>
<event>
 5   0  0.6661000E-08  0.3852013E+04  0.7818609E-02  0.8035084E-01
       -1   -1    0    0    0  501  0.00000000000E+00  0.00000000000E+00  0.18677867602E+04  0.18677867602E+04  0.50400001928E-02 0.  1.
        1   -1    0    0  501    0  0.00000000000E+00  0.00000000000E+00 -0.19860410573E+04  0.19860410573E+04  0.50400001928E-02 0. -1.
    10030    2    1    2    0    0  0.00000000000E+00  0.00000000000E+00 -0.11825429715E+03  0.38538278175E+04  0.38520130799E+04 0.  0.
        4    1    3    3  502    0  0.10597997794E+04 -0.15532718002E+04 -0.47606167264E+03  0.19397075003E+04  0.12699999809E+01 0. -1.
       -4    1    3    3    0  502 -0.10597997794E+04  0.15532718002E+04  0.35780737549E+03  0.19141203172E+04  0.12699999809E+01 0.  1.
</event>
<event>
 5   0  0.2135314E-07  0.3513317E+04  0.7818609E-02  0.8110641E-01
       -2   -1    0    0    0  501  0.00000000000E+00  0.00000000000E+00  0.18248126164E+04  0.18248126164E+04  0.25500000920E-02 0.  1.
        2   -1    0    0  501    0  0.00000000000E+00  0.00000000000E+00 -0.16910500402E+04  0.16910500402E+04  0.25500000920E-02 0. -1.
    10030    2    1    2    0    0  0.00000000000E+00  0.00000000000E+00  0.13376257624E+03  0.35158626565E+04  0.35133172064E+04 0.  0.
        4    1    3    3  502    0  0.87469158985E+03  0.61703914210E+03  0.14607382848E+04  0.18109612447E+04  0.12699999809E+01 0.  1.
       -4    1    3    3    0  502 -0.87469158985E+03 -0.61703914210E+03 -0.13269757085E+04  0.17049014119E+04  0.12699999809E+01 0. -1.
</event>
<event>
 5   0  0.6661000E-08  0.3846037E+04  0.7818609E-02  0.8036347E-01
        1   -1    0    0  501    0  0.00000000000E+00  0.00000000000E+00  0.22596825645E+04  0.22596825645E+04  0.50400001928E-02 0.  1.
       -1   -1    0    0    0  501  0.00000000000E+00  0.00000000000E+00 -0.16365133950E+04  0.16365133950E+04  0.50400001928E-02 0. -1.
    10030    2    1    2    0    0  0.00000000000E+00  0.00000000000E+00  0.62316916946E+03  0.38961959595E+04  0.38460373297E+04 0.  0.
        3    1    3    3  502    0  0.47001955670E+02  0.19166223445E+04  0.16013441958E+03  0.19238745899E+04  0.10100000352E+00 0.  1.
       -3    1    3    3    0  502 -0.47001955670E+02 -0.19166223445E+04  0.46303474988E+03  0.19723213696E+04  0.10100000352E+00 0. -1.
</event>
<event>
 5   0  0.1370688E-07  0.3724100E+04  0.7818609E-02  0.8062642E-01
        2   -1    0    0  501    0  0.00000000000E+00  0.00000000000E+00  0.27671475082E+04  0.27671475082E+04  0.25500000920E-02 0. -1.
       -2   -1    0    0    0  501  0.00000000000E+00  0.00000000000E+00 -0.12529981012E+04  0.12529981012E+04  0.25500000920E-02 0.  1.
    10030    2    1    2    0    0  0.00000000000E+00  0.00000000000E+00  0.15141494069E+04  0.40201456094E+04  0.37241001993E+04 0.  0.
        5    1    3    3  502    0 -0.83204514833E+03 -0.42582810175E+03  0.24955568383E+04  0.26648554791E+04  0.46999998093E+01 0. -1.
       -5    1    3    3    0  502  0.83204514833E+03  0.42582810175E+03 -0.98140743134E+03  0.13552901303E+04  0.46999998093E+01 0.  1.
</event>
<event>
 5   0  0.1370688E-07  0.3814975E+04  0.7818609E-02  0.8042949E-01
        2   -1    0    0  501    0  0.00000000000E+00  0.00000000000E+00  0.18832681855E+04  0.18832681855E+04  0.25500000920E-02 0.  1.
       -2   -1    0    0    0  501  0.00000000000E+00  0.00000000000E+00 -0.19320182227E+04  0.19320182227E+04  0.25500000920E-02 0. -1.
    10030    2    1    2    0    0  0.00000000000E+00  0.00000000000E+00 -0.48750037171E+02  0.38152864082E+04  0.38149749423E+04 0.  0.
        5    1    3    3  502    0 -0.11454779663E+04 -0.14029541797E+04  0.57407684590E+03  0.18999964517E+04  0.46999998093E+01 0. -1.
       -5    1    3    3    0  502  0.11454779663E+04  0.14029541797E+04 -0.62282688307E+03  0.19152899566E+04  0.46999998093E+01 0.  1.
</event>
<event>
 5   0  0.2081337E-07  0.3792583E+04  0.7818609E-02  0.8047748E-01
        2   -1    0    0  501    0  0.00000000000E+00  0.00000000000E+00  0.27472755905E+04  0.27472755905E+04  0.25500000920E-02 0.  1.
       -2   -1    0    0    0  501  0.00000000000E+00  0.00000000000E+00 -0.13089044084E+04  0.13089044084E+04  0.25500000920E-02 0. -1.
    10030    2    1    2    0    0  0.00000000000E+00  0.00000000000E+00  0.14383711821E+04  0.40561799989E+04  0.37925828305E+04 0.  0.
        1    1    3    3  502    0  0.12654572712E+04 -0.71318857974E+03 -0.58451269091E+03  0.15657825971E+04  0.50400001928E-02 0. -1.
       -1    1    3    3    0  502 -0.12654572712E+04  0.71318857974E+03  0.20228838730E+04  0.24903974019E+04  0.50400001928E-02 0.  1.
</event>
<event>
 5   0  0.6661000E-08  0.3824646E+04  0.7818609E-02  0.8040886E-01
        1   -1    0    0  501    0  0.00000000000E+00  0.00000000000E+00  0.21320654079E+04  0.21320654079E+04  0.50400001928E-02 0.  1.
       -1   -1    0    0    0  501  0.00000000000E+00  0.00000000000E+00 -0.17152285982E+04  0.17152285983E+04  0.50400001928E-02 0. -1.
    10030    2    1    2    0    0  0.00000000000E+00  0.00000000000E+00  0.41683680961E+03  0.38472940061E+04  0.38246461593E+04 0.  0.
        2    1    3    3  502    0 -0.16942517914E+04  0.21589862605E+03  0.10736736341E+04  0.20173934723E+04  0.25500000920E-02 0.  1.
       -2    1    3    3    0  502  0.16942517914E+04 -0.21589862605E+03 -0.65683682453E+03  0.18299005338E+04  0.25500000920E-02 0. -1.
</event>
<event>
 5   0  0.6661000E-08  0.3515452E+04  0.7818609E-02  0.8110138E-01
       -1   -1    0    0    0  501  0.00000000000E+00  0.00000000000E+00  0.13856000268E+04  0.13856000268E+04  0.50400001928E-02 0. -1.
        1   -1    0    0  501    0  0.00000000000E+00  0.00000000000E+00 -0.22297931035E+04  0.22297931035E+04  0.50400001928E-02 0.  1.
    10030    2    1    2    0    0  0.00000000000E+00  0.00000000000E+00 -0.84419307667E+03  0.36153931303E+04  0.35154523942E+04 0.  0.
        3    1    3    3  502    0 -0.14298485813E+04 -0.85558637059E+03 -0.99756332012E+03  0.19420678646E+04  0.10100000352E+00 0. -1.
       -3    1    3    3    0  502  0.14298485813E+04  0.85558637059E+03  0.15337024346E+03  0.16733252657E+04  0.10100000352E+00 0.  1.
</event>
<event>
 5   0  0.6661000E-08  0.3801382E+04  0.7818609E-02  0.8045858E-01
        1   -1    0    0  501    0  0.00000000000E+00  0.00000000000E+00  0.16054288310E+04  0.16054288310E+04  0.50400001928E-02 0.  1.
       -1   -1    0    0    0  501  0.00000000000E+00  0.00000000000E+00 -0.22502566831E+04  0.22502566832E+04  0.50400001928E-02 0. -1.
    10030    2    1    2    0    0  0.00000000000E+00  0.00000000000E+00 -0.64482785214E+03  0.38556855142E+04  0.38013823571E+04 0.  0.
        1    1    3    3  502    0 -0.17584454491E+04  0.59402015523E+03 -0.73769724727E+03  0.19972950636E+04  0.50400001928E-02 0.  1.
       -1    1    3    3    0  502  0.17584454491E+04 -0.59402015523E+03  0.92869395126E+02  0.18583904506E+04  0.50400001928E-02 0. -1.
</event>
<event>
 5   0  0.2135314E-07  0.3766263E+04  0.7818609E-02  0.8053434E-01
       -2   -1    0    0    0  501  0.00000000000E+00  0.00000000000E+00  0.14903014394E+04  0.14903014394E+04  0.25500000920E-02 0. -1.
        2   -1    0    0  501    0  0.00000000000E+00  0.00000000000E+00 -0.23795082932E+04  0.23795082932E+04  0.25500000920E-02 0.  1.
    10030    2    1    2    0    0  0.00000000000E+00  0.00000000000E+00 -0.88920685373E+03  0.38698097326E+04  0.37662632061E+04 0.  0.
        4    1    3    3  502    0 -0.10978984940E+04 -0.22301460693E+03  0.11106378833E+04  0.15775407250E+04  0.12699999809E+01 0. -1.
       -4    1    3    3    0  502  0.10978984940E+04  0.22301460693E+03 -0.19998447371E+04  0.22922690076E+04  0.12699999809E+01 0.  1.
</event>
<event>
 5   0  0.6725199E-08  0.3699949E+04  0.7818609E-02  0.8067973E-01
       -1   -1    0    0    0  501  0.00000000000E+00  0.00000000000E+00  0.14727146718E+04  0.14727146718E+04  0.50400001928E-02 0. -1.
        1   -1    0    0  501    0  0.00000000000E+00  0.00000000000E+00 -0.23238753257E+04  0.23238753257E+04  0.50400001928E-02 0.  1.
    10030    2    1    2    0    0  0.00000000000E+00  0.00000000000E+00 -0.85116065396E+03  0.37965899975E+04  0.36999488038E+04 0.  0.
        5    1    3    3  502    0 -0.83578090271E+03  0.93675465445E+02 -0.21163683812E+04  0.22773541721E+04  0.46999998093E+01 0.  1.
       -5    1    3    3    0  502  0.83578090271E+03 -0.93675465445E+02  0.12652077273E+04  0.15192358254E+04  0.46999998093E+01 0. -1.
</event>
<event>
 5   0  0.6661000E-08  0.3811975E+04  0.7818609E-02  0.8043590E-01
        1   -1    0    0  501    0  0.00000000000E+00  0.00000000000E+00  0.22679497942E+04  0.22679497942E+04  0.50400001928E-02 0.  1.
       -1   -1    0    0    0  501  0.00000000000E+00  0.00000000000E+00 -0.16017938399E+04  0.16017938399E+04  0.50400001928E-02 0. -1.
    10030    2    1    2    0    0  0.00000000000E+00  0.00000000000E+00  0.66615595429E+03  0.38697436341E+04  0.38119748213E+04 0.  0.
        4    1    3    3  502    0  0.59985824597E+03 -0.16257538182E+04  0.11387558319E+04  0.20735650099E+04  0.12699999809E+01 0.  1.
       -4    1    3    3    0  502 -0.59985824597E+03  0.16257538182E+04 -0.47259987763E+03  0.17961786242E+04  0.12699999809E+01 0. -1.
</event>
<event>
 5   0  0.6661000E-08  0.3787924E+04  0.7818609E-02  0.8048751E-01
       -1   -1    0    0    0  501  0.00000000000E+00  0.00000000000E+00  0.18072389686E+04  0.18072389686E+04  0.50400001928E-02 0. -1.
        1   -1    0    0  501    0  0.00000000000E+00  0.00000000000E+00 -0.19848463337E+04  0.19848463338E+04  0.50400001928E-02 0.  1.
    10030    2    1    2    0    0  0.00000000000E+00  0.00000000000E+00 -0.17760736512E+03  0.37920853024E+04  0.37879237802E+04 0.  0.
        2    1    3    3  502    0  0.64104857367E+03 -0.12163232033E+04 -0.13928114974E+04  0.19571175938E+04  0.25500000920E-02 0.  1.
       -2    1    3    3    0  502 -0.64104857367E+03  0.12163232033E+04  0.12152041323E+04  0.18349677086E+04  0.25500000920E-02 0. -1.
</event>
<event>
 5   0  0.2203998E-07  0.3845229E+04  0.7818609E-02  0.8036518E-01
       -2   -1    0    0    0  501  0.00000000000E+00  0.00000000000E+00  0.33832207047E+04  0.33832207047E+04  0.25500000920E-02 0.  1.
        2   -1    0    0  501    0  0.00000000000E+00  0.00000000000E+00 -0.10925818680E+04  0.10925818680E+04  0.25500000920E-02 0. -1.
    10030    2    1    2    0    0  0.00000000000E+00  0.00000000000E+00  0.22906388367E+04  0.44758025727E+04  0.38452285225E+04 0.  0.
        3    1    3    3  502    0  0.16839278764E+04 -0.90374896851E+03  0.90096412536E+03  0.21128444468E+04  0.10100000352E+00 0. -1.
       -3    1    3    3    0  502 -0.16839278764E+04  0.90374896851E+03  0.13896747113E+04  0.23629581259E+04  0.10100000352E+00 0.  1.
</event>
<event>
 5   0  0.2135314E-07  0.3769002E+04  0.7818609E-02  0.8052840E-01
       -2   -1    0    0    0  501  0.00000000000E+00  0.00000000000E+00  0.23579203858E+04  0.23579203858E+04  0.25500000920E-02 0.  1.
        2   -1    0    0  501    0  0.00000000000E+00  0.00000000000E+00 -0.15061335857E+04  0.15061335857E+04  0.25500000920E-02 0. -1.
    10030    2    1    2    0    0  0.00000000000E+00  0.00000000000E+00  0.85178680009E+03  0.38640539715E+04  0.37690015046E+04 0.  0.
        4    1    3    3  502    0 -0.42849235740E+03 -0.22106403305E+03  0.22936133705E+04  0.23437446348E+04  0.12699999809E+01 0.  1.
       -4    1    3    3    0  502  0.42849235740E+03  0.22106403305E+03 -0.14418265704E+04  0.15203093366E+04  0.12699999809E+01 0. -1.
</event>
<event>
 5   0  0.2081337E-07  0.3769570E+04  0.7818609E-02  0.8052717E-01
       -2   -1    0    0    0  501  0.00000000000E+00  0.00000000000E+00  0.32244123158E+04  0.32244123158E+04  0.25500000920E-02 0.  1.
        2   -1    0    0  501    0  0.00000000000E+00  0.00000000000E+00 -0.11017246343E+04  0.11017246343E+04  0.25500000920E-02 0. -1.
    10030    2    1    2    0    0  0.00000000000E+00  0.00000000000E+00  0.21226876815E+04  0.43261369500E+04  0.37695699910E+04 0.  0.
        1    1    3    3  502    0  0.18205615626E+04  0.48452466156E+03  0.99636299328E+03  0.21311845920E+04  0.50400001928E-02 0. -1.
       -1    1    3    3    0  502 -0.18205615626E+04 -0.48452466156E+03  0.11263246882E+04  0.21949523580E+04  0.50400001928E-02 0.  1.
</event>
<event>
 5   0  0.2203998E-07  0.3357020E+04  0.7818609E-02  0.8148536E-01
       -2   -1    0    0    0  501  0.00000000000E+00  0.00000000000E+00  0.10670938842E+04  0.10670938842E+04  0.25500000920E-02 0. -1.
        2   -1    0    0  501    0  0.00000000000E+00  0.00000000000E+00 -0.26402504216E+04  0.26402504216E+04  0.25500000920E-02 0.  1.
    10030    2    1    2    0    0  0.00000000000E+00  0.00000000000E+00 -0.15731565375E+04  0.37073443058E+04  0.33570195577E+04 0.  0.
        3    1    3    3  502    0 -0.43830094330E+03  0.14610102826E+04 -0.12948550932E+02  0.15253938632E+04  0.10100000352E+00 0. -1.
       -3    1    3    3    0  502  0.43830094330E+03 -0.14610102826E+04 -0.15602079865E+04  0.21819504426E+04  0.10100000352E+00 0.  1.
</event>
<event>
 5   0  0.6725199E-08  0.3760219E+04  0.7818609E-02  0.8054746E-01
        1   -1    0    0  501    0  0.00000000000E+00  0.00000000000E+00  0.22788098743E+04  0.22788098743E+04  0.50400001928E-02 0. -1.
       -1   -1    0    0    0  501  0.00000000000E+00  0.00000000000E+00 -0.15511658555E+04  0.15511658555E+04  0.50400001928E-02 0.  1.
    10030    2    1    2    0    0  0.00000000000E+00  0.00000000000E+00  0.72764401885E+03  0.38299757298E+04  0.37602191789E+04 0.  0.
        5    1    3    3  502    0  0.17171299852E+04  0.15758113889E+03 -0.39935956343E+03  0.17699936023E+04  0.46999998093E+01 0.  1.
       -5    1    3    3    0  502 -0.17171299852E+04 -0.15758113889E+03  0.11270035823E+04  0.20599821275E+04  0.46999998093E+01 0. -1.
</event>
<event>
 5   0  0.6661000E-08  0.3819847E+04  0.7818609E-02  0.8041909E-01
       -1   -1    0    0    0  501  0.00000000000E+00  0.00000000000E+00  0.12260720704E+04  0.12260720704E+04  0.50400001928E-02 0. -1.
        1   -1    0    0  501    0  0.00000000000E+00  0.00000000000E+00 -0.29751989880E+04  0.29751989880E+04  0.50400001928E-02 0.  1.
    10030    2    1    2    0    0  0.00000000000E+00  0.00000000000E+00 -0.17491269175E+04  0.42012710584E+04  0.38198473180E+04 0.  0.
        2    1    3    3  502    0 -0.42646748442E+03 -0.59305397273E+03 -0.28154913566E+04  0.29087074636E+04  0.25500000920E-02 0.  1.
       -2    1    3    3    0  502  0.42646748442E+03  0.59305397273E+03  0.10663644390E+04  0.12925635948E+04  0.25500000920E-02 0. -1.
</event>
<event>
 5   0  0.6661000E-08  0.3499056E+04  0.7818609E-02  0.8114014E-01
        1   -1    0    0  501    0  0.00000000000E+00  0.00000000000E+00  0.22595480676E+04  0.22595480676E+04  0.50400001928E-02 0.  1.
       -1   -1    0    0    0  501  0.00000000000E+00  0.00000000000E+00 -0.13546287305E+04  0.13546287305E+04  0.50400001928E-02 0. -1.
    10030    2    1    2    0    0  0.00000000000E+00  0.00000000000E+00  0.90491933707E+03  0.36141767981E+04  0.34990562901E+04 0.  0.
        3    1    3    3  502    0 -0.15037864801E+04  0.89224904986E+03  0.39252851449E+03  0.17920828077E+04  0.10100000352E+00 0. -1.
       -3    1    3    3    0  502  0.15037864801E+04 -0.89224904986E+03  0.51239082258E+03  0.18220939904E+04  0.10100000352E+00 0.  1.
</event>
<event>
 5   0  0.6661000E-08  0.3777986E+04  0.7818609E-02  0.8050896E-01
       -1   -1    0    0    0  501  0.00000000000E+00  0.00000000000E+00  0.15828394577E+04  0.15828394577E+04  0.50400001928E-02 0.  1.
        1   -1    0    0  501    0  0.00000000000E+00  0.00000000000E+00 -0.22543627987E+04  0.22543627988E+04  0.50400001928E-02 0. -1.
    10030    2    1    2    0    0  0.00000000000E+00  0.00000000000E+00 -0.67152334104E+03  0.38372022565E+04  0.37779859131E+04 0.  0.
        1    1    3    3  502    0 -0.64906166434E+03 -0.10351351289E+04  0.11274819073E+04  0.16625285653E+04  0.50400001928E-02 0.  1.
       -1    1    3    3    0  502  0.64906166434E+03  0.10351351289E+04 -0.17990052484E+04  0.21746736911E+04  0.50400001928E-02 0. -1.
</event>
<event>
 5   0  0.2135314E-07  0.3805058E+04  0.7818609E-02  0.8045070E-01
       -2   -1    0    0    0  501  0.00000000000E+00  0.00000000000E+00  0.11923013929E+04  0.11923013929E+04  0.25500000920E-02 0.  1.
        2   -1    0    0  501    0  0.00000000000E+00  0.00000000000E+00 -0.30358241540E+04  0.30358241540E+04  0.25500000920E-02 0. -1.
    10030    2    1    2    0    0  0.00000000000E+00  0.00000000000E+00 -0.18435227610E+04  0.42281255469E+04  0.38050584056E+04 0.  0.
        4    1    3    3  502    0  0.71335686809E+03  0.40891615318E+03  0.98466673636E+03  0.12828330508E+04  0.12699999809E+01 0.  1.
       -4    1    3    3    0  502 -0.71335686809E+03 -0.40891615318E+03 -0.28281894974E+04  0.29452924961E+04  0.12699999809E+01 0. -1.
</event>
<event>
 5   0  0.2081337E-07  0.3803390E+04  0.7818609E-02  0.8045428E-01
       -2   -1    0    0    0  501  0.00000000000E+00  0.00000000000E+00  0.15768807920E+04  0.15768807920E+04  0.25500000920E-02 0.  1.
        2   -1    0    0  501    0  0.00000000000E+00  0.00000000000E+00 -0.22934162842E+04  0.22934162842E+04  0.25500000920E-02 0. -1.
    10030    2    1    2    0    0  0.00000000000E+00  0.00000000000E+00 -0.71653549211E+03  0.38702970762E+04  0.38033901123E+04 0.  0.
        1    1    3    3  502    0  0.27527691816E+03 -0.16612107340E+04 -0.12575823054E+04  0.21016450079E+04  0.50400001928E-02 0. -1.
       -1    1    3    3    0  502 -0.27527691816E+03  0.16612107340E+04  0.54104681330E+03  0.17686520683E+04  0.50400001928E-02 0.  1.
</event>
<event>
 5   0  0.2205204E-07  0.3771086E+04  0.7818609E-02  0.8052388E-01
        2   -1    0    0  501    0  0.00000000000E+00  0.00000000000E+00  0.26777609826E+04  0.26777609826E+04  0.25500000920E-02 0. -1.
       -2   -1    0    0    0  501  0.00000000000E+00  0.00000000000E+00 -0.13277035800E+04  0.13277035800E+04  0.25500000920E-02 0.  1.
    10030    2    1    2    0    0  0.00000000000E+00  0.00000000000E+00  0.13500574026E+04  0.40054645626E+04  0.37710862323E+04 0.  0.
        2    1    3    3  502    0  0.18585250960E+04 -0.18269118585E+03  0.95155802286E+03  0.20959375642E+04  0.25500000920E-02 0. -1.
       -2    1    3    3    0  502 -0.18585250960E+04  0.18269118585E+03  0.39849937975E+03  0.19095269984E+04  0.25500000920E-02 0.  1.
</event>
<event>
 5   0  0.6661000E-08  0.3804905E+04  0.7818609E-02  0.8045103E-01
        1   -1    0    0  501    0  0.00000000000E+00  0.00000000000E+00  0.13261319746E+04  0.13261319746E+04  0.50400001928E-02 0. -1.
       -1   -1    0    0    0  501  0.00000000000E+00  0.00000000000E+00 -0.27292353723E+04  0.27292353723E+04  0.50400001928E-02 0.  1.
    10030    2    1    2    0    0  0.00000000000E+00  0.00000000000E+00 -0.14031033978E+04  0.40553673469E+04  0.38049054093E+04 0.  0.
        1    1    3    3  502    0  0.69652314421E+03 -0.13408258777E+03  0.11799267678E+04  0.13767170399E+04  0.50400001928E-02 0. -1.
       -1    1    3    3    0  502 -0.69652314421E+03  0.13408258777E+03 -0.25830301655E+04  0.26786503069E+04  0.50400001928E-02 0.  1.
</event>
<event>
 5   0  0.2203998E-07  0.3784271E+04  0.7818609E-02  0.8049539E-01
       -2   -1    0    0    0  501  0.00000000000E+00  0.00000000000E+00  0.17919749067E+04  0.17919749067E+04  0.25500000920E-02 0.  1.
        2   -1    0    0  501    0  0.00000000000E+00  0.00000000000E+00 -0.19978949716E+04  0.19978949716E+04  0.25500000920E-02 0. -1.
    10030    2    1    2    0    0  0.00000000000E+00  0.00000000000E+00 -0.20592006499E+03  0.37898698783E+04  0.37842714783E+04 0.  0.
        3    1    3    3  502    0  0.17966286970E+04 -0.58014590953E+03 -0.22857961988E+03  0.19017603961E+04  0.10100000352E+00 0. -1.
       -3    1    3    3    0  502 -0.17966286970E+04  0.58014590953E+03  0.22659554895E+02  0.18881094822E+04  0.10100000352E+00 0.  1.
</event>
<event>
 5   0  0.1370688E-07  0.3790456E+04  0.7818609E-02  0.8048206E-01
       -2   -1    0    0    0  501  0.00000000000E+00  0.00000000000E+00  0.13719575511E+04  0.13719575511E+04  0.25500000920E-02 0.  1.
        2   -1    0    0  501    0  0.00000000000E+00  0.00000000000E+00 -0.26180765359E+04  0.26180765359E+04  0.25500000920E-02 0. -1.
    10030    2    1    2    0    0  0.00000000000E+00  0.00000000000E+00 -0.12461189848E+04  0.39900340870E+04  0.37904563698E+04 0.  0.
        5    1    3    3  502    0 -0.50267661629E+03 -0.34415778360E+03  0.12660750907E+04  0.14050254751E+04  0.46999998093E+01 0.  1.
       -5    1    3    3    0  502  0.50267661629E+03  0.34415778360E+03 -0.25121940754E+04  0.25850086118E+04  0.46999998093E+01 0. -1.
</event>
<event>
 5   0  0.2081337E-07  0.3808676E+04  0.7818609E-02  0.8044296E-01
       -2   -1    0    0    0  501  0.00000000000E+00  0.00000000000E+00  0.14391148871E+04  0.14391148871E+04  0.25500000920E-02 0.  1.
        2   -1    0    0  501    0  0.00000000000E+00  0.00000000000E+00 -0.25199545393E+04  0.25199545393E+04  0.25500000920E-02 0. -1.
    10030    2    1    2    0    0  0.00000000000E+00  0.00000000000E+00 -0.10808396522E+04  0.39590694264E+04  0.38086764590E+04 0.  0.
        1    1    3    3  502    0 -0.89149775805E+03  0.49304235617E+03  0.11320384446E+04  0.15229478185E+04  0.50400001928E-02 0.  1.
       -1    1    3    3    0  502  0.89149775805E+03 -0.49304235617E+03 -0.22128780968E+04  0.24361216080E+04  0.50400001928E-02 0. -1.
</event>
<event>
 5   0  0.6661000E-08  0.3804741E+04  0.7818609E-02  0.8045138E-01
        1   -1    0    0  501    0  0.00000000000E+00  0.00000000000E+00  0.17362643119E+04  0.17362643119E+04  0.50400001928E-02 0.  1.
       -1   -1    0    0    0  501  0.00000000000E+00  0.00000000000E+00 -0.20843683188E+04  0.20843683188E+04  0.50400001928E-02 0. -1.
    10030    2    1    2    0    0  0.00000000000E+00  0.00000000000E+00 -0.34810400688E+03  0.38206326307E+04  0.38047414234E+04 0.  0.
        1    1    3    3  502    0  0.90068775311E+03 -0.24392721804E+03 -0.18387684099E+04  0.20619913146E+04  0.50400001928E-02 0. -1.
       -1    1    3    3    0  502 -0.90068775311E+03  0.24392721804E+03  0.14906644030E+04  0.17586413161E+04  0.50400001928E-02 0.  1.
</event>
<event>
 5   0  0.6661000E-08  0.3786958E+04  0.7818609E-02  0.8048959E-01
        1   -1    0    0  501    0  0.00000000000E+00  0.00000000000E+00  0.31312666974E+04  0.31312666974E+04  0.50400001928E-02 0.  1.
       -1   -1    0    0    0  501  0.00000000000E+00  0.00000000000E+00 -0.11449879225E+04  0.11449879225E+04  0.50400001928E-02 0. -1.
    10030    2    1    2    0    0  0.00000000000E+00  0.00000000000E+00  0.19862787749E+04  0.42762546199E+04  0.37869579087E+04 0.  0.
        4    1    3    3  502    0 -0.14382773736E+04 -0.43206295025E+03  0.22953739673E+04  0.27430026356E+04  0.12699999809E+01 0.  1.
       -4    1    3    3    0  502  0.14382773736E+04  0.43206295025E+03 -0.30909519241E+03  0.15332519842E+04  0.12699999809E+01 0. -1.
</event>
<event>
 5   0  0.6661000E-08  0.3756963E+04  0.7818609E-02  0.8055454E-01
       -1   -1    0    0    0  501  0.00000000000E+00  0.00000000000E+00  0.18122836843E+04  0.18122836843E+04  0.50400001928E-02 0. -1.
        1   -1    0    0  501    0  0.00000000000E+00  0.00000000000E+00 -0.19470973924E+04  0.19470973924E+04  0.50400001928E-02 0.  1.
    10030    2    1    2    0    0  0.00000000000E+00  0.00000000000E+00 -0.13481370810E+03  0.37593810768E+04  0.37569630481E+04 0.  0.
        3    1    3    3  502    0 -0.11298440216E+04 -0.96432671194E+03 -0.12180248824E+04  0.19209524057E+04  0.10100000352E+00 0.  1.
       -3    1    3    3    0  502  0.11298440216E+04  0.96432671194E+03  0.10832111743E+04  0.18384286711E+04  0.10100000352E+00 0. -1.
</event>
<event>
 5   0  0.2081337E-07  0.3808520E+04  0.7818609E-02  0.8044329E-01
       -2   -1    0    0    0  501  0.00000000000E+00  0.00000000000E+00  0.21771856644E+04  0.21771856644E+04  0.25500000920E-02 0.  1.
        2   -1    0    0  501    0  0.00000000000E+00  0.00000000000E+00 -0.16655470733E+04  0.16655470733E+04  0.25500000920E-02 0. -1.
    10030    2    1    2    0    0  0.00000000000E+00  0.00000000000E+00  0.51163859110E+03  0.38427327377E+04  0.38085195083E+04 0.  0.
        1    1    3    3  502    0 -0.12810322809E+04 -0.13184053963E+04  0.75724312476E+03  0.19881281759E+04  0.50400001928E-02 0.  1.
       -1    1    3    3    0  502  0.12810322809E+04  0.13184053963E+04 -0.24560453366E+03  0.18546045618E+04  0.50400001928E-02 0. -1.
</event>
<event>
 5   0  0.1370688E-07  0.3798130E+04  0.7818609E-02  0.8046556E-01
        2   -1    0    0  501    0  0.00000000000E+00  0.00000000000E+00  0.24072837431E+04  0.24072837431E+04  0.25500000920E-02 0.  1.
       -2   -1    0    0    0  501  0.00000000000E+00  0.00000000000E+00 -0.14981399215E+04  0.14981399215E+04  0.25500000920E-02 0. -1.
    10030    2    1    2    0    0  0.00000000000E+00  0.00000000000E+00  0.90914382157E+03  0.39054236645E+04  0.37981300019E+04 0.  0.
        5    1    3    3  502    0 -0.15039317134E+02  0.21630325789E+03 -0.14853644756E+04  0.15011139183E+04  0.46999998093E+01 0. -1.
       -5    1    3    3    0  502  0.15039317134E+02 -0.21630325789E+03  0.23945082972E+04  0.24043097462E+04  0.46999998093E+01 0.  1.
</event>
<event>
 5   0  0.2205204E-07  0.3814151E+04  0.7818609E-02  0.8043125E-01
        2   -1    0    0  501    0  0.00000000000E+00  0.00000000000E+00  0.21090158943E+04  0.21090158943E+04  0.25500000920E-02 0. -1.
       -2   -1    0    0    0  501  0.00000000000E+00  0.00000000000E+00 -0.17244710983E+04  0.17244710983E+04  0.25500000920E-02 0.  1.
    10030    2    1    2    0    0  0.00000000000E+00  0.00000000000E+00  0.38454479603E+03  0.38334869927E+04  0.38141509963E+04 0.  0.
        2    1    3    3  502    0  0.12493879025E+04 -0.36928476575E+03  0.15920263602E+04  0.20571556336E+04  0.25500000920E-02 0. -1.
       -2    1    3    3    0  502 -0.12493879025E+04  0.36928476575E+03 -0.12074815642E+04  0.17763313591E+04  0.25500000920E-02 0.  1.
</event>
<event>
 5   0  0.2203998E-07  0.3626281E+04  0.7818609E-02  0.8084498E-01
       -2   -1    0    0    0  501  0.00000000000E+00  0.00000000000E+00  0.16517616896E+04  0.16517616896E+04  0.25500000920E-02 0.  1.
        2   -1    0    0  501    0  0.00000000000E+00  0.00000000000E+00 -0.19902859553E+04  0.19902859553E+04  0.25500000920E-02 0. -1.
    10030    2    1    2    0    0  0.00000000000E+00  0.00000000000E+00 -0.33852426575E+03  0.36420476449E+04  0.36262807902E+04 0.  0.
        3    1    3    3  502    0 -0.80540739627E+03  0.11474813797E+04 -0.13240803726E+04  0.19283628896E+04  0.10100000352E+00 0. -1.
       -3    1    3    3    0  502  0.80540739627E+03 -0.11474813797E+04  0.98555610685E+03  0.17136847553E+04  0.10100000352E+00 0.  1.
</event>
<event>
 5   0  0.2205204E-07  0.3802680E+04  0.7818609E-02  0.8045580E-01
       -2   -1    0    0    0  501  0.00000000000E+00  0.00000000000E+00  0.20089536503E+04  0.20089536503E+04  0.25500000920E-02 0. -1.
        2   -1    0    0  501    0  0.00000000000E+00  0.00000000000E+00 -0.17994913231E+04  0.17994913231E+04  0.25500000920E-02 0.  1.
    10030    2    1    2    0    0  0.00000000000E+00  0.00000000000E+00  0.20946232716E+03  0.38084449734E+04  0.38026804558E+04 0.  0.
        2    1    3    3  502    0 -0.16150928541E+04  0.97686727542E+03  0.33376990575E+03  0.19168194884E+04  0.25500000920E-02 0. -1.
       -2    1    3    3    0  502  0.16150928541E+04 -0.97686727542E+03 -0.12430757859E+03  0.18916254850E+04  0.25500000920E-02 0.  1.
</event>
<event>
 5   0  0.2203998E-07  0.3803621E+04  0.7818609E-02  0.8045378E-01
       -2   -1    0    0    0  501  0.00000000000E+00  0.00000000000E+00  0.17207728745E+04  0.17207728745E+04  0.25500000920E-02 0.  1.
        2   -1    0    0  501    0  0.00000000000E+00  0.00000000000E+00 -0.21018950750E+04  0.21018950750E+04  0.25500000920E-02 0. -1.
    10030    2    1    2    0    0  0.00000000000E+00  0.00000000000E+00 -0.38112220052E+03  0.38226679495E+04  0.38036214481E+04 0.  0.
        3    1    3    3  502    0  0.61911964895E+02 -0.70653052969E+03  0.15828899884E+04  0.17345198778E+04  0.10100000352E+00 0.  1.
       -3    1    3    3    0  502 -0.61911964895E+02  0.70653052969E+03 -0.19640121889E+04  0.20881480717E+04  0.10100000352E+00 0. -1.
</event>
<event>
 5   0  0.2203998E-07  0.3669077E+04  0.7818609E-02  0.8074850E-01
       -2   -1    0    0    0  501  0.00000000000E+00  0.00000000000E+00  0.19305791457E+04  0.19305791457E+04  0.25500000920E-02 0. -1.
        2   -1    0    0  501    0  0.00000000000E+00  0.00000000000E+00 -0.17432754691E+04  0.17432754691E+04  0.25500000920E-02 0.  1.
    10030    2    1    2    0    0  0.00000000000E+00  0.00000000000E+00  0.18730367652E+03  0.36738546148E+04  0.36690768680E+04 0.  0.
        3    1    3    3  502    0 -0.13949495872E+04 -0.54436254121E+03  0.11548981442E+04  0.18910326969E+04  0.10100000352E+00 0. -1.
       -3    1    3    3    0  502  0.13949495872E+04  0.54436254121E+03 -0.96759446763E+03  0.17828219179E+04  0.10100000352E+00 0.  1.
</event>
<event>
 5   0  0.2135314E-07  0.3777762E+04  0.7818609E-02  0.8050944E-01
       -2   -1    0    0    0  501  0.00000000000E+00  0.00000000000E+00  0.17138813685E+04  0.17138813685E+04  0.25500000920E-02 0. -1.
        2   -1    0    0  501    0  0.00000000000E+00  0.00000000000E+00 -0.20817488334E+04  0.20817488334E+04  0.25500000920E-02 0.  1.
    10030    2    1    2    0    0  0.00000000000E+00  0.00000000000E+00 -0.36786746498E+03  0.37956302019E+04  0.37777615274E+04 0.  0.
        4    1    3    3  502    0 -0.79429421899E+03 -0.15311052052E+04  0.58956640573E+03  0.18228484894E+04  0.12699999809E+01 0.  1.
       -4    1    3    3    0  502  0.79429421899E+03  0.15311052052E+04 -0.95743387071E+03  0.19727817125E+04  0.12699999809E+01 0. -1.
</event>
<event>
 5   0  0.6661000E-08  0.3776173E+04  0.7818609E-02  0.8051287E-01
       -1   -1    0    0    0  501  0.00000000000E+00  0.00000000000E+00  0.13327218403E+04  0.13327218403E+04  0.50400001928E-02 0. -1.
        1   -1    0    0  501    0  0.00000000000E+00  0.00000000000E+00 -0.26748803268E+04  0.26748803268E+04  0.50400001928E-02 0.  1.
    10030    2    1    2    0    0  0.00000000000E+00  0.00000000000E+00 -0.13421584866E+04  0.40076021671E+04  0.37761734238E+04 0.  0.
        3    1    3    3  502    0 -0.13939885430E+04 -0.52360777838E+03 -0.19030415552E+04  0.24163891108E+04  0.10100000352E+00 0.  1.
       -3    1    3    3    0  502  0.13939885430E+04  0.52360777838E+03  0.56088306865E+03  0.15912130563E+04  0.10100000352E+00 0. -1.
</event>
<event>
 5   0  0.6661000E-08  0.3803052E+04  0.7818609E-02  0.8045500E-01
        1   -1    0    0  501    0  0.00000000000E+00  0.00000000000E+00  0.18437141286E+04  0.18437141286E+04  0.50400001928E-02 0. -1.
       -1   -1    0    0    0  501  0.00000000000E+00  0.00000000000E+00 -0.19611506612E+04  0.19611506613E+04  0.50400001928E-02 0.  1.
    10030    2    1    2    0    0  0.00000000000E+00  0.00000000000E+00 -0.11743653267E+03  0.38048647898E+04  0.38030520283E+04 0.  0.
        2    1    3    3  502    0  0.16438098508E+04  0.88943444346E+03 -0.40902331793E+03  0.19132445033E+04  0.25500000920E-02 0.  1.
       -2    1    3    3    0  502 -0.16438098508E+04 -0.88943444346E+03  0.29158678526E+03  0.18916202865E+04  0.25500000920E-02 0. -1.
</event>
<event>
 5   0  0.6661000E-08  0.3831943E+04  0.7818609E-02  0.8039335E-01
        1   -1    0    0  501    0  0.00000000000E+00  0.00000000000E+00  0.23418970568E+04  0.23418970568E+04  0.50400001928E-02 0. -1.
       -1   -1    0    0    0  501  0.00000000000E+00  0.00000000000E+00 -0.15675095666E+04  0.15675095666E+04  0.50400001928E-02 0.  1.
    10030    2    1    2    0    0  0.00000000000E+00  0.00000000000E+00  0.77438749027E+03  0.39094066234E+04  0.38319426094E+04 0.  0.
        2    1    3    3  502    0  0.97691005921E+03 -0.17945491561E+02  0.20686221342E+04  0.22877659055E+04  0.25500000920E-02 0. -1.
       -2    1    3    3    0  502 -0.97691005921E+03  0.17945491561E+02 -0.12942346439E+04  0.16216407179E+04  0.25500000920E-02 0.  1.
</event>
<event>
 5   0  0.6661000E-08  0.3785264E+04  0.7818609E-02  0.8049325E-01
       -1   -1    0    0    0  501  0.00000000000E+00  0.00000000000E+00  0.16822821973E+04  0.16822821973E+04  0.50400001928E-02 0.  1.
        1   -1    0    0  501    0  0.00000000000E+00  0.00000000000E+00 -0.21292833120E+04  0.21292833121E+04  0.50400001928E-02 0. -1.
    10030    2    1    2    0    0  0.00000000000E+00  0.00000000000E+00 -0.44700111473E+03  0.38115655094E+04  0.37852637472E+04 0.  0.
        3    1    3    3  502    0 -0.74826520546E+02  0.13882736731E+04  0.10696159769E+04  0.17541325913E+04  0.10100000352E+00 0.  1.
       -3    1    3    3    0  502  0.74826520546E+02 -0.13882736731E+04 -0.15166170916E+04  0.20574329181E+04  0.10100000352E+00 0. -1.
</event>
<event>
 5   0  0.2081337E-07  0.3845843E+04  0.7818609E-02  0.8036388E-01
       -2   -1    0    0    0  501  0.00000000000E+00  0.00000000000E+00  0.14885096277E+04  0.14885096277E+04  0.25500000920E-02 0.  1.
        2   -1    0    0  501    0  0.00000000000E+00  0.00000000000E+00 -0.24841140444E+04  0.24841140444E+04  0.25500000920E-02 0. -1.
    10030    2    1    2    0    0  0.00000000000E+00  0.00000000000E+00 -0.99560441664E+03  0.39726236721E+04  0.38458432997E+04 0.  0.
        1    1    3    3  502    0 -0.11414453676E+03 -0.64715987173E+03 -0.23645235379E+04  0.24541427090E+04  0.50400001928E-02 0. -1.
       -1    1    3    3    0  502  0.11414453676E+03  0.64715987173E+03  0.13689191212E+04  0.15184809631E+04  0.50400001928E-02 0.  1.
</event>
<event>
 5   0  0.6661000E-08  0.3793767E+04  0.7818609E-02  0.8047494E-01
       -1   -1    0    0    0  501  0.00000000000E+00  0.00000000000E+00  0.15348578519E+04  0.15348578519E+04  0.50400001928E-02 0. -1.
        1   -1    0    0  501    0  0.00000000000E+00  0.00000000000E+00 -0.23442996031E+04  0.23442996031E+04  0.50400001928E-02 0.  1.
    10030    2    1    2    0    0  0.00000000000E+00  0.00000000000E+00 -0.80944175116E+03  0.38791574550E+04  0.37937668105E+04 0.  0.
        3    1    3    3  502    0 -0.14616532122E+04  0.12037676670E+04 -0.51986062283E+03  0.19636042845E+04  0.10100000352E+00 0. -1.
       -3    1    3    3    0  502  0.14616532122E+04 -0.12037676670E+04 -0.28958112833E+03  0.19155531705E+04  0.10100000352E+00 0.  1.
</event>
<event>
 5   0  0.2203998E-07  0.3794194E+04  0.7818609E-02  0.8047402E-01
        2   -1    0    0  501    0  0.00000000000E+00  0.00000000000E+00  0.20852181700E+04  0.20852181700E+04  0.25500000920E-02 0.  1.
       -2   -1    0    0    0  501  0.00000000000E+00  0.00000000000E+00 -0.17259475344E+04  0.17259475344E+04  0.25500000920E-02 0. -1.
    10030    2    1    2    0    0  0.00000000000E+00  0.00000000000E+00  0.35927063562E+03  0.38111657043E+04  0.37941940694E+04 0.  0.
        3    1    3    3  502    0 -0.71347393498E+03  0.16690403610E+04 -0.37440816884E+03  0.18533543292E+04  0.10100000352E+00 0. -1.
       -3    1    3    3    0  502  0.71347393498E+03 -0.16690403610E+04  0.73367880446E+03  0.19578113752E+04  0.10100000352E+00 0.  1.
</event>
<event>
 5   0  0.6661000E-08  0.3801536E+04  0.7818609E-02  0.8045825E-01
        1   -1    0    0  501    0  0.00000000000E+00  0.00000000000E+00  0.23876331859E+04  0.23876331859E+04  0.50400001928E-02 0.  1.
       -1   -1    0    0    0  501  0.00000000000E+00  0.00000000000E+00 -0.15131797910E+04  0.15131797910E+04  0.50400001928E-02 0. -1.
    10030    2    1    2    0    0  0.00000000000E+00  0.00000000000E+00  0.87445339489E+03  0.39008129769E+04  0.38015356293E+04 0.  0.
        1    1    3    3  502    0  0.39564791183E+03 -0.55094595364E+03  0.22592209383E+04  0.23588467441E+04  0.50400001928E-02 0.  1.
       -1    1    3    3    0  502 -0.39564791183E+03  0.55094595364E+03 -0.13847675434E+04  0.15419662328E+04  0.50400001928E-02 0. -1.
</event>
<event>
 5   0  0.2135314E-07  0.3799300E+04  0.7818609E-02  0.8046305E-01
       -2   -1    0    0    0  501  0.00000000000E+00  0.00000000000E+00  0.30185292829E+04  0.30185292829E+04  0.25500000920E-02 0. -1.
        2   -1    0    0  501    0  0.00000000000E+00  0.00000000000E+00 -0.11955063302E+04  0.11955063302E+04  0.25500000920E-02 0.  1.
    10030    2    1    2    0    0  0.00000000000E+00  0.00000000000E+00  0.18230229527E+04  0.42140356131E+04  0.37993003912E+04 0.  0.
        4    1    3    3  502    0  0.15830169771E+04 -0.89427425295E+03  0.15220540160E+04  0.23711430218E+04  0.12699999809E+01 0.  1.
       -4    1    3    3    0  502 -0.15830169771E+04  0.89427425295E+03  0.30096893663E+03  0.18428925913E+04  0.12699999809E+01 0. -1.
</event>
<event>
 5   0  0.2135314E-07  0.3809411E+04  0.7818609E-02  0.8044138E-01
       -2   -1    0    0    0  501  0.00000000000E+00  0.00000000000E+00  0.14473668450E+04  0.14473668450E+04  0.25500000920E-02 0. -1.
        2   -1    0    0  501    0  0.00000000000E+00  0.00000000000E+00 -0.25065539925E+04  0.25065539925E+04  0.25500000920E-02 0.  1.
    10030    2    1    2    0    0  0.00000000000E+00  0.00000000000E+00 -0.10591871474E+04  0.39539208375E+04  0.38094110537E+04 0.  0.
        4    1    3    3  502    0  0.17498096670E+03 -0.11035630808E+04 -0.21306504333E+04  0.24058559171E+04  0.12699999809E+01 0.  1.
       -4    1    3    3    0  502 -0.17498096670E+03  0.11035630808E+04  0.10714632859E+04  0.15480649204E+04  0.12699999809E+01 0. -1.
</event>
<event>
 5   0  0.6725199E-08  0.3818953E+04  0.7818609E-02  0.8042100E-01
        1   -1    0    0  501    0  0.00000000000E+00  0.00000000000E+00  0.21047325049E+04  0.21047325049E+04  0.50400001928E-02 0. -1.
       -1   -1    0    0    0  501  0.00000000000E+00  0.00000000000E+00 -0.17323340261E+04  0.17323340261E+04  0.50400001928E-02 0.  1.
    10030    2    1    2    0    0  0.00000000000E+00  0.00000000000E+00  0.37239847877E+03  0.38370665311E+04  0.38189525968E+04 0.  0.
        5    1    3    3  502    0 -0.31690508589E+03 -0.14836179405E+03 -0.16998398040E+04  0.17354876850E+04  0.46999998093E+01 0.  1.
       -5    1    3    3    0  502  0.31690508589E+03  0.14836179405E+03  0.20722382828E+04  0.21015788461E+04  0.46999998093E+01 0. -1.
</event>
<event>
 5   0  0.6661000E-08  0.3803293E+04  0.7818609E-02  0.8045448E-01
       -1   -1    0    0    0  501  0.00000000000E+00  0.00000000000E+00  0.15972832659E+04  0.15972832659E+04  0.50400001928E-02 0.  1.
        1   -1    0    0  501    0  0.00000000000E+00  0.00000000000E+00 -0.22640068143E+04  0.22640068143E+04  0.50400001928E-02 0. -1.
    10030    2    1    2    0    0  0.00000000000E+00  0.00000000000E+00 -0.66672354844E+03  0.38612900802E+04  0.38032934141E+04 0.  0.
        3    1    3    3  502    0  0.95609554324E+03  0.14560303431E+04  0.44123875886E+03  0.17968958513E+04  0.10100000352E+00 0. -1.
       -3    1    3    3    0  502 -0.95609554324E+03 -0.14560303431E+04 -0.11079623073E+04  0.20643942289E+04  0.10100000352E+00 0.  1.
</event>
<event>
 5   0  0.6661000E-08  0.3789801E+04  0.7818609E-02  0.8048347E-01
        1   -1    0    0  501    0  0.00000000000E+00  0.00000000000E+00  0.28772071493E+04  0.28772071493E+04  0.50400001928E-02 0. -1.
       -1   -1    0    0    0  501  0.00000000000E+00  0.00000000000E+00 -0.12479627888E+04  0.12479627888E+04  0.50400001928E-02 0.  1.
    10030    2    1    2    0    0  0.00000000000E+00  0.00000000000E+00  0.16292443605E+04  0.41251699381E+04  0.37898007642E+04 0.  0.
        2    1    3    3  502    0 -0.52201447514E+03 -0.53143224870E+03 -0.10818955241E+04  0.13135513969E+04  0.25500000920E-02 0.  1.
       -2    1    3    3    0  502  0.52201447514E+03  0.53143224870E+03  0.27111398846E+04  0.28116185412E+04  0.25500000920E-02 0. -1.
</event>
<event>
 5   0  0.2135314E-07  0.3831495E+04  0.7818609E-02  0.8039430E-01
        2   -1    0    0  501    0  0.00000000000E+00  0.00000000000E+00  0.23364714651E+04  0.23364714651E+04  0.25500000920E-02 0. -1.
       -2   -1    0    0    0  501  0.00000000000E+00  0.00000000000E+00 -0.15707825011E+04  0.15707825011E+04  0.25500000920E-02 0.  1.
    10030    2    1    2    0    0  0.00000000000E+00  0.00000000000E+00  0.76568896401E+03  0.39072539663E+04  0.38314950042E+04 0.  0.
        4    1    3    3  502    0  0.17123828832E+04  0.40416844091E+03 -0.39008644902E+03  0.18021587937E+04  0.12699999809E+01 0.  1.
       -4    1    3    3    0  502 -0.17123828832E+04 -0.40416844091E+03  0.11557754130E+04  0.21050951725E+04  0.12699999809E+01 0. -1.
</event>
<event>
 5   0  0.6661000E-08  0.3817865E+04  0.7818609E-02  0.8042332E-01
        1   -1    0    0  501    0  0.00000000000E+00  0.00000000000E+00  0.13609071602E+04  0.13609071602E+04  0.50400001928E-02 0.  1.
       -1   -1    0    0    0  501  0.00000000000E+00  0.00000000000E+00 -0.26776435169E+04  0.26776435169E+04  0.50400001928E-02 0. -1.
    10030    2    1    2    0    0  0.00000000000E+00  0.00000000000E+00 -0.13167363566E+04  0.40385506771E+04  0.38178654951E+04 0.  0.
        3    1    3    3  502    0 -0.17181663803E+04 -0.42070880529E+03 -0.14174351820E+04  0.22667629154E+04  0.10100000352E+00 0. -1.
       -3    1    3    3    0  502  0.17181663803E+04  0.42070880529E+03  0.10069882535E+03  0.17717877618E+04  0.10100000352E+00 0.  1.
</event>
<event>
 5   0  0.2205204E-07  0.3788486E+04  0.7818609E-02  0.8048630E-01
        2   -1    0    0  501    0  0.00000000000E+00  0.00000000000E+00  0.20068853692E+04  0.20068853692E+04  0.25500000920E-02 0. -1.
       -2   -1    0    0    0  501  0.00000000000E+00  0.00000000000E+00 -0.17879227866E+04  0.17879227866E+04  0.25500000920E-02 0.  1.
    10030    2    1    2    0    0  0.00000000000E+00  0.00000000000E+00  0.21896258258E+03  0.37948081558E+04  0.37884857564E+04 0.  0.
        2    1    3    3  502    0  0.11120050342E+04 -0.59121316566E+03  0.15267870947E+04  0.19791834265E+04  0.25500000920E-02 0. -1.
       -2    1    3    3    0  502 -0.11120050342E+04  0.59121316566E+03 -0.13078245121E+04  0.18156247293E+04  0.25500000920E-02 0.  1.
</event>
<event>
 5   0  0.2135314E-07  0.3730510E+04  0.7818609E-02  0.8061234E-01
       -2   -1    0    0    0  501  0.00000000000E+00  0.00000000000E+00  0.18533521591E+04  0.18533521591E+04  0.25500000920E-02 0.  1.
        2   -1    0    0  501    0  0.00000000000E+00  0.00000000000E+00 -0.18772344143E+04  0.18772344143E+04  0.25500000920E-02 0. -1.
    10030    2    1    2    0    0  0.00000000000E+00  0.00000000000E+00 -0.23882255182E+02  0.37305865734E+04  0.37305101286E+04 0.  0.
        4    1    3    3  502    0 -0.16296639370E+04  0.26929318752E+03 -0.87847574695E+03  0.18708406183E+04  0.12699999809E+01 0. -1.
       -4    1    3    3    0  502  0.16296639370E+04 -0.26929318752E+03  0.85459349176E+03  0.18597459551E+04  0.12699999809E+01 0.  1.
</event>
<event>
 5   0  0.6725199E-08  0.3785358E+04  0.7818609E-02  0.8049304E-01
        1   -1    0    0  501    0  0.00000000000E+00  0.00000000000E+00  0.16241237433E+04  0.16241237433E+04  0.50400001928E-02 0. -1.
       -1   -1    0    0    0  501  0.00000000000E+00  0.00000000000E+00 -0.22056405635E+04  0.22056405635E+04  0.50400001928E-02 0.  1.
    10030    2    1    2    0    0  0.00000000000E+00  0.00000000000E+00 -0.58151682012E+03  0.38297643068E+04  0.37853576890E+04 0.  0.
        5    1    3    3  502    0 -0.56437254628E+03 -0.87268448334E+03  0.13096060219E+04  0.16718805583E+04  0.46999998093E+01 0. -1.
       -5    1    3    3    0  502  0.56437254628E+03  0.87268448334E+03 -0.18911228420E+04  0.21578837485E+04  0.46999998093E+01 0.  1.
</event>
<event>
 5   0  0.1370688E-07  0.3660348E+04  0.7818609E-02  0.8076806E-01
        2   -1    0    0  501    0  0.00000000000E+00  0.00000000000E+00  0.24610095908E+04  0.24610095908E+04  0.25500000920E-02 0.  1.
       -2   -1    0    0    0  501  0.00000000000E+00  0.00000000000E+00 -0.13610418761E+04  0.13610418761E+04  0.25500000920E-02 0. -1.
    10030    2    1    2    0    0  0.00000000000E+00  0.00000000000E+00  0.10999677148E+04  0.38220514669E+04  0.36603481313E+04 0.  0.
        5    1    3    3  502    0 -0.47717181053E+02  0.22467220606E+03 -0.13459266641E+04  0.13653919601E+04  0.46999998093E+01 0. -1.
       -5    1    3    3    0  502  0.47717181053E+02 -0.22467220606E+03  0.24458943789E+04  0.24566595068E+04  0.46999998093E+01 0.  1.
</event>
<event>
 5   0  0.2205204E-07  0.3816228E+04  0.7818609E-02  0.8042681E-01
        2   -1    0    0  501    0  0.00000000000E+00  0.00000000000E+00  0.25522855715E+04  0.25522855715E+04  0.25500000920E-02 0.  1.
       -2   -1    0    0    0  501  0.00000000000E+00  0.00000000000E+00 -0.14265252488E+04  0.14265252488E+04  0.25500000920E-02 0. -1.
    10030    2    1    2    0    0  0.00000000000E+00  0.00000000000E+00  0.11257603226E+04  0.39788108203E+04  0.38162284051E+04 0.  0.
        2    1    3    3  502    0 -0.12647282156E+04 -0.30889635064E+03 -0.89152114279E+03  0.15778987175E+04  0.25500000920E-02 0. -1.
       -2    1    3    3    0  502  0.12647282156E+04  0.30889635064E+03  0.20172814654E+04  0.24009121028E+04  0.25500000920E-02 0.  1.
</event>
<event>
 5   0  0.2203998E-07  0.3900760E+04  0.7818609E-02  0.8024871E-01
       -2   -1    0    0    0  501  0.00000000000E+00  0.00000000000E+00  0.13848660743E+04  0.13848660743E+04  0.25500000920E-02 0.  1.
        2   -1    0    0  501    0  0.00000000000E+00  0.00000000000E+00 -0.27468236978E+04  0.27468236978E+04  0.25500000920E-02 0. -1.
    10030    2    1    2    0    0  0.00000000000E+00  0.00000000000E+00 -0.13619576235E+04  0.41316897720E+04  0.39007604136E+04 0.  0.
        3    1    3    3  502    0  0.16854528078E+03 -0.15202010239E+04  0.60085772628E+03  0.16433041965E+04  0.10100000352E+00 0.  1.
       -3    1    3    3    0  502 -0.16854528078E+03  0.15202010239E+04 -0.19628153498E+04  0.24883855755E+04  0.10100000352E+00 0. -1.
</event>
<event>
 5   0  0.1370688E-07  0.3806203E+04  0.7818609E-02  0.8044825E-01
       -2   -1    0    0    0  501  0.00000000000E+00  0.00000000000E+00  0.13520471215E+04  0.13520471215E+04  0.25500000920E-02 0.  1.
        2   -1    0    0  501    0  0.00000000000E+00  0.00000000000E+00 -0.26787489626E+04  0.26787489626E+04  0.25500000920E-02 0. -1.
    10030    2    1    2    0    0  0.00000000000E+00  0.00000000000E+00 -0.13267018411E+04  0.40307960841E+04  0.38062027398E+04 0.  0.
        5    1    3    3  502    0  0.15178004590E+04  0.11359534329E+04 -0.48721061557E+03  0.19574229766E+04  0.46999998093E+01 0.  1.
       -5    1    3    3    0  502 -0.15178004590E+04 -0.11359534329E+04 -0.83949122556E+03  0.20733731075E+04  0.46999998093E+01 0. -1.
</event>
<event>
 5   0  0.6661000E-08  0.3701030E+04  0.7818609E-02  0.8067734E-01
        1   -1    0    0  501    0  0.00000000000E+00  0.00000000000E+00  0.20508172429E+04  0.20508172429E+04  0.50400001928E-02 0. -1.
       -1   -1    0    0    0  501  0.00000000000E+00  0.00000000000E+00 -0.16697762354E+04  0.16697762354E+04  0.50400001928E-02 0.  1.
    10030    2    1    2    0    0  0.00000000000E+00  0.00000000000E+00  0.38104100751E+03  0.37205934783E+04  0.37010300703E+04 0.  0.
        2    1    3    3  502    0  0.17775774537E+04 -0.25185221860E+03  0.64143887577E+03  0.19064771111E+04  0.25500000920E-02 0. -1.
       -2    1    3    3    0  502 -0.17775774537E+04  0.25185221860E+03 -0.26039786826E+03  0.18141163672E+04  0.25500000920E-02 0.  1.
</event>
<event>
 5   0  0.2205204E-07  0.3805539E+04  0.7818609E-02  0.8044967E-01
        2   -1    0    0  501    0  0.00000000000E+00  0.00000000000E+00  0.20740137828E+04  0.20740137828E+04  0.25500000920E-02 0.  1.
       -2   -1    0    0    0  501  0.00000000000E+00  0.00000000000E+00 -0.17456643515E+04  0.17456643515E+04  0.25500000920E-02 0. -1.
    10030    2    1    2    0    0  0.00000000000E+00  0.00000000000E+00  0.32834943132E+03  0.38196781343E+04  0.38055390815E+04 0.  0.
        2    1    3    3  502    0  0.15500582693E+04 -0.10269284014E+04  0.56974199340E+03  0.19447026814E+04  0.25500000920E-02 0. -1.
       -2    1    3    3    0  502 -0.15500582693E+04  0.10269284014E+04 -0.24139256209E+03  0.18749754529E+04  0.25500000920E-02 0.  1.
</event>
<event>
 5   0  0.1370688E-07  0.3810506E+04  0.7818609E-02  0.8043904E-01
        2   -1    0    0  501    0  0.00000000000E+00  0.00000000000E+00  0.15736654584E+04  0.15736654584E+04  0.25500000920E-02 0. -1.
       -2   -1    0    0    0  501  0.00000000000E+00  0.00000000000E+00 -0.23067090684E+04  0.23067090684E+04  0.25500000920E-02 0.  1.
    10030    2    1    2    0    0  0.00000000000E+00  0.00000000000E+00 -0.73304361000E+03  0.38803745269E+04  0.38105056796E+04 0.  0.
        5    1    3    3  502    0 -0.87022904673E+03 -0.16618143105E+04 -0.27183791728E+02  0.18760827394E+04  0.46999998093E+01 0. -1.
       -5    1    3    3    0  502  0.87022904673E+03  0.16618143105E+04 -0.70585981827E+03  0.20042917875E+04  0.46999998093E+01 0.  1.
</event>
<event>
 5   0  0.1370688E-07  0.3782258E+04  0.7818609E-02  0.8049973E-01
       -2   -1    0    0    0  501  0.00000000000E+00  0.00000000000E+00  0.34190567229E+04  0.34190567229E+04  0.25500000920E-02 0. -1.
        2   -1    0    0  501    0  0.00000000000E+00  0.00000000000E+00 -0.10460103775E+04  0.10460103775E+04  0.25500000920E-02 0.  1.
    10030    2    1    2    0    0  0.00000000000E+00  0.00000000000E+00  0.23730463455E+04  0.44650671004E+04  0.37822579570E+04 0.  0.
        5    1    3    3  502    0 -0.17427473740E+04 -0.72765633492E+03  0.13027593082E+04  0.22943094945E+04  0.46999998093E+01 0.  1.
       -5    1    3    3    0  502  0.17427473740E+04  0.72765633492E+03  0.10702870373E+04  0.21707576059E+04  0.46999998093E+01 0. -1.
</event>
<event>
 5   0  0.6661000E-08  0.3795414E+04  0.7818609E-02  0.8047140E-01
        1   -1    0    0  501    0  0.00000000000E+00  0.00000000000E+00  0.23630856872E+04  0.23630856872E+04  0.50400001928E-02 0. -1.
       -1   -1    0    0    0  501  0.00000000000E+00  0.00000000000E+00 -0.15239783399E+04  0.15239783399E+04  0.50400001928E-02 0.  1.
    10030    2    1    2    0    0  0.00000000000E+00  0.00000000000E+00  0.83910734729E+03  0.38870640271E+04  0.37954137602E+04 0.  0.
        4    1    3    3  502    0  0.85189642948E+03  0.13838800278E+04  0.14232383854E+04  0.21601991974E+04  0.12699999809E+01 0. -1.
       -4    1    3    3    0  502 -0.85189642948E+03 -0.13838800278E+04 -0.58413103809E+03  0.17268648298E+04  0.12699999809E+01 0.  1.
</event>
<event>
 5   0  0.6661000E-08  0.3831800E+04  0.7818609E-02  0.8039365E-01
       -1   -1    0    0    0  501  0.00000000000E+00  0.00000000000E+00  0.12332370363E+04  0.12332370363E+04  0.50400001928E-02 0.  1.
        1   -1    0    0  501    0  0.00000000000E+00  0.00000000000E+00 -0.29764531895E+04  0.29764531895E+04  0.50400001928E-02 0. -1.
    10030    2    1    2    0    0  0.00000000000E+00  0.00000000000E+00 -0.17432161533E+04  0.42096902258E+04  0.38317997390E+04 0.  0.
        2    1    3    3  502    0 -0.18983274467E+03  0.18674683632E+04 -0.45010774196E+03  0.19303034833E+04  0.25500000920E-02 0.  1.
       -2    1    3    3    0  502  0.18983274467E+03 -0.18674683632E+04 -0.12931084113E+04  0.22793867425E+04  0.25500000920E-02 0. -1.
</event>
<event>
 5   0  0.6661000E-08  0.3607375E+04  0.7818609E-02  0.8088805E-01
        1   -1    0    0  501    0  0.00000000000E+00  0.00000000000E+00  0.13674507423E+04  0.13674507423E+04  0.50400001928E-02 0.  1.
       -1   -1    0    0    0  501  0.00000000000E+00  0.00000000000E+00 -0.23790897723E+04  0.23790897724E+04  0.50400001928E-02 0. -1.
    10030    2    1    2    0    0  0.00000000000E+00  0.00000000000E+00 -0.10116390300E+04  0.37465405147E+04  0.36073747104E+04 0.  0.
        1    1    3    3  502    0 -0.14820225050E+04  0.75397311855E+03 -0.12316525731E+04  0.20692593433E+04  0.50400001928E-02 0. -1.
       -1    1    3    3    0  502  0.14820225050E+04 -0.75397311855E+03  0.22001354310E+03  0.16772811714E+04  0.50400001928E-02 0.  1.
</event>
<event>
 5   0  0.1370688E-07  0.3675154E+04  0.7818609E-02  0.8073490E-01
        2   -1    0    0  501    0  0.00000000000E+00  0.00000000000E+00  0.29017413935E+04  0.29017413935E+04  0.25500000920E-02 0.  1.
       -2   -1    0    0    0  501  0.00000000000E+00  0.00000000000E+00 -0.11636769329E+04  0.11636769329E+04  0.25500000920E-02 0. -1.
    10030    2    1    2    0    0  0.00000000000E+00  0.00000000000E+00  0.17380644607E+04  0.40654183264E+04  0.36751541599E+04 0.  0.
        5    1    3    3  502    0  0.99049052662E+03  0.54134226877E+03 -0.73496006465E+03  0.13469637419E+04  0.46999998093E+01 0. -1.
       -5    1    3    3    0  502 -0.99049052662E+03 -0.54134226877E+03  0.24730245253E+04  0.27184545845E+04  0.46999998093E+01 0.  1.
</event>
<event>
 5   0  0.6725199E-08  0.3805071E+04  0.7818609E-02  0.8045067E-01
        1   -1    0    0  501    0  0.00000000000E+00  0.00000000000E+00  0.19467609077E+04  0.19467609077E+04  0.50400001928E-02 0.  1.
       -1   -1    0    0    0  501  0.00000000000E+00  0.00000000000E+00 -0.18593150658E+04  0.18593150658E+04  0.50400001928E-02 0. -1.
    10030    2    1    2    0    0  0.00000000000E+00  0.00000000000E+00  0.87445841826E+02  0.38060759735E+04  0.38050712925E+04 0.  0.
        5    1    3    3  502    0 -0.15589863307E+04 -0.42348302458E+03  0.10488979738E+04  0.19261322127E+04  0.46999998093E+01 0.  1.
       -5    1    3    3    0  502  0.15589863307E+04  0.42348302458E+03 -0.96145213202E+03  0.18799437608E+04  0.46999998093E+01 0. -1.
</event>
<event>
 5   0  0.6661000E-08  0.3803723E+04  0.7818609E-02  0.8045357E-01
        1   -1    0    0  501    0  0.00000000000E+00  0.00000000000E+00  0.18724856692E+04  0.18724856692E+04  0.50400001928E-02 0. -1.
       -1   -1    0    0    0  501  0.00000000000E+00  0.00000000000E+00 -0.19316977265E+04  0.19316977265E+04  0.50400001928E-02 0.  1.
    10030    2    1    2    0    0  0.00000000000E+00  0.00000000000E+00 -0.59212057287E+02  0.38041833958E+04  0.38037225505E+04 0.  0.
        3    1    3    3  502    0  0.44603427435E+03 -0.13949581474E+04 -0.12431043817E+04  0.19209797815E+04  0.10100000352E+00 0.  1.
       -3    1    3    3    0  502 -0.44603427435E+03  0.13949581474E+04  0.11838923244E+04  0.18832036143E+04  0.10100000352E+00 0. -1.
</event>
<event>
 5   0  0.2081337E-07  0.3820153E+04  0.7818609E-02  0.8041844E-01
        2   -1    0    0  501    0  0.00000000000E+00  0.00000000000E+00  0.19016007864E+04  0.19016007865E+04  0.25500000920E-02 0. -1.
       -2   -1    0    0    0  501  0.00000000000E+00  0.00000000000E+00 -0.19185896794E+04  0.19185896794E+04  0.25500000920E-02 0.  1.
    10030    2    1    2    0    0  0.00000000000E+00  0.00000000000E+00 -0.16988892932E+02  0.38201904658E+04  0.38201526897E+04 0.  0.
        1    1    3    3  502    0  0.12899189916E+04 -0.86432752656E+03  0.11039187135E+04  0.19051481843E+04  0.50400001928E-02 0. -1.
       -1    1    3    3    0  502 -0.12899189916E+04  0.86432752656E+03 -0.11209076064E+04  0.19150422816E+04  0.50400001928E-02 0.  1.
</event>
<event>
 5   0  0.6661000E-08  0.3762015E+04  0.7818609E-02  0.8054356E-01
        1   -1    0    0  501    0  0.00000000000E+00  0.00000000000E+00  0.24570147489E+04  0.24570147489E+04  0.50400001928E-02 0.  1.
       -1   -1    0    0    0  501  0.00000000000E+00  0.00000000000E+00 -0.14400354563E+04  0.14400354563E+04  0.50400001928E-02 0. -1.
    10030    2    1    2    0    0  0.00000000000E+00  0.00000000000E+00  0.10169792926E+04  0.38970502052E+04  0.37620145428E+04 0.  0.
        1    1    3    3  502    0  0.12188847778E+04 -0.84937507540E+03  0.17036220364E+04  0.22604084063E+04  0.50400001928E-02 0.  1.
       -1    1    3    3    0  502 -0.12188847778E+04  0.84937507540E+03 -0.68664274384E+03  0.16366417989E+04  0.50400001928E-02 0. -1.
</event>
<event>
 5   0  0.2203998E-07  0.3792986E+04  0.7818609E-02  0.8047662E-01
        2   -1    0    0  501    0  0.00000000000E+00  0.00000000000E+00  0.18981228848E+04  0.18981228848E+04  0.25500000920E-02 0. -1.
       -2   -1    0    0    0  501  0.00000000000E+00  0.00000000000E+00 -0.18948644417E+04  0.18948644417E+04  0.25500000920E-02 0.  1.
    10030    2    1    2    0    0  0.00000000000E+00  0.00000000000E+00  0.32584431070E+01  0.37929873264E+04  0.37929859268E+04 0.  0.
        3    1    3    3  502    0  0.16388495752E+04 -0.73892482879E+03  0.60565569981E+03  0.18970125645E+04  0.10100000352E+00 0.  1.
       -3    1    3    3    0  502 -0.16388495752E+04  0.73892482879E+03 -0.60239725670E+03  0.18959747619E+04  0.10100000352E+00 0. -1.
</event>
<event>
 5   0  0.6661000E-08  0.3800315E+04  0.7818609E-02  0.8046087E-01
       -1   -1    0    0    0  501  0.00000000000E+00  0.00000000000E+00  0.11312380624E+04  0.11312380624E+04  0.50400001928E-02 0.  1.
        1   -1    0    0  501    0  0.00000000000E+00  0.00000000000E+00 -0.31917230731E+04  0.31917230731E+04  0.50400001928E-02 0. -1.
    10030    2    1    2    0    0  0.00000000000E+00  0.00000000000E+00 -0.20604850108E+04  0.43229611355E+04  0.38003150527E+04 0.  0.
        1    1    3    3  502    0 -0.15149452949E+04 -0.10863259386E+04 -0.61161503846E+03  0.19619470551E+04  0.50400001928E-02 0.  1.
       -1    1    3    3    0  502  0.15149452949E+04  0.10863259386E+04 -0.14488699723E+04  0.23610140805E+04  0.50400001928E-02 0. -1.
</event>
<event>
 5   0  0.6661000E-08  0.3781646E+04  0.7818609E-02  0.8050105E-01
        1   -1    0    0  501    0  0.00000000000E+00  0.00000000000E+00  0.12354575394E+04  0.12354575394E+04  0.50400001928E-02 0. -1.
       -1   -1    0    0    0  501  0.00000000000E+00  0.00000000000E+00 -0.28938363393E+04  0.28938363393E+04  0.50400001928E-02 0.  1.
    10030    2    1    2    0    0  0.00000000000E+00  0.00000000000E+00 -0.16583787998E+04  0.41292938787E+04  0.37816461618E+04 0.  0.
        4    1    3    3  502    0 -0.15760230167E+04  0.10282953114E+04 -0.10304440659E+04  0.21454734635E+04  0.12699999809E+01 0.  1.
       -4    1    3    3    0  502  0.15760230167E+04 -0.10282953114E+04 -0.62793473389E+03  0.19838204152E+04  0.12699999809E+01 0. -1.
</event>
<event>
 5   0  0.2081337E-07  0.3754135E+04  0.7818609E-02  0.8056070E-01
       -2   -1    0    0    0  501  0.00000000000E+00  0.00000000000E+00  0.11765655526E+04  0.11765655526E+04  0.25500000920E-02 0. -1.
        2   -1    0    0  501    0  0.00000000000E+00  0.00000000000E+00 -0.29946325351E+04  0.29946325351E+04  0.25500000920E-02 0.  1.
    10030    2    1    2    0    0  0.00000000000E+00  0.00000000000E+00 -0.18180669826E+04  0.41711980877E+04  0.37541345120E+04 0.  0.
        1    1    3    3  502    0 -0.13200579447E+04 -0.13184447899E+04 -0.11381772755E+04  0.21854741252E+04  0.50400001928E-02 0.  1.
       -1    1    3    3    0  502  0.13200579447E+04  0.13184447899E+04 -0.67988970708E+03  0.19857239625E+04  0.50400001928E-02 0. -1.
</event>
<event>
 5   0  0.6661000E-08  0.3758864E+04  0.7818609E-02  0.8055041E-01
        1   -1    0    0  501    0  0.00000000000E+00  0.00000000000E+00  0.16040223989E+04  0.16040223989E+04  0.50400001928E-02 0. -1.
       -1   -1    0    0    0  501  0.00000000000E+00  0.00000000000E+00 -0.22021287498E+04  0.22021287498E+04  0.50400001928E-02 0.  1.
    10030    2    1    2    0    0  0.00000000000E+00  0.00000000000E+00 -0.59810635092E+03  0.38061511487E+04  0.37588635729E+04 0.  0.
        1    1    3    3  502    0  0.92084496069E+03 -0.11587016621E+04  0.87384477983E+03  0.17187639985E+04  0.50400001928E-02 0. -1.
       -1    1    3    3    0  502 -0.92084496069E+03  0.11587016621E+04 -0.14719511307E+04  0.20873871501E+04  0.50400001928E-02 0.  1.
</event>
<event>
 5   0  0.6661000E-08  0.3806630E+04  0.7818609E-02  0.8044734E-01
       -1   -1    0    0    0  501  0.00000000000E+00  0.00000000000E+00  0.14126202859E+04  0.14126202859E+04  0.50400001928E-02 0.  1.
        1   -1    0    0  501    0  0.00000000000E+00  0.00000000000E+00 -0.25644601599E+04  0.25644601599E+04  0.50400001928E-02 0. -1.
    10030    2    1    2    0    0  0.00000000000E+00  0.00000000000E+00 -0.11518398740E+04  0.39770804458E+04  0.38066302391E+04 0.  0.
        1    1    3    3  502    0 -0.77095671098E+03  0.13562240885E+04 -0.17151058227E+04  0.23184706191E+04  0.50400001928E-02 0. -1.
       -1    1    3    3    0  502  0.77095671098E+03 -0.13562240885E+04  0.56326594874E+03  0.16586098268E+04  0.50400001928E-02 0.  1.
</event>
<event>
 5   0  0.2203998E-07  0.3858063E+04  0.7818609E-02  0.8033808E-01
       -2   -1    0    0    0  501  0.00000000000E+00  0.00000000000E+00  0.15183735048E+04  0.15183735048E+04  0.25500000920E-02 0.  1.
        2   -1    0    0  501    0  0.00000000000E+00  0.00000000000E+00 -0.24507557615E+04  0.24507557616E+04  0.25500000920E-02 0. -1.
    10030    2    1    2    0    0  0.00000000000E+00  0.00000000000E+00 -0.93238225672E+03  0.39691292664E+04  0.38580630452E+04 0.  0.
        3    1    3    3  502    0 -0.45214642893E+03  0.14967026067E+04 -0.16285885072E+04  0.22576216738E+04  0.10100000352E+00 0. -1.
       -3    1    3    3    0  502  0.45214642893E+03 -0.14967026067E+04  0.69620625046E+03  0.17115075926E+04  0.10100000352E+00 0.  1.
</event>
<event>
 5   0  0.1370688E-07  0.3815690E+04  0.7818609E-02  0.8042796E-01
        2   -1    0    0  501    0  0.00000000000E+00  0.00000000000E+00  0.19206914219E+04  0.19206914219E+04  0.25500000920E-02 0.  1.
       -2   -1    0    0    0  501  0.00000000000E+00  0.00000000000E+00 -0.18950843789E+04  0.18950843790E+04  0.25500000920E-02 0. -1.
    10030    2    1    2    0    0  0.00000000000E+00  0.00000000000E+00  0.25607042933E+02  0.38157758008E+04  0.38156898775E+04 0.  0.
        5    1    3    3  502    0  0.17290929351E+04  0.42339644235E+03  0.69898461967E+03  0.19124927488E+04  0.46999998093E+01 0.  1.
       -5    1    3    3    0  502 -0.17290929351E+04 -0.42339644235E+03 -0.67337757674E+03  0.19032830521E+04  0.46999998093E+01 0. -1.
</event>
<event>
 5   0  0.2205204E-07  0.3761459E+04  0.7818609E-02  0.8054477E-01
       -2   -1    0    0    0  501  0.00000000000E+00  0.00000000000E+00  0.21945104371E+04  0.21945104371E+04  0.25500000920E-02 0.  1.
        2   -1    0    0  501    0  0.00000000000E+00  0.00000000000E+00 -0.16118140025E+04  0.16118140025E+04  0.25500000920E-02 0. -1.
    10030    2    1    2    0    0  0.00000000000E+00  0.00000000000E+00  0.58269643454E+03  0.38063244396E+04  0.37614585741E+04 0.  0.
        2    1    3    3  502    0  0.56055848578E+02  0.15518716012E+04 -0.78229472765E+03  0.17388021066E+04  0.25500000920E-02 0. -1.
       -2    1    3    3    0  502 -0.56055848578E+02 -0.15518716012E+04  0.13649911622E+04  0.20675223331E+04  0.25500000920E-02 0.  1.
</event>
<event>
 5   0  0.2205204E-07  0.3803408E+04  0.7818609E-02  0.8045424E-01
        2   -1    0    0  501    0  0.00000000000E+00  0.00000000000E+00  0.20927150280E+04  0.20927150280E+04  0.25500000920E-02 0.  1.
       -2   -1    0    0    0  501  0.00000000000E+00  0.00000000000E+00 -0.17281273501E+04  0.17281273501E+04  0.25500000920E-02 0. -1.
    10030    2    1    2    0    0  0.00000000000E+00  0.00000000000E+00  0.36458767785E+03  0.38208423781E+04  0.38034079855E+04 0.  0.
        2    1    3    3  502    0 -0.16770094746E+04  0.41934206722E+03  0.97856173543E+03  0.19864016757E+04  0.25500000920E-02 0.  1.
       -2    1    3    3    0  502  0.16770094746E+04 -0.41934206722E+03 -0.61397405758E+03  0.18344407024E+04  0.25500000920E-02 0. -1.
</event>
<event>
 5   0  0.2203998E-07  0.3799477E+04  0.7818609E-02  0.8046267E-01
        2   -1    0    0  501    0  0.00000000000E+00  0.00000000000E+00  0.12350297109E+04  0.12350297109E+04  0.25500000920E-02 0. -1.
       -2   -1    0    0    0  501  0.00000000000E+00  0.00000000000E+00 -0.29222028128E+04  0.29222028128E+04  0.25500000920E-02 0.  1.
    10030    2    1    2    0    0  0.00000000000E+00  0.00000000000E+00 -0.16871731018E+04  0.41572325237E+04  0.37994774879E+04 0.  0.
        3    1    3    3  502    0  0.58605956222E+03  0.14296580438E+04 -0.20529264810E+04  0.25694153185E+04  0.10100000352E+00 0.  1.
       -3    1    3    3    0  502 -0.58605956222E+03 -0.14296580438E+04  0.36575337916E+03  0.15878172052E+04  0.10100000352E+00 0. -1.
</event>
<event>
 5   0  0.6661000E-08  0.3832197E+04  0.7818609E-02  0.8039280E-01
        1   -1    0    0  501    0  0.00000000000E+00  0.00000000000E+00  0.17037976546E+04  0.17037976546E+04  0.50400001928E-02 0.  1.
       -1   -1    0    0    0  501  0.00000000000E+00  0.00000000000E+00 -0.21548534934E+04  0.21548534934E+04  0.50400001928E-02 0. -1.
    10030    2    1    2    0    0  0.00000000000E+00  0.00000000000E+00 -0.45105583883E+03  0.38586511480E+04  0.38321974522E+04 0.  0.
        2    1    3    3  502    0  0.92031084398E+03 -0.15654805582E+04  0.39002912354E+03  0.18573702229E+04  0.25500000920E-02 0.  1.
       -2    1    3    3    0  502 -0.92031084398E+03  0.15654805582E+04 -0.84108496237E+03  0.20012809252E+04  0.25500000920E-02 0. -1.
</event>
<event>
 5   0  0.2081337E-07  0.3820037E+04  0.7818609E-02  0.8041869E-01
       -2   -1    0    0    0  501  0.00000000000E+00  0.00000000000E+00  0.16481078661E+04  0.16481078661E+04  0.25500000920E-02 0. -1.
        2   -1    0    0  501    0  0.00000000000E+00  0.00000000000E+00 -0.22135504926E+04  0.22135504926E+04  0.25500000920E-02 0.  1.
    10030    2    1    2    0    0  0.00000000000E+00  0.00000000000E+00 -0.56544262655E+03  0.38616583587E+04  0.38200366379E+04 0.  0.
        1    1    3    3  502    0  0.37699987756E+03  0.18280254217E+04 -0.69255706564E+03  0.19908393052E+04  0.50400001928E-02 0.  1.
       -1    1    3    3    0  502 -0.37699987756E+03 -0.18280254217E+04  0.12711443909E+03  0.18708190534E+04  0.50400001928E-02 0. -1.
</event>
<event>
 5   0  0.6661000E-08  0.3768127E+04  0.7818609E-02  0.8053030E-01
        1   -1    0    0  501    0  0.00000000000E+00  0.00000000000E+00  0.21106725072E+04  0.21106725073E+04  0.50400001928E-02 0. -1.
       -1   -1    0    0    0  501  0.00000000000E+00  0.00000000000E+00 -0.16817837989E+04  0.16817837989E+04  0.50400001928E-02 0.  1.
    10030    2    1    2    0    0  0.00000000000E+00  0.00000000000E+00  0.42888870836E+03  0.37924563061E+04  0.37681267640E+04 0.  0.
        1    1    3    3  502    0 -0.34749538944E+02 -0.12987101726E+04  0.15877467082E+04  0.20515348528E+04  0.50400001928E-02 0. -1.
       -1    1    3    3    0  502  0.34749538944E+02  0.12987101726E+04 -0.11588579998E+04  0.17409214533E+04  0.50400001928E-02 0.  1.
</event>
<event>
 5   0  0.6661000E-08  0.3794393E+04  0.7818609E-02  0.8047359E-01
        1   -1    0    0  501    0  0.00000000000E+00  0.00000000000E+00  0.17477882665E+04  0.17477882665E+04  0.50400001928E-02 0.  1.
       -1   -1    0    0    0  501  0.00000000000E+00  0.00000000000E+00 -0.20593763798E+04  0.20593763799E+04  0.50400001928E-02 0. -1.
    10030    2    1    2    0    0  0.00000000000E+00  0.00000000000E+00 -0.31158811335E+03  0.38071646464E+04  0.37943926381E+04 0.  0.
        3    1    3    3  502    0  0.12992107789E+04 -0.87575844439E+03  0.91759768531E+03  0.18157331917E+04  0.10100000352E+00 0.  1.
       -3    1    3    3    0  502 -0.12992107789E+04  0.87575844439E+03 -0.12291857987E+04  0.19914314547E+04  0.10100000352E+00 0. -1.
</event>
<event>
 5   0  0.6661000E-08  0.3806658E+04  0.7818609E-02  0.8044728E-01
        1   -1    0    0  501    0  0.00000000000E+00  0.00000000000E+00  0.16598160003E+04  0.16598160003E+04  0.50400001928E-02 0. -1.
       -1   -1    0    0    0  501  0.00000000000E+00  0.00000000000E+00 -0.21825674420E+04  0.21825674420E+04  0.50400001928E-02 0.  1.
    10030    2    1    2    0    0  0.00000000000E+00  0.00000000000E+00 -0.52275144168E+03  0.38423834423E+04  0.38066575165E+04 0.  0.
        2    1    3    3  502    0  0.15371323310E+04 -0.50693373569E+03 -0.12722247708E+04  0.20587164649E+04  0.25500000920E-02 0.  1.
       -2    1    3    3    0  502 -0.15371323310E+04  0.50693373569E+03  0.74947332913E+03  0.17836669774E+04  0.25500000920E-02 0. -1.
</event>
<event>
 5   0  0.2135314E-07  0.3818942E+04  0.7818609E-02  0.8042102E-01
        2   -1    0    0  501    0  0.00000000000E+00  0.00000000000E+00  0.16199430265E+04  0.16199430265E+04  0.25500000920E-02 0.  1.
       -2   -1    0    0    0  501  0.00000000000E+00  0.00000000000E+00 -0.22507458310E+04  0.22507458310E+04  0.25500000920E-02 0. -1.
    10030    2    1    2    0    0  0.00000000000E+00  0.00000000000E+00 -0.63080280454E+03  0.38706888575E+04  0.38189422689E+04 0.  0.
        4    1    3    3  502    0  0.64765311588E+03 -0.13708964978E+04 -0.14918472638E+04  0.21270687900E+04  0.12699999809E+01 0. -1.
       -4    1    3    3    0  502 -0.64765311588E+03  0.13708964978E+04  0.86104445922E+03  0.17436200675E+04  0.12699999809E+01 0.  1.
</event>
<event>
 5   0  0.6661000E-08  0.3781870E+04  0.7818609E-02  0.8050057E-01
        1   -1    0    0  501    0  0.00000000000E+00  0.00000000000E+00  0.16892994260E+04  0.16892994260E+04  0.50400001928E-02 0.  1.
       -1   -1    0    0    0  501  0.00000000000E+00  0.00000000000E+00 -0.21166374167E+04  0.21166374167E+04  0.50400001928E-02 0. -1.
    10030    2    1    2    0    0  0.00000000000E+00  0.00000000000E+00 -0.42733799069E+03  0.38059368427E+04  0.37818695763E+04 0.  0.
        3    1    3    3  502    0 -0.12060415027E+04  0.78134801341E+03 -0.14505526235E+04  0.20418481207E+04  0.10100000352E+00 0. -1.
       -3    1    3    3    0  502  0.12060415027E+04 -0.78134801341E+03  0.10232146328E+04  0.17640887220E+04  0.10100000352E+00 0.  1.
</event>
<event>
 5   0  0.1370688E-07  0.3643224E+04  0.7818609E-02  0.8080662E-01
       -2   -1    0    0    0  501  0.00000000000E+00  0.00000000000E+00  0.31996696765E+04  0.31996696765E+04  0.25500000920E-02 0.  1.
        2   -1    0    0  501    0  0.00000000000E+00  0.00000000000E+00 -0.10370663633E+04  0.10370663633E+04  0.25500000920E-02 0. -1.
    10030    2    1    2    0    0  0.00000000000E+00  0.00000000000E+00  0.21626033132E+04  0.42367360397E+04  0.36432237345E+04 0.  0.
        5    1    3    3  502    0  0.10672995337E+04 -0.13636123164E+04  0.17388139583E+04  0.24539891841E+04  0.46999998093E+01 0.  1.
       -5    1    3    3    0  502 -0.10672995337E+04  0.13636123164E+04  0.42378935490E+03  0.17827468556E+04  0.46999998093E+01 0. -1.
</event>
<event>
 5   0  0.6661000E-08  0.3791738E+04  0.7818609E-02  0.8047930E-01
       -1   -1    0    0    0  501  0.00000000000E+00  0.00000000000E+00  0.19878352605E+04  0.19878352605E+04  0.50400001928E-02 0.  1.
        1   -1    0    0  501    0  0.00000000000E+00  0.00000000000E+00 -0.18081570630E+04  0.18081570630E+04  0.50400001928E-02 0. -1.
    10030    2    1    2    0    0  0.00000000000E+00  0.00000000000E+00  0.17967819749E+03  0.37959923235E+04  0.37917375259E+04 0.  0.
        3    1    3    3  502    0  0.10151734583E+04  0.12042734985E+04  0.11462324168E+04  0.19479991204E+04  0.10100000352E+00 0.  1.
       -3    1    3    3    0  502 -0.10151734583E+04 -0.12042734985E+04 -0.96655421931E+03  0.18479932031E+04  0.10100000352E+00 0. -1.
</event>
<event>
 5   0  0.2081337E-07  0.3773513E+04  0.7818609E-02  0.8051863E-01
       -2   -1    0    0    0  501  0.00000000000E+00  0.00000000000E+00  0.22133877710E+04  0.22133877710E+04  0.25500000920E-02 0. -1.
        2   -1    0    0  501    0  0.00000000000E+00  0.00000000000E+00 -0.16083267826E+04  0.16083267826E+04  0.25500000920E-02 0.  1.
    10030    2    1    2    0    0  0.00000000000E+00  0.00000000000E+00  0.60506098837E+03  0.38217145536E+04  0.37735133933E+04 0.  0.
        1    1    3    3  502    0 -0.26208973598E+03  0.10493509497E+04  0.18682477389E+04  0.21587445562E+04  0.50400001928E-02 0. -1.
       -1    1    3    3    0  502  0.26208973598E+03 -0.10493509497E+04 -0.12631867505E+04  0.16629699973E+04  0.50400001928E-02 0.  1.
</event>
<event>
 5   0  0.6661000E-08  0.3816555E+04  0.7818609E-02  0.8042611E-01
        1   -1    0    0  501    0  0.00000000000E+00  0.00000000000E+00  0.18117804028E+04  0.18117804028E+04  0.50400001928E-02 0. -1.
       -1   -1    0    0    0  501  0.00000000000E+00  0.00000000000E+00 -0.20099144651E+04  0.20099144651E+04  0.50400001928E-02 0.  1.
    10030    2    1    2    0    0  0.00000000000E+00  0.00000000000E+00 -0.19813406232E+03  0.38216948679E+04  0.38165553260E+04 0.  0.
        3    1    3    3  502    0  0.83191036898E+03  0.96279461084E+03  0.13249856648E+04  0.18370180584E+04  0.10100000352E+00 0. -1.
       -3    1    3    3    0  502 -0.83191036898E+03 -0.96279461084E+03 -0.15231197271E+04  0.19846768095E+04  0.10100000352E+00 0.  1.
</event>
<event>
 5   0  0.1370688E-07  0.3717071E+04  0.7818609E-02  0.8064189E-01
       -2   -1    0    0    0  501  0.00000000000E+00  0.00000000000E+00  0.21776125829E+04  0.21776125829E+04  0.25500000920E-02 0. -1.
        2   -1    0    0  501    0  0.00000000000E+00  0.00000000000E+00 -0.15862115642E+04  0.15862115642E+04  0.25500000920E-02 0.  1.
    10030    2    1    2    0    0  0.00000000000E+00  0.00000000000E+00  0.59140101871E+03  0.37638241470E+04  0.37170710304E+04 0.  0.
        5    1    3    3  502    0 -0.53550034557E+02 -0.12544779804E+04  0.16831723220E+04  0.20999223236E+04  0.46999998093E+01 0. -1.
       -5    1    3    3    0  502  0.53550034557E+02  0.12544779804E+04 -0.10917713033E+04  0.16639018235E+04  0.46999998093E+01 0.  1.
</event>
<event>
 5   0  0.2203998E-07  0.3760251E+04  0.7818609E-02  0.8054739E-01
       -2   -1    0    0    0  501  0.00000000000E+00  0.00000000000E+00  0.16212163794E+04  0.16212163794E+04  0.25500000920E-02 0. -1.
        2   -1    0    0  501    0  0.00000000000E+00  0.00000000000E+00 -0.21803822398E+04  0.21803822398E+04  0.25500000920E-02 0.  1.
    10030    2    1    2    0    0  0.00000000000E+00  0.00000000000E+00 -0.55916586036E+03  0.38015986192E+04  0.37602507366E+04 0.  0.
        3    1    3    3  502    0  0.13900404952E+03 -0.58501877357E+03 -0.20805475428E+04  0.21656978504E+04  0.10100000352E+00 0.  1.
       -3    1    3    3    0  502 -0.13900404952E+03  0.58501877357E+03  0.15213816825E+04  0.16359007687E+04  0.10100000352E+00 0. -1.
</event>
<event>
 5   0  0.2203998E-07  0.3714235E+04  0.7818609E-02  0.8064814E-01
        2   -1    0    0  501    0  0.00000000000E+00  0.00000000000E+00  0.19641461683E+04  0.19641461683E+04  0.25500000920E-02 0. -1.
       -2   -1    0    0    0  501  0.00000000000E+00  0.00000000000E+00 -0.17559209353E+04  0.17559209353E+04  0.25500000920E-02 0.  1.
    10030    2    1    2    0    0  0.00000000000E+00  0.00000000000E+00  0.20822523301E+03  0.37200671036E+04  0.37142349829E+04 0.  0.
        3    1    3    3  502    0 -0.12923911876E+04  0.12999831983E+04  0.40232847528E+03  0.18767257418E+04  0.10100000352E+00 0. -1.
       -3    1    3    3    0  502  0.12923911876E+04 -0.12999831983E+04 -0.19410324227E+03  0.18433413619E+04  0.10100000352E+00 0.  1.
</event>
<event>
 5   0  0.6661000E-08  0.3779289E+04  0.7818609E-02  0.8050614E-01
        1   -1    0    0  501    0  0.00000000000E+00  0.00000000000E+00  0.30409994409E+04  0.30409994409E+04  0.50400001928E-02 0.  1.
       -1   -1    0    0    0  501  0.00000000000E+00  0.00000000000E+00 -0.11742048362E+04  0.11742048363E+04  0.50400001928E-02 0. -1.
    10030    2    1    2    0    0  0.00000000000E+00  0.00000000000E+00  0.18667946046E+04  0.42152042772E+04  0.37792889546E+04 0.  0.
        4    1    3    3  502    0 -0.90733226084E+03  0.20298089939E+03 -0.90143603387E+03  0.12950064143E+04  0.12699999809E+01 0. -1.
       -4    1    3    3    0  502  0.90733226084E+03 -0.20298089939E+03  0.27682306385E+04  0.29201978628E+04  0.12699999809E+01 0.  1.
</event>
<event>
 5   0  0.6661000E-08  0.3811032E+04  0.7818609E-02  0.8043792E-01
       -1   -1    0    0    0  501  0.00000000000E+00  0.00000000000E+00  0.12192687841E+04  0.12192687841E+04  0.50400001928E-02 0.  1.
        1   -1    0    0  501    0  0.00000000000E+00  0.00000000000E+00 -0.29780070837E+04  0.29780070837E+04  0.50400001928E-02 0. -1.
    10030    2    1    2    0    0  0.00000000000E+00  0.00000000000E+00 -0.17587382996E+04  0.41972758678E+04  0.38110319211E+04 0.  0.
        4    1    3    3  502    0 -0.11368915888E+04 -0.15233192231E+04 -0.73174926558E+03  0.20367823989E+04  0.12699999809E+01 0.  1.
       -4    1    3    3    0  502  0.11368915888E+04  0.15233192231E+04 -0.10269890340E+04  0.21604934688E+04  0.12699999809E+01 0. -1.
</event>
<event>
 5   0  0.6661000E-08  0.3802499E+04  0.7818609E-02  0.8045619E-01
       -1   -1    0    0    0  501  0.00000000000E+00  0.00000000000E+00  0.15312795422E+04  0.15312795422E+04  0.50400001928E-02 0. -1.
        1   -1    0    0  501    0  0.00000000000E+00  0.00000000000E+00 -0.23606069891E+04  0.23606069891E+04  0.50400001928E-02 0.  1.
    10030    2    1    2    0    0  0.00000000000E+00  0.00000000000E+00 -0.82932744684E+03  0.38918865313E+04  0.38024987519E+04 0.  0.
        1    1    3    3  502    0 -0.83106039579E+03  0.66530661386E+03  0.11976304496E+04  0.16023772857E+04  0.50400001928E-02 0. -1.
       -1    1    3    3    0  502  0.83106039579E+03 -0.66530661386E+03 -0.20269578964E+04  0.22895092456E+04  0.50400001928E-02 0.  1.
</event>
<event>
 5   0  0.6725199E-08  0.3573086E+04  0.7818609E-02  0.8096685E-01
       -1   -1    0    0    0  501  0.00000000000E+00  0.00000000000E+00  0.18077224674E+04  0.18077224674E+04  0.50400001928E-02 0. -1.
        1   -1    0    0  501    0  0.00000000000E+00  0.00000000000E+00 -0.17656118335E+04  0.17656118335E+04  0.50400001928E-02 0.  1.
    10030    2    1    2    0    0  0.00000000000E+00  0.00000000000E+00  0.42110633899E+02  0.35733343008E+04  0.35730861619E+04 0.  0.
        5    1    3    3  502    0  0.96746721117E+03 -0.88732719456E+03 -0.11907927302E+04  0.17723858979E+04  0.46999998093E+01 0.  1.
       -5    1    3    3    0  502 -0.96746721117E+03  0.88732719456E+03  0.12329033641E+04  0.18009484029E+04  0.46999998093E+01 0. -1.
</event>
<event>
 5   0  0.6661000E-08  0.3801206E+04  0.7818609E-02  0.8045896E-01
        1   -1    0    0  501    0  0.00000000000E+00  0.00000000000E+00  0.20942289972E+04  0.20942289972E+04  0.50400001928E-02 0. -1.
       -1   -1    0    0    0  501  0.00000000000E+00  0.00000000000E+00 -0.17248790346E+04  0.17248790346E+04  0.50400001928E-02 0.  1.
    10030    2    1    2    0    0  0.00000000000E+00  0.00000000000E+00  0.36934996258E+03  0.38191080319E+04  0.38012059618E+04 0.  0.
        3    1    3    3  502    0 -0.14306330404E+04  0.33055204282E+03 -0.10277876767E+04  0.17922954745E+04  0.10100000352E+00 0.  1.
       -3    1    3    3    0  502  0.14306330404E+04 -0.33055204282E+03  0.13971376393E+04  0.20268125574E+04  0.10100000352E+00 0. -1.
</event>
<event>
 5   0  0.6661000E-08  0.3819840E+04  0.7818609E-02  0.8041911E-01
        1   -1    0    0  501    0  0.00000000000E+00  0.00000000000E+00  0.13188901611E+04  0.13188901611E+04  0.50400001928E-02 0. -1.
       -1   -1    0    0    0  501  0.00000000000E+00  0.00000000000E+00 -0.27658061764E+04  0.27658061764E+04  0.50400001928E-02 0.  1.
    10030    2    1    2    0    0  0.00000000000E+00  0.00000000000E+00 -0.14469160153E+04  0.40846963375E+04  0.38198400770E+04 0.  0.
        2    1    3    3  502    0  0.82956987223E+02 -0.49309106759E+03 -0.26945724155E+04  0.27405731454E+04  0.25500000920E-02 0.  1.
       -2    1    3    3    0  502 -0.82956987223E+02  0.49309106759E+03  0.12476564002E+04  0.13441231921E+04  0.25500000920E-02 0. -1.
</event>
<event>
 5   0  0.1370688E-07  0.3796024E+04  0.7818609E-02  0.8047009E-01
        2   -1    0    0  501    0  0.00000000000E+00  0.00000000000E+00  0.24806854710E+04  0.24806854710E+04  0.25500000920E-02 0. -1.
       -2   -1    0    0    0  501  0.00000000000E+00  0.00000000000E+00 -0.14521990190E+04  0.14521990190E+04  0.25500000920E-02 0.  1.
    10030    2    1    2    0    0  0.00000000000E+00  0.00000000000E+00  0.10284864520E+04  0.39328844899E+04  0.37960237129E+04 0.  0.
        5    1    3    3  502    0 -0.15454934608E+03  0.18153378604E+04  0.10654879409E+04  0.21105979461E+04  0.46999998093E+01 0. -1.
       -5    1    3    3    0  502  0.15454934608E+03 -0.18153378604E+04 -0.37001488879E+02  0.18222865439E+04  0.46999998093E+01 0.  1.
</event>
<event>
 5   0  0.2205204E-07  0.3807982E+04  0.7818609E-02  0.8044444E-01
       -2   -1    0    0    0  501  0.00000000000E+00  0.00000000000E+00  0.17183083008E+04  0.17183083008E+04  0.25500000920E-02 0.  1.
        2   -1    0    0  501    0  0.00000000000E+00  0.00000000000E+00 -0.21097385305E+04  0.21097385305E+04  0.25500000920E-02 0. -1.
    10030    2    1    2    0    0  0.00000000000E+00  0.00000000000E+00 -0.39143022968E+03  0.38280468313E+04  0.38079817381E+04 0.  0.
        2    1    3    3  502    0  0.11824629931E+04  0.14485539131E+04  0.16485865785E+03  0.18771535755E+04  0.25500000920E-02 0.  1.
       -2    1    3    3    0  502 -0.11824629931E+04 -0.14485539131E+04 -0.55628888754E+03  0.19508932558E+04  0.25500000920E-02 0. -1.
</event>
<event>
 5   0  0.6661000E-08  0.3809089E+04  0.7818609E-02  0.8044207E-01
        1   -1    0    0  501    0  0.00000000000E+00  0.00000000000E+00  0.18092617708E+04  0.18092617708E+04  0.50400001928E-02 0. -1.
       -1   -1    0    0    0  501  0.00000000000E+00  0.00000000000E+00 -0.20048451726E+04  0.20048451726E+04  0.50400001928E-02 0.  1.
    10030    2    1    2    0    0  0.00000000000E+00  0.00000000000E+00 -0.19558340181E+03  0.38141069433E+04  0.38090889866E+04 0.  0.
        3    1    3    3  502    0  0.13742351683E+03 -0.46852586529E+03 -0.19411100909E+04  0.20015769045E+04  0.10100000352E+00 0.  1.
       -3    1    3    3    0  502 -0.13742351683E+03  0.46852586529E+03  0.17455266891E+04  0.18125300389E+04  0.10100000352E+00 0. -1.
</event>
<event>
 5   0  0.6661000E-08  0.3830419E+04  0.7818609E-02  0.8039658E-01
        1   -1    0    0  501    0  0.00000000000E+00  0.00000000000E+00  0.15566910286E+04  0.15566910287E+04  0.50400001928E-02 0.  1.
       -1   -1    0    0    0  501  0.00000000000E+00  0.00000000000E+00 -0.23562981237E+04  0.23562981237E+04  0.50400001928E-02 0. -1.
    10030    2    1    2    0    0  0.00000000000E+00  0.00000000000E+00 -0.79960709501E+03  0.39129891523E+04  0.38304193765E+04 0.  0.
        1    1    3    3  502    0  0.58485673419E+03 -0.12245728780E+04 -0.17803763656E+04  0.22386103137E+04  0.50400001928E-02 0. -1.
       -1    1    3    3    0  502 -0.58485673419E+03  0.12245728780E+04  0.98076927060E+03  0.16743788387E+04  0.50400001928E-02 0.  1.
</event>
<event>
 5   0  0.2205204E-07  0.3804052E+04  0.7818609E-02  0.8045286E-01
        2   -1    0    0  501    0  0.00000000000E+00  0.00000000000E+00  0.19517914883E+04  0.19517914883E+04  0.25500000920E-02 0. -1.
       -2   -1    0    0    0  501  0.00000000000E+00  0.00000000000E+00 -0.18535289955E+04  0.18535289955E+04  0.25500000920E-02 0.  1.
    10030    2    1    2    0    0  0.00000000000E+00  0.00000000000E+00  0.98262492858E+02  0.38053204838E+04  0.38040515857E+04 0.  0.
        2    1    3    3  502    0  0.47486100182E+03  0.84337249790E+03 -0.15887700947E+04  0.18603657047E+04  0.25500000920E-02 0.  1.
       -2    1    3    3    0  502 -0.47486100182E+03 -0.84337249790E+03  0.16870325876E+04  0.19449547791E+04  0.25500000920E-02 0. -1.
</event>
<event>
 5   0  0.6661000E-08  0.3708533E+04  0.7818609E-02  0.8066073E-01
       -1   -1    0    0    0  501  0.00000000000E+00  0.00000000000E+00  0.32553838831E+04  0.32553838831E+04  0.50400001928E-02 0. -1.
        1   -1    0    0  501    0  0.00000000000E+00  0.00000000000E+00 -0.10561902666E+04  0.10561902666E+04  0.50400001928E-02 0.  1.
    10030    2    1    2    0    0  0.00000000000E+00  0.00000000000E+00  0.21991936165E+04  0.43115741497E+04  0.37085332796E+04 0.  0.
        2    1    3    3  502    0 -0.14910140927E+04 -0.10985872791E+04  0.99375636318E+03  0.21018013093E+04  0.25500000920E-02 0.  1.
       -2    1    3    3    0  502  0.14910140927E+04  0.10985872791E+04  0.12054372533E+04  0.22097728404E+04  0.25500000920E-02 0. -1.
</event>
<event>
 5   0  0.6661000E-08  0.3565534E+04  0.7818609E-02  0.8098433E-01
       -1   -1    0    0    0  501  0.00000000000E+00  0.00000000000E+00  0.19338799962E+04  0.19338799962E+04  0.50400001928E-02 0.  1.
        1   -1    0    0  501    0  0.00000000000E+00  0.00000000000E+00 -0.16434616725E+04  0.16434616725E+04  0.50400001928E-02 0. -1.
    10030    2    1    2    0    0  0.00000000000E+00  0.00000000000E+00  0.29041832370E+03  0.35773416687E+04  0.35655337065E+04 0.  0.
        3    1    3    3  502    0  0.36367060961E+03 -0.15764113225E+04  0.89664117785E+03  0.18496741286E+04  0.10100000352E+00 0.  1.
       -3    1    3    3    0  502 -0.36367060961E+03  0.15764113225E+04 -0.60622285415E+03  0.17276675401E+04  0.10100000352E+00 0. -1.
</event>
<event>
 5   0  0.2081337E-07  0.3782914E+04  0.7818609E-02  0.8049831E-01
       -2   -1    0    0    0  501  0.00000000000E+00  0.00000000000E+00  0.22409616977E+04  0.22409616977E+04  0.25500000920E-02 0.  1.
        2   -1    0    0  501    0  0.00000000000E+00  0.00000000000E+00 -0.15964620689E+04  0.15964620689E+04  0.25500000920E-02 0. -1.
    10030    2    1    2    0    0  0.00000000000E+00  0.00000000000E+00  0.64449962876E+03  0.38374237666E+04  0.37829144047E+04 0.  0.
        1    1    3    3  502    0  0.18235816016E+04  0.17333597329E+03  0.80033173287E+03  0.19990062781E+04  0.50400001928E-02 0.  1.
       -1    1    3    3    0  502 -0.18235816016E+04 -0.17333597329E+03 -0.15583210411E+03  0.18384174885E+04  0.50400001928E-02 0. -1.
</event>
<event>
 5   0  0.2205204E-07  0.3787057E+04  0.7818609E-02  0.8048938E-01
       -2   -1    0    0    0  501  0.00000000000E+00  0.00000000000E+00  0.15063457634E+04  0.15063457634E+04  0.25500000920E-02 0. -1.
        2   -1    0    0  501    0  0.00000000000E+00  0.00000000000E+00 -0.23802299991E+04  0.23802299991E+04  0.25500000920E-02 0.  1.
    10030    2    1    2    0    0  0.00000000000E+00  0.00000000000E+00 -0.87388423569E+03  0.38865757625E+04  0.37870565747E+04 0.  0.
        2    1    3    3  502    0 -0.10814714291E+03  0.54947630542E+03  0.14194113239E+04  0.15258926964E+04  0.25500000920E-02 0. -1.
       -2    1    3    3    0  502  0.10814714291E+03 -0.54947630542E+03 -0.22932955596E+04  0.23606830660E+04  0.25500000920E-02 0.  1.
</event>
<event>
 5   0  0.2081337E-07  0.3789211E+04  0.7818609E-02  0.8048474E-01
       -2   -1    0    0    0  501  0.00000000000E+00  0.00000000000E+00  0.17915914194E+04  0.17915914194E+04  0.25500000920E-02 0. -1.
        2   -1    0    0  501    0  0.00000000000E+00  0.00000000000E+00 -0.20035422595E+04  0.20035422595E+04  0.25500000920E-02 0.  1.
    10030    2    1    2    0    0  0.00000000000E+00  0.00000000000E+00 -0.21195084009E+03  0.37951336788E+04  0.37892105354E+04 0.  0.
        1    1    3    3  502    0  0.10091212222E+04  0.11104615356E+04  0.10525862700E+04  0.18328634207E+04  0.50400001928E-02 0. -1.
       -1    1    3    3    0  502 -0.10091212222E+04 -0.11104615356E+04 -0.12645371101E+04  0.19622702581E+04  0.50400001928E-02 0.  1.
</event>
<event>
 5   0  0.1370688E-07  0.3760838E+04  0.7818609E-02  0.8054612E-01
       -2   -1    0    0    0  501  0.00000000000E+00  0.00000000000E+00  0.18485018875E+04  0.18485018875E+04  0.25500000920E-02 0. -1.
        2   -1    0    0  501    0  0.00000000000E+00  0.00000000000E+00 -0.19128869064E+04  0.19128869064E+04  0.25500000920E-02 0.  1.
    10030    2    1    2    0    0  0.00000000000E+00  0.00000000000E+00 -0.64385018945E+02  0.37613887939E+04  0.37608377030E+04 0.  0.
        5    1    3    3  502    0 -0.67314506707E+02  0.18422632485E+04 -0.40304038106E+03  0.18870423308E+04  0.46999998093E+01 0.  1.
       -5    1    3    3    0  502  0.67314506707E+02 -0.18422632485E+04  0.33865536211E+03  0.18743464631E+04  0.46999998093E+01 0. -1.
</event>
<event>
 5   0  0.2135314E-07  0.3867522E+04  0.7818609E-02  0.8031818E-01
       -2   -1    0    0    0  501  0.00000000000E+00  0.00000000000E+00  0.25936717486E+04  0.25936717486E+04  0.25500000920E-02 0.  1.
        2   -1    0    0  501    0  0.00000000000E+00  0.00000000000E+00 -0.14417522949E+04  0.14417522949E+04  0.25500000920E-02 0. -1.
    10030    2    1    2    0    0  0.00000000000E+00  0.00000000000E+00  0.11519194537E+04  0.40354240435E+04  0.38675223054E+04 0.  0.
        4    1    3    3  502    0 -0.10639707229E+04  0.10401649740E+04  0.18646717103E+04  0.23855773038E+04  0.12699999809E+01 0.  1.
       -4    1    3    3    0  502  0.10639707229E+04 -0.10401649740E+04 -0.71275225655E+03  0.16498467397E+04  0.12699999809E+01 0. -1.
</event>
<event>
 5   0  0.2081337E-07  0.3817210E+04  0.7818609E-02  0.8042472E-01
       -2   -1    0    0    0  501  0.00000000000E+00  0.00000000000E+00  0.16864918704E+04  0.16864918704E+04  0.25500000920E-02 0. -1.
        2   -1    0    0  501    0  0.00000000000E+00  0.00000000000E+00 -0.21599708030E+04  0.21599708030E+04  0.25500000920E-02 0.  1.
    10030    2    1    2    0    0  0.00000000000E+00  0.00000000000E+00 -0.47347893264E+03  0.38464626734E+04  0.38172100805E+04 0.  0.
        1    1    3    3  502    0 -0.20655627873E+03 -0.15755300720E+04 -0.13021082789E+04  0.20543725257E+04  0.50400001928E-02 0.  1.
       -1    1    3    3    0  502  0.20655627873E+03  0.15755300720E+04  0.82862934629E+03  0.17920901478E+04  0.50400001928E-02 0. -1.
</event>
<event>
 5   0  0.6661000E-08  0.3800070E+04  0.7818609E-02  0.8046140E-01
       -1   -1    0    0    0  501  0.00000000000E+00  0.00000000000E+00  0.16537182268E+04  0.16537182268E+04  0.50400001928E-02 0. -1.
        1   -1    0    0  501    0  0.00000000000E+00  0.00000000000E+00 -0.21830397276E+04  0.21830397276E+04  0.50400001928E-02 0.  1.
    10030    2    1    2    0    0  0.00000000000E+00  0.00000000000E+00 -0.52932150083E+03  0.38367579544E+04  0.38000697821E+04 0.  0.
        2    1    3    3  502    0  0.98205177923E+03 -0.10333810957E+04 -0.15329052580E+04  0.20933467740E+04  0.25500000920E-02 0.  1.
       -2    1    3    3    0  502 -0.98205177923E+03  0.10333810957E+04  0.10035837572E+04  0.17434111804E+04  0.25500000920E-02 0. -1.
</event>
<event>
 5   0  0.2205204E-07  0.3812620E+04  0.7818609E-02  0.8043452E-01
        2   -1    0    0  501    0  0.00000000000E+00  0.00000000000E+00  0.14962827727E+04  0.14962827727E+04  0.25500000920E-02 0.  1.
       -2   -1    0    0    0  501  0.00000000000E+00  0.00000000000E+00 -0.24286974581E+04  0.24286974581E+04  0.25500000920E-02 0. -1.
    10030    2    1    2    0    0  0.00000000000E+00  0.00000000000E+00 -0.93241468543E+03  0.39249802308E+04  0.38126201839E+04 0.  0.
        2    1    3    3  502    0  0.62686080596E+03 -0.43753762475E+03  0.13315750250E+04  0.15354105934E+04  0.25500000920E-02 0.  1.
       -2    1    3    3    0  502 -0.62686080596E+03  0.43753762475E+03 -0.22639897104E+04  0.23895696374E+04  0.25500000920E-02 0. -1.
</event>
<event>
 5   0  0.2203998E-07  0.3879523E+04  0.7818609E-02  0.8029302E-01
       -2   -1    0    0    0  501  0.00000000000E+00  0.00000000000E+00  0.19910067082E+04  0.19910067082E+04  0.25500000920E-02 0.  1.
        2   -1    0    0  501    0  0.00000000000E+00  0.00000000000E+00 -0.18898349614E+04  0.18898349614E+04  0.25500000920E-02 0. -1.
    10030    2    1    2    0    0  0.00000000000E+00  0.00000000000E+00  0.10117174681E+03  0.38808416696E+04  0.38795226952E+04 0.  0.
        3    1    3    3  502    0  0.53732957868E+00  0.56991129111E+03  0.19053669783E+04  0.19887741201E+04  0.10100000352E+00 0.  1.
       -3    1    3    3    0  502 -0.53732957868E+00 -0.56991129111E+03 -0.18041952315E+04  0.18920675495E+04  0.10100000352E+00 0. -1.
</event>
<event>
 5   0  0.1370688E-07  0.3780796E+04  0.7818609E-02  0.8050289E-01
       -2   -1    0    0    0  501  0.00000000000E+00  0.00000000000E+00  0.16747854942E+04  0.16747854942E+04  0.25500000920E-02 0.  1.
        2   -1    0    0  501    0  0.00000000000E+00  0.00000000000E+00 -0.21337682961E+04  0.21337682961E+04  0.25500000920E-02 0. -1.
    10030    2    1    2    0    0  0.00000000000E+00  0.00000000000E+00 -0.45898280185E+03  0.38085537903E+04  0.37807957841E+04 0.  0.
        5    1    3    3  502    0  0.15175095105E+04 -0.68747774875E+03  0.67044399313E+03  0.17958223764E+04  0.46999998093E+01 0.  1.
       -5    1    3    3    0  502 -0.15175095105E+04  0.68747774875E+03 -0.11294267950E+04  0.20127314140E+04  0.46999998093E+01 0. -1.
</event>
<event>
 5   0  0.2081337E-07  0.3782138E+04  0.7818609E-02  0.8049999E-01
        2   -1    0    0  501    0  0.00000000000E+00  0.00000000000E+00  0.26688757691E+04  0.26688757691E+04  0.25500000920E-02 0. -1.
       -2   -1    0    0    0  501  0.00000000000E+00  0.00000000000E+00 -0.13399435242E+04  0.13399435242E+04  0.25500000920E-02 0.  1.
    10030    2    1    2    0    0  0.00000000000E+00  0.00000000000E+00  0.13289322449E+04  0.40088192932E+04  0.37821384446E+04 0.  0.
        1    1    3    3  502    0  0.13443944062E+04  0.13045790666E+04  0.93845447983E+03  0.20952373782E+04  0.50400001928E-02 0.  1.
       -1    1    3    3    0  502 -0.13443944062E+04 -0.13045790666E+04  0.39047776507E+03  0.19135819150E+04  0.50400001928E-02 0. -1.
</event>
<event>
 5   0  0.6661000E-08  0.3385542E+04  0.7818609E-02  0.8141464E-01
        1   -1    0    0  501    0  0.00000000000E+00  0.00000000000E+00  0.12657082662E+04  0.12657082662E+04  0.50400001928E-02 0.  1.
       -1   -1    0    0    0  501  0.00000000000E+00  0.00000000000E+00 -0.22639287577E+04  0.22639287577E+04  0.50400001928E-02 0. -1.
    10030    2    1    2    0    0  0.00000000000E+00  0.00000000000E+00 -0.99822049156E+03  0.35296370239E+04  0.33855418135E+04 0.  0.
        1    1    3    3  502    0  0.14357353608E+03  0.13813159785E+04 -0.15082036483E+04  0.20502013163E+04  0.50400001928E-02 0.  1.
       -1    1    3    3    0  502 -0.14357353608E+03 -0.13813159785E+04  0.50998315671E+03  0.14794357076E+04  0.50400001928E-02 0. -1.
</event>
<event>
 5   0  0.2205204E-07  0.3803157E+04  0.7818609E-02  0.8045478E-01
       -2   -1    0    0    0  501  0.00000000000E+00  0.00000000000E+00  0.15306178824E+04  0.15306178824E+04  0.25500000920E-02 0.  1.
        2   -1    0    0  501    0  0.00000000000E+00  0.00000000000E+00 -0.23624452411E+04  0.23624452411E+04  0.25500000920E-02 0. -1.
    10030    2    1    2    0    0  0.00000000000E+00  0.00000000000E+00 -0.83182735879E+03  0.38930631235E+04  0.38031570739E+04 0.  0.
        2    1    3    3  502    0 -0.20437040811E+03 -0.35233036647E+03 -0.23172670311E+04  0.23527920529E+04  0.25500000920E-02 0. -1.
       -2    1    3    3    0  502  0.20437040811E+03  0.35233036647E+03  0.14854396723E+04  0.15402710706E+04  0.25500000920E-02 0.  1.
</event>
<event>
 5   0  0.6661000E-08  0.3806662E+04  0.7818609E-02  0.8044727E-01
       -1   -1    0    0    0  501  0.00000000000E+00  0.00000000000E+00  0.13976514523E+04  0.13976514523E+04  0.50400001928E-02 0.  1.
        1   -1    0    0  501    0  0.00000000000E+00  0.00000000000E+00 -0.25919692200E+04  0.25919692200E+04  0.50400001928E-02 0. -1.
    10030    2    1    2    0    0  0.00000000000E+00  0.00000000000E+00 -0.11943177677E+04  0.39896206723E+04  0.38066623411E+04 0.  0.
        3    1    3    3  502    0 -0.17221722404E+04 -0.66379300700E+03 -0.10987043215E+03  0.18489375067E+04  0.10100000352E+00 0. -1.
       -3    1    3    3    0  502  0.17221722404E+04  0.66379300700E+03 -0.10844473355E+04  0.21406831656E+04  0.10100000352E+00 0.  1.
</event>
<event>
 5   0  0.1370688E-07  0.3767820E+04  0.7818609E-02  0.8053096E-01
       -2   -1    0    0    0  501  0.00000000000E+00  0.00000000000E+00  0.11509015050E+04  0.11509015050E+04  0.25500000920E-02 0.  1.
        2   -1    0    0  501    0  0.00000000000E+00  0.00000000000E+00 -0.30837706510E+04  0.30837706510E+04  0.25500000920E-02 0. -1.
    10030    2    1    2    0    0  0.00000000000E+00  0.00000000000E+00 -0.19328691460E+04  0.42346721560E+04  0.37678196789E+04 0.  0.
        5    1    3    3  502    0  0.18441117746E+04  0.19113252840E+03 -0.59061587634E+03  0.19457978015E+04  0.46999998093E+01 0.  1.
       -5    1    3    3    0  502 -0.18441117746E+04 -0.19113252840E+03 -0.13422532697E+04  0.22888743545E+04  0.46999998093E+01 0. -1.
</event>
<event>
 5   0  0.6661000E-08  0.3800789E+04  0.7818609E-02  0.8045986E-01
       -1   -1    0    0    0  501  0.00000000000E+00  0.00000000000E+00  0.19255157280E+04  0.19255157280E+04  0.50400001928E-02 0. -1.
        1   -1    0    0  501    0  0.00000000000E+00  0.00000000000E+00 -0.18756008075E+04  0.18756008075E+04  0.50400001928E-02 0.  1.
    10030    2    1    2    0    0  0.00000000000E+00  0.00000000000E+00  0.49914920498E+02  0.38011165354E+04  0.38007887887E+04 0.  0.
        2    1    3    3  502    0  0.28407588382E+03 -0.11082719363E+03  0.19008902730E+04  0.19251923552E+04  0.25500000920E-02 0. -1.
       -2    1    3    3    0  502 -0.28407588382E+03  0.11082719363E+03 -0.18509753525E+04  0.18759241802E+04  0.25500000920E-02 0.  1.
</event>
<event>
 5   0  0.2135314E-07  0.3837741E+04  0.7818609E-02  0.8038104E-01
        2   -1    0    0  501    0  0.00000000000E+00  0.00000000000E+00  0.18625047815E+04  0.18625047815E+04  0.25500000920E-02 0.  1.
       -2   -1    0    0    0  501  0.00000000000E+00  0.00000000000E+00 -0.19769420309E+04  0.19769420309E+04  0.25500000920E-02 0. -1.
    10030    2    1    2    0    0  0.00000000000E+00  0.00000000000E+00 -0.11443724944E+03  0.38394468124E+04  0.38377409946E+04 0.  0.
        4    1    3    3  502    0 -0.29584434957E+03 -0.58784236195E+03 -0.18605124825E+04  0.19734717713E+04  0.12699999809E+01 0. -1.
       -4    1    3    3    0  502  0.29584434957E+03  0.58784236195E+03  0.17460752331E+04  0.18659750411E+04  0.12699999809E+01 0.  1.
</event>
<event>
 5   0  0.6661000E-08  0.3881869E+04  0.7818609E-02  0.8028811E-01
        1   -1    0    0  501    0  0.00000000000E+00  0.00000000000E+00  0.16607327179E+04  0.16607327179E+04  0.50400001928E-02 0.  1.
       -1   -1    0    0    0  501  0.00000000000E+00  0.00000000000E+00 -0.22684121378E+04  0.22684121378E+04  0.50400001928E-02 0. -1.
    10030    2    1    2    0    0  0.00000000000E+00  0.00000000000E+00 -0.60767941988E+03  0.39291448556E+04  0.38818687535E+04 0.  0.
        1    1    3    3  502    0  0.13308887306E+04 -0.36308089123E+03 -0.16858005038E+04  0.21783057373E+04  0.50400001928E-02 0. -1.
       -1    1    3    3    0  502 -0.13308887306E+04  0.36308089123E+03  0.10781210839E+04  0.17508391183E+04  0.50400001928E-02 0.  1.
</event>
<event>
 5   0  0.2081337E-07  0.3794891E+04  0.7818609E-02  0.8047252E-01
        2   -1    0    0  501    0  0.00000000000E+00  0.00000000000E+00  0.17446824231E+04  0.17446824231E+04  0.25500000920E-02 0. -1.
       -2   -1    0    0    0  501  0.00000000000E+00  0.00000000000E+00 -0.20635839165E+04  0.20635839165E+04  0.25500000920E-02 0.  1.
    10030    2    1    2    0    0  0.00000000000E+00  0.00000000000E+00 -0.31890149339E+03  0.38082663395E+04  0.37948905584E+04 0.  0.
        1    1    3    3  502    0  0.72576044598E+01 -0.12110279536E+04  0.13064021253E+04  0.17813837010E+04  0.50400001928E-02 0. -1.
       -1    1    3    3    0  502 -0.72576044598E+01  0.12110279536E+04 -0.16253036187E+04  0.20268826385E+04  0.50400001928E-02 0.  1.
</event>
<event>
 5   0  0.6661000E-08  0.3766663E+04  0.7818609E-02  0.8053347E-01
       -1   -1    0    0    0  501  0.00000000000E+00  0.00000000000E+00  0.20324532598E+04  0.20324532598E+04  0.50400001928E-02 0. -1.
        1   -1    0    0  501    0  0.00000000000E+00  0.00000000000E+00 -0.17451504480E+04  0.17451504480E+04  0.50400001928E-02 0.  1.
    10030    2    1    2    0    0  0.00000000000E+00  0.00000000000E+00  0.28730281177E+03  0.37776037078E+04  0.37666625635E+04 0.  0.
        2    1    3    3  502    0 -0.18925467450E+03 -0.12115618767E+04  0.15772219676E+04  0.19978309859E+04  0.25500000920E-02 0. -1.
       -2    1    3    3    0  502  0.18925467450E+03  0.12115618767E+04 -0.12899191559E+04  0.17797727219E+04  0.25500000920E-02 0.  1.
</event>
<event>
 5   0  0.6661000E-08  0.3799459E+04  0.7818609E-02  0.8046271E-01
       -3   -1    0    0    0  501  0.00000000000E+00  0.00000000000E+00  0.16674429517E+04  0.16674429547E+04  0.10100000352E+00 0.  1.
        3   -1    0    0  501    0  0.00000000000E+00  0.00000000000E+00 -0.21643755847E+04  0.21643755870E+04  0.10100000352E+00 0. -1.
    10030    2    1    2    0    0  0.00000000000E+00  0.00000000000E+00 -0.49693263302E+03  0.38318185418E+04  0.37994593425E+04 0.  0.
        4    1    3    3  502    0 -0.70616591687E+03  0.17454693737E+04 -0.50287969293E+03  0.19489030851E+04  0.12699999809E+01 0. -1.
       -4    1    3    3    0  502  0.70616591687E+03 -0.17454693737E+04  0.59470599072E+01  0.18829154567E+04  0.12699999809E+01 0.  1.
</event>
<event>
 5   0  0.2203998E-07  0.3821494E+04  0.7818609E-02  0.8041558E-01
       -2   -1    0    0    0  501  0.00000000000E+00  0.00000000000E+00  0.14337359680E+04  0.14337359680E+04  0.25500000920E-02 0. -1.
        2   -1    0    0  501    0  0.00000000000E+00  0.00000000000E+00 -0.25464613058E+04  0.25464613058E+04  0.25500000920E-02 0.  1.
    10030    2    1    2    0    0  0.00000000000E+00  0.00000000000E+00 -0.11127253378E+04  0.39801972738E+04  0.38214935119E+04 0.  0.
        3    1    3    3  502    0  0.15936868461E+04 -0.93709694254E+03 -0.53653805903E+02  0.18495586458E+04  0.10100000352E+00 0. -1.
       -3    1    3    3    0  502 -0.15936868461E+04  0.93709694254E+03 -0.10590715319E+04  0.21306386280E+04  0.10100000352E+00 0.  1.
</event>
<event>
 5   0  0.6661000E-08  0.3804148E+04  0.7818609E-02  0.8045265E-01
        1   -1    0    0  501    0  0.00000000000E+00  0.00000000000E+00  0.17532925880E+04  0.17532925880E+04  0.50400001928E-02 0. -1.
       -1   -1    0    0    0  501  0.00000000000E+00  0.00000000000E+00 -0.20634812165E+04  0.20634812165E+04  0.50400001928E-02 0.  1.
    10030    2    1    2    0    0  0.00000000000E+00  0.00000000000E+00 -0.31018862849E+03  0.38167738045E+04  0.38041484315E+04 0.  0.
        3    1    3    3  502    0 -0.54803349839E+03  0.13601774916E+04 -0.13705035087E+04  0.20071630232E+04  0.10100000352E+00 0.  1.
       -3    1    3    3    0  502  0.54803349839E+03 -0.13601774916E+04  0.10603148803E+04  0.18096107812E+04  0.10100000352E+00 0. -1.
</event>
<event>
 5   0  0.2081337E-07  0.3737090E+04  0.7818609E-02  0.8059792E-01
        2   -1    0    0  501    0  0.00000000000E+00  0.00000000000E+00  0.25433190787E+04  0.25433190787E+04  0.25500000920E-02 0. -1.
       -2   -1    0    0    0  501  0.00000000000E+00  0.00000000000E+00 -0.13727965223E+04  0.13727965223E+04  0.25500000920E-02 0.  1.
    10030    2    1    2    0    0  0.00000000000E+00  0.00000000000E+00  0.11705225564E+04  0.39161156010E+04  0.37370895554E+04 0.  0.
        1    1    3    3  502    0  0.16901027699E+04  0.19426899997E+03 -0.22459507196E+03  0.17159926467E+04  0.50400001928E-02 0.  1.
       -1    1    3    3    0  502 -0.16901027699E+04 -0.19426899997E+03  0.13951176284E+04  0.22001229543E+04  0.50400001928E-02 0. -1.
</event>
<event>
 5   0  0.6661000E-08  0.3757804E+04  0.7818609E-02  0.8055271E-01
       -1   -1    0    0    0  501  0.00000000000E+00  0.00000000000E+00  0.21189038084E+04  0.21189038084E+04  0.50400001928E-02 0. -1.
        1   -1    0    0  501    0  0.00000000000E+00  0.00000000000E+00 -0.16660841954E+04  0.16660841954E+04  0.50400001928E-02 0.  1.
    10030    2    1    2    0    0  0.00000000000E+00  0.00000000000E+00  0.45281961299E+03  0.37849880038E+04  0.37578036919E+04 0.  0.
        4    1    3    3  502    0 -0.26119207455E+03 -0.99661257768E+02 -0.16450183681E+04  0.16686044200E+04  0.12699999809E+01 0.  1.
       -4    1    3    3    0  502  0.26119207455E+03  0.99661257768E+02  0.20978379811E+04  0.21163835838E+04  0.12699999809E+01 0. -1.
</event>
<event>
 5   0  0.2203998E-07  0.3809042E+04  0.7818609E-02  0.8044217E-01
        2   -1    0    0  501    0  0.00000000000E+00  0.00000000000E+00  0.16224246032E+04  0.16224246032E+04  0.25500000920E-02 0.  1.
       -2   -1    0    0    0  501  0.00000000000E+00  0.00000000000E+00 -0.22356667623E+04  0.22356667623E+04  0.25500000920E-02 0. -1.
    10030    2    1    2    0    0  0.00000000000E+00  0.00000000000E+00 -0.61324215913E+03  0.38580913654E+04  0.38090422731E+04 0.  0.
        3    1    3    3  502    0  0.19969152957E+03 -0.56002117515E+03 -0.21392569232E+04  0.22203424549E+04  0.10100000352E+00 0. -1.
       -3    1    3    3    0  502 -0.19969152957E+03  0.56002117515E+03  0.15260147640E+04  0.16377489105E+04  0.10100000352E+00 0.  1.
</event>
<event>
 5   0  0.6661000E-08  0.3787409E+04  0.7818609E-02  0.8048862E-01
       -1   -1    0    0    0  501  0.00000000000E+00  0.00000000000E+00  0.31708475225E+04  0.31708475225E+04  0.50400001928E-02 0.  1.
        1   -1    0    0  501    0  0.00000000000E+00  0.00000000000E+00 -0.11309646702E+04  0.11309646702E+04  0.50400001928E-02 0. -1.
    10030    2    1    2    0    0  0.00000000000E+00  0.00000000000E+00  0.20398828523E+04  0.43018121927E+04  0.37874088887E+04 0.  0.
        4    1    3    3  502    0 -0.12597923567E+04  0.31328624249E+03  0.25859268986E+04  0.28934831242E+04  0.12699999809E+01 0.  1.
       -4    1    3    3    0  502  0.12597923567E+04 -0.31328624249E+03 -0.54604404638E+03  0.14083290685E+04  0.12699999809E+01 0. -1.
</event>
<event>
 5   0  0.6725199E-08  0.3671892E+04  0.7818609E-02  0.8074220E-01
       -1   -1    0    0    0  501  0.00000000000E+00  0.00000000000E+00  0.20297142385E+04  0.20297142385E+04  0.50400001928E-02 0.  1.
        1   -1    0    0  501    0  0.00000000000E+00  0.00000000000E+00 -0.16606763114E+04  0.16606763114E+04  0.50400001928E-02 0. -1.
    10030    2    1    2    0    0  0.00000000000E+00  0.00000000000E+00  0.36903792709E+03  0.36903905499E+04  0.36718923485E+04 0.  0.
        5    1    3    3  502    0  0.17896163458E+04  0.31427293339E+03 -0.79831046722E+02  0.18187603547E+04  0.46999998093E+01 0. -1.
       -5    1    3    3    0  502 -0.17896163458E+04 -0.31427293339E+03  0.44886897382E+03  0.18716301952E+04  0.46999998093E+01 0.  1.
</event>
<event>
 5   0  0.6661000E-08  0.3797635E+04  0.7818609E-02  0.8046663E-01
       -1   -1    0    0    0  501  0.00000000000E+00  0.00000000000E+00  0.24019255632E+04  0.24019255632E+04  0.50400001928E-02 0. -1.
        1   -1    0    0  501    0  0.00000000000E+00  0.00000000000E+00 -0.15010902222E+04  0.15010902223E+04  0.50400001928E-02 0.  1.
    10030    2    1    2    0    0  0.00000000000E+00  0.00000000000E+00  0.90083534096E+03  0.39030157855E+04  0.37976345151E+04 0.  0.
        2    1    3    3  502    0  0.12931979016E+04  0.20054336119E+03 -0.96359808905E+03  0.16251460641E+04  0.25500000920E-02 0.  1.
       -2    1    3    3    0  502 -0.12931979016E+04 -0.20054336119E+03  0.18644334300E+04  0.22778697213E+04  0.25500000920E-02 0. -1.
</event>
<event>
 5   0  0.6661000E-08  0.3708893E+04  0.7818609E-02  0.8065994E-01
        1   -1    0    0  501    0  0.00000000000E+00  0.00000000000E+00  0.19865721196E+04  0.19865721196E+04  0.50400001928E-02 0. -1.
       -1   -1    0    0    0  501  0.00000000000E+00  0.00000000000E+00 -0.17311083374E+04  0.17311083374E+04  0.50400001928E-02 0.  1.
    10030    2    1    2    0    0  0.00000000000E+00  0.00000000000E+00  0.25546378219E+03  0.37176804571E+04  0.37088928587E+04 0.  0.
        3    1    3    3  502    0  0.94236964599E+03 -0.12886517295E+04  0.10735180676E+04  0.19238307829E+04  0.10100000352E+00 0. -1.
       -3    1    3    3    0  502 -0.94236964599E+03  0.12886517295E+04 -0.81805428539E+03  0.17938496742E+04  0.10100000352E+00 0.  1.
</event>
<event>
 5   0  0.2205204E-07  0.3881238E+04  0.7818609E-02  0.8028943E-01
       -2   -1    0    0    0  501  0.00000000000E+00  0.00000000000E+00  0.13489363824E+04  0.13489363824E+04  0.25500000920E-02 0. -1.
        2   -1    0    0  501    0  0.00000000000E+00  0.00000000000E+00 -0.27918306149E+04  0.27918306149E+04  0.25500000920E-02 0.  1.
    10030    2    1    2    0    0  0.00000000000E+00  0.00000000000E+00 -0.14428942325E+04  0.41407669974E+04  0.38812378902E+04 0.  0.
        2    1    3    3  502    0 -0.11473615338E+04  0.55064914336E+02 -0.23901765068E+04  0.26518699757E+04  0.25500000920E-02 0.  1.
       -2    1    3    3    0  502  0.11473615338E+04 -0.55064914336E+02  0.94728227435E+03  0.14888970217E+04  0.25500000920E-02 0. -1.
</event>
<event>
 5   0  0.2135314E-07  0.3711791E+04  0.7818609E-02  0.8065354E-01
       -2   -1    0    0    0  501  0.00000000000E+00  0.00000000000E+00  0.12253062281E+04  0.12253062281E+04  0.25500000920E-02 0.  1.
        2   -1    0    0  501    0  0.00000000000E+00  0.00000000000E+00 -0.28110106202E+04  0.28110106202E+04  0.25500000920E-02 0. -1.
    10030    2    1    2    0    0  0.00000000000E+00  0.00000000000E+00 -0.15857043922E+04  0.40363168483E+04  0.37117913843E+04 0.  0.
        4    1    3    3  502    0  0.13792469764E+04  0.11808533135E+04 -0.37506009508E+03  0.18540249345E+04  0.12699999809E+01 0.  1.
       -4    1    3    3    0  502 -0.13792469764E+04 -0.11808533135E+04 -0.12106442971E+04  0.21822919138E+04  0.12699999809E+01 0. -1.
</event>
<event>
 5   0  0.1370688E-07  0.3812688E+04  0.7818609E-02  0.8043437E-01
        2   -1    0    0  501    0  0.00000000000E+00  0.00000000000E+00  0.18950061195E+04  0.18950061195E+04  0.25500000920E-02 0. -1.
       -2   -1    0    0    0  501  0.00000000000E+00  0.00000000000E+00 -0.19177499622E+04  0.19177499622E+04  0.25500000920E-02 0.  1.
    10030    2    1    2    0    0  0.00000000000E+00  0.00000000000E+00 -0.22743842728E+02  0.38127560816E+04  0.38126882453E+04 0.  0.
        5    1    3    3  502    0  0.12879932105E+04 -0.23374222638E+03  0.13744968416E+04  0.18981110601E+04  0.46999998093E+01 0. -1.
       -5    1    3    3    0  502 -0.12879932105E+04  0.23374222638E+03 -0.13972406843E+04  0.19146450216E+04  0.46999998093E+01 0.  1.
</event>
<event>
 5   0  0.1370688E-07  0.3759182E+04  0.7818609E-02  0.8054972E-01
        2   -1    0    0  501    0  0.00000000000E+00  0.00000000000E+00  0.17488225541E+04  0.17488225541E+04  0.25500000920E-02 0. -1.
       -2   -1    0    0    0  501  0.00000000000E+00  0.00000000000E+00 -0.20201373754E+04  0.20201373754E+04  0.25500000920E-02 0.  1.
    10030    2    1    2    0    0  0.00000000000E+00  0.00000000000E+00 -0.27131482131E+03  0.37689599296E+04  0.37591817219E+04 0.  0.
        5    1    3    3  502    0  0.10740374303E+04  0.95344670817E+03  0.10800239556E+04  0.17969671287E+04  0.46999998093E+01 0. -1.
       -5    1    3    3    0  502 -0.10740374303E+04 -0.95344670817E+03 -0.13513387769E+04  0.19719928009E+04  0.46999998093E+01 0.  1.
</event>
<event>
 5   0  0.6661000E-08  0.3785247E+04  0.7818609E-02  0.8049328E-01
       -1   -1    0    0    0  501  0.00000000000E+00  0.00000000000E+00  0.11848973509E+04  0.11848973509E+04  0.50400001928E-02 0.  1.
        1   -1    0    0  501    0  0.00000000000E+00  0.00000000000E+00 -0.30230661135E+04  0.30230661135E+04  0.50400001928E-02 0. -1.
    10030    2    1    2    0    0  0.00000000000E+00  0.00000000000E+00 -0.18381687626E+04  0.42079634644E+04  0.37852466390E+04 0.  0.
        2    1    3    3  502    0  0.58694334968E+03  0.13691573843E+04  0.37873521937E+03  0.15370539369E+04  0.25500000920E-02 0.  1.
       -2    1    3    3    0  502 -0.58694334968E+03 -0.13691573843E+04 -0.22169039820E+04  0.26709095275E+04  0.25500000920E-02 0. -1.
</event>
<event>
 5   0  0.6661000E-08  0.3800339E+04  0.7818609E-02  0.8046082E-01
       -1   -1    0    0    0  501  0.00000000000E+00  0.00000000000E+00  0.30391186472E+04  0.30391186472E+04  0.50400001928E-02 0.  1.
        1   -1    0    0  501    0  0.00000000000E+00  0.00000000000E+00 -0.11880565791E+04  0.11880565791E+04  0.50400001928E-02 0. -1.
    10030    2    1    2    0    0  0.00000000000E+00  0.00000000000E+00  0.18510620682E+04  0.42271752263E+04  0.38003394077E+04 0.  0.
        4    1    3    3  502    0 -0.15229044944E+04  0.11322707119E+04  0.10331915736E+04  0.21607317059E+04  0.12699999809E+01 0.  1.
       -4    1    3    3    0  502  0.15229044944E+04 -0.11322707119E+04  0.81787049458E+03  0.20664435204E+04  0.12699999809E+01 0. -1.
</event>
<event>
 5   0  0.2203998E-07  0.3986364E+04  0.7818609E-02  0.8007303E-01
        2   -1    0    0  501    0  0.00000000000E+00  0.00000000000E+00  0.22300382210E+04  0.22300382210E+04  0.25500000920E-02 0.  1.
       -2   -1    0    0    0  501  0.00000000000E+00  0.00000000000E+00 -0.17814828361E+04  0.17814828361E+04  0.25500000920E-02 0. -1.
    10030    2    1    2    0    0  0.00000000000E+00  0.00000000000E+00  0.44855538488E+03  0.40115210571E+04  0.39863641653E+04 0.  0.
        3    1    3    3  502    0  0.12525888078E+04  0.75190918939E+03  0.15887210023E+04  0.21583281919E+04  0.10100000352E+00 0.  1.
       -3    1    3    3    0  502 -0.12525888078E+04 -0.75190918939E+03 -0.11401656174E+04  0.18531928652E+04  0.10100000352E+00 0. -1.
</event>
<event>
 5   0  0.2081337E-07  0.3820974E+04  0.7818609E-02  0.8041669E-01
       -2   -1    0    0    0  501  0.00000000000E+00  0.00000000000E+00  0.18338193685E+04  0.18338193685E+04  0.25500000920E-02 0. -1.
        2   -1    0    0  501    0  0.00000000000E+00  0.00000000000E+00 -0.19903601813E+04  0.19903601814E+04  0.25500000920E-02 0.  1.
    10030    2    1    2    0    0  0.00000000000E+00  0.00000000000E+00 -0.15654081289E+03  0.38241795498E+04  0.38209742479E+04 0.  0.
        1    1    3    3  502    0 -0.14352355186E+04 -0.12292856988E+04 -0.35942727522E+03  0.19235987860E+04  0.50400001928E-02 0.  1.
       -1    1    3    3    0  502  0.14352355186E+04  0.12292856988E+04  0.20288646233E+03  0.19005807638E+04  0.50400001928E-02 0. -1.
</event>
<event>
 5   0  0.6661000E-08  0.3783590E+04  0.7818609E-02  0.8049686E-01
       -3   -1    0    0    0  501  0.00000000000E+00  0.00000000000E+00  0.17848516336E+04  0.17848516364E+04  0.10100000352E+00 0.  1.
        3   -1    0    0  501    0  0.00000000000E+00  0.00000000000E+00 -0.20051460854E+04  0.20051460879E+04  0.10100000352E+00 0. -1.
    10030    2    1    2    0    0  0.00000000000E+00  0.00000000000E+00 -0.22029445179E+03  0.37899977243E+04  0.37835899758E+04 0.  0.
        2    1    3    3  502    0  0.27330630474E+03 -0.10375601058E+04 -0.16708812596E+04  0.19857168713E+04  0.25500000920E-02 0. -1.
       -2    1    3    3    0  502 -0.27330630474E+03  0.10375601058E+04  0.14505868078E+04  0.18042808530E+04  0.25500000920E-02 0.  1.
</event>
<event>
 5   0  0.1370688E-07  0.3800982E+04  0.7818609E-02  0.8045944E-01
       -2   -1    0    0    0  501  0.00000000000E+00  0.00000000000E+00  0.17156237104E+04  0.17156237104E+04  0.25500000920E-02 0. -1.
        2   -1    0    0  501    0  0.00000000000E+00  0.00000000000E+00 -0.21052784035E+04  0.21052784035E+04  0.25500000920E-02 0.  1.
    10030    2    1    2    0    0  0.00000000000E+00  0.00000000000E+00 -0.38965469316E+03  0.38209021139E+04  0.38009817395E+04 0.  0.
        5    1    3    3  502    0 -0.57226008098E+03 -0.55270058133E+03 -0.19298171186E+04  0.20873849032E+04  0.46999998093E+01 0.  1.
       -5    1    3    3    0  502  0.57226008098E+03  0.55270058133E+03  0.15401624255E+04  0.17335172107E+04  0.46999998093E+01 0. -1.
</event>
<event>
 5   0  0.6661000E-08  0.3544804E+04  0.7818609E-02  0.8103253E-01
        1   -1    0    0  501    0  0.00000000000E+00  0.00000000000E+00  0.29216143325E+04  0.29216143325E+04  0.50400001928E-02 0. -1.
       -1   -1    0    0    0  501  0.00000000000E+00  0.00000000000E+00 -0.10752304930E+04  0.10752304930E+04  0.50400001928E-02 0.  1.
    10030    2    1    2    0    0  0.00000000000E+00  0.00000000000E+00  0.18463838395E+04  0.39968448255E+04  0.35448039828E+04 0.  0.
        3    1    3    3  502    0 -0.13885787348E+04 -0.71138042435E+03 -0.24997048601E+02  0.15603967039E+04  0.10100000352E+00 0.  1.
       -3    1    3    3    0  502  0.13885787348E+04  0.71138042435E+03  0.18713808881E+04  0.24364481216E+04  0.10100000352E+00 0. -1.
</event>
<event>
 5   0  0.6661000E-08  0.3845793E+04  0.7818609E-02  0.8036399E-01
       -3   -1    0    0    0  501  0.00000000000E+00  0.00000000000E+00  0.12240023430E+04  0.12240023471E+04  0.10100000352E+00 0. -1.
        3   -1    0    0  501    0  0.00000000000E+00  0.00000000000E+00 -0.30208523886E+04  0.30208523903E+04  0.10100000352E+00 0.  1.
    10030    2    1    2    0    0  0.00000000000E+00  0.00000000000E+00 -0.17968500457E+04  0.42448547374E+04  0.38457927213E+04 0.  0.
        1    1    3    3  502    0  0.28964510830E+02 -0.45337288362E+03 -0.29607679050E+04  0.29954185854E+04  0.50400001928E-02 0.  1.
       -1    1    3    3    0  502 -0.28964510830E+02  0.45337288362E+03  0.11639178594E+04  0.12494361520E+04  0.50400001928E-02 0. -1.
</event>
<event>
 5   0  0.2205204E-07  0.3793340E+04  0.7818609E-02  0.8047586E-01
        2   -1    0    0  501    0  0.00000000000E+00  0.00000000000E+00  0.26948548946E+04  0.26948548946E+04  0.25500000920E-02 0. -1.
       -2   -1    0    0    0  501  0.00000000000E+00  0.00000000000E+00 -0.13348985084E+04  0.13348985084E+04  0.25500000920E-02 0.  1.
    10030    2    1    2    0    0  0.00000000000E+00  0.00000000000E+00  0.13599563862E+04  0.40297534030E+04  0.37933403639E+04 0.  0.
        2    1    3    3  502    0 -0.51272083077E+02  0.17700664220E+04  0.14017279537E+04  0.22584519524E+04  0.25500000920E-02 0. -1.
       -2    1    3    3    0  502  0.51272083077E+02 -0.17700664220E+04 -0.41771567583E+02  0.17713014506E+04  0.25500000920E-02 0.  1.
</event>
<event>
 5   0  0.6661000E-08  0.3772270E+04  0.7818609E-02  0.8052132E-01
       -1   -1    0    0    0  501  0.00000000000E+00  0.00000000000E+00  0.16916643896E+04  0.16916643896E+04  0.50400001928E-02 0.  1.
        1   -1    0    0  501    0  0.00000000000E+00  0.00000000000E+00 -0.21029616997E+04  0.21029616997E+04  0.50400001928E-02 0. -1.
    10030    2    1    2    0    0  0.00000000000E+00  0.00000000000E+00 -0.41129731002E+03  0.37946260893E+04  0.37722700964E+04 0.  0.
        1    1    3    3  502    0 -0.11797154153E+04  0.52878830134E+03 -0.15871631953E+04  0.20470546004E+04  0.50400001928E-02 0. -1.
       -1    1    3    3    0  502  0.11797154153E+04 -0.52878830134E+03  0.11758658852E+04  0.17475714889E+04  0.50400001928E-02 0.  1.
</event>
<event>
 5   0  0.2203998E-07  0.3865525E+04  0.7818609E-02  0.8032238E-01
        2   -1    0    0  501    0  0.00000000000E+00  0.00000000000E+00  0.22369408607E+04  0.22369408607E+04  0.25500000920E-02 0.  1.
       -2   -1    0    0    0  501  0.00000000000E+00  0.00000000000E+00 -0.16699463034E+04  0.16699463034E+04  0.25500000920E-02 0. -1.
    10030    2    1    2    0    0  0.00000000000E+00  0.00000000000E+00  0.56699455733E+03  0.39068871642E+04  0.38655251242E+04 0.  0.
        3    1    3    3  502    0 -0.15114700863E+04  0.10853480700E+04 -0.24463480214E+03  0.18767973922E+04  0.10100000352E+00 0.  1.
       -3    1    3    3    0  502  0.15114700863E+04 -0.10853480700E+04  0.81162935947E+03  0.20300897719E+04  0.10100000352E+00 0. -1.
</event>
<event>
 5   0  0.2205204E-07  0.3806279E+04  0.7818609E-02  0.8044809E-01
       -2   -1    0    0    0  501  0.00000000000E+00  0.00000000000E+00  0.17637708136E+04  0.17637708136E+04  0.25500000920E-02 0. -1.
        2   -1    0    0  501    0  0.00000000000E+00  0.00000000000E+00 -0.20535205490E+04  0.20535205490E+04  0.25500000920E-02 0.  1.
    10030    2    1    2    0    0  0.00000000000E+00  0.00000000000E+00 -0.28974973536E+03  0.38172913626E+04  0.38062788176E+04 0.  0.
        2    1    3    3  502    0 -0.14528025141E+04 -0.12293416938E+04 -0.14001684064E+03  0.19082769350E+04  0.25500000920E-02 0.  1.
       -2    1    3    3    0  502  0.14528025141E+04  0.12293416938E+04 -0.14973289473E+03  0.19090144276E+04  0.25500000920E-02 0. -1.
</event>
<event>
 5   0  0.6661000E-08  0.3807433E+04  0.7818609E-02  0.8044562E-01
        1   -1    0    0  501    0  0.00000000000E+00  0.00000000000E+00  0.24442267935E+04  0.24442267935E+04  0.50400001928E-02 0. -1.
       -1   -1    0    0    0  501  0.00000000000E+00  0.00000000000E+00 -0.14827333560E+04  0.14827333560E+04  0.50400001928E-02 0.  1.
    10030    2    1    2    0    0  0.00000000000E+00  0.00000000000E+00  0.96149343743E+03  0.39269601495E+04  0.38074330441E+04 0.  0.
        1    1    3    3  502    0 -0.16679086666E+03  0.15005316232E+04  0.16767724272E+04  0.22563200390E+04  0.50400001928E-02 0.  1.
       -1    1    3    3    0  502  0.16679086666E+03 -0.15005316232E+04 -0.71527898982E+03  0.16706401105E+04  0.50400001928E-02 0. -1.
</event>
<event>
 5   0  0.1370688E-07  0.3799903E+04  0.7818609E-02  0.8046176E-01
       -2   -1    0    0    0  501  0.00000000000E+00  0.00000000000E+00  0.18892282652E+04  0.18892282652E+04  0.25500000920E-02 0. -1.
        2   -1    0    0  501    0  0.00000000000E+00  0.00000000000E+00 -0.19107360279E+04  0.19107360279E+04  0.25500000920E-02 0.  1.
    10030    2    1    2    0    0  0.00000000000E+00  0.00000000000E+00 -0.21507762790E+02  0.37999642931E+04  0.37999034258E+04 0.  0.
        5    1    3    3  502    0  0.37058960085E+03  0.12218116406E+04 -0.14177711181E+04  0.19079458511E+04  0.46999998093E+01 0.  1.
       -5    1    3    3    0  502 -0.37058960085E+03 -0.12218116406E+04  0.13962633553E+04  0.18920184420E+04  0.46999998093E+01 0. -1.
</event>
<event>
 5   0  0.2205204E-07  0.3807363E+04  0.7818609E-02  0.8044577E-01
       -2   -1    0    0    0  501  0.00000000000E+00  0.00000000000E+00  0.16276805031E+04  0.16276805031E+04  0.25500000920E-02 0.  1.
        2   -1    0    0  501    0  0.00000000000E+00  0.00000000000E+00 -0.22264826227E+04  0.22264826227E+04  0.25500000920E-02 0. -1.
    10030    2    1    2    0    0  0.00000000000E+00  0.00000000000E+00 -0.59880211970E+03  0.38541631258E+04  0.38073625283E+04 0.  0.
        2    1    3    3  502    0 -0.10138715694E+04  0.75372215229E+03 -0.17409739056E+04  0.21510515526E+04  0.25500000920E-02 0. -1.
       -2    1    3    3    0  502  0.10138715694E+04 -0.75372215229E+03  0.11421717859E+04  0.17031115732E+04  0.25500000920E-02 0.  1.
</event>
<event>
 5   0  0.1370688E-07  0.3450326E+04  0.7818609E-02  0.8125664E-01
       -2   -1    0    0    0  501  0.00000000000E+00  0.00000000000E+00  0.14186874800E+04  0.14186874800E+04  0.25500000920E-02 0. -1.
        2   -1    0    0  501    0  0.00000000000E+00  0.00000000000E+00 -0.20978459731E+04  0.20978459731E+04  0.25500000920E-02 0.  1.
    10030    2    1    2    0    0  0.00000000000E+00  0.00000000000E+00 -0.67915849312E+03  0.35165334531E+04  0.34503262553E+04 0.  0.
        5    1    3    3  502    0  0.16322185973E+03  0.12906784124E+04 -0.14943130859E+04  0.19812838838E+04  0.46999998093E+01 0.  1.
       -5    1    3    3    0  502 -0.16322185973E+03 -0.12906784124E+04  0.81515459280E+03  0.15352495692E+04  0.46999998093E+01 0. -1.
</event>
<event>
 5   0  0.6661000E-08  0.3811068E+04  0.7818609E-02  0.8043784E-01
       -1   -1    0    0    0  501  0.00000000000E+00  0.00000000000E+00  0.16093405383E+04  0.16093405383E+04  0.50400001928E-02 0.  1.
        1   -1    0    0  501    0  0.00000000000E+00  0.00000000000E+00 -0.22562407637E+04  0.22562407637E+04  0.50400001928E-02 0. -1.
    10030    2    1    2    0    0  0.00000000000E+00  0.00000000000E+00 -0.64690022545E+03  0.38655813020E+04  0.38110679475E+04 0.  0.
        4    1    3    3  502    0  0.12443641291E+04  0.92569055708E+03 -0.14464055428E+04  0.21207158462E+04  0.12699999809E+01 0. -1.
       -4    1    3    3    0  502 -0.12443641291E+04 -0.92569055708E+03  0.79950531736E+03  0.17448654558E+04  0.12699999809E+01 0.  1.
</event>
<event>
 5   0  0.2135314E-07  0.3794555E+04  0.7818609E-02  0.8047324E-01
        2   -1    0    0  501    0  0.00000000000E+00  0.00000000000E+00  0.14537250880E+04  0.14537250880E+04  0.25500000920E-02 0.  1.
       -2   -1    0    0    0  501  0.00000000000E+00  0.00000000000E+00 -0.24761643510E+04  0.24761643510E+04  0.25500000920E-02 0. -1.
    10030    2    1    2    0    0  0.00000000000E+00  0.00000000000E+00 -0.10224392630E+04  0.39298894390E+04  0.37945551724E+04 0.  0.
        4    1    3    3  502    0 -0.18348489524E+04 -0.13397392966E+03 -0.30955635903E+02  0.18399944446E+04  0.12699999809E+01 0. -1.
       -4    1    3    3    0  502  0.18348489524E+04  0.13397392966E+03 -0.99148362712E+03  0.20898949944E+04  0.12699999809E+01 0.  1.
</event>
<event>
 5   0  0.2203998E-07  0.3831943E+04  0.7818609E-02  0.8039335E-01
        2   -1    0    0  501    0  0.00000000000E+00  0.00000000000E+00  0.26540809792E+04  0.26540809792E+04  0.25500000920E-02 0. -1.
       -2   -1    0    0    0  501  0.00000000000E+00  0.00000000000E+00 -0.13831326284E+04  0.13831326284E+04  0.25500000920E-02 0.  1.
    10030    2    1    2    0    0  0.00000000000E+00  0.00000000000E+00  0.12709483509E+04  0.40372136076E+04  0.38319425887E+04 0.  0.
        3    1    3    3  502    0 -0.17533613684E+04  0.76514870658E+03  0.52388860230E+03  0.19834787393E+04  0.10100000352E+00 0. -1.
       -3    1    3    3    0  502  0.17533613684E+04 -0.76514870658E+03  0.74705974856E+03  0.20537348684E+04  0.10100000352E+00 0.  1.
</event>
<event>
 5   0  0.1370688E-07  0.3791624E+04  0.7818609E-02  0.8047955E-01
        2   -1    0    0  501    0  0.00000000000E+00  0.00000000000E+00  0.20283881068E+04  0.20283881068E+04  0.25500000920E-02 0.  1.
       -2   -1    0    0    0  501  0.00000000000E+00  0.00000000000E+00 -0.17719012560E+04  0.17719012560E+04  0.25500000920E-02 0. -1.
    10030    2    1    2    0    0  0.00000000000E+00  0.00000000000E+00  0.25648685082E+03  0.38002893629E+04  0.37916241555E+04 0.  0.
        5    1    3    3  502    0 -0.34101606121E+02  0.44463102219E+03 -0.17185803305E+04  0.17754999600E+04  0.46999998093E+01 0. -1.
       -5    1    3    3    0  502  0.34101606121E+02 -0.44463102219E+03  0.19750671813E+04  0.20247894029E+04  0.46999998093E+01 0.  1.
</event>
<event>
 5   0  0.2203998E-07  0.3796654E+04  0.7818609E-02  0.8046873E-01
       -2   -1    0    0    0  501  0.00000000000E+00  0.00000000000E+00  0.17622027533E+04  0.17622027533E+04  0.25500000920E-02 0. -1.
        2   -1    0    0  501    0  0.00000000000E+00  0.00000000000E+00 -0.20449658672E+04  0.20449658672E+04  0.25500000920E-02 0.  1.
    10030    2    1    2    0    0  0.00000000000E+00  0.00000000000E+00 -0.28276311394E+03  0.38071686205E+04  0.37966535167E+04 0.  0.
        3    1    3    3  502    0 -0.74780754989E+02  0.11400406578E+04 -0.16616144934E+04  0.20164938874E+04  0.10100000352E+00 0.  1.
       -3    1    3    3    0  502  0.74780754989E+02 -0.11400406578E+04  0.13788513795E+04  0.17906747331E+04  0.10100000352E+00 0. -1.
</event>
<event>
 5   0  0.6661000E-08  0.3772569E+04  0.7818609E-02  0.8052067E-01
        1   -1    0    0  501    0  0.00000000000E+00  0.00000000000E+00  0.17304350253E+04  0.17304350253E+04  0.50400001928E-02 0. -1.
       -1   -1    0    0    0  501  0.00000000000E+00  0.00000000000E+00 -0.20561702682E+04  0.20561702682E+04  0.50400001928E-02 0.  1.
    10030    2    1    2    0    0  0.00000000000E+00  0.00000000000E+00 -0.32573524286E+03  0.37866052935E+04  0.37725689126E+04 0.  0.
        3    1    3    3  502    0 -0.96516628136E+03 -0.15667857323E+04  0.25304780890E+03  0.18575243432E+04  0.10100000352E+00 0.  1.
       -3    1    3    3    0  502  0.96516628136E+03  0.15667857323E+04 -0.57878305177E+03  0.19290809503E+04  0.10100000352E+00 0. -1.
</event>
<event>
 5   0  0.6661000E-08  0.3789764E+04  0.7818609E-02  0.8048355E-01
       -1   -1    0    0    0  501  0.00000000000E+00  0.00000000000E+00  0.19243034273E+04  0.19243034273E+04  0.50400001928E-02 0. -1.
        1   -1    0    0  501    0  0.00000000000E+00  0.00000000000E+00 -0.18659104712E+04  0.18659104712E+04  0.50400001928E-02 0.  1.
    10030    2    1    2    0    0  0.00000000000E+00  0.00000000000E+00  0.58392956132E+02  0.37902138985E+04  0.37897640638E+04 0.  0.
        3    1    3    3  502    0 -0.16306873023E+04  0.19040619063E+03 -0.91705657132E+03  0.18805287449E+04  0.10100000352E+00 0.  1.
       -3    1    3    3    0  502  0.16306873023E+04 -0.19040619063E+03  0.97544952745E+03  0.19096851536E+04  0.10100000352E+00 0. -1.
</event>
<event>
 5   0  0.2135314E-07  0.3829592E+04  0.7818609E-02  0.8039834E-01
        2   -1    0    0  501    0  0.00000000000E+00  0.00000000000E+00  0.21890141178E+04  0.21890141178E+04  0.25500000920E-02 0.  1.
       -2   -1    0    0    0  501  0.00000000000E+00  0.00000000000E+00 -0.16749294389E+04  0.16749294389E+04  0.25500000920E-02 0. -1.
    10030    2    1    2    0    0  0.00000000000E+00  0.00000000000E+00  0.51408467893E+03  0.38639435566E+04  0.38295922435E+04 0.  0.
        4    1    3    3  502    0  0.53133027251E+03 -0.10440610990E+04  0.17852462293E+04  0.21352941599E+04  0.12699999809E+01 0.  1.
       -4    1    3    3    0  502 -0.53133027251E+03  0.10440610990E+04 -0.12711615504E+04  0.17286493968E+04  0.12699999809E+01 0. -1.
</event>
<event>
 5   0  0.6725199E-08  0.3546072E+04  0.7818609E-02  0.8102957E-01
       -1   -1    0    0    0  501  0.00000000000E+00  0.00000000000E+00  0.14220499712E+04  0.14220499712E+04  0.50400001928E-02 0.  1.
        1   -1    0    0  501    0  0.00000000000E+00  0.00000000000E+00 -0.22106512267E+04  0.22106512267E+04  0.50400001928E-02 0. -1.
    10030    2    1    2    0    0  0.00000000000E+00  0.00000000000E+00 -0.78860125543E+03  0.36327011979E+04  0.35460719188E+04 0.  0.
        5    1    3    3  502    0 -0.27130417348E+02 -0.17228368633E+04 -0.82252141736E+03  0.19093104748E+04  0.46999998093E+01 0. -1.
       -5    1    3    3    0  502  0.27130417348E+02  0.17228368633E+04  0.33920161924E+02  0.17233907231E+04  0.46999998093E+01 0.  1.
</event>
<event>
 5   0  0.6725199E-08  0.3788729E+04  0.7818609E-02  0.8048578E-01
       -1   -1    0    0    0  501  0.00000000000E+00  0.00000000000E+00  0.20021957350E+04  0.20021957350E+04  0.50400001928E-02 0. -1.
        1   -1    0    0  501    0  0.00000000000E+00  0.00000000000E+00 -0.17923406361E+04  0.17923406361E+04  0.50400001928E-02 0.  1.
    10030    2    1    2    0    0  0.00000000000E+00  0.00000000000E+00  0.20985509886E+03  0.37945363711E+04  0.37887289569E+04 0.  0.
        5    1    3    3  502    0  0.10673135085E+03 -0.44858908137E+03 -0.17352703585E+04  0.17954968817E+04  0.46999998093E+01 0.  1.
       -5    1    3    3    0  502 -0.10673135085E+03  0.44858908137E+03  0.19451254573E+04  0.19990394894E+04  0.46999998093E+01 0. -1.
</event>
<event>
 5   0  0.6661000E-08  0.3811621E+04  0.7818609E-02  0.8043666E-01
        1   -1    0    0  501    0  0.00000000000E+00  0.00000000000E+00  0.19442918269E+04  0.19442918269E+04  0.50400001928E-02 0.  1.
       -1   -1    0    0    0  501  0.00000000000E+00  0.00000000000E+00 -0.18680904703E+04  0.18680904703E+04  0.50400001928E-02 0. -1.
    10030    2    1    2    0    0  0.00000000000E+00  0.00000000000E+00  0.76201356570E+02  0.38123822973E+04  0.38116206702E+04 0.  0.
        3    1    3    3  502    0 -0.12547248994E+04 -0.72740452962E+03 -0.11985367248E+04  0.18814734156E+04  0.10100000352E+00 0. -1.
       -3    1    3    3    0  502  0.12547248994E+04  0.72740452962E+03  0.12747380813E+04  0.19309088816E+04  0.10100000352E+00 0.  1.
</event>
<event>
 5   0  0.6725199E-08  0.3795024E+04  0.7818609E-02  0.8047224E-01
       -1   -1    0    0    0  501  0.00000000000E+00  0.00000000000E+00  0.17768146026E+04  0.17768146026E+04  0.50400001928E-02 0.  1.
        1   -1    0    0  501    0  0.00000000000E+00  0.00000000000E+00 -0.20264083430E+04  0.20264083430E+04  0.50400001928E-02 0. -1.
    10030    2    1    2    0    0  0.00000000000E+00  0.00000000000E+00 -0.24959374040E+03  0.38032229455E+04  0.37950240761E+04 0.  0.
        5    1    3    3  502    0  0.60901583259E+03  0.15758266989E+04 -0.99060767066E+03  0.19584319535E+04  0.46999998093E+01 0. -1.
       -5    1    3    3    0  502 -0.60901583259E+03 -0.15758266989E+04  0.74101393027E+03  0.18447909920E+04  0.46999998093E+01 0.  1.
</event>
<event>
 5   0  0.6661000E-08  0.3707743E+04  0.7818609E-02  0.8066248E-01
        1   -1    0    0  501    0  0.00000000000E+00  0.00000000000E+00  0.30597231283E+04  0.30597231283E+04  0.50400001928E-02 0.  1.
       -1   -1    0    0    0  501  0.00000000000E+00  0.00000000000E+00 -0.11232515441E+04  0.11232515441E+04  0.50400001928E-02 0. -1.
    10030    2    1    2    0    0  0.00000000000E+00  0.00000000000E+00  0.19364715842E+04  0.41829746724E+04  0.37077425631E+04 0.  0.
        1    1    3    3  502    0  0.69144280967E+03 -0.11892970433E+03  0.29041625022E+04  0.29877076954E+04  0.50400001928E-02 0.  1.
       -1    1    3    3    0  502 -0.69144280967E+03  0.11892970433E+03 -0.96769091803E+03  0.11952669771E+04  0.50400001928E-02 0. -1.
</event>
<event>
 5   0  0.2081337E-07  0.3810142E+04  0.7818609E-02  0.8043982E-01
       -2   -1    0    0    0  501  0.00000000000E+00  0.00000000000E+00  0.13357997296E+04  0.13357997296E+04  0.25500000920E-02 0.  1.
        2   -1    0    0  501    0  0.00000000000E+00  0.00000000000E+00 -0.27169462329E+04  0.27169462329E+04  0.25500000920E-02 0. -1.
    10030    2    1    2    0    0  0.00000000000E+00  0.00000000000E+00 -0.13811465034E+04  0.40527459625E+04  0.38101422772E+04 0.  0.
        1    1    3    3  502    0 -0.28071542804E+03 -0.58215431542E+03  0.12156261161E+04  0.13767540276E+04  0.50400001928E-02 0.  1.
       -1    1    3    3    0  502  0.28071542804E+03  0.58215431542E+03 -0.25967726194E+04  0.26759919349E+04  0.50400001928E-02 0. -1.
</event>
<event>
 5   0  0.6661000E-08  0.3792158E+04  0.7818609E-02  0.8047840E-01
       -1   -1    0    0    0  501  0.00000000000E+00  0.00000000000E+00  0.19201723752E+04  0.19201723752E+04  0.50400001928E-02 0.  1.
        1   -1    0    0  501    0  0.00000000000E+00  0.00000000000E+00 -0.18722876846E+04  0.18722876846E+04  0.50400001928E-02 0. -1.
    10030    2    1    2    0    0  0.00000000000E+00  0.00000000000E+00  0.47884690628E+02  0.37924600598E+04  0.37921577448E+04 0.  0.
        2    1    3    3  502    0  0.79767549646E+03 -0.10333803080E+04 -0.13512869234E+04  0.18788659899E+04  0.25500000920E-02 0. -1.
       -2    1    3    3    0  502 -0.79767549646E+03  0.10333803080E+04  0.13991716141E+04  0.19135940699E+04  0.25500000920E-02 0.  1.
</event>
<event>
 5   0  0.6661000E-08  0.3579800E+04  0.7818609E-02  0.8095134E-01
        1   -1    0    0  501    0  0.00000000000E+00  0.00000000000E+00  0.20495991415E+04  0.20495991415E+04  0.50400001928E-02 0.  1.
       -1   -1    0    0    0  501  0.00000000000E+00  0.00000000000E+00 -0.15631068594E+04  0.15631068594E+04  0.50400001928E-02 0. -1.
    10030    2    1    2    0    0  0.00000000000E+00  0.00000000000E+00  0.48649228212E+03  0.36127060009E+04  0.35798002610E+04 0.  0.
        3    1    3    3  502    0  0.30864288780E+03 -0.11254438559E+04  0.16128719040E+04  0.19907888120E+04  0.10100000352E+00 0.  1.
       -3    1    3    3    0  502 -0.30864288780E+03  0.11254438559E+04 -0.11263796219E+04  0.16219171889E+04  0.10100000352E+00 0. -1.
</event>
<event>
 5   0  0.6661000E-08  0.3736425E+04  0.7818609E-02  0.8059937E-01
        1   -1    0    0  501    0  0.00000000000E+00  0.00000000000E+00  0.18352834146E+04  0.18352834146E+04  0.50400001928E-02 0. -1.
       -1   -1    0    0    0  501  0.00000000000E+00  0.00000000000E+00 -0.19017322321E+04  0.19017322321E+04  0.50400001928E-02 0.  1.
    10030    2    1    2    0    0  0.00000000000E+00  0.00000000000E+00 -0.66448817525E+02  0.37370156467E+04  0.37364248284E+04 0.  0.
        2    1    3    3  502    0 -0.23120224299E+03  0.47196322101E+03  0.17598261680E+04  0.18366251389E+04  0.25500000920E-02 0. -1.
       -2    1    3    3    0  502  0.23120224299E+03 -0.47196322101E+03 -0.18262749856E+04  0.19003905078E+04  0.25500000920E-02 0.  1.
</event>
<event>
 5   0  0.6661000E-08  0.3805691E+04  0.7818609E-02  0.8044935E-01
        1   -1    0    0  501    0  0.00000000000E+00  0.00000000000E+00  0.23459089446E+04  0.23459089446E+04  0.50400001928E-02 0.  1.
       -1   -1    0    0    0  501  0.00000000000E+00  0.00000000000E+00 -0.15434622469E+04  0.15434622469E+04  0.50400001928E-02 0. -1.
    10030    2    1    2    0    0  0.00000000000E+00  0.00000000000E+00  0.80244669770E+03  0.38893711915E+04  0.38056914697E+04 0.  0.
        3    1    3    3  502    0 -0.13026029515E+04  0.10048776804E+04 -0.57597481480E+03  0.17430721727E+04  0.10100000352E+00 0. -1.
       -3    1    3    3    0  502  0.13026029515E+04 -0.10048776804E+04  0.13784215125E+04  0.21462990188E+04  0.10100000352E+00 0.  1.
</event>
<event>
 5   0  0.1370688E-07  0.3773284E+04  0.7818609E-02  0.8051912E-01
        2   -1    0    0  501    0  0.00000000000E+00  0.00000000000E+00  0.21677145467E+04  0.21677145467E+04  0.25500000920E-02 0. -1.
       -2   -1    0    0    0  501  0.00000000000E+00  0.00000000000E+00 -0.16420141162E+04  0.16420141162E+04  0.25500000920E-02 0.  1.
    10030    2    1    2    0    0  0.00000000000E+00  0.00000000000E+00  0.52570043052E+03  0.38097286629E+04  0.37732839201E+04 0.  0.
        5    1    3    3  502    0 -0.10813986854E+04 -0.11175242770E+04  0.13413963554E+04  0.20536917731E+04  0.46999998093E+01 0. -1.
       -5    1    3    3    0  502  0.10813986854E+04  0.11175242770E+04 -0.81569592489E+03  0.17560368898E+04  0.46999998093E+01 0.  1.
</event>
<event>
 5   0  0.2081337E-07  0.3801818E+04  0.7818609E-02  0.8045765E-01
        2   -1    0    0  501    0  0.00000000000E+00  0.00000000000E+00  0.13615906708E+04  0.13615906708E+04  0.25500000920E-02 0. -1.
       -2   -1    0    0    0  501  0.00000000000E+00  0.00000000000E+00 -0.26538485588E+04  0.26538485588E+04  0.25500000920E-02 0.  1.
    10030    2    1    2    0    0  0.00000000000E+00  0.00000000000E+00 -0.12922578881E+04  0.40154392296E+04  0.38018182173E+04 0.  0.
        1    1    3    3  502    0  0.18334536521E+04  0.80926264147E+02 -0.12296433568E+03  0.18393535773E+04  0.50400001928E-02 0. -1.
       -1    1    3    3    0  502 -0.18334536521E+04 -0.80926264147E+02 -0.11692935524E+04  0.21760856523E+04  0.50400001928E-02 0.  1.
</event>
<event>
 5   0  0.6661000E-08  0.3786782E+04  0.7818609E-02  0.8048997E-01
       -1   -1    0    0    0  501  0.00000000000E+00  0.00000000000E+00  0.19976268915E+04  0.19976268915E+04  0.50400001928E-02 0. -1.
        1   -1    0    0  501    0  0.00000000000E+00  0.00000000000E+00 -0.17945941596E+04  0.17945941596E+04  0.50400001928E-02 0.  1.
    10030    2    1    2    0    0  0.00000000000E+00  0.00000000000E+00  0.20303273185E+03  0.37922210511E+04  0.37867820389E+04 0.  0.
        1    1    3    3  502    0 -0.48455599243E+03 -0.54764263596E+03  0.18505135186E+04  0.19897505495E+04  0.50400001928E-02 0. -1.
       -1    1    3    3    0  502  0.48455599243E+03  0.54764263596E+03 -0.16474807868E+04  0.18024705016E+04  0.50400001928E-02 0.  1.
</event>
<event>
 5   0  0.2205204E-07  0.3795222E+04  0.7818609E-02  0.8047181E-01
       -2   -1    0    0    0  501  0.00000000000E+00  0.00000000000E+00  0.29546759192E+04  0.29546759192E+04  0.25500000920E-02 0. -1.
        2   -1    0    0  501    0  0.00000000000E+00  0.00000000000E+00 -0.12187218032E+04  0.12187218032E+04  0.25500000920E-02 0.  1.
    10030    2    1    2    0    0  0.00000000000E+00  0.00000000000E+00  0.17359541161E+04  0.41733977224E+04  0.37952222407E+04 0.  0.
        2    1    3    3  502    0 -0.13764264961E+04  0.10905334633E+04  0.77214570541E+02  0.17577756465E+04  0.25500000920E-02 0.  1.
       -2    1    3    3    0  502  0.13764264961E+04 -0.10905334633E+04  0.16587395455E+04  0.24156220759E+04  0.25500000920E-02 0. -1.
</event>
<event>
 5   0  0.1370688E-07  0.3813438E+04  0.7818609E-02  0.8043277E-01
       -2   -1    0    0    0  501  0.00000000000E+00  0.00000000000E+00  0.20384332390E+04  0.20384332390E+04  0.25500000920E-02 0.  1.
        2   -1    0    0  501    0  0.00000000000E+00  0.00000000000E+00 -0.17835158602E+04  0.17835158602E+04  0.25500000920E-02 0. -1.
    10030    2    1    2    0    0  0.00000000000E+00  0.00000000000E+00  0.25491737878E+03  0.38219490992E+04  0.38134383497E+04 0.  0.
        5    1    3    3  502    0 -0.45570783276E+03  0.76911778645E+03  0.18153622513E+04  0.20235547909E+04  0.46999998093E+01 0.  1.
       -5    1    3    3    0  502  0.45570783276E+03 -0.76911778645E+03 -0.15604448725E+04  0.17983943084E+04  0.46999998093E+01 0. -1.
</event>
<event>
 5   0  0.1370688E-07  0.3795257E+04  0.7818609E-02  0.8047174E-01
        2   -1    0    0  501    0  0.00000000000E+00  0.00000000000E+00  0.21967462751E+04  0.21967462751E+04  0.25500000920E-02 0. -1.
       -2   -1    0    0    0  501  0.00000000000E+00  0.00000000000E+00 -0.16392395543E+04  0.16392395543E+04  0.25500000920E-02 0.  1.
    10030    2    1    2    0    0  0.00000000000E+00  0.00000000000E+00  0.55750672081E+03  0.38359858294E+04  0.37952567159E+04 0.  0.
        5    1    3    3  502    0  0.18159660985E+04 -0.41162110007E+03  0.64847462697E+03  0.19717267135E+04  0.46999998093E+01 0.  1.
       -5    1    3    3    0  502 -0.18159660985E+04  0.41162110007E+03 -0.90967906163E+02  0.18642591158E+04  0.46999998093E+01 0. -1.
</event>
<event>
 5   0  0.2205204E-07  0.3846676E+04  0.7818609E-02  0.8036212E-01
        2   -1    0    0  501    0  0.00000000000E+00  0.00000000000E+00  0.24187934778E+04  0.24187934778E+04  0.25500000920E-02 0. -1.
       -2   -1    0    0    0  501  0.00000000000E+00  0.00000000000E+00 -0.15293696043E+04  0.15293696043E+04  0.25500000920E-02 0.  1.
    10030    2    1    2    0    0  0.00000000000E+00  0.00000000000E+00  0.88942387352E+03  0.39481630821E+04  0.38466760841E+04 0.  0.
        2    1    3    3  502    0 -0.14887387074E+04  0.10950031663E+04 -0.10212424682E+03  0.18508928210E+04  0.25500000920E-02 0.  1.
       -2    1    3    3    0  502  0.14887387074E+04 -0.10950031663E+04  0.99154812034E+03  0.20972702611E+04  0.25500000920E-02 0. -1.
</event>
<event>
 5   0  0.2203998E-07  0.3792713E+04  0.7818609E-02  0.8047721E-01
       -2   -1    0    0    0  501  0.00000000000E+00  0.00000000000E+00  0.15906228494E+04  0.15906228494E+04  0.25500000920E-02 0.  1.
        2   -1    0    0  501    0  0.00000000000E+00  0.00000000000E+00 -0.22608549535E+04  0.22608549535E+04  0.25500000920E-02 0. -1.
    10030    2    1    2    0    0  0.00000000000E+00  0.00000000000E+00 -0.67023210410E+03  0.38514778029E+04  0.37927127749E+04 0.  0.
        3    1    3    3  502    0  0.66476210559E+03  0.14105567630E+04  0.76076569464E+03  0.17350341470E+04  0.10100000352E+00 0.  1.
       -3    1    3    3    0  502 -0.66476210559E+03 -0.14105567630E+04 -0.14309977987E+04  0.21164436560E+04  0.10100000352E+00 0. -1.
</event>
<event>
 5   0  0.6725199E-08  0.3733400E+04  0.7818609E-02  0.8060600E-01
       -1   -1    0    0    0  501  0.00000000000E+00  0.00000000000E+00  0.22541823074E+04  0.22541823074E+04  0.50400001928E-02 0.  1.
        1   -1    0    0  501    0  0.00000000000E+00  0.00000000000E+00 -0.15458241894E+04  0.15458241895E+04  0.50400001928E-02 0. -1.
    10030    2    1    2    0    0  0.00000000000E+00  0.00000000000E+00  0.70835811799E+03  0.38000064969E+04  0.37334003473E+04 0.  0.
        5    1    3    3  502    0 -0.35477096750E+03 -0.18325318197E+04  0.37721328355E+03  0.19042970516E+04  0.46999998093E+01 0.  1.
       -5    1    3    3    0  502  0.35477096750E+03  0.18325318197E+04  0.33114483444E+03  0.18957094453E+04  0.46999998093E+01 0. -1.
</event>
<event>
 5   0  0.6661000E-08  0.3812401E+04  0.7818609E-02  0.8043499E-01
        1   -1    0    0  501    0  0.00000000000E+00  0.00000000000E+00  0.11970302114E+04  0.11970302114E+04  0.50400001928E-02 0.  1.
       -1   -1    0    0    0  501  0.00000000000E+00  0.00000000000E+00 -0.30355128391E+04  0.30355128391E+04  0.50400001928E-02 0. -1.
    10030    2    1    2    0    0  0.00000000000E+00  0.00000000000E+00 -0.18384826277E+04  0.42325430505E+04  0.38124011203E+04 0.  0.
        3    1    3    3  502    0  0.77400219961E+03  0.21157923395E+03  0.10004023700E+04  0.12824391172E+04  0.10100000352E+00 0.  1.
       -3    1    3    3    0  502 -0.77400219961E+03 -0.21157923395E+03 -0.28388849977E+04  0.29501039333E+04  0.10100000352E+00 0. -1.
</event>
<event>
 5   0  0.2081337E-07  0.3760752E+04  0.7818609E-02  0.8054630E-01
       -2   -1    0    0    0  501  0.00000000000E+00  0.00000000000E+00  0.31860666895E+04  0.31860666895E+04  0.25500000920E-02 0.  1.
        2   -1    0    0  501    0  0.00000000000E+00  0.00000000000E+00 -0.11097739196E+04  0.11097739196E+04  0.25500000920E-02 0. -1.
    10030    2    1    2    0    0  0.00000000000E+00  0.00000000000E+00  0.20762927699E+04  0.42958406091E+04  0.37607519025E+04 0.  0.
        1    1    3    3  502    0 -0.13149343939E+04  0.11309398446E+04  0.20833006898E+03  0.17468482504E+04  0.50400001928E-02 0.  1.
       -1    1    3    3    0  502  0.13149343939E+04 -0.11309398446E+04  0.18679627010E+04  0.25489923587E+04  0.50400001928E-02 0. -1.
</event>
<event>
 5   0  0.6661000E-08  0.3810487E+04  0.7818609E-02  0.8043908E-01
        1   -1    0    0  501    0  0.00000000000E+00  0.00000000000E+00  0.19483614210E+04  0.19483614210E+04  0.50400001928E-02 0.  1.
       -1   -1    0    0    0  501  0.00000000000E+00  0.00000000000E+00 -0.18630800909E+04  0.18630800910E+04  0.50400001928E-02 0. -1.
    10030    2    1    2    0    0  0.00000000000E+00  0.00000000000E+00  0.85281330094E+02  0.38114415120E+04  0.38104873040E+04 0.  0.
        2    1    3    3  502    0 -0.70951001821E+03  0.93812961017E+03  0.15418361106E+04  0.19392653824E+04  0.25500000920E-02 0.  1.
       -2    1    3    3    0  502  0.70951001821E+03 -0.93812961017E+03 -0.14565547805E+04  0.18721761296E+04  0.25500000920E-02 0. -1.
</event>
<event>
 5   0  0.6661000E-08  0.3768019E+04  0.7818609E-02  0.8053053E-01
        1   -1    0    0  501    0  0.00000000000E+00  0.00000000000E+00  0.20877689560E+04  0.20877689560E+04  0.50400001928E-02 0.  1.
       -1   -1    0    0    0  501  0.00000000000E+00  0.00000000000E+00 -0.17001364275E+04  0.17001364275E+04  0.50400001928E-02 0. -1.
    10030    2    1    2    0    0  0.00000000000E+00  0.00000000000E+00  0.38763252847E+03  0.37879053835E+04  0.37680191371E+04 0.  0.
        2    1    3    3  502    0  0.72004357006E+03  0.15736425225E+04 -0.55488177853E+03  0.18173352249E+04  0.25500000920E-02 0. -1.
       -2    1    3    3    0  502 -0.72004357006E+03 -0.15736425225E+04  0.94251430700E+03  0.19705701587E+04  0.25500000920E-02 0.  1.
</event>
<event>
 5   0  0.2135314E-07  0.3945343E+04  0.7818609E-02  0.8015664E-01
        2   -1    0    0  501    0  0.00000000000E+00  0.00000000000E+00  0.25303370488E+04  0.25303370488E+04  0.25500000920E-02 0.  1.
       -2   -1    0    0    0  501  0.00000000000E+00  0.00000000000E+00 -0.15379111673E+04  0.15379111673E+04  0.25500000920E-02 0. -1.
    10030    2    1    2    0    0  0.00000000000E+00  0.00000000000E+00  0.99242588150E+03  0.40682482160E+04  0.39453433839E+04 0.  0.
        4    1    3    3  502    0 -0.19058662318E+04 -0.19038136855E+03  0.94253387413E+01  0.19153750570E+04  0.12699999809E+01 0. -1.
       -4    1    3    3    0  502  0.19058662318E+04  0.19038136855E+03  0.98300054276E+03  0.21528731590E+04  0.12699999809E+01 0.  1.
</event>
<event>
 5   0  0.2205204E-07  0.3856622E+04  0.7818609E-02  0.8034112E-01
        2   -1    0    0  501    0  0.00000000000E+00  0.00000000000E+00  0.16095721687E+04  0.16095721687E+04  0.25500000920E-02 0. -1.
       -2   -1    0    0    0  501  0.00000000000E+00  0.00000000000E+00 -0.23101688482E+04  0.23101688482E+04  0.25500000920E-02 0.  1.
    10030    2    1    2    0    0  0.00000000000E+00  0.00000000000E+00 -0.70059667944E+03  0.39197410169E+04  0.38566220883E+04 0.  0.
        2    1    3    3  502    0  0.96246364748E+03 -0.37032366229E+03  0.13057575676E+04  0.16638746085E+04  0.25500000920E-02 0. -1.
       -2    1    3    3    0  502 -0.96246364748E+03  0.37032366229E+03 -0.20063542470E+04  0.22558664083E+04  0.25500000920E-02 0.  1.
</event>
<event>
 5   0  0.1370688E-07  0.3810291E+04  0.7818609E-02  0.8043950E-01
        2   -1    0    0  501    0  0.00000000000E+00  0.00000000000E+00  0.24379244824E+04  0.24379244824E+04  0.25500000920E-02 0.  1.
       -2   -1    0    0    0  501  0.00000000000E+00  0.00000000000E+00 -0.14887986004E+04  0.14887986004E+04  0.25500000920E-02 0. -1.
    10030    2    1    2    0    0  0.00000000000E+00  0.00000000000E+00  0.94912588206E+03  0.39267230828E+04  0.38102905702E+04 0.  0.
        5    1    3    3  502    0 -0.60509909035E+03 -0.12904565059E+04 -0.82823995662E+03  0.16484618341E+04  0.46999998093E+01 0. -1.
       -5    1    3    3    0  502  0.60509909035E+03  0.12904565059E+04  0.17773658387E+04  0.22782612487E+04  0.46999998093E+01 0.  1.
</event>
<event>
 5   0  0.1370688E-07  0.3783006E+04  0.7818609E-02  0.8049812E-01
       -2   -1    0    0    0  501  0.00000000000E+00  0.00000000000E+00  0.13570394082E+04  0.13570394082E+04  0.25500000920E-02 0.  1.
        2   -1    0    0  501    0  0.00000000000E+00  0.00000000000E+00 -0.26364629743E+04  0.26364629743E+04  0.25500000920E-02 0. -1.
    10030    2    1    2    0    0  0.00000000000E+00  0.00000000000E+00 -0.12794235662E+04  0.39935023825E+04  0.37830062936E+04 0.  0.
        5    1    3    3  502    0  0.14033529875E+04 -0.37821108000E+03  0.63814725841E+03  0.15873554240E+04  0.46999998093E+01 0.  1.
       -5    1    3    3    0  502 -0.14033529875E+04  0.37821108000E+03 -0.19175708246E+04  0.24061469585E+04  0.46999998093E+01 0. -1.
</event>
<event>
 5   0  0.2135314E-07  0.3783411E+04  0.7818609E-02  0.8049724E-01
        2   -1    0    0  501    0  0.00000000000E+00  0.00000000000E+00  0.19216719735E+04  0.19216719735E+04  0.25500000920E-02 0.  1.
       -2   -1    0    0    0  501  0.00000000000E+00  0.00000000000E+00 -0.18622065273E+04  0.18622065273E+04  0.25500000920E-02 0. -1.
    10030    2    1    2    0    0  0.00000000000E+00  0.00000000000E+00  0.59465446288E+02  0.37838785008E+04  0.37834112081E+04 0.  0.
        4    1    3    3  502    0  0.14163632308E+04  0.82492636230E+03 -0.91482035737E+03  0.18770951505E+04  0.12699999809E+01 0. -1.
       -4    1    3    3    0  502 -0.14163632308E+04 -0.82492636230E+03  0.97428580366E+03  0.19067833503E+04  0.12699999809E+01 0.  1.
</event>
<event>
 5   0  0.2203998E-07  0.3809184E+04  0.7818609E-02  0.8044187E-01
        2   -1    0    0  501    0  0.00000000000E+00  0.00000000000E+00  0.20153132949E+04  0.20153132949E+04  0.25500000920E-02 0.  1.
       -2   -1    0    0    0  501  0.00000000000E+00  0.00000000000E+00 -0.17999538724E+04  0.17999538724E+04  0.25500000920E-02 0. -1.
    10030    2    1    2    0    0  0.00000000000E+00  0.00000000000E+00  0.21535942253E+03  0.38152671673E+04  0.38091841484E+04 0.  0.
        3    1    3    3  502    0 -0.77005011578E+03 -0.12974116801E+03 -0.16322360106E+04  0.18094210002E+04  0.10100000352E+00 0. -1.
       -3    1    3    3    0  502  0.77005011578E+03  0.12974116801E+03  0.18475954331E+04  0.20058461671E+04  0.10100000352E+00 0.  1.
</event>
<event>
 5   0  0.6661000E-08  0.3864740E+04  0.7818609E-02  0.8032403E-01
       -1   -1    0    0    0  501  0.00000000000E+00  0.00000000000E+00  0.15397995116E+04  0.15397995116E+04  0.50400001928E-02 0.  1.
        1   -1    0    0  501    0  0.00000000000E+00  0.00000000000E+00 -0.24250261541E+04  0.24250261541E+04  0.50400001928E-02 0. -1.
    10030    2    1    2    0    0  0.00000000000E+00  0.00000000000E+00 -0.88522664249E+03  0.39648256658E+04  0.38647401402E+04 0.  0.
        3    1    3    3  502    0 -0.10831287433E+03  0.17493634249E+04  0.39212277741E+03  0.17960413008E+04  0.10100000352E+00 0.  1.
       -3    1    3    3    0  502  0.10831287433E+03 -0.17493634249E+04 -0.12773494199E+04  0.21687843650E+04  0.10100000352E+00 0. -1.
</event>
<event>
 5   0  0.2203998E-07  0.3805372E+04  0.7818609E-02  0.8045003E-01
       -2   -1    0    0    0  501  0.00000000000E+00  0.00000000000E+00  0.11449804980E+04  0.11449804981E+04  0.25500000920E-02 0. -1.
        2   -1    0    0  501    0  0.00000000000E+00  0.00000000000E+00 -0.31618132197E+04  0.31618132197E+04  0.25500000920E-02 0.  1.
    10030    2    1    2    0    0  0.00000000000E+00  0.00000000000E+00 -0.20168327216E+04  0.43067937177E+04  0.38053722420E+04 0.  0.
        3    1    3    3  502    0  0.12885485215E+04  0.38279326862E+03 -0.25324513140E+04  0.28670887057E+04  0.10100000352E+00 0.  1.
       -3    1    3    3    0  502 -0.12885485215E+04 -0.38279326862E+03  0.51561859233E+03  0.14397050120E+04  0.10100000352E+00 0. -1.
</event>
<event>
 5   0  0.6661000E-08  0.3820504E+04  0.7818609E-02  0.8041769E-01
       -1   -1    0    0    0  501  0.00000000000E+00  0.00000000000E+00  0.16522255110E+04  0.16522255110E+04  0.50400001928E-02 0. -1.
        1   -1    0    0  501    0  0.00000000000E+00  0.00000000000E+00 -0.22085745561E+04  0.22085745561E+04  0.50400001928E-02 0.  1.
    10030    2    1    2    0    0  0.00000000000E+00  0.00000000000E+00 -0.55634904512E+03  0.38608000671E+04  0.38205042727E+04 0.  0.
        2    1    3    3  502    0  0.20924832881E+03  0.47296915487E+03 -0.21364768112E+04  0.21981851262E+04  0.25500000920E-02 0.  1.
       -2    1    3    3    0  502 -0.20924832881E+03 -0.47296915487E+03  0.15801277660E+04  0.16626149409E+04  0.25500000920E-02 0. -1.
</event>
<event>
 5   0  0.6661000E-08  0.3792126E+04  0.7818609E-02  0.8047847E-01
       -1   -1    0    0    0  501  0.00000000000E+00  0.00000000000E+00  0.20009350728E+04  0.20009350728E+04  0.50400001928E-02 0. -1.
        1   -1    0    0  501    0  0.00000000000E+00  0.00000000000E+00 -0.17966875491E+04  0.17966875491E+04  0.50400001928E-02 0.  1.
    10030    2    1    2    0    0  0.00000000000E+00  0.00000000000E+00  0.20424752370E+03  0.37976226219E+04  0.37921261223E+04 0.  0.
        1    1    3    3  502    0  0.15065193664E+04  0.11325110631E+04 -0.10523485858E+03  0.18876589430E+04  0.50400001928E-02 0.  1.
       -1    1    3    3    0  502 -0.15065193664E+04 -0.11325110631E+04  0.30948238228E+03  0.19099636789E+04  0.50400001928E-02 0. -1.
</event>
<event>
 5   0  0.2135314E-07  0.3791498E+04  0.7818609E-02  0.8047982E-01
        2   -1    0    0  501    0  0.00000000000E+00  0.00000000000E+00  0.27322906605E+04  0.27322906605E+04  0.25500000920E-02 0.  1.
       -2   -1    0    0    0  501  0.00000000000E+00  0.00000000000E+00 -0.13153299291E+04  0.13153299291E+04  0.25500000920E-02 0. -1.
    10030    2    1    2    0    0  0.00000000000E+00  0.00000000000E+00  0.14169607314E+04  0.40476205896E+04  0.37914976886E+04 0.  0.
        4    1    3    3  502    0  0.13537590058E+04 -0.70072928334E+03  0.19116341435E+04  0.24450013672E+04  0.12699999809E+01 0.  1.
       -4    1    3    3    0  502 -0.13537590058E+04  0.70072928334E+03 -0.49467341207E+03  0.16026192224E+04  0.12699999809E+01 0. -1.
</event>
<event>
 5   0  0.2135314E-07  0.3817819E+04  0.7818609E-02  0.8042342E-01
       -2   -1    0    0    0  501  0.00000000000E+00  0.00000000000E+00  0.16412210635E+04  0.16412210635E+04  0.25500000920E-02 0. -1.
        2   -1    0    0  501    0  0.00000000000E+00  0.00000000000E+00 -0.22202586309E+04  0.22202586309E+04  0.25500000920E-02 0.  1.
    10030    2    1    2    0    0  0.00000000000E+00  0.00000000000E+00 -0.57903756737E+03  0.38614796944E+04  0.38178188702E+04 0.  0.
        4    1    3    3  502    0  0.84914999933E+03  0.14396077499E+03 -0.20125716472E+04  0.21891155004E+04  0.12699999809E+01 0.  1.
       -4    1    3    3    0  502 -0.84914999933E+03 -0.14396077499E+03  0.14335340799E+04  0.16723641939E+04  0.12699999809E+01 0. -1.
</event>
<event>
 5   0  0.2135314E-07  0.3428526E+04  0.7818609E-02  0.8130940E-01
       -2   -1    0    0    0  501  0.00000000000E+00  0.00000000000E+00  0.16956656428E+04  0.16956656428E+04  0.25500000920E-02 0. -1.
        2   -1    0    0  501    0  0.00000000000E+00  0.00000000000E+00 -0.17330646001E+04  0.17330646001E+04  0.25500000920E-02 0.  1.
    10030    2    1    2    0    0  0.00000000000E+00  0.00000000000E+00 -0.37398957334E+02  0.34287302429E+04  0.34285262719E+04 0.  0.
        4    1    3    3  502    0  0.45325471299E+03 -0.15271795839E+04  0.61456735439E+03  0.17074577483E+04  0.12699999809E+01 0. -1.
       -4    1    3    3    0  502 -0.45325471299E+03  0.15271795839E+04 -0.65196631172E+03  0.17212724946E+04  0.12699999809E+01 0.  1.
</event>
<event>
 5   0  0.6725199E-08  0.3810312E+04  0.7818609E-02  0.8043945E-01
        1   -1    0    0  501    0  0.00000000000E+00  0.00000000000E+00  0.24992266109E+04  0.24992266109E+04  0.50400001928E-02 0.  1.
       -1   -1    0    0    0  501  0.00000000000E+00  0.00000000000E+00 -0.14522973195E+04  0.14522973196E+04  0.50400001928E-02 0. -1.
    10030    2    1    2    0    0  0.00000000000E+00  0.00000000000E+00  0.10469292914E+04  0.39515239305E+04  0.38103123799E+04 0.  0.
        5    1    3    3  502    0 -0.12626082593E+04  0.71092636994E+03 -0.75930905589E+03  0.16358998295E+04  0.46999998093E+01 0. -1.
       -5    1    3    3    0  502  0.12626082593E+04 -0.71092636994E+03  0.18062383473E+04  0.23156241010E+04  0.46999998093E+01 0.  1.
</event>
<event>
 5   0  0.6661000E-08  0.3850595E+04  0.7818609E-02  0.8035384E-01
        1   -1    0    0  501    0  0.00000000000E+00  0.00000000000E+00  0.14886816322E+04  0.14886816322E+04  0.50400001928E-02 0.  1.
       -1   -1    0    0    0  501  0.00000000000E+00  0.00000000000E+00 -0.24899686525E+04  0.24899686525E+04  0.50400001928E-02 0. -1.
    10030    2    1    2    0    0  0.00000000000E+00  0.00000000000E+00 -0.10012870203E+04  0.39786502847E+04  0.38505950697E+04 0.  0.
        1    1    3    3  502    0 -0.12564049570E+04 -0.14581152694E+04 -0.45310202442E+03  0.19773606144E+04  0.50400001928E-02 0. -1.
       -1    1    3    3    0  502  0.12564049570E+04  0.14581152694E+04 -0.54818499588E+03  0.20012896703E+04  0.50400001928E-02 0.  1.
</event>
<event>
 5   0  0.6661000E-08  0.3819344E+04  0.7818609E-02  0.8042016E-01
       -3   -1    0    0    0  501  0.00000000000E+00  0.00000000000E+00  0.21959382230E+04  0.21959382253E+04  0.10100000352E+00 0. -1.
        3   -1    0    0  501    0  0.00000000000E+00  0.00000000000E+00 -0.16607240827E+04  0.16607240858E+04  0.10100000352E+00 0.  1.
    10030    2    1    2    0    0  0.00000000000E+00  0.00000000000E+00  0.53521414026E+03  0.38566623111E+04  0.38193441854E+04 0.  0.
        2    1    3    3  502    0  0.17243623882E+04  0.35020647083E+03 -0.48178799085E+03  0.18243327235E+04  0.25500000920E-02 0.  1.
       -2    1    3    3    0  502 -0.17243623882E+04 -0.35020647083E+03  0.10170021311E+04  0.20323295876E+04  0.25500000920E-02 0. -1.
</event>
<event>
 5   0  0.2203998E-07  0.3790424E+04  0.7818609E-02  0.8048213E-01
       -2   -1    0    0    0  501  0.00000000000E+00  0.00000000000E+00  0.15124004948E+04  0.15124004948E+04  0.25500000920E-02 0.  1.
        2   -1    0    0  501    0  0.00000000000E+00  0.00000000000E+00 -0.23749186371E+04  0.23749186371E+04  0.25500000920E-02 0. -1.
    10030    2    1    2    0    0  0.00000000000E+00  0.00000000000E+00 -0.86251814228E+03  0.38873191318E+04  0.37904237872E+04 0.  0.
        3    1    3    3  502    0 -0.14733176641E+04 -0.10844300521E+03  0.78627203855E+03  0.16735138343E+04  0.10100000352E+00 0.  1.
       -3    1    3    3    0  502  0.14733176641E+04  0.10844300521E+03 -0.16487901808E+04  0.22138052975E+04  0.10100000352E+00 0. -1.
</event>
<event>
 5   0  0.2081337E-07  0.3806666E+04  0.7818609E-02  0.8044726E-01
        2   -1    0    0  501    0  0.00000000000E+00  0.00000000000E+00  0.20423703642E+04  0.20423703642E+04  0.25500000920E-02 0.  1.
       -2   -1    0    0    0  501  0.00000000000E+00  0.00000000000E+00 -0.17737606262E+04  0.17737606262E+04  0.25500000920E-02 0. -1.
    10030    2    1    2    0    0  0.00000000000E+00  0.00000000000E+00  0.26860973804E+03  0.38161309904E+04  0.38066658041E+04 0.  0.
        1    1    3    3  502    0  0.12451132514E+04 -0.38100174845E+02 -0.13083416172E+04  0.18065205284E+04  0.50400001928E-02 0. -1.
       -1    1    3    3    0  502 -0.12451132514E+04  0.38100174845E+02  0.15769513552E+04  0.20096104620E+04  0.50400001928E-02 0.  1.
</event>
<event>
 5   0  0.1370688E-07  0.3783571E+04  0.7818609E-02  0.8049690E-01
        2   -1    0    0  501    0  0.00000000000E+00  0.00000000000E+00  0.18906009076E+04  0.18906009076E+04  0.25500000920E-02 0.  1.
       -2   -1    0    0    0  501  0.00000000000E+00  0.00000000000E+00 -0.18929710949E+04  0.18929710949E+04  0.25500000920E-02 0. -1.
    10030    2    1    2    0    0  0.00000000000E+00  0.00000000000E+00 -0.23701873317E+01  0.37835720025E+04  0.37835712601E+04 0.  0.
        5    1    3    3  502    0  0.12738019242E+04  0.12317935131E+04  0.66134366143E+03  0.18913709656E+04  0.46999998093E+01 0.  1.
       -5    1    3    3    0  502 -0.12738019242E+04 -0.12317935131E+04 -0.66371384877E+03  0.18922010369E+04  0.46999998093E+01 0. -1.
</event>
<event>
 5   0  0.6661000E-08  0.3781063E+04  0.7818609E-02  0.8050231E-01
        1   -1    0    0  501    0  0.00000000000E+00  0.00000000000E+00  0.21669441327E+04  0.21669441328E+04  0.50400001928E-02 0. -1.
       -1   -1    0    0    0  501  0.00000000000E+00  0.00000000000E+00 -0.16493777922E+04  0.16493777922E+04  0.50400001928E-02 0.  1.
    10030    2    1    2    0    0  0.00000000000E+00  0.00000000000E+00  0.51756634051E+03  0.38163219250E+04  0.37810630937E+04 0.  0.
        1    1    3    3  502    0 -0.12700295226E+04  0.10850653389E+04 -0.63477899773E+03  0.17869768197E+04  0.50400001928E-02 0.  1.
       -1    1    3    3    0  502  0.12700295226E+04 -0.10850653389E+04  0.11523453382E+04  0.20293451053E+04  0.50400001928E-02 0. -1.
</event>
<event>
 5   0  0.1370688E-07  0.3633409E+04  0.7818609E-02  0.8082882E-01
        2   -1    0    0  501    0  0.00000000000E+00  0.00000000000E+00  0.28856981961E+04  0.28856981961E+04  0.25500000920E-02 0.  1.
       -2   -1    0    0    0  501  0.00000000000E+00  0.00000000000E+00 -0.11437147193E+04  0.11437147193E+04  0.25500000920E-02 0. -1.
    10030    2    1    2    0    0  0.00000000000E+00  0.00000000000E+00  0.17419834767E+04  0.40294129154E+04  0.36334091442E+04 0.  0.
        5    1    3    3  502    0  0.17511428304E+04 -0.30764004376E+03  0.12848244001E+04  0.21936133292E+04  0.46999998093E+01 0.  1.
       -5    1    3    3    0  502 -0.17511428304E+04  0.30764004376E+03  0.45715907664E+03  0.18357995861E+04  0.46999998093E+01 0. -1.
</event>
<event>
 5   0  0.2203998E-07  0.3813194E+04  0.7818609E-02  0.8043329E-01
       -2   -1    0    0    0  501  0.00000000000E+00  0.00000000000E+00  0.14937492199E+04  0.14937492199E+04  0.25500000920E-02 0. -1.
        2   -1    0    0  501    0  0.00000000000E+00  0.00000000000E+00 -0.24335493364E+04  0.24335493364E+04  0.25500000920E-02 0.  1.
    10030    2    1    2    0    0  0.00000000000E+00  0.00000000000E+00 -0.93980011651E+03  0.39272985563E+04  0.38131941587E+04 0.  0.
        3    1    3    3  502    0  0.60961313288E+03  0.16250855886E+04  0.34274884749E+03  0.17691828974E+04  0.10100000352E+00 0.  1.
       -3    1    3    3    0  502 -0.60961313288E+03 -0.16250855886E+04 -0.12825489640E+04  0.21581156589E+04  0.10100000352E+00 0. -1.
</event>
<event>
 5   0  0.1370688E-07  0.3799728E+04  0.7818609E-02  0.8046213E-01
        2   -1    0    0  501    0  0.00000000000E+00  0.00000000000E+00  0.22755172778E+04  0.22755172778E+04  0.25500000920E-02 0.  1.
       -2   -1    0    0    0  501  0.00000000000E+00  0.00000000000E+00 -0.15862256537E+04  0.15862256537E+04  0.25500000920E-02 0. -1.
    10030    2    1    2    0    0  0.00000000000E+00  0.00000000000E+00  0.68929162414E+03  0.38617429315E+04  0.37997283490E+04 0.  0.
        5    1    3    3  502    0 -0.58815731515E+02  0.12790238456E+04 -0.10818647851E+04  0.16762502173E+04  0.46999998093E+01 0. -1.
       -5    1    3    3    0  502  0.58815731515E+02 -0.12790238456E+04  0.17711564092E+04  0.21854927142E+04  0.46999998093E+01 0.  1.
</event>
<event>
 5   0  0.2135314E-07  0.3753653E+04  0.7818609E-02  0.8056175E-01
       -2   -1    0    0    0  501  0.00000000000E+00  0.00000000000E+00  0.18193044421E+04  0.18193044421E+04  0.25500000920E-02 0. -1.
        2   -1    0    0  501    0  0.00000000000E+00  0.00000000000E+00 -0.19361675683E+04  0.19361675683E+04  0.25500000920E-02 0.  1.
    10030    2    1    2    0    0  0.00000000000E+00  0.00000000000E+00 -0.11686312618E+03  0.37554720105E+04  0.37536532913E+04 0.  0.
        4    1    3    3  502    0  0.75254361806E+03  0.12029600862E+04  0.11705942520E+04  0.18394910660E+04  0.12699999809E+01 0. -1.
       -4    1    3    3    0  502 -0.75254361806E+03 -0.12029600862E+04 -0.12874573782E+04  0.19159809445E+04  0.12699999809E+01 0.  1.
</event>
<event>
 5   0  0.6661000E-08  0.3779169E+04  0.7818609E-02  0.8050640E-01
       -1   -1    0    0    0  501  0.00000000000E+00  0.00000000000E+00  0.16419009120E+04  0.16419009120E+04  0.50400001928E-02 0. -1.
        1   -1    0    0  501    0  0.00000000000E+00  0.00000000000E+00 -0.21746316555E+04  0.21746316555E+04  0.50400001928E-02 0.  1.
    10030    2    1    2    0    0  0.00000000000E+00  0.00000000000E+00 -0.53273074357E+03  0.38165325675E+04  0.37791690613E+04 0.  0.
        3    1    3    3  502    0 -0.14301798366E+04  0.13083864375E+03  0.97378066399E+03  0.17351604847E+04  0.10100000352E+00 0. -1.
       -3    1    3    3    0  502  0.14301798366E+04 -0.13083864375E+03 -0.15065114076E+04  0.20813720828E+04  0.10100000352E+00 0.  1.
</event>
<event>
 5   0  0.6661000E-08  0.3787202E+04  0.7818609E-02  0.8048907E-01
       -1   -1    0    0    0  501  0.00000000000E+00  0.00000000000E+00  0.18437671844E+04  0.18437671844E+04  0.50400001928E-02 0. -1.
        1   -1    0    0  501    0  0.00000000000E+00  0.00000000000E+00 -0.19447816801E+04  0.19447816801E+04  0.50400001928E-02 0.  1.
    10030    2    1    2    0    0  0.00000000000E+00  0.00000000000E+00 -0.10101449567E+03  0.37885488645E+04  0.37872019447E+04 0.  0.
        4    1    3    3  502    0 -0.13252295066E+03  0.13920391397E+04 -0.13278277373E+04  0.19283317691E+04  0.12699999809E+01 0.  1.
       -4    1    3    3    0  502  0.13252295066E+03 -0.13920391397E+04  0.12268132417E+04  0.18602170953E+04  0.12699999809E+01 0. -1.
</event>
<event>
 5   0  0.2135314E-07  0.3752018E+04  0.7818609E-02  0.8056531E-01
        2   -1    0    0  501    0  0.00000000000E+00  0.00000000000E+00  0.16696742817E+04  0.16696742817E+04  0.25500000920E-02 0. -1.
       -2   -1    0    0    0  501  0.00000000000E+00  0.00000000000E+00 -0.21078423246E+04  0.21078423246E+04  0.25500000920E-02 0.  1.
    10030    2    1    2    0    0  0.00000000000E+00  0.00000000000E+00 -0.43816804294E+03  0.37775166063E+04  0.37520181872E+04 0.  0.
        4    1    3    3  502    0  0.29034392004E+03 -0.12647608338E+04 -0.15830933303E+04  0.20469747590E+04  0.12699999809E+01 0.  1.
       -4    1    3    3    0  502 -0.29034392004E+03  0.12647608338E+04  0.11449252874E+04  0.17305418473E+04  0.12699999809E+01 0. -1.
</event>
<event>
 5   0  0.1370688E-07  0.3835806E+04  0.7818609E-02  0.8038514E-01
       -2   -1    0    0    0  501  0.00000000000E+00  0.00000000000E+00  0.12967966068E+04  0.12967966068E+04  0.25500000920E-02 0.  1.
        2   -1    0    0  501    0  0.00000000000E+00  0.00000000000E+00 -0.28364904477E+04  0.28364904477E+04  0.25500000920E-02 0. -1.
    10030    2    1    2    0    0  0.00000000000E+00  0.00000000000E+00 -0.15396938410E+04  0.41332870545E+04  0.38358056196E+04 0.  0.
        5    1    3    3  502    0 -0.11720499614E+04 -0.77772733728E+03 -0.21747094318E+04  0.25899699083E+04  0.46999998093E+01 0. -1.
       -5    1    3    3    0  502  0.11720499614E+04  0.77772733728E+03  0.63501559084E+03  0.15433171462E+04  0.46999998093E+01 0.  1.
</event>
<event>
 5   0  0.1370688E-07  0.3780725E+04  0.7818609E-02  0.8050304E-01
       -2   -1    0    0    0  501  0.00000000000E+00  0.00000000000E+00  0.14804937541E+04  0.14804937541E+04  0.25500000920E-02 0. -1.
        2   -1    0    0  501    0  0.00000000000E+00  0.00000000000E+00 -0.24137016523E+04  0.24137016523E+04  0.25500000920E-02 0.  1.
    10030    2    1    2    0    0  0.00000000000E+00  0.00000000000E+00 -0.93320789816E+03  0.38941954064E+04  0.37807249149E+04 0.  0.
        5    1    3    3  502    0  0.11077904868E+04 -0.37367582049E+03 -0.19966549918E+04  0.23137602788E+04  0.46999998093E+01 0.  1.
       -5    1    3    3    0  502 -0.11077904868E+04  0.37367582049E+03  0.10634470937E+04  0.15804351276E+04  0.46999998093E+01 0. -1.
</event>
<event>
 5   0  0.6661000E-08  0.3798753E+04  0.7818609E-02  0.8046423E-01
       -1   -1    0    0    0  501  0.00000000000E+00  0.00000000000E+00  0.24058579250E+04  0.24058579250E+04  0.50400001928E-02 0.  1.
        1   -1    0    0  501    0  0.00000000000E+00  0.00000000000E+00 -0.14995192060E+04  0.14995192060E+04  0.50400001928E-02 0. -1.
    10030    2    1    2    0    0  0.00000000000E+00  0.00000000000E+00  0.90633871900E+03  0.39053771311E+04  0.37987525140E+04 0.  0.
        2    1    3    3  502    0  0.10921550040E+04  0.13394371020E+04 -0.35681269471E+03  0.17647123285E+04  0.25500000920E-02 0. -1.
       -2    1    3    3    0  502 -0.10921550040E+04 -0.13394371020E+04  0.12631514137E+04  0.21406648026E+04  0.25500000920E-02 0.  1.
</event>
<event>
 5   0  0.6661000E-08  0.3790798E+04  0.7818609E-02  0.8048133E-01
       -1   -1    0    0    0  501  0.00000000000E+00  0.00000000000E+00  0.18606634453E+04  0.18606634453E+04  0.50400001928E-02 0.  1.
        1   -1    0    0  501    0  0.00000000000E+00  0.00000000000E+00 -0.19307826604E+04  0.19307826604E+04  0.50400001928E-02 0. -1.
    10030    2    1    2    0    0  0.00000000000E+00  0.00000000000E+00 -0.70119215061E+02  0.37914461057E+04  0.37907976559E+04 0.  0.
        1    1    3    3  502    0  0.15819602885E+04  0.95192180134E+03 -0.46383242344E+03  0.19036528012E+04  0.50400001928E-02 0. -1.
       -1    1    3    3    0  502 -0.15819602885E+04 -0.95192180134E+03  0.39371320838E+03  0.18877933046E+04  0.50400001928E-02 0.  1.
</event>
<event>
 5   0  0.6725199E-08  0.3797385E+04  0.7818609E-02  0.8046716E-01
        1   -1    0    0  501    0  0.00000000000E+00  0.00000000000E+00  0.13592300222E+04  0.13592300222E+04  0.50400001928E-02 0. -1.
       -1   -1    0    0    0  501  0.00000000000E+00  0.00000000000E+00 -0.26522613076E+04  0.26522613076E+04  0.50400001928E-02 0.  1.
    10030    2    1    2    0    0  0.00000000000E+00  0.00000000000E+00 -0.12930312854E+04  0.40114913297E+04  0.37973849928E+04 0.  0.
        5    1    3    3  502    0 -0.69459891167E+03 -0.17568322592E+04 -0.44584779676E+03  0.19410640337E+04  0.46999998093E+01 0. -1.
       -5    1    3    3    0  502  0.69459891167E+03  0.17568322592E+04 -0.84718348865E+03  0.20704272961E+04  0.46999998093E+01 0.  1.
</event>
<event>
 5   0  0.6661000E-08  0.3545388E+04  0.7818609E-02  0.8103117E-01
        1   -1    0    0  501    0  0.00000000000E+00  0.00000000000E+00  0.15073243756E+04  0.15073243756E+04  0.50400001928E-02 0. -1.
       -1   -1    0    0    0  501  0.00000000000E+00  0.00000000000E+00 -0.20847830742E+04  0.20847830742E+04  0.50400001928E-02 0.  1.
    10030    2    1    2    0    0  0.00000000000E+00  0.00000000000E+00 -0.57745869856E+03  0.35921074498E+04  0.35453881850E+04 0.  0.
        3    1    3    3  502    0  0.10982860074E+04  0.20906203293E+03 -0.16825409417E+04  0.20201195803E+04  0.10100000352E+00 0.  1.
       -3    1    3    3    0  502 -0.10982860074E+04 -0.20906203293E+03  0.11050822432E+04  0.15719878696E+04  0.10100000352E+00 0. -1.
</event>
<event>
 5   0  0.2081337E-07  0.3758553E+04  0.7818609E-02  0.8055108E-01
       -2   -1    0    0    0  501  0.00000000000E+00  0.00000000000E+00  0.29486402091E+04  0.29486402091E+04  0.25500000920E-02 0.  1.
        2   -1    0    0  501    0  0.00000000000E+00  0.00000000000E+00 -0.11977317372E+04  0.11977317372E+04  0.25500000920E-02 0. -1.
    10030    2    1    2    0    0  0.00000000000E+00  0.00000000000E+00  0.17509084719E+04  0.41463719463E+04  0.37585528917E+04 0.  0.
        1    1    3    3  502    0 -0.20528932099E+03  0.74493758901E+03  0.27652825954E+04  0.28712129056E+04  0.50400001928E-02 0.  1.
       -1    1    3    3    0  502  0.20528932099E+03 -0.74493758901E+03 -0.10143741234E+04  0.12751590407E+04  0.50400001928E-02 0. -1.
</event>
<event>
 5   0  0.6661000E-08  0.3747624E+04  0.7818609E-02  0.8057489E-01
       -1   -1    0    0    0  501  0.00000000000E+00  0.00000000000E+00  0.15250191398E+04  0.15250191398E+04  0.50400001928E-02 0.  1.
        1   -1    0    0  501    0  0.00000000000E+00  0.00000000000E+00 -0.23023785281E+04  0.23023785281E+04  0.50400001928E-02 0. -1.
    10030    2    1    2    0    0  0.00000000000E+00  0.00000000000E+00 -0.77735938829E+03  0.38273976679E+04  0.37476239525E+04 0.  0.
        3    1    3    3  502    0  0.13024279058E+04 -0.51726562439E+03 -0.16590587351E+04  0.21717177700E+04  0.10100000352E+00 0. -1.
       -3    1    3    3    0  502 -0.13024279058E+04  0.51726562439E+03  0.88169934677E+03  0.16556798979E+04  0.10100000352E+00 0.  1.
</event>
<event>
 5   0  0.6661000E-08  0.3782517E+04  0.7818609E-02  0.8049917E-01
       -1   -1    0    0    0  501  0.00000000000E+00  0.00000000000E+00  0.16303109535E+04  0.16303109535E+04  0.50400001928E-02 0.  1.
        1   -1    0    0  501    0  0.00000000000E+00  0.00000000000E+00 -0.21939728555E+04  0.21939728555E+04  0.50400001928E-02 0. -1.
    10030    2    1    2    0    0  0.00000000000E+00  0.00000000000E+00 -0.56366190207E+03  0.38242838090E+04  0.37825166110E+04 0.  0.
        1    1    3    3  502    0 -0.12981006342E+04  0.10899622742E+04 -0.11300073367E+04  0.20371547798E+04  0.50400001928E-02 0. -1.
       -1    1    3    3    0  502  0.12981006342E+04 -0.10899622742E+04  0.56634543466E+03  0.17871290292E+04  0.50400001928E-02 0.  1.
</event>
<event>
 5   0  0.6661000E-08  0.3789603E+04  0.7818609E-02  0.8048390E-01
        1   -1    0    0  501    0  0.00000000000E+00  0.00000000000E+00  0.24562365959E+04  0.24562365959E+04  0.50400001928E-02 0.  1.
       -1   -1    0    0    0  501  0.00000000000E+00  0.00000000000E+00 -0.14616963775E+04  0.14616963775E+04  0.50400001928E-02 0. -1.
    10030    2    1    2    0    0  0.00000000000E+00  0.00000000000E+00  0.99454021833E+03  0.39179329734E+04  0.37896026887E+04 0.  0.
        1    1    3    3  502    0 -0.29386725617E+03 -0.73712018771E+03  0.22761672717E+04  0.24105272419E+04  0.50400001928E-02 0.  1.
       -1    1    3    3    0  502  0.29386725617E+03  0.73712018771E+03 -0.12816270534E+04  0.15074057315E+04  0.50400001928E-02 0. -1.
</event>
<event>
 5   0  0.6661000E-08  0.3836192E+04  0.7818609E-02  0.8038433E-01
        1   -1    0    0  501    0  0.00000000000E+00  0.00000000000E+00  0.20728095652E+04  0.20728095652E+04  0.50400001928E-02 0.  1.
       -1   -1    0    0    0  501  0.00000000000E+00  0.00000000000E+00 -0.17749298061E+04  0.17749298061E+04  0.50400001928E-02 0. -1.
    10030    2    1    2    0    0  0.00000000000E+00  0.00000000000E+00  0.29787975903E+03  0.38477393713E+04  0.38361915904E+04 0.  0.
        2    1    3    3  502    0  0.15447190403E+04  0.11237574647E+04  0.32296642080E+03  0.19373422676E+04  0.25500000920E-02 0.  1.
       -2    1    3    3    0  502 -0.15447190403E+04 -0.11237574647E+04 -0.25086661767E+02  0.19103971037E+04  0.25500000920E-02 0. -1.
</event>
<event>
 5   0  0.6661000E-08  0.3786421E+04  0.7818609E-02  0.8049075E-01
        1   -1    0    0  501    0  0.00000000000E+00  0.00000000000E+00  0.22004154584E+04  0.22004154584E+04  0.50400001928E-02 0. -1.
       -1   -1    0    0    0  501  0.00000000000E+00  0.00000000000E+00 -0.16288951057E+04  0.16288951057E+04  0.50400001928E-02 0.  1.
    10030    2    1    2    0    0  0.00000000000E+00  0.00000000000E+00  0.57152035271E+03  0.38293105641E+04  0.37864209859E+04 0.  0.
        3    1    3    3  502    0  0.84881829657E+03 -0.99711133452E+03 -0.10970323808E+04  0.17082750272E+04  0.10100000352E+00 0.  1.
       -3    1    3    3    0  502 -0.84881829657E+03  0.99711133452E+03  0.16685527335E+04  0.21210355369E+04  0.10100000352E+00 0. -1.
</event>
<event>
 5   0  0.2081337E-07  0.3786469E+04  0.7818609E-02  0.8049065E-01
       -2   -1    0    0    0  501  0.00000000000E+00  0.00000000000E+00  0.18780462507E+04  0.18780462507E+04  0.25500000920E-02 0.  1.
        2   -1    0    0  501    0  0.00000000000E+00  0.00000000000E+00 -0.19085455717E+04  0.19085455717E+04  0.25500000920E-02 0. -1.
    10030    2    1    2    0    0  0.00000000000E+00  0.00000000000E+00 -0.30499321034E+02  0.37865918224E+04  0.37864689911E+04 0.  0.
        1    1    3    3  502    0 -0.76486005339E+03 -0.12404082733E+04 -0.12238885812E+04  0.19030309627E+04  0.50400001928E-02 0.  1.
       -1    1    3    3    0  502  0.76486005339E+03  0.12404082733E+04  0.11933892602E+04  0.18835608597E+04  0.50400001928E-02 0. -1.
</event>
<event>
 5   0  0.1370688E-07  0.3811735E+04  0.7818609E-02  0.8043641E-01
       -2   -1    0    0    0  501  0.00000000000E+00  0.00000000000E+00  0.18743207832E+04  0.18743207832E+04  0.25500000920E-02 0. -1.
        2   -1    0    0  501    0  0.00000000000E+00  0.00000000000E+00 -0.19379456454E+04  0.19379456454E+04  0.25500000920E-02 0.  1.
    10030    2    1    2    0    0  0.00000000000E+00  0.00000000000E+00 -0.63624862180E+02  0.38122664285E+04  0.38117354576E+04 0.  0.
        5    1    3    3  502    0  0.27194048226E+03  0.28442427309E+01  0.18548092619E+04  0.18746464209E+04  0.46999998093E+01 0. -1.
       -5    1    3    3    0  502 -0.27194048226E+03 -0.28442427309E+01 -0.19184341240E+04  0.19376200076E+04  0.46999998093E+01 0.  1.
</event>
<event>
 5   0  0.6661000E-08  0.3772315E+04  0.7818609E-02  0.8052122E-01
        1   -1    0    0  501    0  0.00000000000E+00  0.00000000000E+00  0.13055803142E+04  0.13055803143E+04  0.50400001928E-02 0.  1.
       -1   -1    0    0    0  501  0.00000000000E+00  0.00000000000E+00 -0.27249107390E+04  0.27249107390E+04  0.50400001928E-02 0. -1.
    10030    2    1    2    0    0  0.00000000000E+00  0.00000000000E+00 -0.14193304248E+04  0.40304910533E+04  0.37723148431E+04 0.  0.
        3    1    3    3  502    0  0.61702407943E+03 -0.11201202224E+04  0.77165693724E+03  0.14936005042E+04  0.10100000352E+00 0.  1.
       -3    1    3    3    0  502 -0.61702407943E+03  0.11201202224E+04 -0.21909873620E+04  0.25368905491E+04  0.10100000352E+00 0. -1.
</event>
<event>
 5   0  0.1370688E-07  0.3913745E+04  0.7818609E-02  0.8022177E-01
        2   -1    0    0  501    0  0.00000000000E+00  0.00000000000E+00  0.14247651935E+04  0.14247651935E+04  0.25500000920E-02 0.  1.
       -2   -1    0    0    0  501  0.00000000000E+00  0.00000000000E+00 -0.26877053845E+04  0.26877053845E+04  0.25500000920E-02 0. -1.
    10030    2    1    2    0    0  0.00000000000E+00  0.00000000000E+00 -0.12629401910E+04  0.41124705780E+04  0.39137445406E+04 0.  0.
        5    1    3    3  502    0 -0.17113464849E+04  0.54650879730E+03  0.18377827220E+03  0.18058724208E+04  0.46999998093E+01 0. -1.
       -5    1    3    3    0  502  0.17113464849E+04 -0.54650879730E+03 -0.14467184632E+04  0.23065981572E+04  0.46999998093E+01 0.  1.
</event>
<event>
 5   0  0.6661000E-08  0.3749934E+04  0.7818609E-02  0.8056985E-01
        1   -1    0    0  501    0  0.00000000000E+00  0.00000000000E+00  0.12817249968E+04  0.12817249968E+04  0.50400001928E-02 0.  1.
       -1   -1    0    0    0  501  0.00000000000E+00  0.00000000000E+00 -0.27427892337E+04  0.27427892337E+04  0.50400001928E-02 0. -1.
    10030    2    1    2    0    0  0.00000000000E+00  0.00000000000E+00 -0.14610642369E+04  0.40245142306E+04  0.37499341444E+04 0.  0.
        2    1    3    3  502    0  0.14716596670E+04 -0.64644096792E+03 -0.17665302402E+04  0.23883670551E+04  0.25500000920E-02 0. -1.
       -2    1    3    3    0  502 -0.14716596670E+04  0.64644096792E+03  0.30546600334E+03  0.16361471754E+04  0.25500000920E-02 0.  1.
</event>
<event>
 5   0  0.6661000E-08  0.3814680E+04  0.7818609E-02  0.8043012E-01
       -1   -1    0    0    0  501  0.00000000000E+00  0.00000000000E+00  0.19583714137E+04  0.19583714137E+04  0.50400001928E-02 0. -1.
        1   -1    0    0  501    0  0.00000000000E+00  0.00000000000E+00 -0.18576379249E+04  0.18576379249E+04  0.50400001928E-02 0.  1.
    10030    2    1    2    0    0  0.00000000000E+00  0.00000000000E+00  0.10073348880E+03  0.38160093386E+04  0.38146795457E+04 0.  0.
        2    1    3    3  502    0  0.11381000890E+03 -0.10586895021E+04 -0.15326414787E+04  0.18662170512E+04  0.25500000920E-02 0.  1.
       -2    1    3    3    0  502 -0.11381000890E+03  0.10586895021E+04  0.16333749675E+04  0.19497922875E+04  0.25500000920E-02 0. -1.
</event>
<event>
 5   0  0.6661000E-08  0.3770518E+04  0.7818609E-02  0.8052511E-01
        1   -1    0    0  501    0  0.00000000000E+00  0.00000000000E+00  0.13547620540E+04  0.13547620540E+04  0.50400001928E-02 0. -1.
       -1   -1    0    0    0  501  0.00000000000E+00  0.00000000000E+00 -0.26234875936E+04  0.26234875936E+04  0.50400001928E-02 0.  1.
    10030    2    1    2    0    0  0.00000000000E+00  0.00000000000E+00 -0.12687255396E+04  0.39782496476E+04  0.37705179703E+04 0.  0.
        1    1    3    3  502    0 -0.14114036421E+04 -0.40055287875E+03 -0.18835235391E+04  0.23875015753E+04  0.50400001928E-02 0.  1.
       -1    1    3    3    0  502  0.14114036421E+04  0.40055287875E+03  0.61479799947E+03  0.15907480724E+04  0.50400001928E-02 0. -1.
</event>
<event>
 5   0  0.6661000E-08  0.3775450E+04  0.7818609E-02  0.8051444E-01
       -1   -1    0    0    0  501  0.00000000000E+00  0.00000000000E+00  0.29435288804E+04  0.29435288804E+04  0.50400001928E-02 0. -1.
        1   -1    0    0  501    0  0.00000000000E+00  0.00000000000E+00 -0.12106235348E+04  0.12106235349E+04  0.50400001928E-02 0.  1.
    10030    2    1    2    0    0  0.00000000000E+00  0.00000000000E+00  0.17329053456E+04  0.41541524153E+04  0.37754498212E+04 0.  0.
        3    1    3    3  502    0 -0.12378308516E+04 -0.64323165002E+03 -0.53294233361E+03  0.14933183565E+04  0.10100000352E+00 0.  1.
       -3    1    3    3    0  502  0.12378308516E+04  0.64323165002E+03  0.22658476792E+04  0.26608340588E+04  0.10100000352E+00 0. -1.
</event>
<event>
 5   0  0.1370688E-07  0.3785187E+04  0.7818609E-02  0.8049341E-01
        2   -1    0    0  501    0  0.00000000000E+00  0.00000000000E+00  0.15965572942E+04  0.15965572942E+04  0.25500000920E-02 0. -1.
       -2   -1    0    0    0  501  0.00000000000E+00  0.00000000000E+00 -0.22435215506E+04  0.22435215506E+04  0.25500000920E-02 0.  1.
    10030    2    1    2    0    0  0.00000000000E+00  0.00000000000E+00 -0.64696425636E+03  0.38400788448E+04  0.37851872854E+04 0.  0.
        5    1    3    3  502    0 -0.14499594055E+04  0.12453748361E+02 -0.15574061464E+04  0.21279270120E+04  0.46999998093E+01 0.  1.
       -5    1    3    3    0  502  0.14499594055E+04 -0.12453748361E+02  0.91044189002E+03  0.17121518328E+04  0.46999998093E+01 0. -1.
</event>
<event>
 5   0  0.2135314E-07  0.3801046E+04  0.7818609E-02  0.8045931E-01
       -2   -1    0    0    0  501  0.00000000000E+00  0.00000000000E+00  0.20632731489E+04  0.20632731489E+04  0.25500000920E-02 0. -1.
        2   -1    0    0  501    0  0.00000000000E+00  0.00000000000E+00 -0.17506102241E+04  0.17506102241E+04  0.25500000920E-02 0.  1.
    10030    2    1    2    0    0  0.00000000000E+00  0.00000000000E+00  0.31266292480E+03  0.38138833729E+04  0.38010456822E+04 0.  0.
        4    1    3    3  502    0 -0.17272525599E+04 -0.36930838964E+03  0.86026730458E+03  0.19646504882E+04  0.12699999809E+01 0. -1.
       -4    1    3    3    0  502  0.17272525599E+04  0.36930838964E+03 -0.54760437978E+03  0.18492328848E+04  0.12699999809E+01 0.  1.
</event>
<event>
 5   0  0.6725199E-08  0.3793325E+04  0.7818609E-02  0.8047589E-01
        1   -1    0    0  501    0  0.00000000000E+00  0.00000000000E+00  0.21949559252E+04  0.21949559252E+04  0.50400001928E-02 0.  1.
       -1   -1    0    0    0  501  0.00000000000E+00  0.00000000000E+00 -0.16389069598E+04  0.16389069598E+04  0.50400001928E-02 0. -1.
    10030    2    1    2    0    0  0.00000000000E+00  0.00000000000E+00  0.55604896546E+03  0.38338628850E+04  0.37933249490E+04 0.  0.
        5    1    3    3  502    0 -0.97469727936E+03  0.65521235296E+02  0.19211220601E+04  0.21552400976E+04  0.46999998093E+01 0.  1.
       -5    1    3    3    0  502  0.97469727936E+03 -0.65521235296E+02 -0.13650730946E+04  0.16786227874E+04  0.46999998093E+01 0. -1.
</event>
<event>
 5   0  0.6725199E-08  0.3814501E+04  0.7818609E-02  0.8043050E-01
        1   -1    0    0  501    0  0.00000000000E+00  0.00000000000E+00  0.24132878649E+04  0.24132878649E+04  0.50400001928E-02 0. -1.
       -1   -1    0    0    0  501  0.00000000000E+00  0.00000000000E+00 -0.15073233325E+04  0.15073233325E+04  0.50400001928E-02 0.  1.
    10030    2    1    2    0    0  0.00000000000E+00  0.00000000000E+00  0.90596453238E+03  0.39206111974E+04  0.38145013341E+04 0.  0.
        5    1    3    3  502    0  0.67477583050E+03 -0.89730896541E+03  0.20376546026E+04  0.23264875178E+04  0.46999998093E+01 0. -1.
       -5    1    3    3    0  502 -0.67477583050E+03  0.89730896541E+03 -0.11316900703E+04  0.15941236796E+04  0.46999998093E+01 0.  1.
</event>
<event>
 5   0  0.2081337E-07  0.3794273E+04  0.7818609E-02  0.8047385E-01
        2   -1    0    0  501    0  0.00000000000E+00  0.00000000000E+00  0.15031503613E+04  0.15031503613E+04  0.25500000920E-02 0. -1.
       -2   -1    0    0    0  501  0.00000000000E+00  0.00000000000E+00 -0.23943889618E+04  0.23943889618E+04  0.25500000920E-02 0.  1.
    10030    2    1    2    0    0  0.00000000000E+00  0.00000000000E+00 -0.89123860058E+03  0.38975393231E+04  0.37942728595E+04 0.  0.
        1    1    3    3  502    0 -0.10447401068E+04 -0.10129953589E+03 -0.20689407773E+04  0.23199697038E+04  0.50400001928E-02 0.  1.
       -1    1    3    3    0  502  0.10447401068E+04  0.10129953589E+03  0.11777021767E+04  0.15775696193E+04  0.50400001928E-02 0. -1.
</event>
<event>
 5   0  0.2135314E-07  0.3698905E+04  0.7818609E-02  0.8068205E-01
        2   -1    0    0  501    0  0.00000000000E+00  0.00000000000E+00  0.20474310755E+04  0.20474310755E+04  0.25500000920E-02 0.  1.
       -2   -1    0    0    0  501  0.00000000000E+00  0.00000000000E+00 -0.16706176249E+04  0.16706176249E+04  0.25500000920E-02 0. -1.
    10030    2    1    2    0    0  0.00000000000E+00  0.00000000000E+00  0.37681345059E+03  0.37180487005E+04  0.36989049410E+04 0.  0.
        4    1    3    3  502    0  0.14211820164E+04 -0.11289529097E+04 -0.16864971879E+03  0.18228377154E+04  0.12699999809E+01 0.  1.
       -4    1    3    3    0  502 -0.14211820164E+04  0.11289529097E+04  0.54546316939E+03  0.18952109851E+04  0.12699999809E+01 0. -1.
</event>
<event>
 5   0  0.2135314E-07  0.3576147E+04  0.7818609E-02  0.8095977E-01
        2   -1    0    0  501    0  0.00000000000E+00  0.00000000000E+00  0.31506392363E+04  0.31506392363E+04  0.25500000920E-02 0. -1.
       -2   -1    0    0    0  501  0.00000000000E+00  0.00000000000E+00 -0.10147804933E+04  0.10147804933E+04  0.25500000920E-02 0.  1.
    10030    2    1    2    0    0  0.00000000000E+00  0.00000000000E+00  0.21358587430E+04  0.41654197296E+04  0.35761472221E+04 0.  0.
        4    1    3    3  502    0  0.71335001143E+03 -0.14595816243E+04  0.19379798953E+04  0.25288365792E+04  0.12699999809E+01 0. -1.
       -4    1    3    3    0  502 -0.71335001143E+03  0.14595816243E+04  0.19787884766E+03  0.16365831504E+04  0.12699999809E+01 0.  1.
</event>
<event>
 5   0  0.6661000E-08  0.4036693E+04  0.7818609E-02  0.7997185E-01
       -1   -1    0    0    0  501  0.00000000000E+00  0.00000000000E+00  0.25313798831E+04  0.25313798831E+04  0.50400001928E-02 0.  1.
        1   -1    0    0  501    0  0.00000000000E+00  0.00000000000E+00 -0.16092896177E+04  0.16092896177E+04  0.50400001928E-02 0. -1.
    10030    2    1    2    0    0  0.00000000000E+00  0.00000000000E+00  0.92209026541E+03  0.41406695007E+04  0.40366933816E+04 0.  0.
        4    1    3    3  502    0 -0.65584742465E+03  0.22963437316E+02 -0.14967979573E+04  0.16343405098E+04  0.12699999809E+01 0. -1.
       -4    1    3    3    0  502  0.65584742465E+03 -0.22963437316E+02  0.24188882227E+04  0.25063289910E+04  0.12699999809E+01 0.  1.
</event>
<event>
 5   0  0.6661000E-08  0.3409753E+04  0.7818609E-02  0.8135517E-01
        1   -1    0    0  501    0  0.00000000000E+00  0.00000000000E+00  0.22179882782E+04  0.22179882782E+04  0.50400001928E-02 0. -1.
       -1   -1    0    0    0  501  0.00000000000E+00  0.00000000000E+00 -0.13104683334E+04  0.13104683334E+04  0.50400001928E-02 0.  1.
    10030    2    1    2    0    0  0.00000000000E+00  0.00000000000E+00  0.90751994479E+03  0.35284566117E+04  0.34097527198E+04 0.  0.
        3    1    3    3  502    0 -0.47339061584E+03  0.66528588020E+02  0.21472145866E+04  0.21997852666E+04  0.10100000352E+00 0. -1.
       -3    1    3    3    0  502  0.47339061584E+03 -0.66528588020E+02 -0.12396946418E+04  0.13286713451E+04  0.10100000352E+00 0.  1.
</event>
<event>
 5   0  0.6661000E-08  0.3816120E+04  0.7818609E-02  0.8042704E-01
       -1   -1    0    0    0  501  0.00000000000E+00  0.00000000000E+00  0.14569052917E+04  0.14569052917E+04  0.50400001928E-02 0.  1.
        1   -1    0    0  501    0  0.00000000000E+00  0.00000000000E+00 -0.24989216208E+04  0.24989216208E+04  0.50400001928E-02 0. -1.
    10030    2    1    2    0    0  0.00000000000E+00  0.00000000000E+00 -0.10420163291E+04  0.39558269126E+04  0.38161195647E+04 0.  0.
        1    1    3    3  502    0  0.94528861508E+03 -0.15630021847E+04 -0.10926923454E+04  0.21285025151E+04  0.50400001928E-02 0. -1.
       -1    1    3    3    0  502 -0.94528861508E+03  0.15630021847E+04  0.50676016266E+02  0.18273243975E+04  0.50400001928E-02 0.  1.
</event>
<event>
 5   0  0.2081337E-07  0.3795455E+04  0.7818609E-02  0.8047131E-01
        2   -1    0    0  501    0  0.00000000000E+00  0.00000000000E+00  0.19804329506E+04  0.19804329506E+04  0.25500000920E-02 0. -1.
       -2   -1    0    0    0  501  0.00000000000E+00  0.00000000000E+00 -0.18184755058E+04  0.18184755058E+04  0.25500000920E-02 0.  1.
    10030    2    1    2    0    0  0.00000000000E+00  0.00000000000E+00  0.16195744480E+03  0.37989084564E+04  0.37954545507E+04 0.  0.
        1    1    3    3  502    0  0.71484527900E+03  0.22782949983E+03  0.18256825185E+04  0.19738355333E+04  0.50400001928E-02 0. -1.
       -1    1    3    3    0  502 -0.71484527900E+03 -0.22782949983E+03 -0.16637250737E+04  0.18250729232E+04  0.50400001928E-02 0.  1.
</event>
<event>
 5   0  0.6661000E-08  0.3480992E+04  0.7818609E-02  0.8118309E-01
        1   -1    0    0  501    0  0.00000000000E+00  0.00000000000E+00  0.26340422523E+04  0.26340422523E+04  0.50400001928E-02 0. -1.
       -1   -1    0    0    0  501  0.00000000000E+00  0.00000000000E+00 -0.11500673357E+04  0.11500673357E+04  0.50400001928E-02 0.  1.
    10030    2    1    2    0    0  0.00000000000E+00  0.00000000000E+00  0.14839749167E+04  0.37841095880E+04  0.34809917870E+04 0.  0.
        4    1    3    3  502    0 -0.15398737810E+04 -0.39454830034E+03 -0.28569682966E+02  0.15898734108E+04  0.12699999809E+01 0.  1.
       -4    1    3    3    0  502  0.15398737810E+04  0.39454830034E+03  0.15125445996E+04  0.21942361772E+04  0.12699999809E+01 0. -1.
</event>
<event>
 5   0  0.2203998E-07  0.3811321E+04  0.7818609E-02  0.8043730E-01
        2   -1    0    0  501    0  0.00000000000E+00  0.00000000000E+00  0.15311733738E+04  0.15311733738E+04  0.25500000920E-02 0. -1.
       -2   -1    0    0    0  501  0.00000000000E+00  0.00000000000E+00 -0.23717382962E+04  0.23717382962E+04  0.25500000920E-02 0.  1.
    10030    2    1    2    0    0  0.00000000000E+00  0.00000000000E+00 -0.84056492240E+03  0.39029116700E+04  0.38113213083E+04 0.  0.
        3    1    3    3  502    0 -0.28223226502E+03 -0.38751294710E+03 -0.23089804454E+04  0.23582222209E+04  0.10100000352E+00 0.  1.
       -3    1    3    3    0  502  0.28223226502E+03  0.38751294710E+03  0.14684155230E+04  0.15446894491E+04  0.10100000352E+00 0. -1.
</event>
<event>
 5   0  0.6661000E-08  0.3764891E+04  0.7818609E-02  0.8053731E-01
        1   -1    0    0  501    0  0.00000000000E+00  0.00000000000E+00  0.22334942633E+04  0.22334942633E+04  0.50400001928E-02 0.  1.
       -1   -1    0    0    0  501  0.00000000000E+00  0.00000000000E+00 -0.15865728205E+04  0.15865728205E+04  0.50400001928E-02 0. -1.
    10030    2    1    2    0    0  0.00000000000E+00  0.00000000000E+00  0.64692144276E+03  0.38200670838E+04  0.37648911234E+04 0.  0.
        3    1    3    3  502    0  0.13509729702E+04  0.34127714790E+01 -0.10066521404E+04  0.16847813375E+04  0.10100000352E+00 0. -1.
       -3    1    3    3    0  502 -0.13509729702E+04 -0.34127714790E+01  0.16535735831E+04  0.21352857463E+04  0.10100000352E+00 0.  1.
</event>
<event>
 5   0  0.2203998E-07  0.3810531E+04  0.7818609E-02  0.8043899E-01
        2   -1    0    0  501    0  0.00000000000E+00  0.00000000000E+00  0.12680275806E+04  0.12680275806E+04  0.25500000920E-02 0.  1.
       -2   -1    0    0    0  501  0.00000000000E+00  0.00000000000E+00 -0.28627419217E+04  0.28627419217E+04  0.25500000920E-02 0. -1.
    10030    2    1    2    0    0  0.00000000000E+00  0.00000000000E+00 -0.15947143411E+04  0.41307695023E+04  0.38105305210E+04 0.  0.
        3    1    3    3  502    0 -0.18677452753E+04  0.35686705406E+03 -0.92657732384E+03  0.21152711540E+04  0.10100000352E+00 0. -1.
       -3    1    3    3    0  502  0.18677452753E+04 -0.35686705406E+03 -0.66813701726E+03  0.20154983483E+04  0.10100000352E+00 0.  1.
</event>
<event>
 5   0  0.2081337E-07  0.3762770E+04  0.7818609E-02  0.8054192E-01
        2   -1    0    0  501    0  0.00000000000E+00  0.00000000000E+00  0.12781789366E+04  0.12781789366E+04  0.25500000920E-02 0. -1.
       -2   -1    0    0    0  501  0.00000000000E+00  0.00000000000E+00 -0.27692598312E+04  0.27692598312E+04  0.25500000920E-02 0.  1.
    10030    2    1    2    0    0  0.00000000000E+00  0.00000000000E+00 -0.14910808947E+04  0.40474387678E+04  0.37627700361E+04 0.  0.
        1    1    3    3  502    0 -0.16908674271E+04  0.61986307259E+03 -0.13311021420E+04  0.22394409564E+04  0.50400001928E-02 0.  1.
       -1    1    3    3    0  502  0.16908674271E+04 -0.61986307259E+03 -0.15997875267E+03  0.18079978114E+04  0.50400001928E-02 0. -1.
</event>
<event>
 5   0  0.6725199E-08  0.3773985E+04  0.7818609E-02  0.8051761E-01
       -1   -1    0    0    0  501  0.00000000000E+00  0.00000000000E+00  0.18636552711E+04  0.18636552711E+04  0.50400001928E-02 0.  1.
        1   -1    0    0  501    0  0.00000000000E+00  0.00000000000E+00 -0.19106220693E+04  0.19106220693E+04  0.50400001928E-02 0. -1.
    10030    2    1    2    0    0  0.00000000000E+00  0.00000000000E+00 -0.46966798244E+02  0.37742773404E+04  0.37739851036E+04 0.  0.
        5    1    3    3  502    0 -0.11460341881E+04 -0.71874616044E+02 -0.15209832269E+04  0.19057734355E+04  0.46999998093E+01 0. -1.
       -5    1    3    3    0  502  0.11460341881E+04  0.71874616044E+02  0.14740164287E+04  0.18685039049E+04  0.46999998093E+01 0.  1.
</event>
<event>
 5   0  0.6661000E-08  0.3787776E+04  0.7818609E-02  0.8048783E-01
        1   -1    0    0  501    0  0.00000000000E+00  0.00000000000E+00  0.26867078494E+04  0.26867078494E+04  0.50400001928E-02 0.  1.
       -1   -1    0    0    0  501  0.00000000000E+00  0.00000000000E+00 -0.13350210024E+04  0.13350210024E+04  0.50400001928E-02 0. -1.
    10030    2    1    2    0    0  0.00000000000E+00  0.00000000000E+00  0.13516868469E+04  0.40217288518E+04  0.37877758151E+04 0.  0.
        2    1    3    3  502    0 -0.16492127548E+04  0.66292866924E+03  0.13700091900E+04  0.22441707404E+04  0.25500000920E-02 0.  1.
       -2    1    3    3    0  502  0.16492127548E+04 -0.66292866924E+03 -0.18322343064E+02  0.17775581114E+04  0.25500000920E-02 0. -1.
</event>
<event>
 5   0  0.2205204E-07  0.3794982E+04  0.7818609E-02  0.8047233E-01
        2   -1    0    0  501    0  0.00000000000E+00  0.00000000000E+00  0.20873758012E+04  0.20873758012E+04  0.25500000920E-02 0.  1.
       -2   -1    0    0    0  501  0.00000000000E+00  0.00000000000E+00 -0.17248799061E+04  0.17248799061E+04  0.25500000920E-02 0. -1.
    10030    2    1    2    0    0  0.00000000000E+00  0.00000000000E+00  0.36249589504E+03  0.38122557073E+04  0.37949822534E+04 0.  0.
        2    1    3    3  502    0  0.14321332291E+04  0.12094159514E+04 -0.11467743211E+03  0.18779892020E+04  0.25500000920E-02 0.  1.
       -2    1    3    3    0  502 -0.14321332291E+04 -0.12094159514E+04  0.47717332715E+03  0.19342665053E+04  0.25500000920E-02 0. -1.
</event>
<event>
 5   0  0.2205204E-07  0.3759118E+04  0.7818609E-02  0.8054985E-01
        2   -1    0    0  501    0  0.00000000000E+00  0.00000000000E+00  0.20194415204E+04  0.20194415204E+04  0.25500000920E-02 0. -1.
       -2   -1    0    0    0  501  0.00000000000E+00  0.00000000000E+00 -0.17493659597E+04  0.17493659597E+04  0.25500000920E-02 0.  1.
    10030    2    1    2    0    0  0.00000000000E+00  0.00000000000E+00  0.27007556076E+03  0.37688074801E+04  0.37591181165E+04 0.  0.
        2    1    3    3  502    0  0.29768489699E+03  0.23688844946E+02 -0.17254298175E+04  0.17510812415E+04  0.25500000920E-02 0.  1.
       -2    1    3    3    0  502 -0.29768489699E+03 -0.23688844946E+02  0.19955053783E+04  0.20177262386E+04  0.25500000920E-02 0. -1.
</event>
<event>
 5   0  0.6661000E-08  0.3811622E+04  0.7818609E-02  0.8043665E-01
       -1   -1    0    0    0  501  0.00000000000E+00  0.00000000000E+00  0.24082192574E+04  0.24082192574E+04  0.50400001928E-02 0. -1.
        1   -1    0    0  501    0  0.00000000000E+00  0.00000000000E+00 -0.15082165815E+04  0.15082165815E+04  0.50400001928E-02 0.  1.
    10030    2    1    2    0    0  0.00000000000E+00  0.00000000000E+00  0.90000267589E+03  0.39164358388E+04  0.38116223400E+04 0.  0.
        1    1    3    3  502    0  0.12709514951E+04  0.61420169263E+03  0.17656626981E+04  0.22605588216E+04  0.50400001928E-02 0. -1.
       -1    1    3    3    0  502 -0.12709514951E+04 -0.61420169263E+03 -0.86566002222E+03  0.16558770173E+04  0.50400001928E-02 0.  1.
</event>
<event>
 5   0  0.1370688E-07  0.3789145E+04  0.7818609E-02  0.8048488E-01
       -2   -1    0    0    0  501  0.00000000000E+00  0.00000000000E+00  0.17375452780E+04  0.17375452780E+04  0.25500000920E-02 0.  1.
        2   -1    0    0  501    0  0.00000000000E+00  0.00000000000E+00 -0.20657905250E+04  0.20657905250E+04  0.25500000920E-02 0. -1.
    10030    2    1    2    0    0  0.00000000000E+00  0.00000000000E+00 -0.32824524706E+03  0.38033358030E+04  0.37891447964E+04 0.  0.
        5    1    3    3  502    0 -0.12169416992E+03 -0.89076056074E+03 -0.18380369552E+04  0.20461343519E+04  0.46999998093E+01 0. -1.
       -5    1    3    3    0  502  0.12169416992E+03  0.89076056074E+03  0.15097917081E+04  0.17572014510E+04  0.46999998093E+01 0.  1.
</event>
<event>
 5   0  0.2081337E-07  0.3828814E+04  0.7818609E-02  0.8040000E-01
        2   -1    0    0  501    0  0.00000000000E+00  0.00000000000E+00  0.17642343953E+04  0.17642343953E+04  0.25500000920E-02 0.  1.
       -2   -1    0    0    0  501  0.00000000000E+00  0.00000000000E+00 -0.20773628581E+04  0.20773628581E+04  0.25500000920E-02 0. -1.
    10030    2    1    2    0    0  0.00000000000E+00  0.00000000000E+00 -0.31312846276E+03  0.38415972534E+04  0.38288144409E+04 0.  0.
        1    1    3    3  502    0 -0.11482482125E+04 -0.11089961340E+04 -0.12167891362E+04  0.20072175230E+04  0.50400001928E-02 0. -1.
       -1    1    3    3    0  502  0.11482482125E+04  0.11089961340E+04  0.90366067341E+03  0.18343797304E+04  0.50400001928E-02 0.  1.
</event>
<event>
 5   0  0.6661000E-08  0.3514706E+04  0.7818609E-02  0.8110314E-01
        1   -1    0    0  501    0  0.00000000000E+00  0.00000000000E+00  0.20202640699E+04  0.20202640699E+04  0.50400001928E-02 0.  1.
       -1   -1    0    0    0  501  0.00000000000E+00  0.00000000000E+00 -0.15286566239E+04  0.15286566240E+04  0.50400001928E-02 0. -1.
    10030    2    1    2    0    0  0.00000000000E+00  0.00000000000E+00  0.49160744599E+03  0.35489206939E+04  0.35147062766E+04 0.  0.
        4    1    3    3  502    0  0.49421014131E+03 -0.16669905109E+04 -0.11999967021E+02  0.17387485843E+04  0.12699999809E+01 0. -1.
       -4    1    3    3    0  502 -0.49421014131E+03  0.16669905109E+04  0.50360741301E+03  0.18101721096E+04  0.12699999809E+01 0.  1.
</event>
<event>
 5   0  0.2081337E-07  0.3791884E+04  0.7818609E-02  0.8047899E-01
        2   -1    0    0  501    0  0.00000000000E+00  0.00000000000E+00  0.18447089250E+04  0.18447089250E+04  0.25500000920E-02 0.  1.
       -2   -1    0    0    0  501  0.00000000000E+00  0.00000000000E+00 -0.19485982825E+04  0.19485982825E+04  0.25500000920E-02 0. -1.
    10030    2    1    2    0    0  0.00000000000E+00  0.00000000000E+00 -0.10388935754E+03  0.37933072076E+04  0.37918843037E+04 0.  0.
        1    1    3    3  502    0 -0.16468670984E+04  0.48037799083E+03 -0.85950368789E+03  0.19187706594E+04  0.50400001928E-02 0. -1.
       -1    1    3    3    0  502  0.16468670984E+04 -0.48037799083E+03  0.75561433036E+03  0.18745365481E+04  0.50400001928E-02 0.  1.
</event>
<event>
 5   0  0.6661000E-08  0.3805983E+04  0.7818609E-02  0.8044872E-01
        1   -1    0    0  501    0  0.00000000000E+00  0.00000000000E+00  0.21755709303E+04  0.21755709303E+04  0.50400001928E-02 0. -1.
       -1   -1    0    0    0  501  0.00000000000E+00  0.00000000000E+00 -0.16645638795E+04  0.16645638795E+04  0.50400001928E-02 0.  1.
    10030    2    1    2    0    0  0.00000000000E+00  0.00000000000E+00  0.51100705082E+03  0.38401348098E+04  0.38059830729E+04 0.  0.
        1    1    3    3  502    0  0.10110035681E+04  0.14873561700E+04 -0.37218824247E+03  0.18365404104E+04  0.50400001928E-02 0.  1.
       -1    1    3    3    0  502 -0.10110035681E+04 -0.14873561700E+04  0.88319529329E+03  0.20035943994E+04  0.50400001928E-02 0. -1.
</event>
<event>
 5   0  0.2135314E-07  0.3803475E+04  0.7818609E-02  0.8045409E-01
       -2   -1    0    0    0  501  0.00000000000E+00  0.00000000000E+00  0.17535711337E+04  0.17535711337E+04  0.25500000920E-02 0.  1.
        2   -1    0    0  501    0  0.00000000000E+00  0.00000000000E+00 -0.20624234265E+04  0.20624234265E+04  0.25500000920E-02 0. -1.
    10030    2    1    2    0    0  0.00000000000E+00  0.00000000000E+00 -0.30885229273E+03  0.38159945602E+04  0.38034753509E+04 0.  0.
        4    1    3    3  502    0 -0.14779469251E+03 -0.16623836187E+04  0.76029955521E+03  0.18339628113E+04  0.12699999809E+01 0.  1.
       -4    1    3    3    0  502  0.14779469251E+03  0.16623836187E+04 -0.10691518479E+04  0.19820317489E+04  0.12699999809E+01 0. -1.
</event>
<event>
 5   0  0.6725199E-08  0.3798185E+04  0.7818609E-02  0.8046544E-01
        1   -1    0    0  501    0  0.00000000000E+00  0.00000000000E+00  0.19595682282E+04  0.19595682282E+04  0.50400001928E-02 0.  1.
       -1   -1    0    0    0  501  0.00000000000E+00  0.00000000000E+00 -0.18404836383E+04  0.18404836383E+04  0.50400001928E-02 0. -1.
    10030    2    1    2    0    0  0.00000000000E+00  0.00000000000E+00  0.11908458996E+03  0.38000518665E+04  0.37981854942E+04 0.  0.
        5    1    3    3  502    0  0.10518946631E+04 -0.72072126211E+03  0.14675751835E+04  0.19441503360E+04  0.46999998093E+01 0.  1.
       -5    1    3    3    0  502 -0.10518946631E+04  0.72072126211E+03 -0.13484905935E+04  0.18559015305E+04  0.46999998093E+01 0. -1.
</event>
<event>
 5   0  0.2203998E-07  0.3809151E+04  0.7818609E-02  0.8044194E-01
        2   -1    0    0  501    0  0.00000000000E+00  0.00000000000E+00  0.24990847490E+04  0.24990847490E+04  0.25500000920E-02 0.  1.
       -2   -1    0    0    0  501  0.00000000000E+00  0.00000000000E+00 -0.14514941966E+04  0.14514941966E+04  0.25500000920E-02 0. -1.
    10030    2    1    2    0    0  0.00000000000E+00  0.00000000000E+00  0.10475905525E+04  0.39505789456E+04  0.38091505667E+04 0.  0.
        3    1    3    3  502    0 -0.11597967932E+04 -0.78055318779E+03 -0.81767958356E+03  0.16195653096E+04  0.10100000352E+00 0. -1.
       -3    1    3    3    0  502  0.11597967932E+04  0.78055318779E+03  0.18652701360E+04  0.23310136360E+04  0.10100000352E+00 0.  1.
</event>
<event>
 5   0  0.2205204E-07  0.3821271E+04  0.7818609E-02  0.8041606E-01
       -2   -1    0    0    0  501  0.00000000000E+00  0.00000000000E+00  0.14550623013E+04  0.14550623013E+04  0.25500000920E-02 0.  1.
        2   -1    0    0  501    0  0.00000000000E+00  0.00000000000E+00 -0.25088464307E+04  0.25088464307E+04  0.25500000920E-02 0. -1.
    10030    2    1    2    0    0  0.00000000000E+00  0.00000000000E+00 -0.10537841294E+04  0.39639087320E+04  0.38212709200E+04 0.  0.
        2    1    3    3  502    0 -0.18951721116E+04 -0.16107476258E+03 -0.33872234829E+03  0.19319304441E+04  0.25500000920E-02 0.  1.
       -2    1    3    3    0  502  0.18951721116E+04  0.16107476258E+03 -0.71506178112E+03  0.20319782879E+04  0.25500000920E-02 0. -1.
</event>
<event>
 5   0  0.2081337E-07  0.3782032E+04  0.7818609E-02  0.8050022E-01
        2   -1    0    0  501    0  0.00000000000E+00  0.00000000000E+00  0.12805799035E+04  0.12805799035E+04  0.25500000920E-02 0. -1.
       -2   -1    0    0    0  501  0.00000000000E+00  0.00000000000E+00 -0.27924398506E+04  0.27924398506E+04  0.25500000920E-02 0.  1.
    10030    2    1    2    0    0  0.00000000000E+00  0.00000000000E+00 -0.15118599471E+04  0.40730197541E+04  0.37820324453E+04 0.  0.
        1    1    3    3  502    0 -0.14677235854E+03  0.15255005944E+04 -0.19489767234E+04  0.24793556536E+04  0.50400001928E-02 0.  1.
       -1    1    3    3    0  502  0.14677235854E+03 -0.15255005944E+04  0.43711677636E+03  0.15936641004E+04  0.50400001928E-02 0. -1.
</event>
<event>
 5   0  0.6661000E-08  0.3797495E+04  0.7818609E-02  0.8046693E-01
       -1   -1    0    0    0  501  0.00000000000E+00  0.00000000000E+00  0.16267220234E+04  0.16267220234E+04  0.50400001928E-02 0. -1.
        1   -1    0    0  501    0  0.00000000000E+00  0.00000000000E+00 -0.22162614129E+04  0.22162614129E+04  0.50400001928E-02 0.  1.
    10030    2    1    2    0    0  0.00000000000E+00  0.00000000000E+00 -0.58953938948E+03  0.38429834362E+04  0.37974945687E+04 0.  0.
        2    1    3    3  502    0  0.99668620406E+03  0.15897313842E+04 -0.40393131457E+00  0.18763340391E+04  0.25500000920E-02 0.  1.
       -2    1    3    3    0  502 -0.99668620406E+03 -0.15897313842E+04 -0.58913545816E+03  0.19666493971E+04  0.25500000920E-02 0. -1.
</event>
<event>
 5   0  0.2205204E-07  0.3808461E+04  0.7818609E-02  0.8044342E-01
       -2   -1    0    0    0  501  0.00000000000E+00  0.00000000000E+00  0.12368665933E+04  0.12368665933E+04  0.25500000920E-02 0.  1.
        2   -1    0    0  501    0  0.00000000000E+00  0.00000000000E+00 -0.29316777685E+04  0.29316777685E+04  0.25500000920E-02 0. -1.
    10030    2    1    2    0    0  0.00000000000E+00  0.00000000000E+00 -0.16948111751E+04  0.41685443618E+04  0.38084612610E+04 0.  0.
        2    1    3    3  502    0 -0.16565263283E+04 -0.58466627957E+03 -0.16518651151E+04  0.24113424670E+04  0.25500000920E-02 0. -1.
       -2    1    3    3    0  502  0.16565263283E+04  0.58466627957E+03 -0.42946060034E+02  0.17572018948E+04  0.25500000920E-02 0.  1.
</event>
<event>
 5   0  0.6661000E-08  0.3813276E+04  0.7818609E-02  0.8043312E-01
        1   -1    0    0  501    0  0.00000000000E+00  0.00000000000E+00  0.11561573364E+04  0.11561573364E+04  0.50400001928E-02 0. -1.
       -1   -1    0    0    0  501  0.00000000000E+00  0.00000000000E+00 -0.31442672809E+04  0.31442672809E+04  0.50400001928E-02 0.  1.
    10030    2    1    2    0    0  0.00000000000E+00  0.00000000000E+00 -0.19881099445E+04  0.43004246173E+04  0.38132755916E+04 0.  0.
        3    1    3    3  502    0 -0.41734264983E+03 -0.97106248196E+03 -0.27836396694E+04  0.29775471534E+04  0.10100000352E+00 0.  1.
       -3    1    3    3    0  502  0.41734264983E+03  0.97106248196E+03  0.79552972488E+03  0.13228774639E+04  0.10100000352E+00 0. -1.
</event>
<event>
 5   0  0.6661000E-08  0.3808320E+04  0.7818609E-02  0.8044372E-01
        1   -1    0    0  501    0  0.00000000000E+00  0.00000000000E+00  0.16111022976E+04  0.16111022976E+04  0.50400001928E-02 0. -1.
       -1   -1    0    0    0  501  0.00000000000E+00  0.00000000000E+00 -0.22505242816E+04  0.22505242816E+04  0.50400001928E-02 0.  1.
    10030    2    1    2    0    0  0.00000000000E+00  0.00000000000E+00 -0.63942198409E+03  0.38616265792E+04  0.38083197559E+04 0.  0.
        2    1    3    3  502    0  0.12829734741E+04  0.53682866338E+03 -0.16385389119E+04  0.21491895484E+04  0.25500000920E-02 0.  1.
       -2    1    3    3    0  502 -0.12829734741E+04 -0.53682866338E+03  0.99911692780E+03  0.17124370308E+04  0.25500000920E-02 0. -1.
</event>
<event>
 5   0  0.6661000E-08  0.3811493E+04  0.7818609E-02  0.8043693E-01
        1   -1    0    0  501    0  0.00000000000E+00  0.00000000000E+00  0.21650631462E+04  0.21650631462E+04  0.50400001928E-02 0. -1.
       -1   -1    0    0    0  501  0.00000000000E+00  0.00000000000E+00 -0.16774890328E+04  0.16774890328E+04  0.50400001928E-02 0.  1.
    10030    2    1    2    0    0  0.00000000000E+00  0.00000000000E+00  0.48757411342E+03  0.38425521790E+04  0.38114929794E+04 0.  0.
        2    1    3    3  502    0 -0.92301642034E+03  0.16598139424E+04  0.84614284740E+02  0.19010789602E+04  0.25500000920E-02 0.  1.
       -2    1    3    3    0  502  0.92301642034E+03 -0.16598139424E+04  0.40295982868E+03  0.19414732188E+04  0.25500000920E-02 0. -1.
</event>
<event>
 5   0  0.6725199E-08  0.3797988E+04  0.7818609E-02  0.8046587E-01
       -1   -1    0    0    0  501  0.00000000000E+00  0.00000000000E+00  0.16408516304E+04  0.16408516304E+04  0.50400001928E-02 0.  1.
        1   -1    0    0  501    0  0.00000000000E+00  0.00000000000E+00 -0.21977477227E+04  0.21977477227E+04  0.50400001928E-02 0. -1.
    10030    2    1    2    0    0  0.00000000000E+00  0.00000000000E+00 -0.55689609236E+03  0.38385993531E+04  0.37979878536E+04 0.  0.
        5    1    3    3  502    0  0.15630901142E+04 -0.10676187643E+01 -0.13683593236E+04  0.20774217611E+04  0.46999998093E+01 0. -1.
       -5    1    3    3    0  502 -0.15630901142E+04  0.10676187643E+01  0.81146323122E+03  0.17611775920E+04  0.46999998093E+01 0.  1.
</event>
<event>
 5   0  0.2203998E-07  0.3809512E+04  0.7818609E-02  0.8044117E-01
       -2   -1    0    0    0  501  0.00000000000E+00  0.00000000000E+00  0.15220003322E+04  0.15220003322E+04  0.25500000920E-02 0.  1.
        2   -1    0    0  501    0  0.00000000000E+00  0.00000000000E+00 -0.23837683960E+04  0.23837683960E+04  0.25500000920E-02 0. -1.
    10030    2    1    2    0    0  0.00000000000E+00  0.00000000000E+00 -0.86176806380E+03  0.39057687282E+04  0.38095124573E+04 0.  0.
        3    1    3    3  502    0 -0.13832110486E+04  0.33617864701E+03 -0.17284883219E+04  0.22391875260E+04  0.10100000352E+00 0. -1.
       -3    1    3    3    0  502  0.13832110486E+04 -0.33617864701E+03  0.86672025808E+03  0.16665812022E+04  0.10100000352E+00 0.  1.
</event>
<event>
 5   0  0.2135314E-07  0.3525311E+04  0.7818609E-02  0.8107818E-01
        2   -1    0    0  501    0  0.00000000000E+00  0.00000000000E+00  0.14891159272E+04  0.14891159272E+04  0.25500000920E-02 0.  1.
       -2   -1    0    0    0  501  0.00000000000E+00  0.00000000000E+00 -0.20864420471E+04  0.20864420471E+04  0.25500000920E-02 0. -1.
    10030    2    1    2    0    0  0.00000000000E+00  0.00000000000E+00 -0.59732611996E+03  0.35755579743E+04  0.35253108138E+04 0.  0.
        4    1    3    3  502    0 -0.16249991793E+04 -0.65049080280E+03 -0.87874357874E+02  0.17525650154E+04  0.12699999809E+01 0.  1.
       -4    1    3    3    0  502  0.16249991793E+04  0.65049080280E+03 -0.50945176209E+03  0.18229929589E+04  0.12699999809E+01 0. -1.
</event>
<event>
 5   0  0.1370688E-07  0.3812947E+04  0.7818609E-02  0.8043382E-01
       -2   -1    0    0    0  501  0.00000000000E+00  0.00000000000E+00  0.34475126462E+04  0.34475126462E+04  0.25500000920E-02 0. -1.
        2   -1    0    0  501    0  0.00000000000E+00  0.00000000000E+00 -0.10542793291E+04  0.10542793291E+04  0.25500000920E-02 0.  1.
    10030    2    1    2    0    0  0.00000000000E+00  0.00000000000E+00  0.23932333171E+04  0.45017919753E+04  0.38129470595E+04 0.  0.
        5    1    3    3  502    0 -0.26832752561E+03  0.18684961370E+04  0.88126396773E+03  0.20832488439E+04  0.46999998093E+01 0.  1.
       -5    1    3    3    0  502  0.26832752561E+03 -0.18684961370E+04  0.15119693494E+04  0.24185431314E+04  0.46999998093E+01 0. -1.
</event>
<event>
 5   0  0.1370688E-07  0.3791502E+04  0.7818609E-02  0.8047981E-01
       -2   -1    0    0    0  501  0.00000000000E+00  0.00000000000E+00  0.15365628642E+04  0.15365628643E+04  0.25500000920E-02 0. -1.
        2   -1    0    0  501    0  0.00000000000E+00  0.00000000000E+00 -0.23389038061E+04  0.23389038061E+04  0.25500000920E-02 0.  1.
    10030    2    1    2    0    0  0.00000000000E+00  0.00000000000E+00 -0.80234094180E+03  0.38754666703E+04  0.37915024628E+04 0.  0.
        5    1    3    3  502    0 -0.14508625533E+04 -0.36914922108E+03 -0.15899291982E+04  0.21838429983E+04  0.46999998093E+01 0.  1.
       -5    1    3    3    0  502  0.14508625533E+04  0.36914922108E+03  0.78758825636E+03  0.16916236720E+04  0.46999998093E+01 0. -1.
</event>
<event>
 5   0  0.1370688E-07  0.3804081E+04  0.7818609E-02  0.8045280E-01
       -2   -1    0    0    0  501  0.00000000000E+00  0.00000000000E+00  0.15151703082E+04  0.15151703082E+04  0.25500000920E-02 0. -1.
        2   -1    0    0  501    0  0.00000000000E+00  0.00000000000E+00 -0.23876905249E+04  0.23876905249E+04  0.25500000920E-02 0.  1.
    10030    2    1    2    0    0  0.00000000000E+00  0.00000000000E+00 -0.87252021668E+03  0.39028608332E+04  0.38040808554E+04 0.  0.
        5    1    3    3  502    0  0.15378841178E+04 -0.78352930420E+03 -0.12562187984E+04  0.21347396773E+04  0.46999998093E+01 0.  1.
       -5    1    3    3    0  502 -0.15378841178E+04  0.78352930420E+03  0.38369858169E+03  0.17681211559E+04  0.46999998093E+01 0. -1.
</event>
<event>
 5   0  0.6725199E-08  0.3727137E+04  0.7818609E-02  0.8061975E-01
        1   -1    0    0  501    0  0.00000000000E+00  0.00000000000E+00  0.23590218470E+04  0.23590218470E+04  0.50400001928E-02 0. -1.
       -1   -1    0    0    0  501  0.00000000000E+00  0.00000000000E+00 -0.14721723279E+04  0.14721723279E+04  0.50400001928E-02 0.  1.
    10030    2    1    2    0    0  0.00000000000E+00  0.00000000000E+00  0.88684951918E+03  0.38311941749E+04  0.37271365331E+04 0.  0.
        5    1    3    3  502    0  0.69702384110E+03  0.13691430470E+04  0.15276086560E+04  0.21665653035E+04  0.46999998093E+01 0. -1.
       -5    1    3    3    0  502 -0.69702384110E+03 -0.13691430470E+04 -0.64075913681E+03  0.16646288714E+04  0.46999998093E+01 0.  1.
</event>
<event>
 5   0  0.6725199E-08  0.3800213E+04  0.7818609E-02  0.8046109E-01
        1   -1    0    0  501    0  0.00000000000E+00  0.00000000000E+00  0.12339995620E+04  0.12339995621E+04  0.50400001928E-02 0.  1.
       -1   -1    0    0    0  501  0.00000000000E+00  0.00000000000E+00 -0.29257750419E+04  0.29257750419E+04  0.50400001928E-02 0. -1.
    10030    2    1    2    0    0  0.00000000000E+00  0.00000000000E+00 -0.16917754798E+04  0.41597746039E+04  0.38002132153E+04 0.  0.
        5    1    3    3  502    0 -0.52814681318E+03  0.50528980727E+02 -0.28430419928E+04  0.28921276073E+04  0.46999998093E+01 0. -1.
       -5    1    3    3    0  502  0.52814681318E+03 -0.50528980727E+02  0.11512665130E+04  0.12676469966E+04  0.46999998093E+01 0.  1.
</event>
<event>
 5   0  0.6661000E-08  0.3609616E+04  0.7818609E-02  0.8088293E-01
       -1   -1    0    0    0  501  0.00000000000E+00  0.00000000000E+00  0.16319834998E+04  0.16319834998E+04  0.50400001928E-02 0. -1.
        1   -1    0    0  501    0  0.00000000000E+00  0.00000000000E+00 -0.19959346405E+04  0.19959346405E+04  0.50400001928E-02 0.  1.
    10030    2    1    2    0    0  0.00000000000E+00  0.00000000000E+00 -0.36395114067E+03  0.36279181404E+04  0.36096162677E+04 0.  0.
        4    1    3    3  502    0 -0.11808247084E+04 -0.92095271385E+03 -0.11944709961E+04  0.19155321627E+04  0.12699999809E+01 0.  1.
       -4    1    3    3    0  502  0.11808247084E+04  0.92095271385E+03  0.83051985541E+03  0.17123859776E+04  0.12699999809E+01 0. -1.
</event>
<event>
 5   0  0.6661000E-08  0.3804590E+04  0.7818609E-02  0.8045171E-01
        1   -1    0    0  501    0  0.00000000000E+00  0.00000000000E+00  0.12051767205E+04  0.12051767205E+04  0.50400001928E-02 0.  1.
       -1   -1    0    0    0  501  0.00000000000E+00  0.00000000000E+00 -0.30026521708E+04  0.30026521708E+04  0.50400001928E-02 0. -1.
    10030    2    1    2    0    0  0.00000000000E+00  0.00000000000E+00 -0.17974754503E+04  0.42078288913E+04  0.38045901203E+04 0.  0.
        1    1    3    3  502    0  0.70345017300E+03  0.45564397935E+03  0.98996791611E+03  0.12971083443E+04  0.50400001928E-02 0.  1.
       -1    1    3    3    0  502 -0.70345017300E+03 -0.45564397935E+03 -0.27874433664E+04  0.29107205470E+04  0.50400001928E-02 0. -1.
</event>
<event>
 5   0  0.2135314E-07  0.3717343E+04  0.7818609E-02  0.8064129E-01
       -2   -1    0    0    0  501  0.00000000000E+00  0.00000000000E+00  0.17541261463E+04  0.17541261463E+04  0.25500000920E-02 0. -1.
        2   -1    0    0  501    0  0.00000000000E+00  0.00000000000E+00 -0.19694479636E+04  0.19694479636E+04  0.25500000920E-02 0.  1.
    10030    2    1    2    0    0  0.00000000000E+00  0.00000000000E+00 -0.21532181736E+03  0.37235741099E+04  0.37173432270E+04 0.  0.
        4    1    3    3  502    0 -0.76751694119E+03  0.10831717024E+04 -0.14107316352E+04  0.19371392700E+04  0.12699999809E+01 0.  1.
       -4    1    3    3    0  502  0.76751694119E+03 -0.10831717024E+04  0.11954098178E+04  0.17864348399E+04  0.12699999809E+01 0. -1.
</event>
<event>
 5   0  0.1370688E-07  0.3797975E+04  0.7818609E-02  0.8046590E-01
        2   -1    0    0  501    0  0.00000000000E+00  0.00000000000E+00  0.19313571242E+04  0.19313571242E+04  0.25500000920E-02 0.  1.
       -2   -1    0    0    0  501  0.00000000000E+00  0.00000000000E+00 -0.18671601295E+04  0.18671601295E+04  0.25500000920E-02 0. -1.
    10030    2    1    2    0    0  0.00000000000E+00  0.00000000000E+00  0.64196994765E+02  0.37985172537E+04  0.37979747330E+04 0.  0.
        5    1    3    3  502    0  0.11387252007E+04  0.15144849422E+04 -0.93502901081E+02  0.18971358953E+04  0.46999998093E+01 0.  1.
       -5    1    3    3    0  502 -0.11387252007E+04 -0.15144849422E+04  0.15769989585E+03  0.19013813584E+04  0.46999998093E+01 0. -1.
</event>
<event>
 5   0  0.6725199E-08  0.3369411E+04  0.7818609E-02  0.8145455E-01
       -1   -1    0    0    0  501  0.00000000000E+00  0.00000000000E+00  0.22065606757E+04  0.22065606757E+04  0.50400001928E-02 0. -1.
        1   -1    0    0  501    0  0.00000000000E+00  0.00000000000E+00 -0.12862701331E+04  0.12862701331E+04  0.50400001928E-02 0.  1.
    10030    2    1    2    0    0  0.00000000000E+00  0.00000000000E+00  0.92029054256E+03  0.34928308088E+04  0.33694112804E+04 0.  0.
        5    1    3    3  502    0  0.91056284759E+03  0.58501896889E+03  0.17984973097E+04  0.20990442006E+04  0.46999998093E+01 0. -1.
       -5    1    3    3    0  502 -0.91056284759E+03 -0.58501896889E+03 -0.87820676709E+03  0.13937866082E+04  0.46999998093E+01 0.  1.
</event>
<event>
 5   0  0.2081337E-07  0.3799436E+04  0.7818609E-02  0.8046276E-01
        2   -1    0    0  501    0  0.00000000000E+00  0.00000000000E+00  0.22693136310E+04  0.22693136310E+04  0.25500000920E-02 0.  1.
       -2   -1    0    0    0  501  0.00000000000E+00  0.00000000000E+00 -0.15903175681E+04  0.15903175681E+04  0.25500000920E-02 0. -1.
    10030    2    1    2    0    0  0.00000000000E+00  0.00000000000E+00  0.67899606285E+03  0.38596311991E+04  0.37994364503E+04 0.  0.
        1    1    3    3  502    0 -0.52013802604E+03 -0.15010001510E+04 -0.71882535766E+03  0.17436326776E+04  0.50400001928E-02 0. -1.
       -1    1    3    3    0  502  0.52013802604E+03  0.15010001510E+04  0.13978214205E+04  0.21159985215E+04  0.50400001928E-02 0.  1.
</event>
<event>
 5   0  0.2205204E-07  0.3814792E+04  0.7818609E-02  0.8042988E-01
        2   -1    0    0  501    0  0.00000000000E+00  0.00000000000E+00  0.19092254416E+04  0.19092254416E+04  0.25500000920E-02 0.  1.
       -2   -1    0    0    0  501  0.00000000000E+00  0.00000000000E+00 -0.19055684403E+04  0.19055684403E+04  0.25500000920E-02 0. -1.
    10030    2    1    2    0    0  0.00000000000E+00  0.00000000000E+00  0.36570013261E+01  0.38147938819E+04  0.38147921291E+04 0.  0.
        2    1    3    3  502    0  0.13987761981E+04 -0.19376508642E+03  0.12840303166E+04  0.19086261066E+04  0.25500000920E-02 0.  1.
       -2    1    3    3    0  502 -0.13987761981E+04  0.19376508642E+03 -0.12803733153E+04  0.19061677753E+04  0.25500000920E-02 0. -1.
</event>
<event>
 5   0  0.2205204E-07  0.3799493E+04  0.7818609E-02  0.8046264E-01
       -2   -1    0    0    0  501  0.00000000000E+00  0.00000000000E+00  0.18406652794E+04  0.18406652794E+04  0.25500000920E-02 0. -1.
        2   -1    0    0  501    0  0.00000000000E+00  0.00000000000E+00 -0.19607235968E+04  0.19607235968E+04  0.25500000920E-02 0.  1.
    10030    2    1    2    0    0  0.00000000000E+00  0.00000000000E+00 -0.12005831740E+03  0.38013888762E+04  0.37994925172E+04 0.  0.
        2    1    3    3  502    0  0.10564036650E+04  0.11601554542E+04 -0.11315849401E+04  0.19345371173E+04  0.25500000920E-02 0.  1.
       -2    1    3    3    0  502 -0.10564036650E+04 -0.11601554542E+04  0.10115266227E+04  0.18668517589E+04  0.25500000920E-02 0. -1.
</event>
<event>
 5   0  0.6661000E-08  0.3804851E+04  0.7818609E-02  0.8045115E-01
        1   -1    0    0  501    0  0.00000000000E+00  0.00000000000E+00  0.27149958862E+04  0.27149958862E+04  0.50400001928E-02 0. -1.
       -1   -1    0    0    0  501  0.00000000000E+00  0.00000000000E+00 -0.13330491938E+04  0.13330491938E+04  0.50400001928E-02 0.  1.
    10030    2    1    2    0    0  0.00000000000E+00  0.00000000000E+00  0.13819466924E+04  0.40480450800E+04  0.38048511546E+04 0.  0.
        4    1    3    3  502    0 -0.16961141014E+04  0.41247931547E+03  0.14958172555E+04  0.22987851368E+04  0.12699999809E+01 0. -1.
       -4    1    3    3    0  502  0.16961141014E+04 -0.41247931547E+03 -0.11387056310E+03  0.17492599432E+04  0.12699999809E+01 0.  1.
</event>
<event>
 5   0  0.6661000E-08  0.3757946E+04  0.7818609E-02  0.8055240E-01
       -1   -1    0    0    0  501  0.00000000000E+00  0.00000000000E+00  0.23648535329E+04  0.23648535329E+04  0.50400001928E-02 0. -1.
        1   -1    0    0  501    0  0.00000000000E+00  0.00000000000E+00 -0.14929210868E+04  0.14929210868E+04  0.50400001928E-02 0.  1.
    10030    2    1    2    0    0  0.00000000000E+00  0.00000000000E+00  0.87193244611E+03  0.38577746197E+04  0.37579460914E+04 0.  0.
        1    1    3    3  502    0 -0.11545786213E+04  0.84044246022E+03 -0.81759674642E+03  0.16455575838E+04  0.50400001928E-02 0.  1.
       -1    1    3    3    0  502  0.11545786213E+04 -0.84044246022E+03  0.16895291925E+04  0.22122170359E+04  0.50400001928E-02 0. -1.
</event>
<event>
 5   0  0.1370688E-07  0.3807229E+04  0.7818609E-02  0.8044605E-01
        2   -1    0    0  501    0  0.00000000000E+00  0.00000000000E+00  0.12864676783E+04  0.12864676783E+04  0.25500000920E-02 0. -1.
       -2   -1    0    0    0  501  0.00000000000E+00  0.00000000000E+00 -0.28168200673E+04  0.28168200673E+04  0.25500000920E-02 0.  1.
    10030    2    1    2    0    0  0.00000000000E+00  0.00000000000E+00 -0.15303523890E+04  0.41032877456E+04  0.38072288989E+04 0.  0.
        5    1    3    3  502    0 -0.44478978259E+03 -0.16373034730E+04  0.16515510136E+03  0.17046697366E+04  0.46999998093E+01 0. -1.
       -5    1    3    3    0  502  0.44478978259E+03  0.16373034730E+04 -0.16955074904E+04  0.23986180090E+04  0.46999998093E+01 0.  1.
</event>
<event>
 5   0  0.6725199E-08  0.3790287E+04  0.7818609E-02  0.8048243E-01
       -1   -1    0    0    0  501  0.00000000000E+00  0.00000000000E+00  0.10610520770E+04  0.10610520770E+04  0.50400001928E-02 0. -1.
        1   -1    0    0  501    0  0.00000000000E+00  0.00000000000E+00 -0.33849124674E+04  0.33849124674E+04  0.50400001928E-02 0.  1.
    10030    2    1    2    0    0  0.00000000000E+00  0.00000000000E+00 -0.23238603904E+04  0.44459645444E+04  0.37902867459E+04 0.  0.
        5    1    3    3  502    0  0.12380819213E+03 -0.63050734200E+03  0.92937405104E+03  0.11298788402E+04  0.46999998093E+01 0. -1.
       -5    1    3    3    0  502 -0.12380819213E+03  0.63050734200E+03 -0.32532344415E+04  0.33160857042E+04  0.46999998093E+01 0.  1.
</event>
<event>
 5   0  0.2205204E-07  0.3589928E+04  0.7818609E-02  0.8092803E-01
       -2   -1    0    0    0  501  0.00000000000E+00  0.00000000000E+00  0.20346913877E+04  0.20346913877E+04  0.25500000920E-02 0.  1.
        2   -1    0    0  501    0  0.00000000000E+00  0.00000000000E+00 -0.15834815924E+04  0.15834815924E+04  0.25500000920E-02 0. -1.
    10030    2    1    2    0    0  0.00000000000E+00  0.00000000000E+00  0.45120979522E+03  0.36181729801E+04  0.35899283328E+04 0.  0.
        2    1    3    3  502    0  0.69534719249E+03  0.11977331183E+04 -0.92523003458E+03  0.16655698597E+04  0.25500000920E-02 0. -1.
       -2    1    3    3    0  502 -0.69534719249E+03 -0.11977331183E+04  0.13764398298E+04  0.19526031204E+04  0.25500000920E-02 0.  1.
</event>
<event>
 5   0  0.2135314E-07  0.3816324E+04  0.7818609E-02  0.8042661E-01
        2   -1    0    0  501    0  0.00000000000E+00  0.00000000000E+00  0.23175688640E+04  0.23175688640E+04  0.25500000920E-02 0.  1.
       -2   -1    0    0    0  501  0.00000000000E+00  0.00000000000E+00 -0.15710779291E+04  0.15710779291E+04  0.25500000920E-02 0. -1.
    10030    2    1    2    0    0  0.00000000000E+00  0.00000000000E+00  0.74649093495E+03  0.38886467931E+04  0.38163235143E+04 0.  0.
        4    1    3    3  502    0 -0.96651418962E+03 -0.50457923809E+03  0.19689142613E+04  0.22506387688E+04  0.12699999809E+01 0.  1.
       -4    1    3    3    0  502  0.96651418962E+03  0.50457923809E+03 -0.12224233263E+04  0.16380080244E+04  0.12699999809E+01 0. -1.
</event>
<event>
 5   0  0.6661000E-08  0.3743939E+04  0.7818609E-02  0.8058294E-01
       -1   -1    0    0    0  501  0.00000000000E+00  0.00000000000E+00  0.19375242595E+04  0.19375242595E+04  0.50400001928E-02 0.  1.
        1   -1    0    0  501    0  0.00000000000E+00  0.00000000000E+00 -0.18086327170E+04  0.18086327170E+04  0.50400001928E-02 0. -1.
    10030    2    1    2    0    0  0.00000000000E+00  0.00000000000E+00  0.12889154253E+03  0.37461569765E+04  0.37439389770E+04 0.  0.
        4    1    3    3  502    0  0.12679014066E+03 -0.16381970414E+04 -0.83302643601E+03  0.18421997563E+04  0.12699999809E+01 0. -1.
       -4    1    3    3    0  502 -0.12679014066E+03  0.16381970414E+04  0.96191797855E+03  0.19039572202E+04  0.12699999809E+01 0.  1.
</event>
<event>
 5   0  0.1370688E-07  0.3809691E+04  0.7818609E-02  0.8044078E-01
       -2   -1    0    0    0  501  0.00000000000E+00  0.00000000000E+00  0.12213080625E+04  0.12213080625E+04  0.25500000920E-02 0. -1.
        2   -1    0    0  501    0  0.00000000000E+00  0.00000000000E+00 -0.29709435323E+04  0.29709435323E+04  0.25500000920E-02 0.  1.
    10030    2    1    2    0    0  0.00000000000E+00  0.00000000000E+00 -0.17496354697E+04  0.41922515948E+04  0.38096914780E+04 0.  0.
        5    1    3    3  502    0  0.45980710427E+03 -0.10896552807E+03  0.11557790214E+04  0.12486565964E+04  0.46999998093E+01 0. -1.
       -5    1    3    3    0  502 -0.45980710427E+03  0.10896552807E+03 -0.29054144911E+04  0.29435949984E+04  0.46999998093E+01 0.  1.
</event>
<event>
 5   0  0.2203998E-07  0.3805240E+04  0.7818609E-02  0.8045031E-01
        2   -1    0    0  501    0  0.00000000000E+00  0.00000000000E+00  0.28870375020E+04  0.28870375020E+04  0.25500000920E-02 0. -1.
       -2   -1    0    0    0  501  0.00000000000E+00  0.00000000000E+00 -0.12538675286E+04  0.12538675286E+04  0.25500000920E-02 0.  1.
    10030    2    1    2    0    0  0.00000000000E+00  0.00000000000E+00  0.16331699734E+04  0.41409050307E+04  0.38052398493E+04 0.  0.
        3    1    3    3  502    0 -0.14264595218E+04  0.10954056070E+04  0.14920323683E+04  0.23368484781E+04  0.10100000352E+00 0. -1.
       -3    1    3    3    0  502  0.14264595218E+04 -0.10954056070E+04  0.14113760511E+03  0.18040565526E+04  0.10100000352E+00 0.  1.
</event>
<event>
 5   0  0.2135314E-07  0.3767719E+04  0.7818609E-02  0.8053118E-01
        2   -1    0    0  501    0  0.00000000000E+00  0.00000000000E+00  0.34085875939E+04  0.34085875939E+04  0.25500000920E-02 0. -1.
       -2   -1    0    0    0  501  0.00000000000E+00  0.00000000000E+00 -0.10411723485E+04  0.10411723485E+04  0.25500000920E-02 0.  1.
    10030    2    1    2    0    0  0.00000000000E+00  0.00000000000E+00  0.23674152454E+04  0.44497599424E+04  0.37677192837E+04 0.  0.
        4    1    3    3  502    0  0.12121120590E+04  0.14415679283E+04  0.12308273273E+04  0.22499491679E+04  0.12699999809E+01 0. -1.
       -4    1    3    3    0  502 -0.12121120590E+04 -0.14415679283E+04  0.11365879180E+04  0.21998107745E+04  0.12699999809E+01 0.  1.
</event>
<event>
 5   0  0.6661000E-08  0.3784543E+04  0.7818609E-02  0.8049480E-01
        1   -1    0    0  501    0  0.00000000000E+00  0.00000000000E+00  0.23811659201E+04  0.23811659201E+04  0.50400001928E-02 0. -1.
       -1   -1    0    0    0  501  0.00000000000E+00  0.00000000000E+00 -0.15037558446E+04  0.15037558446E+04  0.50400001928E-02 0.  1.
    10030    2    1    2    0    0  0.00000000000E+00  0.00000000000E+00  0.87741007549E+03  0.38849217647E+04  0.37845433908E+04 0.  0.
        2    1    3    3  502    0  0.11759146646E+04 -0.14545620360E+04  0.73295422309E+03  0.20089170983E+04  0.25500000920E-02 0.  1.
       -2    1    3    3    0  502 -0.11759146646E+04  0.14545620360E+04  0.14445585240E+03  0.18760046663E+04  0.25500000920E-02 0. -1.
</event>
<event>
 5   0  0.1370688E-07  0.3595755E+04  0.7818609E-02  0.8091465E-01
        2   -1    0    0  501    0  0.00000000000E+00  0.00000000000E+00  0.33581532181E+04  0.33581532181E+04  0.25500000920E-02 0.  1.
       -2   -1    0    0    0  501  0.00000000000E+00  0.00000000000E+00 -0.96254216783E+03  0.96254216783E+03  0.25500000920E-02 0. -1.
    10030    2    1    2    0    0  0.00000000000E+00  0.00000000000E+00  0.23956110502E+04  0.43206953859E+04  0.35957553189E+04 0.  0.
        5    1    3    3  502    0 -0.81667803161E+03  0.15305374214E+04  0.17650292976E+04  0.24748451097E+04  0.46999998093E+01 0.  1.
       -5    1    3    3    0  502  0.81667803161E+03 -0.15305374214E+04  0.63058175265E+03  0.18458502762E+04  0.46999998093E+01 0. -1.
</event>
<event>
 5   0  0.6661000E-08  0.3818664E+04  0.7818609E-02  0.8042161E-01
        1   -1    0    0  501    0  0.00000000000E+00  0.00000000000E+00  0.25223728313E+04  0.25223728313E+04  0.50400001928E-02 0. -1.
       -1   -1    0    0    0  501  0.00000000000E+00  0.00000000000E+00 -0.14452855464E+04  0.14452855464E+04  0.50400001928E-02 0.  1.
    10030    2    1    2    0    0  0.00000000000E+00  0.00000000000E+00  0.10770872849E+04  0.39676583777E+04  0.38186641621E+04 0.  0.
        3    1    3    3  502    0 -0.12480720020E+04 -0.40199519931E+03  0.19805953624E+04  0.23752982680E+04  0.10100000352E+00 0. -1.
       -3    1    3    3    0  502  0.12480720020E+04  0.40199519931E+03 -0.90350807745E+03  0.15923601096E+04  0.10100000352E+00 0.  1.
</event>
<event>
 5   0  0.2135314E-07  0.3648163E+04  0.7818609E-02  0.8079548E-01
       -2   -1    0    0    0  501  0.00000000000E+00  0.00000000000E+00  0.15977107604E+04  0.15977107604E+04  0.25500000920E-02 0. -1.
        2   -1    0    0  501    0  0.00000000000E+00  0.00000000000E+00 -0.20825253378E+04  0.20825253378E+04  0.25500000920E-02 0.  1.
    10030    2    1    2    0    0  0.00000000000E+00  0.00000000000E+00 -0.48481457733E+03  0.36802360982E+04  0.36481629026E+04 0.  0.
        4    1    3    3  502    0  0.14693896058E+04  0.58331429166E+03 -0.11603024109E+04  0.19610366326E+04  0.12699999809E+01 0. -1.
       -4    1    3    3    0  502 -0.14693896058E+04 -0.58331429166E+03  0.67548783362E+03  0.17191994657E+04  0.12699999809E+01 0.  1.
</event>
<event>
 5   0  0.6661000E-08  0.3807240E+04  0.7818609E-02  0.8044603E-01
        1   -1    0    0  501    0  0.00000000000E+00  0.00000000000E+00  0.23101571054E+04  0.23101571054E+04  0.50400001928E-02 0.  1.
       -1   -1    0    0    0  501  0.00000000000E+00  0.00000000000E+00 -0.15686248786E+04  0.15686248786E+04  0.50400001928E-02 0. -1.
    10030    2    1    2    0    0  0.00000000000E+00  0.00000000000E+00  0.74153222682E+03  0.38787819840E+04  0.38072404227E+04 0.  0.
        1    1    3    3  502    0  0.85425805535E+03  0.64709771722E+02 -0.13611262355E+04  0.16082937570E+04  0.50400001928E-02 0. -1.
       -1    1    3    3    0  502 -0.85425805535E+03 -0.64709771722E+02  0.21026584624E+04  0.22704882270E+04  0.50400001928E-02 0.  1.
</event>
<event>
 5   0  0.1370688E-07  0.3797222E+04  0.7818609E-02  0.8046751E-01
       -2   -1    0    0    0  501  0.00000000000E+00  0.00000000000E+00  0.25843385361E+04  0.25843385361E+04  0.25500000920E-02 0.  1.
        2   -1    0    0  501    0  0.00000000000E+00  0.00000000000E+00 -0.13948344414E+04  0.13948344414E+04  0.25500000920E-02 0. -1.
    10030    2    1    2    0    0  0.00000000000E+00  0.00000000000E+00  0.11895040948E+04  0.39791729775E+04  0.37972223523E+04 0.  0.
        5    1    3    3  502    0  0.39453741264E+03 -0.18542213287E+04  0.48531720837E+03  0.19568728596E+04  0.46999998093E+01 0. -1.
       -5    1    3    3    0  502 -0.39453741264E+03  0.18542213287E+04  0.70418688639E+03  0.20223001179E+04  0.46999998093E+01 0.  1.
</event>
<event>
 5   0  0.6725199E-08  0.3712874E+04  0.7818609E-02  0.8065115E-01
       -1   -1    0    0    0  501  0.00000000000E+00  0.00000000000E+00  0.15814727326E+04  0.15814727326E+04  0.50400001928E-02 0.  1.
        1   -1    0    0  501    0  0.00000000000E+00  0.00000000000E+00 -0.21792078413E+04  0.21792078414E+04  0.50400001928E-02 0. -1.
    10030    2    1    2    0    0  0.00000000000E+00  0.00000000000E+00 -0.59773510877E+03  0.37606805739E+04  0.37128737009E+04 0.  0.
        5    1    3    3  502    0  0.12869748379E+04  0.13356370049E+04 -0.37800971504E+03  0.18929194058E+04  0.46999998093E+01 0. -1.
       -5    1    3    3    0  502 -0.12869748379E+04 -0.13356370049E+04 -0.21972539373E+03  0.18677611681E+04  0.46999998093E+01 0.  1.
</event>
<event>
 5   0  0.6725199E-08  0.3786308E+04  0.7818609E-02  0.8049099E-01
        1   -1    0    0  501    0  0.00000000000E+00  0.00000000000E+00  0.22153843879E+04  0.22153843879E+04  0.50400001928E-02 0.  1.
       -1   -1    0    0    0  501  0.00000000000E+00  0.00000000000E+00 -0.16177928007E+04  0.16177928007E+04  0.50400001928E-02 0. -1.
    10030    2    1    2    0    0  0.00000000000E+00  0.00000000000E+00  0.59759158722E+03  0.38331771886E+04  0.37863084467E+04 0.  0.
        5    1    3    3  502    0  0.17749615200E+03 -0.14025471561E+04  0.15734954491E+04  0.21153140257E+04  0.46999998093E+01 0.  1.
       -5    1    3    3    0  502 -0.17749615200E+03  0.14025471561E+04 -0.97590386183E+03  0.17178631629E+04  0.46999998093E+01 0. -1.
</event>
<event>
 5   0  0.1370688E-07  0.3986808E+04  0.7818609E-02  0.8007213E-01
       -2   -1    0    0    0  501  0.00000000000E+00  0.00000000000E+00  0.19287167852E+04  0.19287167852E+04  0.25500000920E-02 0. -1.
        2   -1    0    0  501    0  0.00000000000E+00  0.00000000000E+00 -0.20602611840E+04  0.20602611840E+04  0.25500000920E-02 0.  1.
    10030    2    1    2    0    0  0.00000000000E+00  0.00000000000E+00 -0.13154439881E+03  0.39889779692E+04  0.39868084115E+04 0.  0.
        5    1    3    3  502    0 -0.48326203021E+03  0.14285260818E+04  0.12385511376E+04  0.19514763557E+04  0.46999998093E+01 0. -1.
       -5    1    3    3    0  502  0.48326203021E+03 -0.14285260818E+04 -0.13700955364E+04  0.20375016135E+04  0.46999998093E+01 0.  1.
</event>
<event>
 5   0  0.6661000E-08  0.3817144E+04  0.7818609E-02  0.8042486E-01
        1   -1    0    0  501    0  0.00000000000E+00  0.00000000000E+00  0.22978439335E+04  0.22978439335E+04  0.50400001928E-02 0. -1.
       -1   -1    0    0    0  501  0.00000000000E+00  0.00000000000E+00 -0.15852457460E+04  0.15852457460E+04  0.50400001928E-02 0.  1.
    10030    2    1    2    0    0  0.00000000000E+00  0.00000000000E+00  0.71259818748E+03  0.38830896795E+04  0.38171441265E+04 0.  0.
        4    1    3    3  502    0  0.81122269537E+03  0.75034850168E+03 -0.12267148394E+04  0.16510408976E+04  0.12699999809E+01 0.  1.
       -4    1    3    3    0  502 -0.81122269537E+03 -0.75034850168E+03  0.19393130269E+04  0.22320487819E+04  0.12699999809E+01 0. -1.
</event>
<event>
 5   0  0.6661000E-08  0.3459241E+04  0.7818609E-02  0.8123518E-01
       -1   -1    0    0    0  501  0.00000000000E+00  0.00000000000E+00  0.19203257127E+04  0.19203257127E+04  0.50400001928E-02 0.  1.
        1   -1    0    0  501    0  0.00000000000E+00  0.00000000000E+00 -0.15578536313E+04  0.15578536313E+04  0.50400001928E-02 0. -1.
    10030    2    1    2    0    0  0.00000000000E+00  0.00000000000E+00  0.36247208138E+03  0.34781793440E+04  0.34592406015E+04 0.  0.
        4    1    3    3  502    0 -0.15845018277E+03 -0.60223922344E+03 -0.14412234598E+04  0.15700080307E+04  0.12699999809E+01 0. -1.
       -4    1    3    3    0  502  0.15845018277E+03  0.60223922344E+03  0.18036955412E+04  0.19081713133E+04  0.12699999809E+01 0.  1.
</event>
<event>
 5   0  0.6725199E-08  0.3701718E+04  0.7818609E-02  0.8067581E-01
        1   -1    0    0  501    0  0.00000000000E+00  0.00000000000E+00  0.17712718902E+04  0.17712718902E+04  0.50400001928E-02 0.  1.
       -1   -1    0    0    0  501  0.00000000000E+00  0.00000000000E+00 -0.19340221056E+04  0.19340221056E+04  0.50400001928E-02 0. -1.
    10030    2    1    2    0    0  0.00000000000E+00  0.00000000000E+00 -0.16275021536E+03  0.37052939959E+04  0.37017179746E+04 0.  0.
        5    1    3    3  502    0  0.11805286342E+04 -0.15949225645E+03  0.13365282770E+04  0.17903674375E+04  0.46999998093E+01 0.  1.
       -5    1    3    3    0  502 -0.11805286342E+04  0.15949225645E+03 -0.14992784924E+04  0.19149265583E+04  0.46999998093E+01 0. -1.
</event>
<event>
 5   0  0.6661000E-08  0.3808102E+04  0.7818609E-02  0.8044419E-01
        1   -1    0    0  501    0  0.00000000000E+00  0.00000000000E+00  0.14933412560E+04  0.14933412560E+04  0.50400001928E-02 0.  1.
       -1   -1    0    0    0  501  0.00000000000E+00  0.00000000000E+00 -0.24277168382E+04  0.24277168382E+04  0.50400001928E-02 0. -1.
    10030    2    1    2    0    0  0.00000000000E+00  0.00000000000E+00 -0.93437558225E+03  0.39210580942E+04  0.38081017383E+04 0.  0.
        2    1    3    3  502    0  0.12404296279E+03 -0.18631607775E+04 -0.85059692905E+03  0.20518942164E+04  0.25500000920E-02 0. -1.
       -2    1    3    3    0  502 -0.12404296279E+03  0.18631607775E+04 -0.83778653197E+02  0.18691638778E+04  0.25500000920E-02 0.  1.
</event>
<event>
 5   0  0.6661000E-08  0.3785126E+04  0.7818609E-02  0.8049354E-01
        1   -1    0    0  501    0  0.00000000000E+00  0.00000000000E+00  0.17673525869E+04  0.17673525869E+04  0.50400001928E-02 0. -1.
       -1   -1    0    0    0  501  0.00000000000E+00  0.00000000000E+00 -0.20266441567E+04  0.20266441567E+04  0.50400001928E-02 0.  1.
    10030    2    1    2    0    0  0.00000000000E+00  0.00000000000E+00 -0.25929156981E+03  0.37939967436E+04  0.37851260444E+04 0.  0.
        2    1    3    3  502    0 -0.69441824432E+03 -0.11236526767E+04  0.12288839473E+04  0.18041529292E+04  0.25500000920E-02 0. -1.
       -2    1    3    3    0  502  0.69441824432E+03  0.11236526767E+04 -0.14881755171E+04  0.19898438144E+04  0.25500000920E-02 0.  1.
</event>
<event>
 5   0  0.6661000E-08  0.3688387E+04  0.7818609E-02  0.8070540E-01
       -1   -1    0    0    0  501  0.00000000000E+00  0.00000000000E+00  0.30246362628E+04  0.30246362628E+04  0.50400001928E-02 0.  1.
        1   -1    0    0  501    0  0.00000000000E+00  0.00000000000E+00 -0.11244490508E+04  0.11244490508E+04  0.50400001928E-02 0. -1.
    10030    2    1    2    0    0  0.00000000000E+00  0.00000000000E+00  0.19001872121E+04  0.41490853136E+04  0.36883868423E+04 0.  0.
        4    1    3    3  502    0  0.20828646454E+03  0.18282131234E+04  0.10892425348E+04  0.21382697183E+04  0.12699999809E+01 0. -1.
       -4    1    3    3    0  502 -0.20828646454E+03 -0.18282131234E+04  0.81094467726E+03  0.20108155953E+04  0.12699999809E+01 0.  1.
</event>
<event>
 5   0  0.6661000E-08  0.3578259E+04  0.7818609E-02  0.8095490E-01
        1   -1    0    0  501    0  0.00000000000E+00  0.00000000000E+00  0.18301607796E+04  0.18301607796E+04  0.50400001928E-02 0.  1.
       -1   -1    0    0    0  501  0.00000000000E+00  0.00000000000E+00 -0.17490183574E+04  0.17490183575E+04  0.50400001928E-02 0. -1.
    10030    2    1    2    0    0  0.00000000000E+00  0.00000000000E+00  0.81142422118E+02  0.35791791370E+04  0.35782592419E+04 0.  0.
        1    1    3    3  502    0 -0.82752728512E+03  0.13606620921E+04 -0.77498008158E+03  0.17711004668E+04  0.50400001928E-02 0. -1.
       -1    1    3    3    0  502  0.82752728512E+03 -0.13606620921E+04  0.85612250370E+03  0.18080786703E+04  0.50400001928E-02 0.  1.
</event>
<event>
 5   0  0.2205204E-07  0.3803359E+04  0.7818609E-02  0.8045435E-01
       -2   -1    0    0    0  501  0.00000000000E+00  0.00000000000E+00  0.26958164372E+04  0.26958164372E+04  0.25500000920E-02 0. -1.
        2   -1    0    0  501    0  0.00000000000E+00  0.00000000000E+00 -0.13414801266E+04  0.13414801266E+04  0.25500000920E-02 0.  1.
    10030    2    1    2    0    0  0.00000000000E+00  0.00000000000E+00  0.13543363106E+04  0.40372965638E+04  0.38033586081E+04 0.  0.
        2    1    3    3  502    0  0.40104108610E+03  0.17613494825E+04  0.13080276322E+04  0.22302740277E+04  0.25500000920E-02 0. -1.
       -2    1    3    3    0  502 -0.40104108610E+03 -0.17613494825E+04  0.46308678387E+02  0.18070225361E+04  0.25500000920E-02 0.  1.
</event>
<event>
 5   0  0.6661000E-08  0.3785800E+04  0.7818609E-02  0.8049209E-01
       -1   -1    0    0    0  501  0.00000000000E+00  0.00000000000E+00  0.31960483374E+04  0.31960483374E+04  0.50400001928E-02 0. -1.
        1   -1    0    0  501    0  0.00000000000E+00  0.00000000000E+00 -0.11210936556E+04  0.11210936556E+04  0.50400001928E-02 0.  1.
    10030    2    1    2    0    0  0.00000000000E+00  0.00000000000E+00  0.20749546818E+04  0.43171419930E+04  0.37857995267E+04 0.  0.
        1    1    3    3  502    0  0.10981956866E+04  0.14278697283E+04  0.37428302627E+03  0.18398188799E+04  0.50400001928E-02 0. -1.
       -1    1    3    3    0  502 -0.10981956866E+04 -0.14278697283E+04  0.17006716555E+04  0.24773231131E+04  0.50400001928E-02 0.  1.
</event>
<event>
 5   0  0.6661000E-08  0.3814008E+04  0.7818609E-02  0.8043155E-01
        1   -1    0    0  501    0  0.00000000000E+00  0.00000000000E+00  0.25091701776E+04  0.25091701776E+04  0.50400001928E-02 0. -1.
       -1   -1    0    0    0  501  0.00000000000E+00  0.00000000000E+00 -0.14493494161E+04  0.14493494161E+04  0.50400001928E-02 0.  1.
    10030    2    1    2    0    0  0.00000000000E+00  0.00000000000E+00  0.10598207615E+04  0.39585195937E+04  0.38140080397E+04 0.  0.
        4    1    3    3  502    0  0.41688437889E+02  0.16701036411E+04  0.14843618933E+04  0.22347966219E+04  0.12699999809E+01 0.  1.
       -4    1    3    3    0  502 -0.41688437889E+02 -0.16701036411E+04 -0.42454113185E+03  0.17237229718E+04  0.12699999809E+01 0. -1.
</event>
<event>
 5   0  0.1370688E-07  0.3881890E+04  0.7818609E-02  0.8028806E-01
       -2   -1    0    0    0  501  0.00000000000E+00  0.00000000000E+00  0.26161162946E+04  0.26161162946E+04  0.25500000920E-02 0.  1.
        2   -1    0    0  501    0  0.00000000000E+00  0.00000000000E+00 -0.14400228283E+04  0.14400228283E+04  0.25500000920E-02 0. -1.
    10030    2    1    2    0    0  0.00000000000E+00  0.00000000000E+00  0.11760934663E+04  0.40561391230E+04  0.38818898417E+04 0.  0.
        5    1    3    3  502    0  0.18819654664E+04  0.44432682613E+03  0.76296715465E+03  0.20787884246E+04  0.46999998093E+01 0. -1.
       -5    1    3    3    0  502 -0.18819654664E+04 -0.44432682613E+03  0.41312631165E+03  0.19773506984E+04  0.46999998093E+01 0.  1.
</event>
<event>
 5   0  0.1370688E-07  0.3802935E+04  0.7818609E-02  0.8045525E-01
        2   -1    0    0  501    0  0.00000000000E+00  0.00000000000E+00  0.21994420088E+04  0.21994420088E+04  0.25500000920E-02 0.  1.
       -2   -1    0    0    0  501  0.00000000000E+00  0.00000000000E+00 -0.16438613687E+04  0.16438613687E+04  0.25500000920E-02 0. -1.
    10030    2    1    2    0    0  0.00000000000E+00  0.00000000000E+00  0.55558064010E+03  0.38433033774E+04  0.38029345253E+04 0.  0.
        5    1    3    3  502    0 -0.66574716922E+03  0.29826667335E+03  0.20523837820E+04  0.21781835507E+04  0.46999998093E+01 0.  1.
       -5    1    3    3    0  502  0.66574716922E+03 -0.29826667335E+03 -0.14968031419E+04  0.16651198268E+04  0.46999998093E+01 0. -1.
</event>
<event>
 5   0  0.6661000E-08  0.3581602E+04  0.7818609E-02  0.8094719E-01
        1   -1    0    0  501    0  0.00000000000E+00  0.00000000000E+00  0.24627749040E+04  0.24627749040E+04  0.50400001928E-02 0.  1.
       -1   -1    0    0    0  501  0.00000000000E+00  0.00000000000E+00 -0.13021768615E+04  0.13021768615E+04  0.50400001928E-02 0. -1.
    10030    2    1    2    0    0  0.00000000000E+00  0.00000000000E+00  0.11605980425E+04  0.37649517655E+04  0.35816021527E+04 0.  0.
        3    1    3    3  502    0  0.14046763865E+04 -0.65717252053E+03  0.15216748311E+04  0.21726678932E+04  0.10100000352E+00 0.  1.
       -3    1    3    3    0  502 -0.14046763865E+04  0.65717252053E+03 -0.36107678864E+03  0.15922838723E+04  0.10100000352E+00 0. -1.
</event>
<event>
 5   0  0.6661000E-08  0.3809409E+04  0.7818609E-02  0.8044139E-01
       -1   -1    0    0    0  501  0.00000000000E+00  0.00000000000E+00  0.15859901496E+04  0.15859901496E+04  0.50400001928E-02 0.  1.
        1   -1    0    0  501    0  0.00000000000E+00  0.00000000000E+00 -0.22874660833E+04  0.22874660833E+04  0.50400001928E-02 0. -1.
    10030    2    1    2    0    0  0.00000000000E+00  0.00000000000E+00 -0.70147593366E+03  0.38734562329E+04  0.38094087078E+04 0.  0.
        4    1    3    3  502    0  0.14242632227E+04  0.12285657598E+04 -0.45698292979E+02  0.18814859820E+04  0.12699999809E+01 0.  1.
       -4    1    3    3    0  502 -0.14242632227E+04 -0.12285657598E+04 -0.65577764068E+03  0.19919702509E+04  0.12699999809E+01 0. -1.
</event>
<event>
 5   0  0.6661000E-08  0.3806698E+04  0.7818609E-02  0.8044719E-01
       -1   -1    0    0    0  501  0.00000000000E+00  0.00000000000E+00  0.15054710396E+04  0.15054710396E+04  0.50400001928E-02 0.  1.
        1   -1    0    0  501    0  0.00000000000E+00  0.00000000000E+00 -0.24063811619E+04  0.24063811619E+04  0.50400001928E-02 0. -1.
    10030    2    1    2    0    0  0.00000000000E+00  0.00000000000E+00 -0.90091012227E+03  0.39118522015E+04  0.38066978601E+04 0.  0.
        2    1    3    3  502    0 -0.35987497237E+03 -0.31650098455E+02  0.14699160531E+04  0.15136594490E+04  0.25500000920E-02 0.  1.
       -2    1    3    3    0  502  0.35987497237E+03  0.31650098455E+02 -0.23708261754E+04  0.23981927525E+04  0.25500000920E-02 0. -1.
</event>
<event>
 5   0  0.2135314E-07  0.3821706E+04  0.7818609E-02  0.8041513E-01
        2   -1    0    0  501    0  0.00000000000E+00  0.00000000000E+00  0.29139431009E+04  0.29139431009E+04  0.25500000920E-02 0. -1.
       -2   -1    0    0    0  501  0.00000000000E+00  0.00000000000E+00 -0.12530646188E+04  0.12530646188E+04  0.25500000920E-02 0.  1.
    10030    2    1    2    0    0  0.00000000000E+00  0.00000000000E+00  0.16608784821E+04  0.41670077197E+04  0.38217059023E+04 0.  0.
        4    1    3    3  502    0 -0.17037472247E+04  0.52633081922E+03  0.81676699332E+02  0.17850634255E+04  0.12699999809E+01 0. -1.
       -4    1    3    3    0  502  0.17037472247E+04 -0.52633081922E+03  0.15792017828E+04  0.23819442942E+04  0.12699999809E+01 0.  1.
</event>
<event>
 5   0  0.6725199E-08  0.3787132E+04  0.7818609E-02  0.8048922E-01
        1   -1    0    0  501    0  0.00000000000E+00  0.00000000000E+00  0.23057969315E+04  0.23057969316E+04  0.50400001928E-02 0. -1.
       -1   -1    0    0    0  501  0.00000000000E+00  0.00000000000E+00 -0.15550336804E+04  0.15550336805E+04  0.50400001928E-02 0.  1.
    10030    2    1    2    0    0  0.00000000000E+00  0.00000000000E+00  0.75076325110E+03  0.38608306120E+04  0.37871318376E+04 0.  0.
        5    1    3    3  502    0  0.79598659042E+03 -0.16880195958E+04  0.48891615931E+02  0.18669272316E+04  0.46999998093E+01 0.  1.
       -5    1    3    3    0  502 -0.79598659042E+03  0.16880195958E+04  0.70187163517E+03  0.19939033804E+04  0.46999998093E+01 0. -1.
</event>
<event>
 5   0  0.6661000E-08  0.3737593E+04  0.7818609E-02  0.8059681E-01
        1   -1    0    0  501    0  0.00000000000E+00  0.00000000000E+00  0.14023782418E+04  0.14023782419E+04  0.50400001928E-02 0.  1.
       -1   -1    0    0    0  501  0.00000000000E+00  0.00000000000E+00 -0.24903415296E+04  0.24903415296E+04  0.50400001928E-02 0. -1.
    10030    2    1    2    0    0  0.00000000000E+00  0.00000000000E+00 -0.10879632878E+04  0.38927197715E+04  0.37375932234E+04 0.  0.
        3    1    3    3  502    0  0.16933266454E+03 -0.13220674394E+03 -0.24774381551E+04  0.24867352084E+04  0.10100000352E+00 0. -1.
       -3    1    3    3    0  502 -0.16933266454E+03  0.13220674394E+03  0.13894748673E+04  0.14059845630E+04  0.10100000352E+00 0.  1.
</event>
<event>
 5   0  0.2205204E-07  0.3718414E+04  0.7818609E-02  0.8063893E-01
        2   -1    0    0  501    0  0.00000000000E+00  0.00000000000E+00  0.13294292415E+04  0.13294292415E+04  0.25500000920E-02 0.  1.
       -2   -1    0    0    0  501  0.00000000000E+00  0.00000000000E+00 -0.26001019160E+04  0.26001019160E+04  0.25500000920E-02 0. -1.
    10030    2    1    2    0    0  0.00000000000E+00  0.00000000000E+00 -0.12706726746E+04  0.39295311575E+04  0.37184144567E+04 0.  0.
        2    1    3    3  502    0 -0.44505669868E+03  0.14277771939E+04 -0.18025971371E+04  0.23422168173E+04  0.25500000920E-02 0. -1.
       -2    1    3    3    0  502  0.44505669868E+03 -0.14277771939E+04  0.53192446257E+03  0.15873143402E+04  0.25500000920E-02 0.  1.
</event>
<event>
 5   0  0.1370688E-07  0.3599725E+04  0.7818609E-02  0.8090555E-01
       -2   -1    0    0    0  501  0.00000000000E+00  0.00000000000E+00  0.13793661905E+04  0.13793661905E+04  0.25500000920E-02 0.  1.
        2   -1    0    0  501    0  0.00000000000E+00  0.00000000000E+00 -0.23485454791E+04  0.23485454791E+04  0.25500000920E-02 0. -1.
    10030    2    1    2    0    0  0.00000000000E+00  0.00000000000E+00 -0.96917928866E+03  0.37279116696E+04  0.35997245621E+04 0.  0.
        5    1    3    3  502    0  0.58689747475E+03 -0.16600376664E+04 -0.87112129196E+03  0.19644460021E+04  0.46999998093E+01 0.  1.
       -5    1    3    3    0  502 -0.58689747475E+03  0.16600376664E+04 -0.98057996701E+02  0.17634656675E+04  0.46999998093E+01 0. -1.
</event>
<event>
 5   0  0.2203998E-07  0.3806210E+04  0.7818609E-02  0.8044824E-01
        2   -1    0    0  501    0  0.00000000000E+00  0.00000000000E+00  0.17518860549E+04  0.17518860549E+04  0.25500000920E-02 0.  1.
       -2   -1    0    0    0  501  0.00000000000E+00  0.00000000000E+00 -0.20673768120E+04  0.20673768120E+04  0.25500000920E-02 0. -1.
    10030    2    1    2    0    0  0.00000000000E+00  0.00000000000E+00 -0.31549075706E+03  0.38192628670E+04  0.38062099823E+04 0.  0.
        3    1    3    3  502    0  0.25046983910E+03  0.63567088190E+03 -0.19400675601E+04  0.20568604130E+04  0.10100000352E+00 0. -1.
       -3    1    3    3    0  502 -0.25046983910E+03 -0.63567088190E+03  0.16245768031E+04  0.17624024540E+04  0.10100000352E+00 0.  1.
</event>
<event>
 5   0  0.1370688E-07  0.3783073E+04  0.7818609E-02  0.8049797E-01
       -2   -1    0    0    0  501  0.00000000000E+00  0.00000000000E+00  0.31457078421E+04  0.31457078421E+04  0.25500000920E-02 0.  1.
        2   -1    0    0  501    0  0.00000000000E+00  0.00000000000E+00 -0.11373941673E+04  0.11373941673E+04  0.25500000920E-02 0. -1.
    10030    2    1    2    0    0  0.00000000000E+00  0.00000000000E+00  0.20083136747E+04  0.42831020094E+04  0.37830726939E+04 0.  0.
        5    1    3    3  502    0 -0.45512670598E+03 -0.11692256912E+04  0.26067585284E+04  0.28929986434E+04  0.46999998093E+01 0.  1.
       -5    1    3    3    0  502  0.45512670598E+03  0.11692256912E+04 -0.59844485367E+03  0.13901033660E+04  0.46999998093E+01 0. -1.
</event>
<event>
 5   0  0.2203998E-07  0.3800814E+04  0.7818609E-02  0.8045980E-01
       -2   -1    0    0    0  501  0.00000000000E+00  0.00000000000E+00  0.20116153234E+04  0.20116153234E+04  0.25500000920E-02 0. -1.
        2   -1    0    0  501    0  0.00000000000E+00  0.00000000000E+00 -0.17953468483E+04  0.17953468483E+04  0.25500000920E-02 0.  1.
    10030    2    1    2    0    0  0.00000000000E+00  0.00000000000E+00  0.21626847504E+03  0.38069621717E+04  0.38008142448E+04 0.  0.
        3    1    3    3  502    0  0.10552058310E+04 -0.11271604627E+04 -0.10016277757E+04  0.18404369768E+04  0.10100000352E+00 0.  1.
       -3    1    3    3    0  502 -0.10552058310E+04  0.11271604627E+04  0.12178962507E+04  0.19665251949E+04  0.10100000352E+00 0. -1.
</event>
<event>
 5   0  0.6725199E-08  0.3810384E+04  0.7818609E-02  0.8043930E-01
       -1   -1    0    0    0  501  0.00000000000E+00  0.00000000000E+00  0.18434400334E+04  0.18434400334E+04  0.50400001928E-02 0.  1.
        1   -1    0    0  501    0  0.00000000000E+00  0.00000000000E+00 -0.19690130531E+04  0.19690130531E+04  0.50400001928E-02 0. -1.
    10030    2    1    2    0    0  0.00000000000E+00  0.00000000000E+00 -0.12557301975E+03  0.38124530865E+04  0.38103844889E+04 0.  0.
        5    1    3    3  502    0  0.30466853614E+03  0.18806227516E+04 -0.49720028271E+02  0.19057961648E+04  0.46999998093E+01 0.  1.
       -5    1    3    3    0  502 -0.30466853614E+03 -0.18806227516E+04 -0.75852991476E+02  0.19066569217E+04  0.46999998093E+01 0. -1.
</event>
<event>
 5   0  0.6661000E-08  0.3846472E+04  0.7818609E-02  0.8036255E-01
       -1   -1    0    0    0  501  0.00000000000E+00  0.00000000000E+00  0.11861009592E+04  0.11861009592E+04  0.50400001928E-02 0.  1.
        1   -1    0    0  501    0  0.00000000000E+00  0.00000000000E+00 -0.31184838220E+04  0.31184838221E+04  0.50400001928E-02 0. -1.
    10030    2    1    2    0    0  0.00000000000E+00  0.00000000000E+00 -0.19323828628E+04  0.43045847813E+04  0.38464719693E+04 0.  0.
        3    1    3    3  502    0  0.88343644413E+03 -0.17075418317E+04 -0.90828320032E+03  0.21262966491E+04  0.10100000352E+00 0.  1.
       -3    1    3    3    0  502 -0.88343644413E+03  0.17075418317E+04 -0.10240996625E+04  0.21782881322E+04  0.10100000352E+00 0. -1.
</event>
<event>
 5   0  0.6661000E-08  0.3829090E+04  0.7818609E-02  0.8039941E-01
        3   -1    0    0  501    0  0.00000000000E+00  0.00000000000E+00  0.13835128090E+04  0.13835128127E+04  0.10100000352E+00 0. -1.
       -3   -1    0    0    0  501  0.00000000000E+00  0.00000000000E+00 -0.26494021876E+04  0.26494021895E+04  0.10100000352E+00 0.  1.
    10030    2    1    2    0    0  0.00000000000E+00  0.00000000000E+00 -0.12658893786E+04  0.40329150022E+04  0.38290896432E+04 0.  0.
        5    1    3    3  502    0  0.93763575919E+03  0.61323720285E+03 -0.22680796297E+04  0.25297090704E+04  0.46999998093E+01 0.  1.
       -5    1    3    3    0  502 -0.93763575919E+03 -0.61323720285E+03  0.10021902511E+04  0.15032059318E+04  0.46999998093E+01 0. -1.
</event>
<event>
 5   0  0.6661000E-08  0.3807461E+04  0.7818609E-02  0.8044556E-01
        1   -1    0    0  501    0  0.00000000000E+00  0.00000000000E+00  0.13781157206E+04  0.13781157206E+04  0.50400001928E-02 0.  1.
       -1   -1    0    0    0  501  0.00000000000E+00  0.00000000000E+00 -0.26298158306E+04  0.26298158306E+04  0.50400001928E-02 0. -1.
    10030    2    1    2    0    0  0.00000000000E+00  0.00000000000E+00 -0.12517001100E+04  0.40079315512E+04  0.38074613792E+04 0.  0.
        4    1    3    3  502    0 -0.55271193355E+03  0.95645535694E+03  0.10062328977E+04  0.14942568684E+04  0.12699999809E+01 0.  1.
       -4    1    3    3    0  502  0.55271193355E+03 -0.95645535694E+03 -0.22579330077E+04  0.25136746829E+04  0.12699999809E+01 0. -1.
</event>
<event>
 5   0  0.2135314E-07  0.3787912E+04  0.7818609E-02  0.8048754E-01
        2   -1    0    0  501    0  0.00000000000E+00  0.00000000000E+00  0.20329892722E+04  0.20329892722E+04  0.25500000920E-02 0. -1.
       -2   -1    0    0    0  501  0.00000000000E+00  0.00000000000E+00 -0.17644312993E+04  0.17644312993E+04  0.25500000920E-02 0.  1.
    10030    2    1    2    0    0  0.00000000000E+00  0.00000000000E+00  0.26855797288E+03  0.37974205715E+04  0.37879123026E+04 0.  0.
        4    1    3    3  502    0  0.59953818231E+02  0.16297491904E+04 -0.83114996119E+03  0.18304340345E+04  0.12699999809E+01 0.  1.
       -4    1    3    3    0  502 -0.59953818231E+02 -0.16297491904E+04  0.10997079341E+04  0.19669865370E+04  0.12699999809E+01 0. -1.
</event>
<event>
 5   0  0.6661000E-08  0.3801066E+04  0.7818609E-02  0.8045926E-01
       -1   -1    0    0    0  501  0.00000000000E+00  0.00000000000E+00  0.14581073461E+04  0.14581073461E+04  0.50400001928E-02 0. -1.
        1   -1    0    0  501    0  0.00000000000E+00  0.00000000000E+00 -0.24772010898E+04  0.24772010898E+04  0.50400001928E-02 0.  1.
    10030    2    1    2    0    0  0.00000000000E+00  0.00000000000E+00 -0.10190937437E+04  0.39353084359E+04  0.38010656962E+04 0.  0.
        4    1    3    3  502    0  0.48305189993E+03 -0.18202989393E+04 -0.24519383720E+03  0.18991969348E+04  0.12699999809E+01 0. -1.
       -4    1    3    3    0  502 -0.48305189993E+03  0.18202989393E+04 -0.77389990650E+03  0.20361115011E+04  0.12699999809E+01 0.  1.
</event>
<event>
 5   0  0.1370688E-07  0.3651953E+04  0.7818609E-02  0.8078694E-01
       -2   -1    0    0    0  501  0.00000000000E+00  0.00000000000E+00  0.11296513275E+04  0.11296513275E+04  0.25500000920E-02 0. -1.
        2   -1    0    0  501    0  0.00000000000E+00  0.00000000000E+00 -0.29515212386E+04  0.29515212386E+04  0.25500000920E-02 0.  1.
    10030    2    1    2    0    0  0.00000000000E+00  0.00000000000E+00 -0.18218699111E+04  0.40811725661E+04  0.36519528394E+04 0.  0.
        5    1    3    3  502    0  0.49673757691E+03 -0.17085047845E+04 -0.45229616732E+03  0.18358460534E+04  0.46999998093E+01 0.  1.
       -5    1    3    3    0  502 -0.49673757691E+03  0.17085047845E+04 -0.13695737438E+04  0.22453265127E+04  0.46999998093E+01 0. -1.
</event>
<event>
 5   0  0.6661000E-08  0.3741918E+04  0.7818609E-02  0.8058735E-01
       -1   -1    0    0    0  501  0.00000000000E+00  0.00000000000E+00  0.23712367858E+04  0.23712367858E+04  0.50400001928E-02 0. -1.
        1   -1    0    0  501    0  0.00000000000E+00  0.00000000000E+00 -0.14762289292E+04  0.14762289292E+04  0.50400001928E-02 0.  1.
    10030    2    1    2    0    0  0.00000000000E+00  0.00000000000E+00  0.89500785669E+03  0.38474657150E+04  0.37419184070E+04 0.  0.
        3    1    3    3  502    0  0.12774476098E+04 -0.34431528051E+02 -0.95758126705E+03  0.15968781479E+04  0.10100000352E+00 0.  1.
       -3    1    3    3    0  502 -0.12774476098E+04  0.34431528051E+02  0.18525891237E+04  0.22505875672E+04  0.10100000352E+00 0. -1.
</event>
<event>
 5   0  0.2205204E-07  0.3808138E+04  0.7818609E-02  0.8044411E-01
       -2   -1    0    0    0  501  0.00000000000E+00  0.00000000000E+00  0.28032582813E+04  0.28032582813E+04  0.25500000920E-02 0. -1.
        2   -1    0    0  501    0  0.00000000000E+00  0.00000000000E+00 -0.12933087964E+04  0.12933087964E+04  0.25500000920E-02 0.  1.
    10030    2    1    2    0    0  0.00000000000E+00  0.00000000000E+00  0.15099494850E+04  0.40965670777E+04  0.38081379144E+04 0.  0.
        2    1    3    3  502    0  0.52148473410E+03 -0.87519224494E+03  0.24854026994E+04  0.26861002163E+04  0.25500000920E-02 0. -1.
       -2    1    3    3    0  502 -0.52148473410E+03  0.87519224494E+03 -0.97545321449E+03  0.14104668614E+04  0.25500000920E-02 0.  1.
</event>
<event>
 5   0  0.2135314E-07  0.3781812E+04  0.7818609E-02  0.8050069E-01
       -2   -1    0    0    0  501  0.00000000000E+00  0.00000000000E+00  0.16678009170E+04  0.16678009170E+04  0.25500000920E-02 0. -1.
        2   -1    0    0  501    0  0.00000000000E+00  0.00000000000E+00 -0.21438563281E+04  0.21438563281E+04  0.25500000920E-02 0.  1.
    10030    2    1    2    0    0  0.00000000000E+00  0.00000000000E+00 -0.47605541110E+03  0.38116572452E+04  0.37818120260E+04 0.  0.
        4    1    3    3  502    0 -0.12178810228E+04 -0.98837548591E+02  0.12164550799E+04  0.17241715753E+04  0.12699999809E+01 0. -1.
       -4    1    3    3    0  502  0.12178810228E+04  0.98837548591E+02 -0.16925104910E+04  0.20874856699E+04  0.12699999809E+01 0.  1.
</event>
<event>
 5   0  0.2205204E-07  0.3841576E+04  0.7818609E-02  0.8037291E-01
       -2   -1    0    0    0  501  0.00000000000E+00  0.00000000000E+00  0.30144384596E+04  0.30144384596E+04  0.25500000920E-02 0. -1.
        2   -1    0    0  501    0  0.00000000000E+00  0.00000000000E+00 -0.12239186241E+04  0.12239186241E+04  0.25500000920E-02 0.  1.
    10030    2    1    2    0    0  0.00000000000E+00  0.00000000000E+00  0.17905198355E+04  0.42383570836E+04  0.38415764325E+04 0.  0.
        2    1    3    3  502    0  0.70261596396E+03 -0.17318512294E+04  0.13842651735E+04  0.23257617987E+04  0.25500000920E-02 0. -1.
       -2    1    3    3    0  502 -0.70261596396E+03  0.17318512294E+04  0.40625466200E+03  0.19125952850E+04  0.25500000920E-02 0.  1.
</event>
<event>
 5   0  0.6661000E-08  0.3809460E+04  0.7818609E-02  0.8044128E-01
        1   -1    0    0  501    0  0.00000000000E+00  0.00000000000E+00  0.17194114754E+04  0.17194114754E+04  0.50400001928E-02 0. -1.
       -1   -1    0    0    0  501  0.00000000000E+00  0.00000000000E+00 -0.21100217915E+04  0.21100217915E+04  0.50400001928E-02 0.  1.
    10030    2    1    2    0    0  0.00000000000E+00  0.00000000000E+00 -0.39061031613E+03  0.38294332669E+04  0.38094596370E+04 0.  0.
        4    1    3    3  502    0  0.33398192704E+03 -0.18722640781E+04 -0.89504268119E+02  0.19039247182E+04  0.12699999809E+01 0. -1.
       -4    1    3    3    0  502 -0.33398192704E+03  0.18722640781E+04 -0.30110604801E+03  0.19255085486E+04  0.12699999809E+01 0.  1.
</event>
<event>
 5   0  0.1370688E-07  0.3793413E+04  0.7818609E-02  0.8047570E-01
        2   -1    0    0  501    0  0.00000000000E+00  0.00000000000E+00  0.23558565096E+04  0.23558565096E+04  0.25500000920E-02 0. -1.
       -2   -1    0    0    0  501  0.00000000000E+00  0.00000000000E+00 -0.15270434640E+04  0.15270434641E+04  0.25500000920E-02 0.  1.
    10030    2    1    2    0    0  0.00000000000E+00  0.00000000000E+00  0.82881304557E+03  0.38828999737E+04  0.37934128619E+04 0.  0.
        5    1    3    3  502    0 -0.76470535087E+02  0.76170235621E+03  0.21906922879E+04  0.23206018642E+04  0.46999998093E+01 0. -1.
       -5    1    3    3    0  502  0.76470535087E+02 -0.76170235621E+03 -0.13618792423E+04  0.15622981094E+04  0.46999998093E+01 0.  1.
</event>
<event>
 5   0  0.1370688E-07  0.3805546E+04  0.7818609E-02  0.8044966E-01
       -2   -1    0    0    0  501  0.00000000000E+00  0.00000000000E+00  0.22871237047E+04  0.22871237047E+04  0.25500000920E-02 0. -1.
        2   -1    0    0  501    0  0.00000000000E+00  0.00000000000E+00 -0.15830124002E+04  0.15830124002E+04  0.25500000920E-02 0.  1.
    10030    2    1    2    0    0  0.00000000000E+00  0.00000000000E+00  0.70411130444E+03  0.38701361049E+04  0.38055460503E+04 0.  0.
        5    1    3    3  502    0 -0.17544860899E+04  0.84858673147E+01 -0.39680478331E+03  0.17988244983E+04  0.46999998093E+01 0.  1.
       -5    1    3    3    0  502  0.17544860899E+04 -0.84858673147E+01  0.11009160877E+04  0.20713116066E+04  0.46999998093E+01 0. -1.
</event>
<event>
 5   0  0.6661000E-08  0.3827255E+04  0.7818609E-02  0.8040331E-01
       -1   -1    0    0    0  501  0.00000000000E+00  0.00000000000E+00  0.13868734900E+04  0.13868734900E+04  0.50400001928E-02 0.  1.
        1   -1    0    0  501    0  0.00000000000E+00  0.00000000000E+00 -0.26404505872E+04  0.26404505872E+04  0.50400001928E-02 0. -1.
    10030    2    1    2    0    0  0.00000000000E+00  0.00000000000E+00 -0.12535770972E+04  0.40273240772E+04  0.38272553722E+04 0.  0.
        4    1    3    3  502    0  0.23207631555E+03 -0.12989531225E+04  0.83160145488E+03  0.15597119039E+04  0.12699999809E+01 0.  1.
       -4    1    3    3    0  502 -0.23207631555E+03  0.12989531225E+04 -0.20851785521E+04  0.24676121733E+04  0.12699999809E+01 0. -1.
</event>
<event>
 5   0  0.6661000E-08  0.3803629E+04  0.7818609E-02  0.8045377E-01
        1   -1    0    0  501    0  0.00000000000E+00  0.00000000000E+00  0.21583791370E+04  0.21583791370E+04  0.50400001928E-02 0. -1.
       -1   -1    0    0    0  501  0.00000000000E+00  0.00000000000E+00 -0.16757472825E+04  0.16757472825E+04  0.50400001928E-02 0.  1.
    10030    2    1    2    0    0  0.00000000000E+00  0.00000000000E+00  0.48263185451E+03  0.38341264196E+04  0.38036287798E+04 0.  0.
        3    1    3    3  502    0  0.65584191813E+03 -0.11718183367E+04  0.15988176504E+04  0.20879427016E+04  0.10100000352E+00 0. -1.
       -3    1    3    3    0  502 -0.65584191813E+03  0.11718183367E+04 -0.11161857959E+04  0.17461837180E+04  0.10100000352E+00 0.  1.
</event>
<event>
 5   0  0.6661000E-08  0.3804375E+04  0.7818609E-02  0.8045217E-01
       -1   -1    0    0    0  501  0.00000000000E+00  0.00000000000E+00  0.28659063343E+04  0.28659063343E+04  0.50400001928E-02 0.  1.
        1   -1    0    0  501    0  0.00000000000E+00  0.00000000000E+00 -0.12625382705E+04  0.12625382705E+04  0.50400001928E-02 0. -1.
    10030    2    1    2    0    0  0.00000000000E+00  0.00000000000E+00  0.16033680638E+04  0.41284446048E+04  0.38043745487E+04 0.  0.
        2    1    3    3  502    0 -0.10558633755E+04 -0.79749553569E+03  0.22846459243E+04  0.26401616611E+04  0.25500000920E-02 0.  1.
       -2    1    3    3    0  502  0.10558633755E+04  0.79749553569E+03 -0.68127786051E+03  0.14882829437E+04  0.25500000920E-02 0. -1.
</event>
<event>
 5   0  0.2081337E-07  0.3797977E+04  0.7818609E-02  0.8046589E-01
       -2   -1    0    0    0  501  0.00000000000E+00  0.00000000000E+00  0.11657811524E+04  0.11657811524E+04  0.25500000920E-02 0. -1.
        2   -1    0    0  501    0  0.00000000000E+00  0.00000000000E+00 -0.30933392506E+04  0.30933392506E+04  0.25500000920E-02 0.  1.
    10030    2    1    2    0    0  0.00000000000E+00  0.00000000000E+00 -0.19275580983E+04  0.42591204030E+04  0.37979766172E+04 0.  0.
        1    1    3    3  502    0  0.27512102403E+03  0.48320830548E+02  0.11426164958E+04  0.11762648244E+04  0.50400001928E-02 0. -1.
       -1    1    3    3    0  502 -0.27512102403E+03 -0.48320830548E+02 -0.30701745941E+04  0.30828555786E+04  0.50400001928E-02 0.  1.
</event>
<event>
 5   0  0.6661000E-08  0.3790545E+04  0.7818609E-02  0.8048187E-01
       -1   -1    0    0    0  501  0.00000000000E+00  0.00000000000E+00  0.28257907302E+04  0.28257907302E+04  0.50400001928E-02 0.  1.
        1   -1    0    0  501    0  0.00000000000E+00  0.00000000000E+00 -0.12711693394E+04  0.12711693394E+04  0.50400001928E-02 0. -1.
    10030    2    1    2    0    0  0.00000000000E+00  0.00000000000E+00  0.15546213908E+04  0.40969600697E+04  0.37905453623E+04 0.  0.
        4    1    3    3  502    0  0.17262879764E+04 -0.88982816223E+02  0.16173570218E+04  0.23672417426E+04  0.12699999809E+01 0. -1.
       -4    1    3    3    0  502 -0.17262879764E+04  0.88982816223E+02 -0.62735630981E+02  0.17297183271E+04  0.12699999809E+01 0.  1.
</event>
<event>
 5   0  0.2203998E-07  0.3850796E+04  0.7818609E-02  0.8035341E-01
        2   -1    0    0  501    0  0.00000000000E+00  0.00000000000E+00  0.26843964084E+04  0.26843964084E+04  0.25500000920E-02 0. -1.
       -2   -1    0    0    0  501  0.00000000000E+00  0.00000000000E+00 -0.13810022140E+04  0.13810022140E+04  0.25500000920E-02 0.  1.
    10030    2    1    2    0    0  0.00000000000E+00  0.00000000000E+00  0.13033941944E+04  0.40653986223E+04  0.38507959609E+04 0.  0.
        3    1    3    3  502    0  0.15004312651E+04  0.12064269388E+04  0.63065037473E+03  0.20259515901E+04  0.10100000352E+00 0. -1.
       -3    1    3    3    0  502 -0.15004312651E+04 -0.12064269388E+04  0.67274381964E+03  0.20394470322E+04  0.10100000352E+00 0.  1.
</event>
<event>
 5   0  0.2081337E-07  0.3748942E+04  0.7818609E-02  0.8057201E-01
       -2   -1    0    0    0  501  0.00000000000E+00  0.00000000000E+00  0.15728423155E+04  0.15728423155E+04  0.25500000920E-02 0.  1.
        2   -1    0    0  501    0  0.00000000000E+00  0.00000000000E+00 -0.22339438004E+04  0.22339438004E+04  0.25500000920E-02 0. -1.
    10030    2    1    2    0    0  0.00000000000E+00  0.00000000000E+00 -0.66110148483E+03  0.38067861159E+04  0.37489418986E+04 0.  0.
        1    1    3    3  502    0  0.46084791248E+03  0.15982492725E+04  0.54699408409E+03  0.17509951637E+04  0.50400001928E-02 0.  1.
       -1    1    3    3    0  502 -0.46084791248E+03 -0.15982492725E+04 -0.12080955689E+04  0.20557909522E+04  0.50400001928E-02 0. -1.
</event>
<event>
 5   0  0.2081337E-07  0.3820414E+04  0.7818609E-02  0.8041788E-01
       -2   -1    0    0    0  501  0.00000000000E+00  0.00000000000E+00  0.17386978020E+04  0.17386978020E+04  0.25500000920E-02 0.  1.
        2   -1    0    0  501    0  0.00000000000E+00  0.00000000000E+00 -0.20986347221E+04  0.20986347221E+04  0.25500000920E-02 0. -1.
    10030    2    1    2    0    0  0.00000000000E+00  0.00000000000E+00 -0.35993692011E+03  0.38373325240E+04  0.38204144165E+04 0.  0.
        1    1    3    3  502    0  0.54373109210E+03  0.14063447113E+04  0.99801773195E+03  0.18081726524E+04  0.50400001928E-02 0.  1.
       -1    1    3    3    0  502 -0.54373109210E+03 -0.14063447113E+04 -0.13579546521E+04  0.20291598716E+04  0.50400001928E-02 0. -1.
</event>
<event>
 5   0  0.1370688E-07  0.3441221E+04  0.7818609E-02  0.8127863E-01
        2   -1    0    0  501    0  0.00000000000E+00  0.00000000000E+00  0.28374078144E+04  0.28374078144E+04  0.25500000920E-02 0. -1.
       -2   -1    0    0    0  501  0.00000000000E+00  0.00000000000E+00 -0.10433820234E+04  0.10433820234E+04  0.25500000920E-02 0.  1.
    10030    2    1    2    0    0  0.00000000000E+00  0.00000000000E+00  0.17940257910E+04  0.38807898379E+04  0.34412208919E+04 0.  0.
        5    1    3    3  502    0  0.22645855161E+03 -0.46145233407E+03 -0.95476192641E+03  0.10843496476E+04  0.46999998093E+01 0.  1.
       -5    1    3    3    0  502 -0.22645855161E+03  0.46145233407E+03  0.27487877174E+04  0.27964401902E+04  0.46999998093E+01 0. -1.
</event>
<event>
 5   0  0.6725199E-08  0.3814500E+04  0.7818609E-02  0.8043050E-01
        1   -1    0    0  501    0  0.00000000000E+00  0.00000000000E+00  0.21409240523E+04  0.21409240523E+04  0.50400001928E-02 0. -1.
       -1   -1    0    0    0  501  0.00000000000E+00  0.00000000000E+00 -0.16990809667E+04  0.16990809667E+04  0.50400001928E-02 0.  1.
    10030    2    1    2    0    0  0.00000000000E+00  0.00000000000E+00  0.44184308561E+03  0.38400050191E+04  0.38145003912E+04 0.  0.
        5    1    3    3  502    0  0.94822501053E+02 -0.12511563897E+04  0.16669090481E+04  0.20863823913E+04  0.46999998093E+01 0. -1.
       -5    1    3    3    0  502 -0.94822501053E+02  0.12511563897E+04 -0.12250659625E+04  0.17536226278E+04  0.46999998093E+01 0.  1.
</event>
<event>
 5   0  0.2203998E-07  0.3719770E+04  0.7818609E-02  0.8063595E-01
        2   -1    0    0  501    0  0.00000000000E+00  0.00000000000E+00  0.17382305776E+04  0.17382305776E+04  0.25500000920E-02 0.  1.
       -2   -1    0    0    0  501  0.00000000000E+00  0.00000000000E+00 -0.19900535502E+04  0.19900535502E+04  0.25500000920E-02 0. -1.
    10030    2    1    2    0    0  0.00000000000E+00  0.00000000000E+00 -0.25182297254E+03  0.37282841278E+04  0.37197698488E+04 0.  0.
        3    1    3    3  502    0  0.11540188610E+03 -0.17952587460E+04 -0.59911538961E+03  0.18961041166E+04  0.10100000352E+00 0. -1.
       -3    1    3    3    0  502 -0.11540188610E+03  0.17952587460E+04  0.34729241706E+03  0.18321800113E+04  0.10100000352E+00 0.  1.
</event>
<event>
 5   0  0.6661000E-08  0.3795257E+04  0.7818609E-02  0.8047174E-01
        1   -1    0    0  501    0  0.00000000000E+00  0.00000000000E+00  0.22240035169E+04  0.22240035169E+04  0.50400001928E-02 0.  1.
       -1   -1    0    0    0  501  0.00000000000E+00  0.00000000000E+00 -0.16191492815E+04  0.16191492815E+04  0.50400001928E-02 0. -1.
    10030    2    1    2    0    0  0.00000000000E+00  0.00000000000E+00  0.60485423539E+03  0.38431527983E+04  0.37952568800E+04 0.  0.
        2    1    3    3  502    0  0.14277132409E+03 -0.14908243348E+04  0.14824890777E+04  0.21073003378E+04  0.25500000920E-02 0.  1.
       -2    1    3    3    0  502 -0.14277132409E+03  0.14908243348E+04 -0.87763484231E+03  0.17358524605E+04  0.25500000920E-02 0. -1.
</event>
<event>
 5   0  0.6661000E-08  0.3810390E+04  0.7818609E-02  0.8043929E-01
        1   -1    0    0  501    0  0.00000000000E+00  0.00000000000E+00  0.26694402783E+04  0.26694402784E+04  0.50400001928E-02 0.  1.
       -1   -1    0    0    0  501  0.00000000000E+00  0.00000000000E+00 -0.13597489895E+04  0.13597489895E+04  0.50400001928E-02 0. -1.
    10030    2    1    2    0    0  0.00000000000E+00  0.00000000000E+00  0.13096912889E+04  0.40291892678E+04  0.38103903847E+04 0.  0.
        1    1    3    3  502    0  0.11617760132E+04  0.62939179752E+03 -0.79652524402E+03  0.15428253317E+04  0.50400001928E-02 0. -1.
       -1    1    3    3    0  502 -0.11617760132E+04 -0.62939179752E+03  0.21062165329E+04  0.24863639362E+04  0.50400001928E-02 0.  1.
</event>
<event>
 5   0  0.6661000E-08  0.3810109E+04  0.7818609E-02  0.8043989E-01
        1   -1    0    0  501    0  0.00000000000E+00  0.00000000000E+00  0.18033435856E+04  0.18033435856E+04  0.50400001928E-02 0. -1.
       -1   -1    0    0    0  501  0.00000000000E+00  0.00000000000E+00 -0.20125016205E+04  0.20125016205E+04  0.50400001928E-02 0.  1.
    10030    2    1    2    0    0  0.00000000000E+00  0.00000000000E+00 -0.20915803489E+03  0.38158452061E+04  0.38101086012E+04 0.  0.
        1    1    3    3  502    0 -0.26874280996E+03 -0.18730310078E+04 -0.32573729907E+03  0.19200449584E+04  0.50400001928E-02 0.  1.
       -1    1    3    3    0  502  0.26874280996E+03  0.18730310078E+04  0.11657926418E+03  0.18958002477E+04  0.50400001928E-02 0. -1.
</event>
<event>
 5   0  0.6661000E-08  0.3809133E+04  0.7818609E-02  0.8044198E-01
        1   -1    0    0  501    0  0.00000000000E+00  0.00000000000E+00  0.15816655513E+04  0.15816655513E+04  0.50400001928E-02 0. -1.
       -1   -1    0    0    0  501  0.00000000000E+00  0.00000000000E+00 -0.22933887858E+04  0.22933887858E+04  0.50400001928E-02 0.  1.
    10030    2    1    2    0    0  0.00000000000E+00  0.00000000000E+00 -0.71172323451E+03  0.38750543370E+04  0.38091332547E+04 0.  0.
        3    1    3    3  502    0 -0.20821357926E+03 -0.12155853827E+04  0.11205902809E+04  0.16663502948E+04  0.10100000352E+00 0. -1.
       -3    1    3    3    0  502  0.20821357926E+03  0.12155853827E+04 -0.18323135154E+04  0.22087040422E+04  0.10100000352E+00 0.  1.
</event>
<event>
 5   0  0.2205204E-07  0.3767044E+04  0.7818609E-02  0.8053264E-01
       -2   -1    0    0    0  501  0.00000000000E+00  0.00000000000E+00  0.26278587537E+04  0.26278587537E+04  0.25500000920E-02 0. -1.
        2   -1    0    0  501    0  0.00000000000E+00  0.00000000000E+00 -0.13500173874E+04  0.13500173874E+04  0.25500000920E-02 0.  1.
    10030    2    1    2    0    0  0.00000000000E+00  0.00000000000E+00  0.12778413663E+04  0.39778761411E+04  0.37670439387E+04 0.  0.
        2    1    3    3  502    0 -0.14671369959E+04 -0.33096847474E+03  0.18362332518E+04  0.23735592790E+04  0.25500000920E-02 0. -1.
       -2    1    3    3    0  502  0.14671369959E+04  0.33096847474E+03 -0.55839188546E+03  0.16043168621E+04  0.25500000920E-02 0.  1.
</event>
<event>
 5   0  0.6725199E-08  0.3469534E+04  0.7818609E-02  0.8121048E-01
       -1   -1    0    0    0  501  0.00000000000E+00  0.00000000000E+00  0.29810764418E+04  0.29810764418E+04  0.50400001928E-02 0. -1.
        1   -1    0    0  501    0  0.00000000000E+00  0.00000000000E+00 -0.10095065064E+04  0.10095065065E+04  0.50400001928E-02 0.  1.
    10030    2    1    2    0    0  0.00000000000E+00  0.00000000000E+00  0.19715699353E+04  0.39905829482E+04  0.34695337233E+04 0.  0.
        5    1    3    3  502    0 -0.12710812896E+04 -0.60036941388E+03  0.21549587085E+04  0.25729283323E+04  0.46999998093E+01 0. -1.
       -5    1    3    3    0  502  0.12710812896E+04  0.60036941388E+03 -0.18338877322E+03  0.14176546159E+04  0.46999998093E+01 0.  1.
</event>
<event>
 5   0  0.1370688E-07  0.3748553E+04  0.7818609E-02  0.8057286E-01
       -2   -1    0    0    0  501  0.00000000000E+00  0.00000000000E+00  0.17437940847E+04  0.17437940847E+04  0.25500000920E-02 0. -1.
        2   -1    0    0  501    0  0.00000000000E+00  0.00000000000E+00 -0.20145226745E+04  0.20145226745E+04  0.25500000920E-02 0.  1.
    10030    2    1    2    0    0  0.00000000000E+00  0.00000000000E+00 -0.27072858982E+03  0.37583167592E+04  0.37485531734E+04 0.  0.
        5    1    3    3  502    0  0.13611411711E+04  0.10964199492E+04  0.54319140706E+03  0.18302789370E+04  0.46999998093E+01 0.  1.
       -5    1    3    3    0  502 -0.13611411711E+04 -0.10964199492E+04 -0.81391999688E+03  0.19280378222E+04  0.46999998093E+01 0. -1.
</event>
<event>
 5   0  0.1370688E-07  0.3763693E+04  0.7818609E-02  0.8053991E-01
        2   -1    0    0  501    0  0.00000000000E+00  0.00000000000E+00  0.16467952767E+04  0.16467952767E+04  0.25500000920E-02 0. -1.
       -2   -1    0    0    0  501  0.00000000000E+00  0.00000000000E+00 -0.21504474571E+04  0.21504474571E+04  0.25500000920E-02 0.  1.
    10030    2    1    2    0    0  0.00000000000E+00  0.00000000000E+00 -0.50365218040E+03  0.37972427337E+04  0.37636932474E+04 0.  0.
        5    1    3    3  502    0 -0.16629849683E+04 -0.16343786163E+03 -0.11250431423E+04  0.20144416352E+04  0.46999998093E+01 0.  1.
       -5    1    3    3    0  502  0.16629849683E+04  0.16343786163E+03  0.62139096190E+03  0.17828010986E+04  0.46999998093E+01 0. -1.
</event>
<event>
 5   0  0.1370688E-07  0.3797609E+04  0.7818609E-02  0.8046668E-01
       -2   -1    0    0    0  501  0.00000000000E+00  0.00000000000E+00  0.17427253776E+04  0.17427253776E+04  0.25500000920E-02 0. -1.
        2   -1    0    0  501    0  0.00000000000E+00  0.00000000000E+00 -0.20688625857E+04  0.20688625857E+04  0.25500000920E-02 0.  1.
    10030    2    1    2    0    0  0.00000000000E+00  0.00000000000E+00 -0.32613720816E+03  0.38115879633E+04  0.37976094222E+04 0.  0.
        5    1    3    3  502    0  0.13006661721E+04  0.60150672371E+03  0.10872673943E+04  0.17988094136E+04  0.46999998093E+01 0. -1.
       -5    1    3    3    0  502 -0.13006661721E+04 -0.60150672371E+03 -0.14134046025E+04  0.20127785497E+04  0.46999998093E+01 0.  1.
</event>
<event>
 5   0  0.6661000E-08  0.3796129E+04  0.7818609E-02  0.8046986E-01
       -1   -1    0    0    0  501  0.00000000000E+00  0.00000000000E+00  0.31098967624E+04  0.31098967624E+04  0.50400001928E-02 0. -1.
        1   -1    0    0  501    0  0.00000000000E+00  0.00000000000E+00 -0.11584463149E+04  0.11584463150E+04  0.50400001928E-02 0.  1.
    10030    2    1    2    0    0  0.00000000000E+00  0.00000000000E+00  0.19514504474E+04  0.42683430773E+04  0.37961287883E+04 0.  0.
        1    1    3    3  502    0  0.15109596594E+04  0.61819038012E+03 -0.11295843683E+03  0.16364345532E+04  0.50400001928E-02 0.  1.
       -1    1    3    3    0  502 -0.15109596594E+04 -0.61819038012E+03  0.20644088843E+04  0.26319085242E+04  0.50400001928E-02 0. -1.
</event>
<event>
 5   0  0.6661000E-08  0.3811672E+04  0.7818609E-02  0.8043655E-01
       -1   -1    0    0    0  501  0.00000000000E+00  0.00000000000E+00  0.12466471711E+04  0.12466471711E+04  0.50400001928E-02 0.  1.
        1   -1    0    0  501    0  0.00000000000E+00  0.00000000000E+00 -0.29135829547E+04  0.29135829547E+04  0.50400001928E-02 0. -1.
    10030    2    1    2    0    0  0.00000000000E+00  0.00000000000E+00 -0.16669357835E+04  0.41602301258E+04  0.38116715222E+04 0.  0.
        2    1    3    3  502    0  0.33463481712E+03  0.66810597089E+03 -0.27470372335E+04  0.28468508236E+04  0.25500000920E-02 0. -1.
       -2    1    3    3    0  502 -0.33463481712E+03 -0.66810597089E+03  0.10801014500E+04  0.13133793022E+04  0.25500000920E-02 0.  1.
</event>
<event>
 5   0  0.2081337E-07  0.3785454E+04  0.7818609E-02  0.8049284E-01
        2   -1    0    0  501    0  0.00000000000E+00  0.00000000000E+00  0.14483604634E+04  0.14483604634E+04  0.25500000920E-02 0.  1.
       -2   -1    0    0    0  501  0.00000000000E+00  0.00000000000E+00 -0.24734277717E+04  0.24734277717E+04  0.25500000920E-02 0. -1.
    10030    2    1    2    0    0  0.00000000000E+00  0.00000000000E+00 -0.10250673083E+04  0.39217882351E+04  0.37854537343E+04 0.  0.
        1    1    3    3  502    0 -0.31592304420E+03  0.56498433263E+03  0.13301181401E+04  0.14792663494E+04  0.50400001928E-02 0.  1.
       -1    1    3    3    0  502  0.31592304420E+03 -0.56498433263E+03 -0.23551854484E+04  0.24425218857E+04  0.50400001928E-02 0. -1.
</event>
<event>
 5   0  0.2081337E-07  0.3802072E+04  0.7818609E-02  0.8045710E-01
        2   -1    0    0  501    0  0.00000000000E+00  0.00000000000E+00  0.28247763918E+04  0.28247763918E+04  0.25500000920E-02 0.  1.
       -2   -1    0    0    0  501  0.00000000000E+00  0.00000000000E+00 -0.12793712708E+04  0.12793712708E+04  0.25500000920E-02 0. -1.
    10030    2    1    2    0    0  0.00000000000E+00  0.00000000000E+00  0.15454051210E+04  0.41041476626E+04  0.38020719415E+04 0.  0.
        1    1    3    3  502    0 -0.36034099870E+03 -0.18280085631E+04  0.36525215523E+03  0.18986495409E+04  0.50400001928E-02 0.  1.
       -1    1    3    3    0  502  0.36034099870E+03  0.18280085631E+04  0.11801529658E+04  0.22054981217E+04  0.50400001928E-02 0. -1.
</event>
<event>
 5   0  0.6725199E-08  0.3811694E+04  0.7818609E-02  0.8043650E-01
       -1   -1    0    0    0  501  0.00000000000E+00  0.00000000000E+00  0.31670605972E+04  0.31670605972E+04  0.50400001928E-02 0. -1.
        1   -1    0    0  501    0  0.00000000000E+00  0.00000000000E+00 -0.11468845177E+04  0.11468845177E+04  0.50400001928E-02 0.  1.
    10030    2    1    2    0    0  0.00000000000E+00  0.00000000000E+00  0.20201760795E+04  0.43139451148E+04  0.38116939885E+04 0.  0.
        5    1    3    3  502    0  0.22590449842E+03 -0.87379336400E+03  0.29098651613E+04  0.30466186227E+04  0.46999998093E+01 0. -1.
       -5    1    3    3    0  502 -0.22590449842E+03  0.87379336400E+03 -0.88968908180E+03  0.12673264921E+04  0.46999998093E+01 0.  1.
</event>
<event>
 5   0  0.6661000E-08  0.3793691E+04  0.7818609E-02  0.8047510E-01
        1   -1    0    0  501    0  0.00000000000E+00  0.00000000000E+00  0.25534517826E+04  0.25534517826E+04  0.50400001928E-02 0. -1.
       -1   -1    0    0    0  501  0.00000000000E+00  0.00000000000E+00 -0.14090819285E+04  0.14090819285E+04  0.50400001928E-02 0.  1.
    10030    2    1    2    0    0  0.00000000000E+00  0.00000000000E+00  0.11443698541E+04  0.39625337111E+04  0.37936909532E+04 0.  0.
        2    1    3    3  502    0 -0.17909287384E+04 -0.62403210474E+03  0.60807930624E+03  0.19916330627E+04  0.25500000920E-02 0.  1.
       -2    1    3    3    0  502  0.17909287384E+04  0.62403210474E+03  0.53629054787E+03  0.19709006483E+04  0.25500000920E-02 0. -1.
</event>
<event>
 5   0  0.1370688E-07  0.3885944E+04  0.7818609E-02  0.8027959E-01
       -2   -1    0    0    0  501  0.00000000000E+00  0.00000000000E+00  0.18485164644E+04  0.18485164644E+04  0.25500000920E-02 0. -1.
        2   -1    0    0  501    0  0.00000000000E+00  0.00000000000E+00 -0.20422539382E+04  0.20422539382E+04  0.25500000920E-02 0.  1.
    10030    2    1    2    0    0  0.00000000000E+00  0.00000000000E+00 -0.19373747381E+03  0.38907704027E+04  0.38859439159E+04 0.  0.
        5    1    3    3  502    0  0.18472251592E+04 -0.95679591511E+02 -0.69235323320E+03  0.19750368256E+04  0.46999998093E+01 0. -1.
       -5    1    3    3    0  502 -0.18472251592E+04  0.95679591511E+02  0.49861575939E+03  0.19157335771E+04  0.46999998093E+01 0.  1.
</event>
<event>
 5   0  0.6725199E-08  0.3805618E+04  0.7818609E-02  0.8044950E-01
        1   -1    0    0  501    0  0.00000000000E+00  0.00000000000E+00  0.26504135920E+04  0.26504135920E+04  0.50400001928E-02 0. -1.
       -1   -1    0    0    0  501  0.00000000000E+00  0.00000000000E+00 -0.13660819002E+04  0.13660819002E+04  0.50400001928E-02 0.  1.
    10030    2    1    2    0    0  0.00000000000E+00  0.00000000000E+00  0.12843316918E+04  0.40164954923E+04  0.38056179715E+04 0.  0.
        5    1    3    3  502    0  0.54004006209E+03 -0.13148916666E+04  0.19772003162E+04  0.24351440499E+04  0.46999998093E+01 0. -1.
       -5    1    3    3    0  502 -0.54004006209E+03  0.13148916666E+04 -0.69286862438E+03  0.15813514424E+04  0.46999998093E+01 0.  1.
</event>
<event>
 5   0  0.6661000E-08  0.3762094E+04  0.7818609E-02  0.8054339E-01
        4   -1    0    0  501    0  0.00000000000E+00  0.00000000000E+00  0.16359561024E+04  0.16359565954E+04  0.12699999809E+01 0.  1.
       -4   -1    0    0    0  501  0.00000000000E+00  0.00000000000E+00 -0.21628552629E+04  0.21628556358E+04  0.12699999809E+01 0. -1.
    10030    2    1    2    0    0  0.00000000000E+00  0.00000000000E+00 -0.52689916050E+03  0.37988122312E+04  0.37620940502E+04 0.  0.
        3    1    3    3  502    0  0.17820573854E+04 -0.59555257248E+03 -0.35334947021E+03  0.19118753227E+04  0.10100000352E+00 0.  1.
       -3    1    3    3    0  502 -0.17820573854E+04  0.59555257248E+03 -0.17354969029E+03  0.18869369084E+04  0.10100000352E+00 0. -1.
</event>
<event>
 5   0  0.1370688E-07  0.3837148E+04  0.7818609E-02  0.8038230E-01
        2   -1    0    0  501    0  0.00000000000E+00  0.00000000000E+00  0.19940758725E+04  0.19940758725E+04  0.25500000920E-02 0. -1.
       -2   -1    0    0    0  501  0.00000000000E+00  0.00000000000E+00 -0.18459306138E+04  0.18459306138E+04  0.25500000920E-02 0.  1.
    10030    2    1    2    0    0  0.00000000000E+00  0.00000000000E+00  0.14814525876E+03  0.38400064863E+04  0.38371477424E+04 0.  0.
        5    1    3    3  502    0 -0.29053242568E+03  0.84403053161E+03  0.17736037425E+04  0.19855701836E+04  0.46999998093E+01 0. -1.
       -5    1    3    3    0  502  0.29053242568E+03 -0.84403053161E+03 -0.16254584837E+04  0.18544363027E+04  0.46999998093E+01 0.  1.
</event>
<event>
 5   0  0.2081337E-07  0.3799220E+04  0.7818609E-02  0.8046322E-01
        2   -1    0    0  501    0  0.00000000000E+00  0.00000000000E+00  0.20146514891E+04  0.20146514891E+04  0.25500000920E-02 0. -1.
       -2   -1    0    0    0  501  0.00000000000E+00  0.00000000000E+00 -0.17911375679E+04  0.17911375679E+04  0.25500000920E-02 0.  1.
    10030    2    1    2    0    0  0.00000000000E+00  0.00000000000E+00  0.22351392120E+03  0.38057890570E+04  0.37992199033E+04 0.  0.
        1    1    3    3  502    0  0.11519000289E+04 -0.10683871661E+04 -0.95788762216E+03  0.18400743219E+04  0.50400001928E-02 0. -1.
       -1    1    3    3    0  502 -0.11519000289E+04  0.10683871661E+04  0.11814015434E+04  0.19657147351E+04  0.50400001928E-02 0.  1.
</event>
<event>
 5   0  0.6661000E-08  0.3575639E+04  0.7818609E-02  0.8096095E-01
        1   -1    0    0  501    0  0.00000000000E+00  0.00000000000E+00  0.19031521951E+04  0.19031521951E+04  0.50400001928E-02 0.  1.
       -1   -1    0    0    0  501  0.00000000000E+00  0.00000000000E+00 -0.16794760620E+04  0.16794760620E+04  0.50400001928E-02 0. -1.
    10030    2    1    2    0    0  0.00000000000E+00  0.00000000000E+00  0.22367613304E+03  0.35826282571E+04  0.35756389941E+04 0.  0.
        2    1    3    3  502    0  0.43596975975E+03  0.31922947137E+03  0.18193762523E+04  0.18979217671E+04  0.25500000920E-02 0.  1.
       -2    1    3    3    0  502 -0.43596975975E+03 -0.31922947137E+03 -0.15957001193E+04  0.16847064900E+04  0.25500000920E-02 0. -1.
</event>
<event>
 5   0  0.6725199E-08  0.3816609E+04  0.7818609E-02  0.8042600E-01
        1   -1    0    0  501    0  0.00000000000E+00  0.00000000000E+00  0.16171072714E+04  0.16171072714E+04  0.50400001928E-02 0. -1.
       -1   -1    0    0    0  501  0.00000000000E+00  0.00000000000E+00 -0.22519389005E+04  0.22519389005E+04  0.50400001928E-02 0.  1.
    10030    2    1    2    0    0  0.00000000000E+00  0.00000000000E+00 -0.63483162912E+03  0.38690461719E+04  0.38166093700E+04 0.  0.
        5    1    3    3  502    0 -0.33685691221E+03  0.66905529732E+03 -0.20966642933E+04  0.22264615018E+04  0.46999998093E+01 0.  1.
       -5    1    3    3    0  502  0.33685691221E+03 -0.66905529732E+03  0.14618326642E+04  0.16425846701E+04  0.46999998093E+01 0. -1.
</event>
<event>
 5   0  0.6661000E-08  0.3814316E+04  0.7818609E-02  0.8043090E-01
        1   -1    0    0  501    0  0.00000000000E+00  0.00000000000E+00  0.25009050458E+04  0.25009050458E+04  0.50400001928E-02 0.  1.
       -1   -1    0    0    0  501  0.00000000000E+00  0.00000000000E+00 -0.14543738447E+04  0.14543738447E+04  0.50400001928E-02 0. -1.
    10030    2    1    2    0    0  0.00000000000E+00  0.00000000000E+00  0.10465312011E+04  0.39552788905E+04  0.38143156066E+04 0.  0.
        3    1    3    3  502    0 -0.81293877908E+03 -0.15343615630E+04 -0.29462680615E+03  0.17612324746E+04  0.10100000352E+00 0. -1.
       -3    1    3    3    0  502  0.81293877908E+03  0.15343615630E+04  0.13411580072E+04  0.21940464159E+04  0.10100000352E+00 0.  1.
</event>
<event>
 5   0  0.6661000E-08  0.3800075E+04  0.7818609E-02  0.8046139E-01
       -1   -1    0    0    0  501  0.00000000000E+00  0.00000000000E+00  0.29976158000E+04  0.29976158000E+04  0.50400001928E-02 0.  1.
        1   -1    0    0  501    0  0.00000000000E+00  0.00000000000E+00 -0.12043380543E+04  0.12043380543E+04  0.50400001928E-02 0. -1.
    10030    2    1    2    0    0  0.00000000000E+00  0.00000000000E+00  0.17932777457E+04  0.42019538543E+04  0.38000751466E+04 0.  0.
        1    1    3    3  502    0 -0.18324826491E+04 -0.32838245257E+03  0.47657536031E+03  0.19217054323E+04  0.50400001928E-02 0. -1.
       -1    1    3    3    0  502  0.18324826491E+04  0.32838245257E+03  0.13167023854E+04  0.22802484220E+04  0.50400001928E-02 0.  1.
</event>
<event>
 5   0  0.6725199E-08  0.3781232E+04  0.7818609E-02  0.8050194E-01
       -1   -1    0    0    0  501  0.00000000000E+00  0.00000000000E+00  0.12441408810E+04  0.12441408810E+04  0.50400001928E-02 0. -1.
        1   -1    0    0  501    0  0.00000000000E+00  0.00000000000E+00 -0.28730101405E+04  0.28730101405E+04  0.50400001928E-02 0.  1.
    10030    2    1    2    0    0  0.00000000000E+00  0.00000000000E+00 -0.16288692595E+04  0.41171510215E+04  0.37812322686E+04 0.  0.
        5    1    3    3  502    0 -0.78282643249E+03 -0.17118270214E+02 -0.26881534841E+04  0.27998752656E+04  0.46999998093E+01 0.  1.
       -5    1    3    3    0  502  0.78282643249E+03  0.17118270214E+02  0.10592842246E+04  0.13172757559E+04  0.46999998093E+01 0. -1.
</event>
<event>
 5   0  0.6661000E-08  0.3810965E+04  0.7818609E-02  0.8043806E-01
        1   -1    0    0  501    0  0.00000000000E+00  0.00000000000E+00  0.15640918012E+04  0.15640918012E+04  0.50400001928E-02 0.  1.
       -1   -1    0    0    0  501  0.00000000000E+00  0.00000000000E+00 -0.23213874450E+04  0.23213874450E+04  0.50400001928E-02 0. -1.
    10030    2    1    2    0    0  0.00000000000E+00  0.00000000000E+00 -0.75729564380E+03  0.38854792462E+04  0.38109647440E+04 0.  0.
        4    1    3    3  502    0 -0.57845134157E+03  0.51497711784E+02 -0.22289613305E+04  0.23033732209E+04  0.12699999809E+01 0. -1.
       -4    1    3    3    0  502  0.57845134157E+03 -0.51497711784E+02  0.14716656867E+04  0.15821060253E+04  0.12699999809E+01 0.  1.
</event>
<event>
 5   0  0.6661000E-08  0.3791315E+04  0.7818609E-02  0.8048021E-01
       -1   -1    0    0    0  501  0.00000000000E+00  0.00000000000E+00  0.13998460068E+04  0.13998460068E+04  0.50400001928E-02 0.  1.
        1   -1    0    0  501    0  0.00000000000E+00  0.00000000000E+00 -0.25670807630E+04  0.25670807630E+04  0.50400001928E-02 0. -1.
    10030    2    1    2    0    0  0.00000000000E+00  0.00000000000E+00 -0.11672347562E+04  0.39669267698E+04  0.37913152099E+04 0.  0.
        3    1    3    3  502    0  0.76303758478E+03 -0.67800830638E+03 -0.22549783521E+04  0.24752472600E+04  0.10100000352E+00 0. -1.
       -3    1    3    3    0  502 -0.76303758478E+03  0.67800830638E+03  0.10877435959E+04  0.14916795098E+04  0.10100000352E+00 0.  1.
</event>
<event>
 5   0  0.2135314E-07  0.3810343E+04  0.7818609E-02  0.8043939E-01
        2   -1    0    0  501    0  0.00000000000E+00  0.00000000000E+00  0.29616999605E+04  0.29616999605E+04  0.25500000920E-02 0. -1.
       -2   -1    0    0    0  501  0.00000000000E+00  0.00000000000E+00 -0.12255391670E+04  0.12255391670E+04  0.25500000920E-02 0.  1.
    10030    2    1    2    0    0  0.00000000000E+00  0.00000000000E+00  0.17361607935E+04  0.41872391274E+04  0.38103434503E+04 0.  0.
        4    1    3    3  502    0 -0.17963844018E+04 -0.60476323049E+03  0.65686525478E+03  0.20060431351E+04  0.12699999809E+01 0.  1.
       -4    1    3    3    0  502  0.17963844018E+04  0.60476323049E+03  0.10792955387E+04  0.21811959923E+04  0.12699999809E+01 0. -1.
</event>
<event>
 5   0  0.6661000E-08  0.3804711E+04  0.7818609E-02  0.8045145E-01
       -1   -1    0    0    0  501  0.00000000000E+00  0.00000000000E+00  0.25084297447E+04  0.25084297447E+04  0.50400001928E-02 0.  1.
        1   -1    0    0  501    0  0.00000000000E+00  0.00000000000E+00 -0.14427178057E+04  0.14427178058E+04  0.50400001928E-02 0. -1.
    10030    2    1    2    0    0  0.00000000000E+00  0.00000000000E+00  0.10657119390E+04  0.39511475505E+04  0.38047108995E+04 0.  0.
        3    1    3    3  502    0 -0.14467419963E+04  0.11001878601E+04 -0.50438497145E+02  0.18182463484E+04  0.10100000352E+00 0. -1.
       -3    1    3    3    0  502  0.14467419963E+04 -0.11001878601E+04  0.11161504361E+04  0.21329012020E+04  0.10100000352E+00 0.  1.
</event>
<event>
 5   0  0.2203998E-07  0.3749430E+04  0.7818609E-02  0.8057095E-01
        2   -1    0    0  501    0  0.00000000000E+00  0.00000000000E+00  0.23916522883E+04  0.23916522883E+04  0.25500000920E-02 0.  1.
       -2   -1    0    0    0  501  0.00000000000E+00  0.00000000000E+00 -0.14695094244E+04  0.14695094244E+04  0.25500000920E-02 0. -1.
    10030    2    1    2    0    0  0.00000000000E+00  0.00000000000E+00  0.92214286397E+03  0.38611617127E+04  0.37494295980E+04 0.  0.
        3    1    3    3  502    0 -0.75869704933E+03 -0.14205239794E+04 -0.52723914451E+03  0.16945473480E+04  0.10100000352E+00 0. -1.
       -3    1    3    3    0  502  0.75869704933E+03  0.14205239794E+04  0.14493820085E+04  0.21666143647E+04  0.10100000352E+00 0.  1.
</event>
<event>
 5   0  0.2203998E-07  0.3819092E+04  0.7818609E-02  0.8042070E-01
       -2   -1    0    0    0  501  0.00000000000E+00  0.00000000000E+00  0.20337197365E+04  0.20337197365E+04  0.25500000920E-02 0. -1.
        2   -1    0    0  501    0  0.00000000000E+00  0.00000000000E+00 -0.17929544536E+04  0.17929544536E+04  0.25500000920E-02 0.  1.
    10030    2    1    2    0    0  0.00000000000E+00  0.00000000000E+00  0.24076528288E+03  0.38266741901E+04  0.38190924885E+04 0.  0.
        3    1    3    3  502    0  0.57903818556E+03 -0.37250470171E+03  0.19050198118E+04  0.20256222418E+04  0.10100000352E+00 0. -1.
       -3    1    3    3    0  502 -0.57903818556E+03  0.37250470171E+03 -0.16642545289E+04  0.18010519483E+04  0.10100000352E+00 0.  1.
</event>
<event>
 5   0  0.1370688E-07  0.3756285E+04  0.7818609E-02  0.8055602E-01
        2   -1    0    0  501    0  0.00000000000E+00  0.00000000000E+00  0.18909798197E+04  0.18909798197E+04  0.25500000920E-02 0.  1.
       -2   -1    0    0    0  501  0.00000000000E+00  0.00000000000E+00 -0.18653920627E+04  0.18653920627E+04  0.25500000920E-02 0. -1.
    10030    2    1    2    0    0  0.00000000000E+00  0.00000000000E+00  0.25587757086E+02  0.37563718824E+04  0.37562847317E+04 0.  0.
        5    1    3    3  502    0 -0.11906656083E+04  0.13967136161E+04  0.41142969436E+03  0.18809013796E+04  0.46999998093E+01 0.  1.
       -5    1    3    3    0  502  0.11906656083E+04 -0.13967136161E+04 -0.38584193727E+03  0.18754705028E+04  0.46999998093E+01 0. -1.
</event>
<event>
 5   0  0.1370688E-07  0.3782906E+04  0.7818609E-02  0.8049833E-01
        2   -1    0    0  501    0  0.00000000000E+00  0.00000000000E+00  0.23015364672E+04  0.23015364672E+04  0.25500000920E-02 0.  1.
       -2   -1    0    0    0  501  0.00000000000E+00  0.00000000000E+00 -0.15544373573E+04  0.15544373573E+04  0.25500000920E-02 0. -1.
    10030    2    1    2    0    0  0.00000000000E+00  0.00000000000E+00  0.74709910986E+03  0.38559738244E+04  0.37829059009E+04 0.  0.
        5    1    3    3  502    0 -0.19641470517E+03  0.44449696238E+03  0.22368110333E+04  0.22889958442E+04  0.46999998093E+01 0.  1.
       -5    1    3    3    0  502  0.19641470517E+03 -0.44449696238E+03 -0.14897119234E+04  0.15669779803E+04  0.46999998093E+01 0. -1.
</event>
<event>
 5   0  0.6725199E-08  0.3718917E+04  0.7818609E-02  0.8063782E-01
       -1   -1    0    0    0  501  0.00000000000E+00  0.00000000000E+00  0.16047505674E+04  0.16047505675E+04  0.50400001928E-02 0. -1.
        1   -1    0    0  501    0  0.00000000000E+00  0.00000000000E+00 -0.21545941291E+04  0.21545941291E+04  0.50400001928E-02 0.  1.
    10030    2    1    2    0    0  0.00000000000E+00  0.00000000000E+00 -0.54984356165E+03  0.37593446966E+04  0.37189171280E+04 0.  0.
        5    1    3    3  502    0 -0.72269952210E+03  0.69246916635E+03 -0.18590424006E+04  0.21113665913E+04  0.46999998093E+01 0.  1.
       -5    1    3    3    0  502  0.72269952210E+03 -0.69246916635E+03  0.13091988389E+04  0.16479781053E+04  0.46999998093E+01 0. -1.
</event>
<event>
 5   0  0.6661000E-08  0.3785230E+04  0.7818609E-02  0.8049332E-01
        1   -1    0    0  501    0  0.00000000000E+00  0.00000000000E+00  0.23457050551E+04  0.23457050551E+04  0.50400001928E-02 0.  1.
       -1   -1    0    0    0  501  0.00000000000E+00  0.00000000000E+00 -0.15270423093E+04  0.15270423093E+04  0.50400001928E-02 0. -1.
    10030    2    1    2    0    0  0.00000000000E+00  0.00000000000E+00  0.81866274584E+03  0.38727473644E+04  0.37852296439E+04 0.  0.
        2    1    3    3  502    0  0.92982602688E+03  0.14946569851E+04  0.11206873091E+04  0.20867477059E+04  0.25500000920E-02 0.  1.
       -2    1    3    3    0  502 -0.92982602688E+03 -0.14946569851E+04 -0.30202456322E+03  0.17859996585E+04  0.25500000920E-02 0. -1.
</event>
<event>
 5   0  0.1370688E-07  0.3810020E+04  0.7818609E-02  0.8044008E-01
        2   -1    0    0  501    0  0.00000000000E+00  0.00000000000E+00  0.22837695033E+04  0.22837695033E+04  0.25500000920E-02 0.  1.
       -2   -1    0    0    0  501  0.00000000000E+00  0.00000000000E+00 -0.15890673912E+04  0.15890673912E+04  0.25500000920E-02 0. -1.
    10030    2    1    2    0    0  0.00000000000E+00  0.00000000000E+00  0.69470211214E+03  0.38728368945E+04  0.38100202869E+04 0.  0.
        5    1    3    3  502    0  0.14169946483E+04  0.11270795292E+04 -0.25474878573E+03  0.18284149234E+04  0.46999998093E+01 0. -1.
       -5    1    3    3    0  502 -0.14169946483E+04 -0.11270795292E+04  0.94945089787E+03  0.20444219711E+04  0.46999998093E+01 0.  1.
</event>
<event>
 5   0  0.2081337E-07  0.3769661E+04  0.7818609E-02  0.8052697E-01
        2   -1    0    0  501    0  0.00000000000E+00  0.00000000000E+00  0.23242292679E+04  0.23242292679E+04  0.25500000920E-02 0.  1.
       -2   -1    0    0    0  501  0.00000000000E+00  0.00000000000E+00 -0.15285002963E+04  0.15285002963E+04  0.25500000920E-02 0. -1.
    10030    2    1    2    0    0  0.00000000000E+00  0.00000000000E+00  0.79572897161E+03  0.38527295642E+04  0.37696605283E+04 0.  0.
        1    1    3    3  502    0 -0.74729991435E+03  0.25787544939E+03  0.21466004646E+04  0.22875424508E+04  0.50400001928E-02 0.  1.
       -1    1    3    3    0  502  0.74729991435E+03 -0.25787544939E+03 -0.13508714930E+04  0.15651871134E+04  0.50400001928E-02 0. -1.
</event>
<event>
 5   0  0.6661000E-08  0.3801856E+04  0.7818609E-02  0.8045757E-01
       -1   -1    0    0    0  501  0.00000000000E+00  0.00000000000E+00  0.18238243949E+04  0.18238243949E+04  0.50400001928E-02 0.  1.
        1   -1    0    0  501    0  0.00000000000E+00  0.00000000000E+00 -0.19812909186E+04  0.19812909186E+04  0.50400001928E-02 0. -1.
    10030    2    1    2    0    0  0.00000000000E+00  0.00000000000E+00 -0.15746652365E+03  0.38051153135E+04  0.38018557104E+04 0.  0.
        2    1    3    3  502    0 -0.17493655725E+04  0.68900336492E+03  0.20172327488E+03  0.18909515654E+04  0.25500000920E-02 0. -1.
       -2    1    3    3    0  502  0.17493655725E+04 -0.68900336492E+03 -0.35918979853E+03  0.19141637481E+04  0.25500000920E-02 0.  1.
</event>
<event>
 5   0  0.2081337E-07  0.3809889E+04  0.7818609E-02  0.8044036E-01
       -2   -1    0    0    0  501  0.00000000000E+00  0.00000000000E+00  0.19805341603E+04  0.19805341603E+04  0.25500000920E-02 0.  1.
        2   -1    0    0  501    0  0.00000000000E+00  0.00000000000E+00 -0.18322400093E+04  0.18322400093E+04  0.25500000920E-02 0. -1.
    10030    2    1    2    0    0  0.00000000000E+00  0.00000000000E+00  0.14829415098E+03  0.38127741696E+04  0.38098891996E+04 0.  0.
        1    1    3    3  502    0  0.34566740820E+03  0.14767209047E+04 -0.10793850024E+04  0.18615215742E+04  0.50400001928E-02 0. -1.
       -1    1    3    3    0  502 -0.34566740820E+03 -0.14767209047E+04  0.12276791534E+04  0.19512525955E+04  0.50400001928E-02 0.  1.
</event>
<event>
 5   0  0.6661000E-08  0.3770920E+04  0.7818609E-02  0.8052424E-01
       -1   -1    0    0    0  501  0.00000000000E+00  0.00000000000E+00  0.14043269878E+04  0.14043269878E+04  0.50400001928E-02 0. -1.
        1   -1    0    0  501    0  0.00000000000E+00  0.00000000000E+00 -0.25314322087E+04  0.25314322087E+04  0.50400001928E-02 0.  1.
    10030    2    1    2    0    0  0.00000000000E+00  0.00000000000E+00 -0.11271052209E+04  0.39357591965E+04  0.37709195528E+04 0.  0.
        4    1    3    3  502    0 -0.13241260272E+04  0.60179610709E+03 -0.18157862785E+04  0.23264887089E+04  0.12699999809E+01 0.  1.
       -4    1    3    3    0  502  0.13241260272E+04 -0.60179610709E+03  0.68868105763E+03  0.16092704876E+04  0.12699999809E+01 0. -1.
</event>
<event>
 5   0  0.2203998E-07  0.3793349E+04  0.7818609E-02  0.8047584E-01
        2   -1    0    0  501    0  0.00000000000E+00  0.00000000000E+00  0.17564536328E+04  0.17564536328E+04  0.25500000920E-02 0.  1.
       -2   -1    0    0    0  501  0.00000000000E+00  0.00000000000E+00 -0.20480893905E+04  0.20480893905E+04  0.25500000920E-02 0. -1.
    10030    2    1    2    0    0  0.00000000000E+00  0.00000000000E+00 -0.29163575773E+03  0.38045430233E+04  0.37933489427E+04 0.  0.
        3    1    3    3  502    0 -0.11406721113E+04  0.12862757545E+04 -0.94926603536E+03  0.19638595159E+04  0.10100000352E+00 0.  1.
       -3    1    3    3    0  502  0.11406721113E+04 -0.12862757545E+04  0.65763027763E+03  0.18406835074E+04  0.10100000352E+00 0. -1.
</event>
<event>
 5   0  0.6661000E-08  0.3793000E+04  0.7818609E-02  0.8047659E-01
       -1   -1    0    0    0  501  0.00000000000E+00  0.00000000000E+00  0.25598293916E+04  0.25598293916E+04  0.50400001928E-02 0.  1.
        1   -1    0    0  501    0  0.00000000000E+00  0.00000000000E+00 -0.14050595213E+04  0.14050595213E+04  0.50400001928E-02 0. -1.
    10030    2    1    2    0    0  0.00000000000E+00  0.00000000000E+00  0.11547698703E+04  0.39648889129E+04  0.37930002160E+04 0.  0.
        4    1    3    3  502    0 -0.12051861916E+04  0.97144050924E+03 -0.56796075834E+03  0.16488636861E+04  0.12699999809E+01 0. -1.
       -4    1    3    3    0  502  0.12051861916E+04 -0.97144050924E+03  0.17227306286E+04  0.23160252268E+04  0.12699999809E+01 0.  1.
</event>
<event>
 5   0  0.2203998E-07  0.3790470E+04  0.7818609E-02  0.8048203E-01
       -2   -1    0    0    0  501  0.00000000000E+00  0.00000000000E+00  0.17339205744E+04  0.17339205744E+04  0.25500000920E-02 0.  1.
        2   -1    0    0  501    0  0.00000000000E+00  0.00000000000E+00 -0.20715572294E+04  0.20715572294E+04  0.25500000920E-02 0. -1.
    10030    2    1    2    0    0  0.00000000000E+00  0.00000000000E+00 -0.33763665501E+03  0.38054778038E+04  0.37904699978E+04 0.  0.
        3    1    3    3  502    0  0.18455104591E+04 -0.42850645216E+03 -0.11974682529E+03  0.18983850891E+04  0.10100000352E+00 0. -1.
       -3    1    3    3    0  502 -0.18455104591E+04  0.42850645216E+03 -0.21788982973E+03  0.19070927147E+04  0.10100000352E+00 0.  1.
</event>
<event>
 5   0  0.2135314E-07  0.3721564E+04  0.7818609E-02  0.8063200E-01
       -2   -1    0    0    0  501  0.00000000000E+00  0.00000000000E+00  0.16672858283E+04  0.16672858283E+04  0.25500000920E-02 0.  1.
        2   -1    0    0  501    0  0.00000000000E+00  0.00000000000E+00 -0.20767346936E+04  0.20767346936E+04  0.25500000920E-02 0. -1.
    10030    2    1    2    0    0  0.00000000000E+00  0.00000000000E+00 -0.40944886534E+03  0.37440205219E+04  0.37215643612E+04 0.  0.
        4    1    3    3  502    0 -0.43164828151E+03 -0.71060252141E+03  0.14700224205E+04  0.16888587011E+04  0.12699999809E+01 0.  1.
       -4    1    3    3    0  502  0.43164828151E+03  0.71060252141E+03 -0.18794712859E+04  0.20551618208E+04  0.12699999809E+01 0. -1.
</event>
<event>
 5   0  0.2205204E-07  0.3708362E+04  0.7818609E-02  0.8066111E-01
        2   -1    0    0  501    0  0.00000000000E+00  0.00000000000E+00  0.24130052452E+04  0.24130052452E+04  0.25500000920E-02 0.  1.
       -2   -1    0    0    0  501  0.00000000000E+00  0.00000000000E+00 -0.14247743505E+04  0.14247743505E+04  0.25500000920E-02 0. -1.
    10030    2    1    2    0    0  0.00000000000E+00  0.00000000000E+00  0.98823089467E+03  0.38377795957E+04  0.37083624316E+04 0.  0.
        2    1    3    3  502    0 -0.78909561028E+03 -0.16374900723E+04  0.11536179181E+03  0.18213604701E+04  0.25500000920E-02 0. -1.
       -2    1    3    3    0  502  0.78909561028E+03  0.16374900723E+04  0.87286910286E+03  0.20164191255E+04  0.25500000920E-02 0.  1.
</event>
<event>
 5   0  0.2205204E-07  0.3748777E+04  0.7818609E-02  0.8057237E-01
        2   -1    0    0  501    0  0.00000000000E+00  0.00000000000E+00  0.27287217925E+04  0.27287217925E+04  0.25500000920E-02 0. -1.
       -2   -1    0    0    0  501  0.00000000000E+00  0.00000000000E+00 -0.12875374756E+04  0.12875374756E+04  0.25500000920E-02 0.  1.
    10030    2    1    2    0    0  0.00000000000E+00  0.00000000000E+00  0.14411843169E+04  0.40162592680E+04  0.37487766368E+04 0.  0.
        2    1    3    3  502    0  0.55831179997E+03  0.60598362517E+03 -0.10831024300E+04  0.13608964302E+04  0.25500000920E-02 0.  1.
       -2    1    3    3    0  502 -0.55831179997E+03 -0.60598362517E+03  0.25242867469E+04  0.26553628378E+04  0.25500000920E-02 0. -1.
</event>
<event>
 5   0  0.6661000E-08  0.3339703E+04  0.7818609E-02  0.8152866E-01
        1   -1    0    0  501    0  0.00000000000E+00  0.00000000000E+00  0.18901316399E+04  0.18901316399E+04  0.50400001928E-02 0. -1.
       -1   -1    0    0    0  501  0.00000000000E+00  0.00000000000E+00 -0.14752435200E+04  0.14752435200E+04  0.50400001928E-02 0.  1.
    10030    2    1    2    0    0  0.00000000000E+00  0.00000000000E+00  0.41488811996E+03  0.33653751599E+04  0.33397032525E+04 0.  0.
        2    1    3    3  502    0 -0.16414635022E+04  0.14302879337E+03  0.48072010178E+03  0.17163774296E+04  0.25500000920E-02 0.  1.
       -2    1    3    3    0  502  0.16414635022E+04 -0.14302879337E+03 -0.65831981817E+02  0.16489977303E+04  0.25500000920E-02 0. -1.
</event>
<event>
 5   0  0.2205204E-07  0.3805364E+04  0.7818609E-02  0.8045005E-01
        2   -1    0    0  501    0  0.00000000000E+00  0.00000000000E+00  0.27957306152E+04  0.27957306152E+04  0.25500000920E-02 0.  1.
       -2   -1    0    0    0  501  0.00000000000E+00  0.00000000000E+00 -0.12949027224E+04  0.12949027224E+04  0.25500000920E-02 0. -1.
    10030    2    1    2    0    0  0.00000000000E+00  0.00000000000E+00  0.15008278928E+04  0.40906333375E+04  0.38053642057E+04 0.  0.
        2    1    3    3  502    0  0.25019257333E+03 -0.36381790894E+03  0.27398949171E+04  0.27752448453E+04  0.25500000920E-02 0.  1.
       -2    1    3    3    0  502 -0.25019257333E+03  0.36381790894E+03 -0.12390670243E+04  0.13153884922E+04  0.25500000920E-02 0. -1.
</event>
<event>
 5   0  0.1370688E-07  0.3794813E+04  0.7818609E-02  0.8047269E-01
        2   -1    0    0  501    0  0.00000000000E+00  0.00000000000E+00  0.19978874952E+04  0.19978874952E+04  0.25500000920E-02 0. -1.
       -2   -1    0    0    0  501  0.00000000000E+00  0.00000000000E+00 -0.18019790006E+04  0.18019790006E+04  0.25500000920E-02 0.  1.
    10030    2    1    2    0    0  0.00000000000E+00  0.00000000000E+00  0.19590849459E+03  0.37998664959E+04  0.37948129398E+04 0.  0.
        5    1    3    3  502    0 -0.11946601678E+04  0.90244158511E+03 -0.10691516489E+04  0.18397611447E+04  0.46999998093E+01 0.  1.
       -5    1    3    3    0  502  0.11946601678E+04 -0.90244158511E+03  0.12650601435E+04  0.19601053512E+04  0.46999998093E+01 0. -1.
</event>
<event>
 5   0  0.1370688E-07  0.3826539E+04  0.7818609E-02  0.8040484E-01
        2   -1    0    0  501    0  0.00000000000E+00  0.00000000000E+00  0.23645012149E+04  0.23645012149E+04  0.25500000920E-02 0. -1.
       -2   -1    0    0    0  501  0.00000000000E+00  0.00000000000E+00 -0.15481489561E+04  0.15481489561E+04  0.25500000920E-02 0.  1.
    10030    2    1    2    0    0  0.00000000000E+00  0.00000000000E+00  0.81635225879E+03  0.39126501711E+04  0.38265389520E+04 0.  0.
        5    1    3    3  502    0  0.97531306073E+03 -0.60024476690E+03 -0.11589750242E+04  0.16293478890E+04  0.46999998093E+01 0.  1.
       -5    1    3    3    0  502 -0.97531306073E+03  0.60024476690E+03  0.19753272830E+04  0.22833022821E+04  0.46999998093E+01 0. -1.
</event>
<event>
 5   0  0.2203998E-07  0.3754741E+04  0.7818609E-02  0.8055938E-01
        2   -1    0    0  501    0  0.00000000000E+00  0.00000000000E+00  0.27307148643E+04  0.27307148643E+04  0.25500000920E-02 0. -1.
       -2   -1    0    0    0  501  0.00000000000E+00  0.00000000000E+00 -0.12906949282E+04  0.12906949282E+04  0.25500000920E-02 0.  1.
    10030    2    1    2    0    0  0.00000000000E+00  0.00000000000E+00  0.14400199361E+04  0.40214097925E+04  0.37547409103E+04 0.  0.
        3    1    3    3  502    0 -0.47501315209E+03  0.17828386873E+04  0.10915921202E+04  0.21437641304E+04  0.10100000352E+00 0.  1.
       -3    1    3    3    0  502  0.47501315209E+03 -0.17828386873E+04  0.34842781587E+03  0.18776456622E+04  0.10100000352E+00 0. -1.
</event>
<event>
 5   0  0.6661000E-08  0.3796027E+04  0.7818609E-02  0.8047008E-01
        1   -1    0    0  501    0  0.00000000000E+00  0.00000000000E+00  0.22311706352E+04  0.22311706352E+04  0.50400001928E-02 0. -1.
       -1   -1    0    0    0  501  0.00000000000E+00  0.00000000000E+00 -0.16146035428E+04  0.16146035428E+04  0.50400001928E-02 0.  1.
    10030    2    1    2    0    0  0.00000000000E+00  0.00000000000E+00  0.61656709245E+03  0.38457741780E+04  0.37960274036E+04 0.  0.
        3    1    3    3  502    0 -0.67877895173E+02  0.18880209760E+04  0.12361647196E+03  0.18932806598E+04  0.10100000352E+00 0.  1.
       -3    1    3    3    0  502  0.67877895173E+02 -0.18880209760E+04  0.49295062049E+03  0.19524935182E+04  0.10100000352E+00 0. -1.
</event>
<event>
 5   0  0.6661000E-08  0.3750256E+04  0.7818609E-02  0.8056915E-01
        1   -1    0    0  501    0  0.00000000000E+00  0.00000000000E+00  0.19930481593E+04  0.19930481593E+04  0.50400001928E-02 0.  1.
       -1   -1    0    0    0  501  0.00000000000E+00  0.00000000000E+00 -0.17641849966E+04  0.17641849967E+04  0.50400001928E-02 0. -1.
    10030    2    1    2    0    0  0.00000000000E+00  0.00000000000E+00  0.22886316266E+03  0.37572331560E+04  0.37502563434E+04 0.  0.
        1    1    3    3  502    0 -0.13123888965E+04 -0.34885350058E+03 -0.11810487369E+04  0.17997053924E+04  0.50400001928E-02 0. -1.
       -1    1    3    3    0  502  0.13123888965E+04  0.34885350058E+03  0.14099118996E+04  0.19575277636E+04  0.50400001928E-02 0.  1.
</event>
<event>
 5   0  0.2203998E-07  0.3834086E+04  0.7818609E-02  0.8038879E-01
       -2   -1    0    0    0  501  0.00000000000E+00  0.00000000000E+00  0.14175038535E+04  0.14175038535E+04  0.25500000920E-02 0. -1.
        2   -1    0    0  501    0  0.00000000000E+00  0.00000000000E+00 -0.25926231863E+04  0.25926231863E+04  0.25500000920E-02 0.  1.
    10030    2    1    2    0    0  0.00000000000E+00  0.00000000000E+00 -0.11751193328E+04  0.40101270397E+04  0.38340857357E+04 0.  0.
        3    1    3    3  502    0 -0.16360220026E+04 -0.99793473486E+03 -0.53410923516E+03  0.19894005161E+04  0.10100000352E+00 0.  1.
       -3    1    3    3    0  502  0.16360220026E+04  0.99793473486E+03 -0.64101009764E+03  0.20207265237E+04  0.10100000352E+00 0. -1.
</event>
<event>
 5   0  0.1370688E-07  0.3798577E+04  0.7818609E-02  0.8046460E-01
       -2   -1    0    0    0  501  0.00000000000E+00  0.00000000000E+00  0.21837496220E+04  0.21837496220E+04  0.25500000920E-02 0. -1.
        2   -1    0    0  501    0  0.00000000000E+00  0.00000000000E+00 -0.16518822801E+04  0.16518822801E+04  0.25500000920E-02 0.  1.
    10030    2    1    2    0    0  0.00000000000E+00  0.00000000000E+00  0.53186734193E+03  0.38356319021E+04  0.37985772625E+04 0.  0.
        5    1    3    3  502    0  0.27350334983E+03  0.15569946426E+04  0.13289321333E+04  0.20652164788E+04  0.46999998093E+01 0. -1.
       -5    1    3    3    0  502 -0.27350334983E+03 -0.15569946426E+04 -0.79706479136E+03  0.17704154233E+04  0.46999998093E+01 0.  1.
</event>
<event>
 5   0  0.2135314E-07  0.3811871E+04  0.7818609E-02  0.8043612E-01
       -2   -1    0    0    0  501  0.00000000000E+00  0.00000000000E+00  0.16973545437E+04  0.16973545437E+04  0.25500000920E-02 0. -1.
        2   -1    0    0  501    0  0.00000000000E+00  0.00000000000E+00 -0.21401484810E+04  0.21401484810E+04  0.25500000920E-02 0.  1.
    10030    2    1    2    0    0  0.00000000000E+00  0.00000000000E+00 -0.44279393733E+03  0.38375030247E+04  0.38118713244E+04 0.  0.
        4    1    3    3  502    0  0.31412593699E+03 -0.96312956604E+03  0.14038610726E+04  0.17312195671E+04  0.12699999809E+01 0. -1.
       -4    1    3    3    0  502 -0.31412593699E+03  0.96312956604E+03 -0.18466550099E+04  0.21062834576E+04  0.12699999809E+01 0.  1.
</event>
<event>
 5   0  0.6661000E-08  0.3946377E+04  0.7818609E-02  0.8015452E-01
       -3   -1    0    0    0  501  0.00000000000E+00  0.00000000000E+00  0.23531759524E+04  0.23531759546E+04  0.10100000352E+00 0.  1.
        3   -1    0    0  501    0  0.00000000000E+00  0.00000000000E+00 -0.16545605248E+04  0.16545605278E+04  0.10100000352E+00 0. -1.
    10030    2    1    2    0    0  0.00000000000E+00  0.00000000000E+00  0.69861542764E+03  0.40077364824E+04  0.39463765908E+04 0.  0.
        1    1    3    3  502    0  0.23767694412E+03 -0.97571242245E+03  0.20742360463E+04  0.23045520686E+04  0.50400001928E-02 0.  1.
       -1    1    3    3    0  502 -0.23767694412E+03  0.97571242245E+03 -0.13756206186E+04  0.17031844138E+04  0.50400001928E-02 0. -1.
</event>
<event>
 5   0  0.6661000E-08  0.3832926E+04  0.7818609E-02  0.8039126E-01
        1   -1    0    0  501    0  0.00000000000E+00  0.00000000000E+00  0.34018151697E+04  0.34018151697E+04  0.50400001928E-02 0. -1.
       -1   -1    0    0    0  501  0.00000000000E+00  0.00000000000E+00 -0.10796677561E+04  0.10796677561E+04  0.50400001928E-02 0.  1.
    10030    2    1    2    0    0  0.00000000000E+00  0.00000000000E+00  0.23221474136E+04  0.44814829259E+04  0.38329258543E+04 0.  0.
        4    1    3    3  502    0 -0.13759900707E+03  0.68777576310E+03 -0.92420243669E+03  0.11602244369E+04  0.12699999809E+01 0.  1.
       -4    1    3    3    0  502  0.13759900707E+03 -0.68777576310E+03  0.32463498503E+04  0.33212584890E+04  0.12699999809E+01 0. -1.
</event>
<event>
 5   0  0.2135314E-07  0.3773336E+04  0.7818609E-02  0.8051901E-01
        2   -1    0    0  501    0  0.00000000000E+00  0.00000000000E+00  0.27304464186E+04  0.27304464186E+04  0.25500000920E-02 0.  1.
       -2   -1    0    0    0  501  0.00000000000E+00  0.00000000000E+00 -0.13036390462E+04  0.13036390462E+04  0.25500000920E-02 0. -1.
    10030    2    1    2    0    0  0.00000000000E+00  0.00000000000E+00  0.14268073724E+04  0.40340854648E+04  0.37733362240E+04 0.  0.
        4    1    3    3  502    0 -0.15378454817E+04  0.10925616260E+04  0.68213685829E+03  0.20059840325E+04  0.12699999809E+01 0. -1.
       -4    1    3    3    0  502  0.15378454817E+04 -0.10925616260E+04  0.74467051413E+03  0.20281014323E+04  0.12699999809E+01 0.  1.
</event>
<event>
 5   0  0.2081337E-07  0.3796713E+04  0.7818609E-02  0.8046861E-01
        2   -1    0    0  501    0  0.00000000000E+00  0.00000000000E+00  0.18956006482E+04  0.18956006482E+04  0.25500000920E-02 0.  1.
       -2   -1    0    0    0  501  0.00000000000E+00  0.00000000000E+00 -0.19011159029E+04  0.19011159029E+04  0.25500000920E-02 0. -1.
    10030    2    1    2    0    0  0.00000000000E+00  0.00000000000E+00 -0.55152546926E+01  0.37967165512E+04  0.37967125454E+04 0.  0.
        1    1    3    3  502    0  0.17051950042E+03  0.15267721134E+03  0.18817520704E+04  0.18956207652E+04  0.50400001928E-02 0.  1.
       -1    1    3    3    0  502 -0.17051950042E+03 -0.15267721134E+03 -0.18872673251E+04  0.19010957860E+04  0.50400001928E-02 0. -1.
</event>
<event>
 5   0  0.2205204E-07  0.3804038E+04  0.7818609E-02  0.8045289E-01
       -2   -1    0    0    0  501  0.00000000000E+00  0.00000000000E+00  0.15266738702E+04  0.15266738702E+04  0.25500000920E-02 0. -1.
        2   -1    0    0  501    0  0.00000000000E+00  0.00000000000E+00 -0.23696453182E+04  0.23696453182E+04  0.25500000920E-02 0.  1.
    10030    2    1    2    0    0  0.00000000000E+00  0.00000000000E+00 -0.84297144802E+03  0.38963191884E+04  0.38040376385E+04 0.  0.
        2    1    3    3  502    0  0.14075487140E+04 -0.10432152231E+03  0.88443394761E+03  0.16656229376E+04  0.25500000920E-02 0. -1.
       -2    1    3    3    0  502 -0.14075487140E+04  0.10432152231E+03 -0.17274053956E+04  0.22306962508E+04  0.25500000920E-02 0.  1.
</event>
<event>
 5   0  0.6661000E-08  0.3794777E+04  0.7818609E-02  0.8047277E-01
        1   -1    0    0  501    0  0.00000000000E+00  0.00000000000E+00  0.16829506938E+04  0.16829506938E+04  0.50400001928E-02 0.  1.
       -1   -1    0    0    0  501  0.00000000000E+00  0.00000000000E+00 -0.21391494010E+04  0.21391494010E+04  0.50400001928E-02 0. -1.
    10030    2    1    2    0    0  0.00000000000E+00  0.00000000000E+00 -0.45619870717E+03  0.38221000948E+04  0.37947769202E+04 0.  0.
        3    1    3    3  502    0  0.14153927775E+04 -0.92454516292E+03  0.63947514814E+03  0.18074979801E+04  0.10100000352E+00 0. -1.
       -3    1    3    3    0  502 -0.14153927775E+04  0.92454516292E+03 -0.10956738553E+04  0.20146021146E+04  0.10100000352E+00 0.  1.
</event>
<event>
 5   0  0.6661000E-08  0.3729842E+04  0.7818609E-02  0.8061380E-01
       -3   -1    0    0    0  501  0.00000000000E+00  0.00000000000E+00  0.12191991035E+04  0.12191991076E+04  0.10100000352E+00 0. -1.
        3   -1    0    0  501    0  0.00000000000E+00  0.00000000000E+00 -0.28526352699E+04  0.28526352717E+04  0.10100000352E+00 0.  1.
    10030    2    1    2    0    0  0.00000000000E+00  0.00000000000E+00 -0.16334361664E+04  0.40718343793E+04  0.37298420212E+04 0.  0.
        2    1    3    3  502    0  0.12677611443E+04  0.17653692729E+03  0.66394103164E+03  0.14419435839E+04  0.25500000920E-02 0. -1.
       -2    1    3    3    0  502 -0.12677611443E+04 -0.17653692729E+03 -0.22973771981E+04  0.26298907954E+04  0.25500000920E-02 0.  1.
</event>
<event>
 5   0  0.6661000E-08  0.3550257E+04  0.7818609E-02  0.8101982E-01
        1   -1    0    0  501    0  0.00000000000E+00  0.00000000000E+00  0.18205024598E+04  0.18205024598E+04  0.50400001928E-02 0. -1.
       -1   -1    0    0    0  501  0.00000000000E+00  0.00000000000E+00 -0.17308850875E+04  0.17308850875E+04  0.50400001928E-02 0.  1.
    10030    2    1    2    0    0  0.00000000000E+00  0.00000000000E+00  0.89617372293E+02  0.35513875474E+04  0.35502566440E+04 0.  0.
        4    1    3    3  502    0 -0.17323682456E+02 -0.29096967918E+02  0.18201788700E+04  0.18204942942E+04  0.12699999809E+01 0. -1.
       -4    1    3    3    0  502  0.17323682456E+02  0.29096967918E+02 -0.17305614977E+04  0.17308932532E+04  0.12699999809E+01 0.  1.
</event>
<event>
 5   0  0.6661000E-08  0.3757861E+04  0.7818609E-02  0.8055259E-01
        1   -1    0    0  501    0  0.00000000000E+00  0.00000000000E+00  0.26893328216E+04  0.26893328216E+04  0.50400001928E-02 0. -1.
       -1   -1    0    0    0  501  0.00000000000E+00  0.00000000000E+00 -0.13127343542E+04  0.13127343542E+04  0.50400001928E-02 0.  1.
    10030    2    1    2    0    0  0.00000000000E+00  0.00000000000E+00  0.13765984674E+04  0.40020671758E+04  0.37578608728E+04 0.  0.
        2    1    3    3  502    0 -0.14658546645E+04 -0.11123449462E+02  0.19400653782E+04  0.24316059097E+04  0.25500000920E-02 0. -1.
       -2    1    3    3    0  502  0.14658546645E+04  0.11123449462E+02 -0.56346691078E+03  0.15704612661E+04  0.25500000920E-02 0.  1.
</event>
<event>
 5   0  0.2205204E-07  0.3795848E+04  0.7818609E-02  0.8047046E-01
        2   -1    0    0  501    0  0.00000000000E+00  0.00000000000E+00  0.11236546060E+04  0.11236546060E+04  0.25500000920E-02 0. -1.
       -2   -1    0    0    0  501  0.00000000000E+00  0.00000000000E+00 -0.32057142108E+04  0.32057142108E+04  0.25500000920E-02 0.  1.
    10030    2    1    2    0    0  0.00000000000E+00  0.00000000000E+00 -0.20820596048E+04  0.43293688169E+04  0.37958480152E+04 0.  0.
        2    1    3    3  502    0  0.15718947589E+04  0.87188716938E+03 -0.34625074876E+03  0.18305545472E+04  0.25500000920E-02 0.  1.
       -2    1    3    3    0  502 -0.15718947589E+04 -0.87188716938E+03 -0.17358088561E+04  0.24988142696E+04  0.25500000920E-02 0. -1.
</event>
<event>
 5   0  0.1370688E-07  0.3807281E+04  0.7818609E-02  0.8044594E-01
       -2   -1    0    0    0  501  0.00000000000E+00  0.00000000000E+00  0.15059142864E+04  0.15059142864E+04  0.25500000920E-02 0.  1.
        2   -1    0    0  501    0  0.00000000000E+00  0.00000000000E+00 -0.24064097186E+04  0.24064097186E+04  0.25500000920E-02 0. -1.
    10030    2    1    2    0    0  0.00000000000E+00  0.00000000000E+00 -0.90049543214E+03  0.39123240050E+04  0.38072808009E+04 0.  0.
        5    1    3    3  502    0  0.11856727094E+04  0.48168815775E+02 -0.19798336548E+04  0.23082251622E+04  0.46999998093E+01 0. -1.
       -5    1    3    3    0  502 -0.11856727094E+04 -0.48168815775E+02  0.10793382226E+04  0.16040988428E+04  0.46999998093E+01 0.  1.
</event>
<event>
 5   0  0.6661000E-08  0.3809587E+04  0.7818609E-02  0.8044101E-01
        1   -1    0    0  501    0  0.00000000000E+00  0.00000000000E+00  0.15704644184E+04  0.15704644184E+04  0.50400001928E-02 0. -1.
       -1   -1    0    0    0  501  0.00000000000E+00  0.00000000000E+00 -0.23102968091E+04  0.23102968091E+04  0.50400001928E-02 0.  1.
    10030    2    1    2    0    0  0.00000000000E+00  0.00000000000E+00 -0.73983239077E+03  0.38807612275E+04  0.38095873449E+04 0.  0.
        1    1    3    3  502    0  0.16024649101E+04  0.93029616607E+03 -0.81963229281E+03  0.20261149622E+04  0.50400001928E-02 0.  1.
       -1    1    3    3    0  502 -0.16024649101E+04 -0.93029616607E+03  0.79799902032E+02  0.18546462653E+04  0.50400001928E-02 0. -1.
</event>
<event>
 5   0  0.2081337E-07  0.3812033E+04  0.7818609E-02  0.8043578E-01
       -2   -1    0    0    0  501  0.00000000000E+00  0.00000000000E+00  0.13750212806E+04  0.13750212806E+04  0.25500000920E-02 0. -1.
        2   -1    0    0  501    0  0.00000000000E+00  0.00000000000E+00 -0.26420677169E+04  0.26420677169E+04  0.25500000920E-02 0.  1.
    10030    2    1    2    0    0  0.00000000000E+00  0.00000000000E+00 -0.12670464363E+04  0.40170889975E+04  0.38120332294E+04 0.  0.
        1    1    3    3  502    0  0.15357963760E+04  0.88346286595E+03  0.10692739956E+03  0.17749959473E+04  0.50400001928E-02 0. -1.
       -1    1    3    3    0  502 -0.15357963760E+04 -0.88346286595E+03 -0.13739738359E+04  0.22420930502E+04  0.50400001928E-02 0.  1.
</event>
<event>
 5   0  0.6661000E-08  0.3823316E+04  0.7818609E-02  0.8041170E-01
        1   -1    0    0  501    0  0.00000000000E+00  0.00000000000E+00  0.26050197137E+04  0.26050197137E+04  0.50400001928E-02 0.  1.
       -1   -1    0    0    0  501  0.00000000000E+00  0.00000000000E+00 -0.14028442155E+04  0.14028442155E+04  0.50400001928E-02 0. -1.
    10030    2    1    2    0    0  0.00000000000E+00  0.00000000000E+00  0.12021754981E+04  0.40078639292E+04  0.38233162760E+04 0.  0.
        4    1    3    3  502    0  0.14243312446E+04 -0.11811460608E+04  0.97689686099E+02  0.18529356165E+04  0.12699999809E+01 0. -1.
       -4    1    3    3    0  502 -0.14243312446E+04  0.11811460608E+04  0.11044858120E+04  0.21549283127E+04  0.12699999809E+01 0.  1.
</event>
<event>
 5   0  0.1370688E-07  0.3791744E+04  0.7818609E-02  0.8047929E-01
       -2   -1    0    0    0  501  0.00000000000E+00  0.00000000000E+00  0.28408601226E+04  0.28408601226E+04  0.25500000920E-02 0. -1.
        2   -1    0    0  501    0  0.00000000000E+00  0.00000000000E+00 -0.12652261961E+04  0.12652261961E+04  0.25500000920E-02 0.  1.
    10030    2    1    2    0    0  0.00000000000E+00  0.00000000000E+00  0.15756339265E+04  0.41060863187E+04  0.37917440033E+04 0.  0.
        5    1    3    3  502    0  0.11430690648E+04  0.15122249966E+04  0.75574351537E+03  0.20407355728E+04  0.46999998093E+01 0.  1.
       -5    1    3    3    0  502 -0.11430690648E+04 -0.15122249966E+04  0.81989041111E+03  0.20653507459E+04  0.46999998093E+01 0. -1.
</event>
<event>
 5   0  0.2081337E-07  0.3800462E+04  0.7818609E-02  0.8046056E-01
        2   -1    0    0  501    0  0.00000000000E+00  0.00000000000E+00  0.12532536886E+04  0.12532536886E+04  0.25500000920E-02 0. -1.
       -2   -1    0    0    0  501  0.00000000000E+00  0.00000000000E+00 -0.28812030422E+04  0.28812030422E+04  0.25500000920E-02 0.  1.
    10030    2    1    2    0    0  0.00000000000E+00  0.00000000000E+00 -0.16279493536E+04  0.41344567308E+04  0.38004622562E+04 0.  0.
        1    1    3    3  502    0  0.86541319158E+03 -0.41000605777E+03  0.97155631411E+03  0.13641725078E+04  0.50400001928E-02 0. -1.
       -1    1    3    3    0  502 -0.86541319158E+03  0.41000605777E+03 -0.25995056677E+04  0.27702842229E+04  0.50400001928E-02 0.  1.
</event>
<event>
 5   0  0.1370688E-07  0.3815991E+04  0.7818609E-02  0.8042732E-01
       -2   -1    0    0    0  501  0.00000000000E+00  0.00000000000E+00  0.14179066080E+04  0.14179066080E+04  0.25500000920E-02 0.  1.
        2   -1    0    0  501    0  0.00000000000E+00  0.00000000000E+00 -0.25674799405E+04  0.25674799405E+04  0.25500000920E-02 0. -1.
    10030    2    1    2    0    0  0.00000000000E+00  0.00000000000E+00 -0.11495733324E+04  0.39853865485E+04  0.38159909715E+04 0.  0.
        5    1    3    3  502    0  0.10283617195E+04 -0.76857231161E+03 -0.20488931862E+04  0.24178950768E+04  0.46999998093E+01 0. -1.
       -5    1    3    3    0  502 -0.10283617195E+04  0.76857231161E+03  0.89931985374E+03  0.15674914716E+04  0.46999998093E+01 0.  1.
</event>
<event>
 5   0  0.1370688E-07  0.3792991E+04  0.7818609E-02  0.8047661E-01
        2   -1    0    0  501    0  0.00000000000E+00  0.00000000000E+00  0.19189832208E+04  0.19189832208E+04  0.25500000920E-02 0.  1.
       -2   -1    0    0    0  501  0.00000000000E+00  0.00000000000E+00 -0.18742709495E+04  0.18742709495E+04  0.25500000920E-02 0. -1.
    10030    2    1    2    0    0  0.00000000000E+00  0.00000000000E+00  0.44712271244E+02  0.37932541703E+04  0.37929906424E+04 0.  0.
        5    1    3    3  502    0 -0.69975271347E+03  0.66815207893E+03 -0.16088891153E+04  0.18773990881E+04  0.46999998093E+01 0. -1.
       -5    1    3    3    0  502  0.69975271347E+03 -0.66815207893E+03  0.16536013865E+04  0.19158550822E+04  0.46999998093E+01 0.  1.
</event>
<event>
 5   0  0.1370688E-07  0.3816479E+04  0.7818609E-02  0.8042628E-01
        2   -1    0    0  501    0  0.00000000000E+00  0.00000000000E+00  0.33439200904E+04  0.33439200904E+04  0.25500000920E-02 0. -1.
       -2   -1    0    0    0  501  0.00000000000E+00  0.00000000000E+00 -0.10889550094E+04  0.10889550094E+04  0.25500000920E-02 0.  1.
    10030    2    1    2    0    0  0.00000000000E+00  0.00000000000E+00  0.22549650810E+04  0.44328750998E+04  0.38164792852E+04 0.  0.
        5    1    3    3  502    0 -0.10452964096E+04 -0.85005639259E+03 -0.44210941760E+03  0.14179997467E+04  0.46999998093E+01 0.  1.
       -5    1    3    3    0  502  0.10452964096E+04  0.85005639259E+03  0.26970744986E+04  0.30148753532E+04  0.46999998093E+01 0. -1.
</event>
<event>
 5   0  0.2203998E-07  0.3755323E+04  0.7818609E-02  0.8055811E-01
       -2   -1    0    0    0  501  0.00000000000E+00  0.00000000000E+00  0.16606310807E+04  0.16606310807E+04  0.25500000920E-02 0. -1.
        2   -1    0    0  501    0  0.00000000000E+00  0.00000000000E+00 -0.21230555068E+04  0.21230555068E+04  0.25500000920E-02 0.  1.
    10030    2    1    2    0    0  0.00000000000E+00  0.00000000000E+00 -0.46242442609E+03  0.37836865875E+04  0.37553226017E+04 0.  0.
        3    1    3    3  502    0 -0.15715269800E+04  0.38283520773E+03  0.72958988487E+03  0.17744185683E+04  0.10100000352E+00 0. -1.
       -3    1    3    3    0  502  0.15715269800E+04 -0.38283520773E+03 -0.11920143110E+04  0.20092680192E+04  0.10100000352E+00 0.  1.
</event>
<event>
 5   0  0.6661000E-08  0.3819062E+04  0.7818609E-02  0.8042077E-01
        1   -1    0    0  501    0  0.00000000000E+00  0.00000000000E+00  0.12531281182E+04  0.12531281182E+04  0.50400001928E-02 0. -1.
       -1   -1    0    0    0  501  0.00000000000E+00  0.00000000000E+00 -0.29097654041E+04  0.29097654041E+04  0.50400001928E-02 0.  1.
    10030    2    1    2    0    0  0.00000000000E+00  0.00000000000E+00 -0.16566372858E+04  0.41628935223E+04  0.38190621075E+04 0.  0.
        2    1    3    3  502    0  0.30065786387E+03  0.18687881519E+04 -0.55354334139E+03  0.19720990185E+04  0.25500000920E-02 0.  1.
       -2    1    3    3    0  502 -0.30065786387E+03 -0.18687881519E+04 -0.11030939444E+04  0.21907945038E+04  0.25500000920E-02 0. -1.
</event>
<event>
 5   0  0.2135314E-07  0.3801592E+04  0.7818609E-02  0.8045813E-01
       -2   -1    0    0    0  501  0.00000000000E+00  0.00000000000E+00  0.19262933118E+04  0.19262933118E+04  0.25500000920E-02 0. -1.
        2   -1    0    0  501    0  0.00000000000E+00  0.00000000000E+00 -0.18756361931E+04  0.18756361931E+04  0.25500000920E-02 0.  1.
    10030    2    1    2    0    0  0.00000000000E+00  0.00000000000E+00  0.50657118779E+02  0.38019295049E+04  0.38015920108E+04 0.  0.
        4    1    3    3  502    0  0.55914222487E+03 -0.17752273032E+04 -0.36064849142E+03  0.18958219729E+04  0.12699999809E+01 0. -1.
       -4    1    3    3    0  502 -0.55914222487E+03  0.17752273032E+04  0.41130561019E+03  0.19061075320E+04  0.12699999809E+01 0.  1.
</event>
<event>
 5   0  0.6661000E-08  0.3802537E+04  0.7818609E-02  0.8045611E-01
       -1   -1    0    0    0  501  0.00000000000E+00  0.00000000000E+00  0.11183891564E+04  0.11183891564E+04  0.50400001928E-02 0.  1.
        1   -1    0    0  501    0  0.00000000000E+00  0.00000000000E+00 -0.32321678238E+04  0.32321678238E+04  0.50400001928E-02 0. -1.
    10030    2    1    2    0    0  0.00000000000E+00  0.00000000000E+00 -0.21137786673E+04  0.43505569802E+04  0.38025367564E+04 0.  0.
        3    1    3    3  502    0 -0.59320382958E+03  0.99227423675E+03 -0.27838364521E+04  0.30143397862E+04  0.10100000352E+00 0. -1.
       -3    1    3    3    0  502  0.59320382958E+03 -0.99227423675E+03  0.67005778480E+03  0.13362171940E+04  0.10100000352E+00 0.  1.
</event>
<event>
 5   0  0.2203998E-07  0.3799927E+04  0.7818609E-02  0.8046171E-01
        2   -1    0    0  501    0  0.00000000000E+00  0.00000000000E+00  0.27094267189E+04  0.27094267189E+04  0.25500000920E-02 0. -1.
       -2   -1    0    0    0  501  0.00000000000E+00  0.00000000000E+00 -0.13323337396E+04  0.13323337396E+04  0.25500000920E-02 0.  1.
    10030    2    1    2    0    0  0.00000000000E+00  0.00000000000E+00  0.13770929793E+04  0.40417604585E+04  0.37999266480E+04 0.  0.
        3    1    3    3  502    0 -0.13244164849E+04 -0.13600706686E+04  0.60623015217E+03  0.19928337253E+04  0.10100000352E+00 0. -1.
       -3    1    3    3    0  502  0.13244164849E+04  0.13600706686E+04  0.77086282710E+03  0.20489267331E+04  0.10100000352E+00 0.  1.
</event>
<event>
 5   0  0.6661000E-08  0.3819432E+04  0.7818609E-02  0.8041998E-01
       -1   -1    0    0    0  501  0.00000000000E+00  0.00000000000E+00  0.30752945642E+04  0.30752945642E+04  0.50400001928E-02 0. -1.
        1   -1    0    0  501    0  0.00000000000E+00  0.00000000000E+00 -0.11859075580E+04  0.11859075580E+04  0.50400001928E-02 0.  1.
    10030    2    1    2    0    0  0.00000000000E+00  0.00000000000E+00  0.18893870062E+04  0.42612021222E+04  0.38194319299E+04 0.  0.
        4    1    3    3  502    0  0.80097090429E+03  0.10616963861E+04 -0.58431956607E+03  0.14526474362E+04  0.12699999809E+01 0.  1.
       -4    1    3    3    0  502 -0.80097090429E+03 -0.10616963861E+04  0.24737065723E+04  0.28085546860E+04  0.12699999809E+01 0. -1.
</event>
<event>
 5   0  0.2081337E-07  0.3803279E+04  0.7818609E-02  0.8045452E-01
        2   -1    0    0  501    0  0.00000000000E+00  0.00000000000E+00  0.22861089686E+04  0.22861089686E+04  0.25500000920E-02 0.  1.
       -2   -1    0    0    0  501  0.00000000000E+00  0.00000000000E+00 -0.15818287769E+04  0.15818287770E+04  0.25500000920E-02 0. -1.
    10030    2    1    2    0    0  0.00000000000E+00  0.00000000000E+00  0.70428019161E+03  0.38679377455E+04  0.38032790872E+04 0.  0.
        1    1    3    3  502    0  0.35941732410E+02  0.85992202760E+03 -0.13724111223E+04  0.16199598731E+04  0.50400001928E-02 0. -1.
       -1    1    3    3    0  502 -0.35941732410E+02 -0.85992202760E+03  0.20766913139E+04  0.22479778725E+04  0.50400001928E-02 0.  1.
</event>
<event>
 5   0  0.6725199E-08  0.3814958E+04  0.7818609E-02  0.8042953E-01
       -1   -1    0    0    0  501  0.00000000000E+00  0.00000000000E+00  0.15146202528E+04  0.15146202528E+04  0.50400001928E-02 0. -1.
        1   -1    0    0  501    0  0.00000000000E+00  0.00000000000E+00 -0.24022361798E+04  0.24022361798E+04  0.50400001928E-02 0.  1.
    10030    2    1    2    0    0  0.00000000000E+00  0.00000000000E+00 -0.88761592695E+03  0.39168564326E+04  0.38149577036E+04 0.  0.
        5    1    3    3  502    0 -0.12162514068E+04 -0.12775298701E+04  0.30160311965E+03  0.17895073582E+04  0.46999998093E+01 0. -1.
       -5    1    3    3    0  502  0.12162514068E+04  0.12775298701E+04 -0.11892190466E+04  0.21273490744E+04  0.46999998093E+01 0.  1.
</event>
<event>
 5   0  0.6661000E-08  0.3792425E+04  0.7818609E-02  0.8047782E-01
       -1   -1    0    0    0  501  0.00000000000E+00  0.00000000000E+00  0.19486031726E+04  0.19486031726E+04  0.50400001928E-02 0.  1.
        1   -1    0    0  501    0  0.00000000000E+00  0.00000000000E+00 -0.18452302727E+04  0.18452302727E+04  0.50400001928E-02 0. -1.
    10030    2    1    2    0    0  0.00000000000E+00  0.00000000000E+00  0.10337289989E+03  0.37938334453E+04  0.37924248515E+04 0.  0.
        4    1    3    3  502    0 -0.17573122398E+04  0.36104354515E+03 -0.56264358828E+03  0.18801776964E+04  0.12699999809E+01 0. -1.
       -4    1    3    3    0  502  0.17573122398E+04 -0.36104354515E+03  0.66601648816E+03  0.19136557489E+04  0.12699999809E+01 0.  1.
</event>
<event>
 5   0  0.2203998E-07  0.3800840E+04  0.7818609E-02  0.8045975E-01
       -2   -1    0    0    0  501  0.00000000000E+00  0.00000000000E+00  0.20714233323E+04  0.20714233323E+04  0.25500000920E-02 0. -1.
        2   -1    0    0  501    0  0.00000000000E+00  0.00000000000E+00 -0.17435335545E+04  0.17435335545E+04  0.25500000920E-02 0.  1.
    10030    2    1    2    0    0  0.00000000000E+00  0.00000000000E+00  0.32788977777E+03  0.38149568868E+04  0.38008399521E+04 0.  0.
        3    1    3    3  502    0 -0.56055347731E+03 -0.63468193095E+03  0.18716030340E+04  0.20542490797E+04  0.10100000352E+00 0. -1.
       -3    1    3    3    0  502  0.56055347731E+03  0.63468193095E+03 -0.15437132562E+04  0.17607078071E+04  0.10100000352E+00 0.  1.
</event>
<event>
 5   0  0.6725199E-08  0.3785369E+04  0.7818609E-02  0.8049302E-01
        1   -1    0    0  501    0  0.00000000000E+00  0.00000000000E+00  0.28351978425E+04  0.28351978425E+04  0.50400001928E-02 0.  1.
       -1   -1    0    0    0  501  0.00000000000E+00  0.00000000000E+00 -0.12634935503E+04  0.12634935503E+04  0.50400001928E-02 0. -1.
    10030    2    1    2    0    0  0.00000000000E+00  0.00000000000E+00  0.15717042922E+04  0.40986913928E+04  0.37853687735E+04 0.  0.
        5    1    3    3  502    0 -0.33062085866E+03 -0.50852634678E+03  0.27271035185E+04  0.27937474632E+04  0.46999998093E+01 0.  1.
       -5    1    3    3    0  502  0.33062085866E+03  0.50852634678E+03 -0.11553992263E+04  0.13049439297E+04  0.46999998093E+01 0. -1.
</event>
<event>
 5   0  0.6661000E-08  0.3800601E+04  0.7818609E-02  0.8046026E-01
       -1   -1    0    0    0  501  0.00000000000E+00  0.00000000000E+00  0.14929675497E+04  0.14929675497E+04  0.50400001928E-02 0.  1.
        1   -1    0    0  501    0  0.00000000000E+00  0.00000000000E+00 -0.24187683801E+04  0.24187683801E+04  0.50400001928E-02 0. -1.
    10030    2    1    2    0    0  0.00000000000E+00  0.00000000000E+00 -0.92580083043E+03  0.39117359297E+04  0.38006013743E+04 0.  0.
        3    1    3    3  502    0 -0.10910199614E+03 -0.15016837380E+04 -0.16561925951E+04  0.22382875635E+04  0.10100000352E+00 0. -1.
       -3    1    3    3    0  502  0.10910199614E+03  0.15016837380E+04  0.73039176467E+03  0.16734483663E+04  0.10100000352E+00 0.  1.
</event>
<event>
 5   0  0.6661000E-08  0.3795768E+04  0.7818609E-02  0.8047064E-01
        1   -1    0    0  501    0  0.00000000000E+00  0.00000000000E+00  0.21921747659E+04  0.21921747659E+04  0.50400001928E-02 0. -1.
       -1   -1    0    0    0  501  0.00000000000E+00  0.00000000000E+00 -0.16431008191E+04  0.16431008192E+04  0.50400001928E-02 0.  1.
    10030    2    1    2    0    0  0.00000000000E+00  0.00000000000E+00  0.54907394674E+03  0.38352755850E+04  0.37957682509E+04 0.  0.
        2    1    3    3  502    0 -0.11137334584E+04  0.15247658492E+04  0.81099749231E+02  0.18899445179E+04  0.25500000920E-02 0.  1.
       -2    1    3    3    0  502  0.11137334584E+04 -0.15247658492E+04  0.46797419750E+03  0.19453310672E+04  0.25500000920E-02 0. -1.
</event>
<event>
 5   0  0.2205204E-07  0.3775064E+04  0.7818609E-02  0.8051527E-01
       -2   -1    0    0    0  501  0.00000000000E+00  0.00000000000E+00  0.15908324468E+04  0.15908324468E+04  0.25500000920E-02 0. -1.
        2   -1    0    0  501    0  0.00000000000E+00  0.00000000000E+00 -0.22395682633E+04  0.22395682633E+04  0.25500000920E-02 0.  1.
    10030    2    1    2    0    0  0.00000000000E+00  0.00000000000E+00 -0.64873581655E+03  0.38304007101E+04  0.37750644286E+04 0.  0.
        2    1    3    3  502    0  0.85842946030E+03  0.95541260021E+03 -0.17277777970E+04  0.21528888709E+04  0.25500000920E-02 0.  1.
       -2    1    3    3    0  502 -0.85842946030E+03 -0.95541260021E+03  0.10790419804E+04  0.16775118391E+04  0.25500000920E-02 0. -1.
</event>
<event>
 5   0  0.6661000E-08  0.3799766E+04  0.7818609E-02  0.8046205E-01
        1   -1    0    0  501    0  0.00000000000E+00  0.00000000000E+00  0.24254709497E+04  0.24254709498E+04  0.50400001928E-02 0. -1.
       -1   -1    0    0    0  501  0.00000000000E+00  0.00000000000E+00 -0.14881877549E+04  0.14881877549E+04  0.50400001928E-02 0.  1.
    10030    2    1    2    0    0  0.00000000000E+00  0.00000000000E+00  0.93728319488E+03  0.39136587046E+04  0.37997663966E+04 0.  0.
        2    1    3    3  502    0  0.12181529186E+04 -0.71639130015E+03 -0.83923948005E+03  0.16436045549E+04  0.25500000920E-02 0.  1.
       -2    1    3    3    0  502 -0.12181529186E+04  0.71639130015E+03  0.17765226749E+04  0.22700541497E+04  0.25500000920E-02 0. -1.
</event>
<event>
 5   0  0.6661000E-08  0.3804748E+04  0.7818609E-02  0.8045137E-01
       -1   -1    0    0    0  501  0.00000000000E+00  0.00000000000E+00  0.31428701071E+04  0.31428701071E+04  0.50400001928E-02 0.  1.
        1   -1    0    0  501    0  0.00000000000E+00  0.00000000000E+00 -0.11515038581E+04  0.11515038581E+04  0.50400001928E-02 0. -1.
    10030    2    1    2    0    0  0.00000000000E+00  0.00000000000E+00  0.19913662490E+04  0.42943739652E+04  0.38047481146E+04 0.  0.
        2    1    3    3  502    0 -0.80856175333E+03 -0.12630973450E+04  0.23167015623E+04  0.27597632399E+04  0.25500000920E-02 0.  1.
       -2    1    3    3    0  502  0.80856175333E+03  0.12630973450E+04 -0.32533531331E+03  0.15346107252E+04  0.25500000920E-02 0. -1.
</event>
<event>
 5   0  0.6661000E-08  0.3820272E+04  0.7818609E-02  0.8041818E-01
        1   -1    0    0  501    0  0.00000000000E+00  0.00000000000E+00  0.24256240332E+04  0.24256240332E+04  0.50400001928E-02 0.  1.
       -1   -1    0    0    0  501  0.00000000000E+00  0.00000000000E+00 -0.15041985282E+04  0.15041985282E+04  0.50400001928E-02 0. -1.
    10030    2    1    2    0    0  0.00000000000E+00  0.00000000000E+00  0.92142550494E+03  0.39298225614E+04  0.38202722944E+04 0.  0.
        3    1    3    3  502    0 -0.31012577935E+03  0.40804444142E+03 -0.14321467029E+04  0.15210925199E+04  0.10100000352E+00 0. -1.
       -3    1    3    3    0  502  0.31012577935E+03 -0.40804444142E+03  0.23535722079E+04  0.24087300415E+04  0.10100000352E+00 0.  1.
</event>
<event>
 5   0  0.2081337E-07  0.3880670E+04  0.7818609E-02  0.8029062E-01
       -2   -1    0    0    0  501  0.00000000000E+00  0.00000000000E+00  0.22399774308E+04  0.22399774308E+04  0.25500000920E-02 0.  1.
        2   -1    0    0  501    0  0.00000000000E+00  0.00000000000E+00 -0.16807759036E+04  0.16807759036E+04  0.25500000920E-02 0. -1.
    10030    2    1    2    0    0  0.00000000000E+00  0.00000000000E+00  0.55920152721E+03  0.39207533345E+04  0.38806700918E+04 0.  0.
        1    1    3    3  502    0 -0.54912059829E+03 -0.77717061744E+03  0.19880345998E+04  0.22040438222E+04  0.50400001928E-02 0.  1.
       -1    1    3    3    0  502  0.54912059829E+03  0.77717061744E+03 -0.14288330726E+04  0.17167095123E+04  0.50400001928E-02 0. -1.
</event>
<event>
 5   0  0.2135314E-07  0.3835512E+04  0.7818609E-02  0.8038577E-01
       -2   -1    0    0    0  501  0.00000000000E+00  0.00000000000E+00  0.19082717769E+04  0.19082717769E+04  0.25500000920E-02 0. -1.
        2   -1    0    0  501    0  0.00000000000E+00  0.00000000000E+00 -0.19272871739E+04  0.19272871739E+04  0.25500000920E-02 0.  1.
    10030    2    1    2    0    0  0.00000000000E+00  0.00000000000E+00 -0.19015397006E+02  0.38355589507E+04  0.38355118145E+04 0.  0.
        4    1    3    3  502    0 -0.84740091450E+03  0.16812775642E+04 -0.37420869677E+03  0.19195875389E+04  0.12699999809E+01 0.  1.
       -4    1    3    3    0  502  0.84740091450E+03 -0.16812775642E+04  0.35519329976E+03  0.19159714118E+04  0.12699999809E+01 0. -1.
</event>
<event>
 5   0  0.6661000E-08  0.3785112E+04  0.7818609E-02  0.8049357E-01
       -1   -1    0    0    0  501  0.00000000000E+00  0.00000000000E+00  0.18357010875E+04  0.18357010875E+04  0.50400001928E-02 0.  1.
        1   -1    0    0  501    0  0.00000000000E+00  0.00000000000E+00 -0.19511718192E+04  0.19511718192E+04  0.50400001928E-02 0. -1.
    10030    2    1    2    0    0  0.00000000000E+00  0.00000000000E+00 -0.11547073171E+03  0.37868729068E+04  0.37851120092E+04 0.  0.
        1    1    3    3  502    0 -0.10339090945E+04 -0.13873525531E+04 -0.82493832449E+03  0.19168302903E+04  0.50400001928E-02 0. -1.
       -1    1    3    3    0  502  0.10339090945E+04  0.13873525531E+04  0.70946759277E+03  0.18700426165E+04  0.50400001928E-02 0.  1.
</event>
<event>
 5   0  0.2081337E-07  0.3777274E+04  0.7818609E-02  0.8051049E-01
        2   -1    0    0  501    0  0.00000000000E+00  0.00000000000E+00  0.20902548382E+04  0.20902548382E+04  0.25500000920E-02 0. -1.
       -2   -1    0    0    0  501  0.00000000000E+00  0.00000000000E+00 -0.17064667041E+04  0.17064667041E+04  0.25500000920E-02 0.  1.
    10030    2    1    2    0    0  0.00000000000E+00  0.00000000000E+00  0.38378813408E+03  0.37967215423E+04  0.37772743000E+04 0.  0.
        1    1    3    3  502    0 -0.38986676076E+03  0.18478018927E+04  0.16763771698E+03  0.18959088401E+04  0.50400001928E-02 0.  1.
       -1    1    3    3    0  502  0.38986676076E+03 -0.18478018927E+04  0.21615041710E+03  0.19008127022E+04  0.50400001928E-02 0. -1.
</event>
<event>
 5   0  0.2135314E-07  0.3803703E+04  0.7818609E-02  0.8045361E-01
       -2   -1    0    0    0  501  0.00000000000E+00  0.00000000000E+00  0.24726656616E+04  0.24726656616E+04  0.25500000920E-02 0. -1.
        2   -1    0    0  501    0  0.00000000000E+00  0.00000000000E+00 -0.14628096708E+04  0.14628096708E+04  0.25500000920E-02 0.  1.
    10030    2    1    2    0    0  0.00000000000E+00  0.00000000000E+00  0.10098559908E+04  0.39354753324E+04  0.38037030601E+04 0.  0.
        4    1    3    3  502    0  0.13334146293E+04 -0.46524120729E+03  0.18228675061E+04  0.23059253050E+04  0.12699999809E+01 0. -1.
       -4    1    3    3    0  502 -0.13334146293E+04  0.46524120729E+03 -0.81301151532E+03  0.16295500273E+04  0.12699999809E+01 0.  1.
</event>
<event>
 5   0  0.1370688E-07  0.3754178E+04  0.7818609E-02  0.8056060E-01
       -2   -1    0    0    0  501  0.00000000000E+00  0.00000000000E+00  0.19796007439E+04  0.19796007439E+04  0.25500000920E-02 0. -1.
        2   -1    0    0  501    0  0.00000000000E+00  0.00000000000E+00 -0.17798859430E+04  0.17798859430E+04  0.25500000920E-02 0.  1.
    10030    2    1    2    0    0  0.00000000000E+00  0.00000000000E+00  0.19971480094E+03  0.37594866869E+04  0.37541782253E+04 0.  0.
        5    1    3    3  502    0  0.12117692151E+04  0.13519926280E+04 -0.37744298229E+03  0.18543877673E+04  0.46999998093E+01 0.  1.
       -5    1    3    3    0  502 -0.12117692151E+04 -0.13519926280E+04  0.57715778323E+03  0.19050989196E+04  0.46999998093E+01 0. -1.
</event>
<event>
 5   0  0.2081337E-07  0.3779986E+04  0.7818609E-02  0.8050464E-01
       -2   -1    0    0    0  501  0.00000000000E+00  0.00000000000E+00  0.17252696510E+04  0.17252696510E+04  0.25500000920E-02 0. -1.
        2   -1    0    0  501    0  0.00000000000E+00  0.00000000000E+00 -0.20704432479E+04  0.20704432479E+04  0.25500000920E-02 0.  1.
    10030    2    1    2    0    0  0.00000000000E+00  0.00000000000E+00 -0.34517359689E+03  0.37957128988E+04  0.37799856611E+04 0.  0.
        1    1    3    3  502    0  0.15230068678E+04  0.23390536791E+03  0.92641245859E+03  0.17979159279E+04  0.50400001928E-02 0. -1.
       -1    1    3    3    0  502 -0.15230068678E+04 -0.23390536791E+03 -0.12715860555E+04  0.19977969709E+04  0.50400001928E-02 0.  1.
</event>
<event>
 5   0  0.1370688E-07  0.3798245E+04  0.7818609E-02  0.8046532E-01
       -2   -1    0    0    0  501  0.00000000000E+00  0.00000000000E+00  0.24527736161E+04  0.24527736161E+04  0.25500000920E-02 0. -1.
        2   -1    0    0  501    0  0.00000000000E+00  0.00000000000E+00 -0.14704443394E+04  0.14704443394E+04  0.25500000920E-02 0.  1.
    10030    2    1    2    0    0  0.00000000000E+00  0.00000000000E+00  0.98232927665E+03  0.39232179555E+04  0.37982454263E+04 0.  0.
        5    1    3    3  502    0  0.70713898649E+03  0.52472321641E+03  0.22291642374E+04  0.23967843640E+04  0.46999998093E+01 0. -1.
       -5    1    3    3    0  502 -0.70713898649E+03 -0.52472321641E+03 -0.12468349607E+04  0.15264335915E+04  0.46999998093E+01 0.  1.
</event>
<event>
 5   0  0.2081337E-07  0.3728138E+04  0.7818609E-02  0.8061755E-01
       -2   -1    0    0    0  501  0.00000000000E+00  0.00000000000E+00  0.18368097275E+04  0.18368097275E+04  0.25500000920E-02 0.  1.
        2   -1    0    0  501    0  0.00000000000E+00  0.00000000000E+00 -0.18917324428E+04  0.18917324428E+04  0.25500000920E-02 0. -1.
    10030    2    1    2    0    0  0.00000000000E+00  0.00000000000E+00 -0.54922715332E+02  0.37285421704E+04  0.37281376331E+04 0.  0.
        1    1    3    3  502    0  0.40666045523E+03  0.17995562810E+04  0.23898267540E+03  0.18603462724E+04  0.50400001928E-02 0.  1.
       -1    1    3    3    0  502 -0.40666045523E+03 -0.17995562810E+04 -0.29390539073E+03  0.18681958979E+04  0.50400001928E-02 0. -1.
</event>
<event>
 5   0  0.6661000E-08  0.3577090E+04  0.7818609E-02  0.8095760E-01
       -1   -1    0    0    0  501  0.00000000000E+00  0.00000000000E+00  0.16019433917E+04  0.16019433917E+04  0.50400001928E-02 0. -1.
        1   -1    0    0  501    0  0.00000000000E+00  0.00000000000E+00 -0.19968823396E+04  0.19968823396E+04  0.50400001928E-02 0.  1.
    10030    2    1    2    0    0  0.00000000000E+00  0.00000000000E+00 -0.39493894786E+03  0.35988257313E+04  0.35770895812E+04 0.  0.
        4    1    3    3  502    0  0.62313447639E+03  0.11711782720E+04 -0.14043150413E+04  0.19318533766E+04  0.12699999809E+01 0.  1.
       -4    1    3    3    0  502 -0.62313447639E+03 -0.11711782720E+04  0.10093760934E+04  0.16669723547E+04  0.12699999809E+01 0. -1.
</event>
<event>
 5   0  0.6661000E-08  0.3789027E+04  0.7818609E-02  0.8048514E-01
        1   -1    0    0  501    0  0.00000000000E+00  0.00000000000E+00  0.27374441112E+04  0.27374441112E+04  0.50400001928E-02 0. -1.
       -1   -1    0    0    0  501  0.00000000000E+00  0.00000000000E+00 -0.13111431931E+04  0.13111431931E+04  0.50400001928E-02 0.  1.
    10030    2    1    2    0    0  0.00000000000E+00  0.00000000000E+00  0.14263009181E+04  0.40485873043E+04  0.37890269004E+04 0.  0.
        3    1    3    3  502    0  0.11343603265E+04 -0.75048813346E+02  0.23324794695E+04  0.25947767073E+04  0.10100000352E+00 0. -1.
       -3    1    3    3    0  502 -0.11343603265E+04  0.75048813346E+02 -0.90617855144E+03  0.14538105970E+04  0.10100000352E+00 0.  1.
</event>
<event>
 5   0  0.2081337E-07  0.3805255E+04  0.7818609E-02  0.8045028E-01
        2   -1    0    0  501    0  0.00000000000E+00  0.00000000000E+00  0.13757998186E+04  0.13757998186E+04  0.25500000920E-02 0. -1.
       -2   -1    0    0    0  501  0.00000000000E+00  0.00000000000E+00 -0.26311908366E+04  0.26311908366E+04  0.25500000920E-02 0.  1.
    10030    2    1    2    0    0  0.00000000000E+00  0.00000000000E+00 -0.12553910180E+04  0.40069906553E+04  0.38052552481E+04 0.  0.
        1    1    3    3  502    0  0.98467336687E+03 -0.13990260766E+04  0.24899004344E+03  0.17288295590E+04  0.50400001928E-02 0. -1.
       -1    1    3    3    0  502 -0.98467336687E+03  0.13990260766E+04 -0.15043810615E+04  0.22781610963E+04  0.50400001928E-02 0.  1.
</event>
<event>
 5   0  0.6661000E-08  0.3806556E+04  0.7818609E-02  0.8044749E-01
        1   -1    0    0  501    0  0.00000000000E+00  0.00000000000E+00  0.15448932490E+04  0.15448932490E+04  0.50400001928E-02 0. -1.
       -1   -1    0    0    0  501  0.00000000000E+00  0.00000000000E+00 -0.23448013643E+04  0.23448013643E+04  0.50400001928E-02 0.  1.
    10030    2    1    2    0    0  0.00000000000E+00  0.00000000000E+00 -0.79990811530E+03  0.38896946133E+04  0.38065563430E+04 0.  0.
        2    1    3    3  502    0  0.10850002153E+04 -0.14054434007E+04 -0.11004713422E+04  0.20889073208E+04  0.25500000920E-02 0.  1.
       -2    1    3    3    0  502 -0.10850002153E+04  0.14054434007E+04  0.30056322687E+03  0.18007872926E+04  0.25500000920E-02 0. -1.
</event>
<event>
 5   0  0.2205204E-07  0.3794607E+04  0.7818609E-02  0.8047313E-01
        2   -1    0    0  501    0  0.00000000000E+00  0.00000000000E+00  0.26343267905E+04  0.26343267905E+04  0.25500000920E-02 0. -1.
       -2   -1    0    0    0  501  0.00000000000E+00  0.00000000000E+00 -0.13664822123E+04  0.13664822123E+04  0.25500000920E-02 0.  1.
    10030    2    1    2    0    0  0.00000000000E+00  0.00000000000E+00  0.12678445782E+04  0.40008090028E+04  0.37946070683E+04 0.  0.
        2    1    3    3  502    0 -0.12458020436E+04 -0.62697626588E+03 -0.72230537991E+03  0.15706199514E+04  0.25500000920E-02 0.  1.
       -2    1    3    3    0  502  0.12458020436E+04  0.62697626588E+03  0.19901499581E+04  0.24301890514E+04  0.25500000920E-02 0. -1.
</event>
<event>
 5   0  0.6661000E-08  0.3794757E+04  0.7818609E-02  0.8047281E-01
        1   -1    0    0  501    0  0.00000000000E+00  0.00000000000E+00  0.12374400914E+04  0.12374400914E+04  0.50400001928E-02 0. -1.
       -1   -1    0    0    0  501  0.00000000000E+00  0.00000000000E+00 -0.29092677836E+04  0.29092677836E+04  0.50400001928E-02 0.  1.
    10030    2    1    2    0    0  0.00000000000E+00  0.00000000000E+00 -0.16718276922E+04  0.41467078751E+04  0.37947566943E+04 0.  0.
        4    1    3    3  502    0  0.10416094752E+02  0.11964181300E+04 -0.24450805423E+04  0.27221214719E+04  0.12699999809E+01 0.  1.
       -4    1    3    3    0  502 -0.10416094752E+02 -0.11964181300E+04  0.77325285007E+03  0.14245864031E+04  0.12699999809E+01 0. -1.
</event>
<event>
 5   0  0.1370688E-07  0.3777325E+04  0.7818609E-02  0.8051039E-01
        2   -1    0    0  501    0  0.00000000000E+00  0.00000000000E+00  0.23149244012E+04  0.23149244012E+04  0.25500000920E-02 0. -1.
       -2   -1    0    0    0  501  0.00000000000E+00  0.00000000000E+00 -0.15408906723E+04  0.15408906723E+04  0.25500000920E-02 0.  1.
    10030    2    1    2    0    0  0.00000000000E+00  0.00000000000E+00  0.77403372886E+03  0.38558150735E+04  0.37773246707E+04 0.  0.
        5    1    3    3  502    0 -0.17863512418E+03  0.22885900549E+03 -0.15179708649E+04  0.15454916980E+04  0.46999998093E+01 0.  1.
       -5    1    3    3    0  502  0.17863512418E+03 -0.22885900549E+03  0.22920045937E+04  0.23103233755E+04  0.46999998093E+01 0. -1.
</event>
<event>
 5   0  0.6661000E-08  0.3813743E+04  0.7818609E-02  0.8043212E-01
       -1   -1    0    0    0  501  0.00000000000E+00  0.00000000000E+00  0.22058937875E+04  0.22058937875E+04  0.50400001928E-02 0. -1.
        1   -1    0    0  501    0  0.00000000000E+00  0.00000000000E+00 -0.16483834773E+04  0.16483834773E+04  0.50400001928E-02 0.  1.
    10030    2    1    2    0    0  0.00000000000E+00  0.00000000000E+00  0.55751031018E+03  0.38542772649E+04  0.38137429762E+04 0.  0.
        4    1    3    3  502    0 -0.34441219458E+03  0.45066792360E+03 -0.15611538546E+04  0.16610009957E+04  0.12699999809E+01 0.  1.
       -4    1    3    3    0  502  0.34441219458E+03 -0.45066792360E+03  0.21186641647E+04  0.21932762692E+04  0.12699999809E+01 0. -1.
</event>
<event>
 5   0  0.2081337E-07  0.3787455E+04  0.7818609E-02  0.8048852E-01
        2   -1    0    0  501    0  0.00000000000E+00  0.00000000000E+00  0.21614365920E+04  0.21614365920E+04  0.25500000920E-02 0. -1.
       -2   -1    0    0    0  501  0.00000000000E+00  0.00000000000E+00 -0.16591762498E+04  0.16591762498E+04  0.25500000920E-02 0.  1.
    10030    2    1    2    0    0  0.00000000000E+00  0.00000000000E+00  0.50226034224E+03  0.38206128418E+04  0.37874552189E+04 0.  0.
        1    1    3    3  502    0  0.63596498285E+03  0.60446698421E+03  0.19440273031E+04  0.21328558202E+04  0.50400001928E-02 0. -1.
       -1    1    3    3    0  502 -0.63596498285E+03 -0.60446698421E+03 -0.14417669609E+04  0.16877570216E+04  0.50400001928E-02 0.  1.
</event>
<event>
 5   0  0.6661000E-08  0.3805741E+04  0.7818609E-02  0.8044924E-01
        1   -1    0    0  501    0  0.00000000000E+00  0.00000000000E+00  0.14391356278E+04  0.14391356278E+04  0.50400001928E-02 0. -1.
       -1   -1    0    0    0  501  0.00000000000E+00  0.00000000000E+00 -0.25160359959E+04  0.25160359959E+04  0.50400001928E-02 0.  1.
    10030    2    1    2    0    0  0.00000000000E+00  0.00000000000E+00 -0.10769003681E+04  0.39551716237E+04  0.38057414744E+04 0.  0.
        2    1    3    3  502    0 -0.38720266926E+03  0.15213420378E+04 -0.16560868981E+04  0.22818920476E+04  0.25500000920E-02 0.  1.
       -2    1    3    3    0  502  0.38720266926E+03 -0.15213420378E+04  0.57918652996E+03  0.16732795760E+04  0.25500000920E-02 0. -1.
</event>
<event>
 5   0  0.1370688E-07  0.3804044E+04  0.7818609E-02  0.8045288E-01
        2   -1    0    0  501    0  0.00000000000E+00  0.00000000000E+00  0.28581814949E+04  0.28581814949E+04  0.25500000920E-02 0. -1.
       -2   -1    0    0    0  501  0.00000000000E+00  0.00000000000E+00 -0.12657308249E+04  0.12657308249E+04  0.25500000920E-02 0.  1.
    10030    2    1    2    0    0  0.00000000000E+00  0.00000000000E+00  0.15924506701E+04  0.41239123198E+04  0.38040443852E+04 0.  0.
        5    1    3    3  502    0  0.16945148579E+04 -0.84728521426E+03  0.97889787234E+03  0.21324952456E+04  0.46999998093E+01 0. -1.
       -5    1    3    3    0  502 -0.16945148579E+04  0.84728521426E+03  0.61355279772E+03  0.19914170742E+04  0.46999998093E+01 0.  1.
</event>
<event>
 5   0  0.6661000E-08  0.3783103E+04  0.7818609E-02  0.8049791E-01
       -1   -1    0    0    0  501  0.00000000000E+00  0.00000000000E+00  0.18566046064E+04  0.18566046064E+04  0.50400001928E-02 0.  1.
        1   -1    0    0  501    0  0.00000000000E+00  0.00000000000E+00 -0.19271558476E+04  0.19271558476E+04  0.50400001928E-02 0. -1.
    10030    2    1    2    0    0  0.00000000000E+00  0.00000000000E+00 -0.70551241135E+02  0.37837604540E+04  0.37831026547E+04 0.  0.
        3    1    3    3  502    0 -0.10919913063E+04 -0.11979704557E+04  0.93977244002E+03  0.18736996758E+04  0.10100000352E+00 0.  1.
       -3    1    3    3    0  502  0.10919913063E+04  0.11979704557E+04 -0.10103236812E+04  0.19100607783E+04  0.10100000352E+00 0. -1.
</event>
<event>
 5   0  0.6725199E-08  0.3754995E+04  0.7818609E-02  0.8055882E-01
        1   -1    0    0  501    0  0.00000000000E+00  0.00000000000E+00  0.23904198468E+04  0.23904198468E+04  0.50400001928E-02 0.  1.
       -1   -1    0    0    0  501  0.00000000000E+00  0.00000000000E+00 -0.14746349401E+04  0.14746349401E+04  0.50400001928E-02 0. -1.
    10030    2    1    2    0    0  0.00000000000E+00  0.00000000000E+00  0.91578490666E+03  0.38650547869E+04  0.37549948749E+04 0.  0.
        5    1    3    3  502    0  0.30266111447E+03 -0.73034934585E+03 -0.12949478726E+04  0.15172099393E+04  0.46999998093E+01 0. -1.
       -5    1    3    3    0  502 -0.30266111447E+03  0.73034934585E+03  0.22107327792E+04  0.23478448476E+04  0.46999998093E+01 0.  1.
</event>
<event>
 5   0  0.6661000E-08  0.3805970E+04  0.7818609E-02  0.8044875E-01
       -1   -1    0    0    0  501  0.00000000000E+00  0.00000000000E+00  0.19091920730E+04  0.19091920730E+04  0.50400001928E-02 0.  1.
        1   -1    0    0  501    0  0.00000000000E+00  0.00000000000E+00 -0.18967985696E+04  0.18967985696E+04  0.50400001928E-02 0. -1.
    10030    2    1    2    0    0  0.00000000000E+00  0.00000000000E+00  0.12393503404E+02  0.38059906427E+04  0.38059704640E+04 0.  0.
        2    1    3    3  502    0  0.54310979847E+02  0.10853604182E+03 -0.18929244350E+04  0.18968111850E+04  0.25500000920E-02 0. -1.
       -2    1    3    3    0  502 -0.54310979847E+02 -0.10853604182E+03  0.19053179384E+04  0.19091794576E+04  0.25500000920E-02 0.  1.
</event>
<event>
 5   0  0.2135314E-07  0.3800657E+04  0.7818609E-02  0.8046014E-01
       -2   -1    0    0    0  501  0.00000000000E+00  0.00000000000E+00  0.19156341159E+04  0.19156341159E+04  0.25500000920E-02 0.  1.
        2   -1    0    0  501    0  0.00000000000E+00  0.00000000000E+00 -0.18851450172E+04  0.18851450172E+04  0.25500000920E-02 0. -1.
    10030    2    1    2    0    0  0.00000000000E+00  0.00000000000E+00  0.30489098687E+02  0.38007791331E+04  0.38006568423E+04 0.  0.
        4    1    3    3  502    0  0.16098915872E+04 -0.10095581382E+04  0.32213839769E+02  0.19005256908E+04  0.12699999809E+01 0. -1.
       -4    1    3    3    0  502 -0.16098915872E+04  0.10095581382E+04 -0.17247410821E+01  0.19002534422E+04  0.12699999809E+01 0.  1.
</event>
<event>
 5   0  0.2081337E-07  0.3825029E+04  0.7818609E-02  0.8040805E-01
       -2   -1    0    0    0  501  0.00000000000E+00  0.00000000000E+00  0.12724668095E+04  0.12724668096E+04  0.25500000920E-02 0.  1.
        2   -1    0    0  501    0  0.00000000000E+00  0.00000000000E+00 -0.28745052827E+04  0.28745052827E+04  0.25500000920E-02 0. -1.
    10030    2    1    2    0    0  0.00000000000E+00  0.00000000000E+00 -0.16020384732E+04  0.41469720923E+04  0.38250294463E+04 0.  0.
        1    1    3    3  502    0 -0.55801067675E+03  0.28260167144E+03 -0.27604768019E+04  0.28304543441E+04  0.50400001928E-02 0. -1.
       -1    1    3    3    0  502  0.55801067675E+03 -0.28260167144E+03  0.11584383287E+04  0.13165177482E+04  0.50400001928E-02 0.  1.
</event>
<event>
 5   0  0.1370688E-07  0.3739329E+04  0.7818609E-02  0.8059301E-01
        2   -1    0    0  501    0  0.00000000000E+00  0.00000000000E+00  0.15201543777E+04  0.15201543777E+04  0.25500000920E-02 0.  1.
       -2   -1    0    0    0  501  0.00000000000E+00  0.00000000000E+00 -0.22995334128E+04  0.22995334128E+04  0.25500000920E-02 0. -1.
    10030    2    1    2    0    0  0.00000000000E+00  0.00000000000E+00 -0.77937903506E+03  0.38196877905E+04  0.37393292361E+04 0.  0.
        5    1    3    3  502    0 -0.59594840554E+03 -0.13994003625E+04 -0.15003211886E+04  0.21364600711E+04  0.46999998093E+01 0. -1.
       -5    1    3    3    0  502  0.59594840554E+03  0.13994003625E+04  0.72094215349E+03  0.16832277194E+04  0.46999998093E+01 0.  1.
</event>
<event>
 5   0  0.2205204E-07  0.3773299E+04  0.7818609E-02  0.8051909E-01
       -2   -1    0    0    0  501  0.00000000000E+00  0.00000000000E+00  0.13172385095E+04  0.13172385095E+04  0.25500000920E-02 0. -1.
        2   -1    0    0  501    0  0.00000000000E+00  0.00000000000E+00 -0.27022039788E+04  0.27022039788E+04  0.25500000920E-02 0.  1.
    10030    2    1    2    0    0  0.00000000000E+00  0.00000000000E+00 -0.13849654693E+04  0.40194424883E+04  0.37732994269E+04 0.  0.
        2    1    3    3  502    0  0.15398336052E+04  0.10102920928E+04 -0.25629687756E+03  0.18594261841E+04  0.25500000920E-02 0. -1.
       -2    1    3    3    0  502 -0.15398336052E+04 -0.10102920928E+04 -0.11286685917E+04  0.21600163042E+04  0.25500000920E-02 0.  1.
</event>
<event>
 5   0  0.1370688E-07  0.3807086E+04  0.7818609E-02  0.8044636E-01
        2   -1    0    0  501    0  0.00000000000E+00  0.00000000000E+00  0.22395012694E+04  0.22395012694E+04  0.25500000920E-02 0. -1.
       -2   -1    0    0    0  501  0.00000000000E+00  0.00000000000E+00 -0.16179838413E+04  0.16179838413E+04  0.25500000920E-02 0.  1.
    10030    2    1    2    0    0  0.00000000000E+00  0.00000000000E+00  0.62151742805E+03  0.38574851107E+04  0.38070864799E+04 0.  0.
        5    1    3    3  502    0 -0.17991739270E+03  0.15480513291E+04  0.14182152640E+04  0.21071757902E+04  0.46999998093E+01 0. -1.
       -5    1    3    3    0  502  0.17991739270E+03 -0.15480513291E+04 -0.79669783596E+03  0.17503093205E+04  0.46999998093E+01 0.  1.
</event>
<event>
 5   0  0.6661000E-08  0.3792185E+04  0.7818609E-02  0.8047834E-01
        1   -1    0    0  501    0  0.00000000000E+00  0.00000000000E+00  0.11540782820E+04  0.11540782820E+04  0.50400001928E-02 0.  1.
       -1   -1    0    0    0  501  0.00000000000E+00  0.00000000000E+00 -0.31151841079E+04  0.31151841080E+04  0.50400001928E-02 0. -1.
    10030    2    1    2    0    0  0.00000000000E+00  0.00000000000E+00 -0.19611058259E+04  0.42692623900E+04  0.37921847653E+04 0.  0.
        1    1    3    3  502    0 -0.13432260581E+04  0.68569640407E+03  0.31325697385E+03  0.15403135179E+04  0.50400001928E-02 0.  1.
       -1    1    3    3    0  502  0.13432260581E+04 -0.68569640407E+03 -0.22743627998E+04  0.27289488721E+04  0.50400001928E-02 0. -1.
</event>
<event>
 5   0  0.1370688E-07  0.3811331E+04  0.7818609E-02  0.8043728E-01
       -2   -1    0    0    0  501  0.00000000000E+00  0.00000000000E+00  0.15047140841E+04  0.15047140841E+04  0.25500000920E-02 0.  1.
        2   -1    0    0  501    0  0.00000000000E+00  0.00000000000E+00 -0.24134563564E+04  0.24134563564E+04  0.25500000920E-02 0. -1.
    10030    2    1    2    0    0  0.00000000000E+00  0.00000000000E+00 -0.90874227230E+03  0.39181704406E+04  0.38113314057E+04 0.  0.
        5    1    3    3  502    0 -0.22681082900E+03 -0.45791039312E+00  0.14907827534E+04  0.15079451812E+04  0.46999998093E+01 0.  1.
       -5    1    3    3    0  502  0.22681082900E+03  0.45791039312E+00 -0.23995250257E+04  0.24102252593E+04  0.46999998093E+01 0. -1.
</event>
<event>
 5   0  0.2081337E-07  0.3804785E+04  0.7818609E-02  0.8045129E-01
       -2   -1    0    0    0  501  0.00000000000E+00  0.00000000000E+00  0.27635278190E+04  0.27635278190E+04  0.25500000920E-02 0.  1.
        2   -1    0    0  501    0  0.00000000000E+00  0.00000000000E+00 -0.13095931524E+04  0.13095931524E+04  0.25500000920E-02 0. -1.
    10030    2    1    2    0    0  0.00000000000E+00  0.00000000000E+00  0.14539346666E+04  0.40731209714E+04  0.38047849391E+04 0.  0.
        1    1    3    3  502    0  0.76273470654E+03  0.62902506086E+01  0.25926619638E+04  0.27025358200E+04  0.50400001928E-02 0.  1.
       -1    1    3    3    0  502 -0.76273470654E+03 -0.62902506086E+01 -0.11387272972E+04  0.13705851514E+04  0.50400001928E-02 0. -1.
</event>
<event>
 5   0  0.6725199E-08  0.3825808E+04  0.7818609E-02  0.8040639E-01
        1   -1    0    0  501    0  0.00000000000E+00  0.00000000000E+00  0.24600510223E+04  0.24600510223E+04  0.50400001928E-02 0.  1.
       -1   -1    0    0    0  501  0.00000000000E+00  0.00000000000E+00 -0.14874492908E+04  0.14874492908E+04  0.50400001928E-02 0. -1.
    10030    2    1    2    0    0  0.00000000000E+00  0.00000000000E+00  0.97260173154E+03  0.39475003131E+04  0.38258077048E+04 0.  0.
        5    1    3    3  502    0  0.95248758732E+03  0.19484940092E+03 -0.12135169250E+04  0.15549418993E+04  0.46999998093E+01 0. -1.
       -5    1    3    3    0  502 -0.95248758732E+03 -0.19484940092E+03  0.21861186565E+04  0.23925584138E+04  0.46999998093E+01 0.  1.
</event>
<event>
 5   0  0.6661000E-08  0.3819023E+04  0.7818609E-02  0.8042085E-01
        1   -1    0    0  501    0  0.00000000000E+00  0.00000000000E+00  0.17564300203E+04  0.17564300203E+04  0.50400001928E-02 0.  1.
       -1   -1    0    0    0  501  0.00000000000E+00  0.00000000000E+00 -0.20759349495E+04  0.20759349495E+04  0.50400001928E-02 0. -1.
    10030    2    1    2    0    0  0.00000000000E+00  0.00000000000E+00 -0.31950492922E+03  0.38323649698E+04  0.38190231554E+04 0.  0.
        1    1    3    3  502    0 -0.17084790098E+04 -0.84978403139E+03 -0.87382292197E+02  0.19101489711E+04  0.50400001928E-02 0.  1.
       -1    1    3    3    0  502  0.17084790098E+04  0.84978403139E+03 -0.23212263703E+03  0.19222159987E+04  0.50400001928E-02 0. -1.
</event>
<event>
 5   0  0.1370688E-07  0.3803519E+04  0.7818609E-02  0.8045400E-01
       -2   -1    0    0    0  501  0.00000000000E+00  0.00000000000E+00  0.14521829846E+04  0.14521829846E+04  0.25500000920E-02 0. -1.
        2   -1    0    0  501    0  0.00000000000E+00  0.00000000000E+00 -0.24905193312E+04  0.24905193312E+04  0.25500000920E-02 0.  1.
    10030    2    1    2    0    0  0.00000000000E+00  0.00000000000E+00 -0.10383363466E+04  0.39427023158E+04  0.38035193153E+04 0.  0.
        5    1    3    3  502    0  0.15436870059E+04  0.11053384861E+04 -0.40597065403E+03  0.19415398536E+04  0.46999998093E+01 0. -1.
       -5    1    3    3    0  502 -0.15436870059E+04 -0.11053384861E+04 -0.63236569258E+03  0.20011624622E+04  0.46999998093E+01 0.  1.
</event>
<event>
 5   0  0.6661000E-08  0.3816440E+04  0.7818609E-02  0.8042636E-01
        1   -1    0    0  501    0  0.00000000000E+00  0.00000000000E+00  0.22685892636E+04  0.22685892636E+04  0.50400001928E-02 0.  1.
       -1   -1    0    0    0  501  0.00000000000E+00  0.00000000000E+00 -0.16050964119E+04  0.16050964119E+04  0.50400001928E-02 0. -1.
    10030    2    1    2    0    0  0.00000000000E+00  0.00000000000E+00  0.66349285164E+03  0.38736856755E+04  0.38164404814E+04 0.  0.
        3    1    3    3  502    0  0.60499533648E+03  0.24826683203E+03  0.21513009911E+04  0.22484998870E+04  0.10100000352E+00 0.  1.
       -3    1    3    3    0  502 -0.60499533648E+03 -0.24826683203E+03 -0.14878081395E+04  0.16251857885E+04  0.10100000352E+00 0. -1.
</event>
<event>
 5   0  0.1370688E-07  0.3784261E+04  0.7818609E-02  0.8049541E-01
        2   -1    0    0  501    0  0.00000000000E+00  0.00000000000E+00  0.16786956872E+04  0.16786956872E+04  0.25500000920E-02 0.  1.
       -2   -1    0    0    0  501  0.00000000000E+00  0.00000000000E+00 -0.21327017048E+04  0.21327017048E+04  0.25500000920E-02 0. -1.
    10030    2    1    2    0    0  0.00000000000E+00  0.00000000000E+00 -0.45400601763E+03  0.38113973920E+04  0.37842606432E+04 0.  0.
        5    1    3    3  502    0  0.10024209192E+04  0.76267199844E+03  0.11950777171E+04  0.17363032904E+04  0.46999998093E+01 0.  1.
       -5    1    3    3    0  502 -0.10024209192E+04 -0.76267199844E+03 -0.16490837347E+04  0.20750941016E+04  0.46999998093E+01 0. -1.
</event>
<event>
 5   0  0.1370688E-07  0.3798503E+04  0.7818609E-02  0.8046476E-01
       -2   -1    0    0    0  501  0.00000000000E+00  0.00000000000E+00  0.15221200892E+04  0.15221200892E+04  0.25500000920E-02 0. -1.
        2   -1    0    0  501    0  0.00000000000E+00  0.00000000000E+00 -0.23698234806E+04  0.23698234806E+04  0.25500000920E-02 0.  1.
    10030    2    1    2    0    0  0.00000000000E+00  0.00000000000E+00 -0.84770339135E+03  0.38919435698E+04  0.37985028249E+04 0.  0.
        5    1    3    3  502    0  0.15067240006E+04 -0.25023505600E+03 -0.15804691957E+04  0.21978943937E+04  0.46999998093E+01 0.  1.
       -5    1    3    3    0  502 -0.15067240006E+04  0.25023505600E+03  0.73276580431E+03  0.16940491762E+04  0.46999998093E+01 0. -1.
</event>
<event>
 5   0  0.2081337E-07  0.3838812E+04  0.7818609E-02  0.8037877E-01
        2   -1    0    0  501    0  0.00000000000E+00  0.00000000000E+00  0.26949311108E+04  0.26949311108E+04  0.25500000920E-02 0. -1.
       -2   -1    0    0    0  501  0.00000000000E+00  0.00000000000E+00 -0.13670551437E+04  0.13670551437E+04  0.25500000920E-02 0.  1.
    10030    2    1    2    0    0  0.00000000000E+00  0.00000000000E+00  0.13278759671E+04  0.40619862544E+04  0.38388120229E+04 0.  0.
        1    1    3    3  502    0  0.63418190724E+03  0.16887008409E+04  0.13579836058E+04  0.22578788044E+04  0.50400001928E-02 0. -1.
       -1    1    3    3    0  502 -0.63418190724E+03 -0.16887008409E+04 -0.30107638727E+02  0.18041074501E+04  0.50400001928E-02 0.  1.
</event>
<event>
 5   0  0.1370688E-07  0.3815825E+04  0.7818609E-02  0.8042767E-01
       -2   -1    0    0    0  501  0.00000000000E+00  0.00000000000E+00  0.16714096464E+04  0.16714096464E+04  0.25500000920E-02 0.  1.
        2   -1    0    0  501    0  0.00000000000E+00  0.00000000000E+00 -0.21778798893E+04  0.21778798893E+04  0.25500000920E-02 0. -1.
    10030    2    1    2    0    0  0.00000000000E+00  0.00000000000E+00 -0.50647024292E+03  0.38492895357E+04  0.38158246582E+04 0.  0.
        5    1    3    3  502    0 -0.93529800259E+03 -0.14007693718E+04  0.65082217674E+03  0.18056934353E+04  0.46999998093E+01 0.  1.
       -5    1    3    3    0  502  0.93529800259E+03  0.14007693718E+04 -0.11572924197E+04  0.20435961003E+04  0.46999998093E+01 0. -1.
</event>
<event>
 5   0  0.2135314E-07  0.3793328E+04  0.7818609E-02  0.8047588E-01
       -2   -1    0    0    0  501  0.00000000000E+00  0.00000000000E+00  0.21040118660E+04  0.21040118660E+04  0.25500000920E-02 0.  1.
        2   -1    0    0  501    0  0.00000000000E+00  0.00000000000E+00 -0.17097500188E+04  0.17097500188E+04  0.25500000920E-02 0. -1.
    10030    2    1    2    0    0  0.00000000000E+00  0.00000000000E+00  0.39426184722E+03  0.38137618849E+04  0.37933279993E+04 0.  0.
        4    1    3    3  502    0 -0.14185867210E+04 -0.10485600797E+04  0.89763823329E+03  0.19792984961E+04  0.12699999809E+01 0.  1.
       -4    1    3    3    0  502  0.14185867210E+04  0.10485600797E+04 -0.50337638607E+03  0.18344633888E+04  0.12699999809E+01 0. -1.
</event>
<event>
 5   0  0.6661000E-08  0.3799109E+04  0.7818609E-02  0.8046346E-01
       -1   -1    0    0    0  501  0.00000000000E+00  0.00000000000E+00  0.27757129769E+04  0.27757129769E+04  0.50400001928E-02 0.  1.
        1   -1    0    0  501    0  0.00000000000E+00  0.00000000000E+00 -0.12999570024E+04  0.12999570024E+04  0.50400001928E-02 0. -1.
    10030    2    1    2    0    0  0.00000000000E+00  0.00000000000E+00  0.14757559745E+04  0.40756699793E+04  0.37991091172E+04 0.  0.
        2    1    3    3  502    0 -0.66478546989E+03  0.13918347800E+04 -0.45150607342E+03  0.16071718981E+04  0.25500000920E-02 0. -1.
       -2    1    3    3    0  502  0.66478546989E+03 -0.13918347800E+04  0.19272620479E+04  0.24684980812E+04  0.25500000920E-02 0.  1.
</event>
<event>
 5   0  0.1370688E-07  0.3764127E+04  0.7818609E-02  0.8053897E-01
       -2   -1    0    0    0  501  0.00000000000E+00  0.00000000000E+00  0.17620769449E+04  0.17620769449E+04  0.25500000920E-02 0. -1.
        2   -1    0    0  501    0  0.00000000000E+00  0.00000000000E+00 -0.20102202979E+04  0.20102202979E+04  0.25500000920E-02 0.  1.
    10030    2    1    2    0    0  0.00000000000E+00  0.00000000000E+00 -0.24814335295E+03  0.37722972428E+04  0.37641269060E+04 0.  0.
        5    1    3    3  502    0 -0.79062807456E+03 -0.15816539716E+04 -0.77000051833E+03  0.19286381015E+04  0.46999998093E+01 0.  1.
       -5    1    3    3    0  502  0.79062807456E+03  0.15816539716E+04  0.52185716538E+03  0.18436591413E+04  0.46999998093E+01 0. -1.
</event>
<event>
 5   0  0.6661000E-08  0.3767338E+04  0.7818609E-02  0.8053201E-01
        1   -1    0    0  501    0  0.00000000000E+00  0.00000000000E+00  0.28753551974E+04  0.28753551974E+04  0.50400001928E-02 0. -1.
       -1   -1    0    0    0  501  0.00000000000E+00  0.00000000000E+00 -0.12340069298E+04  0.12340069299E+04  0.50400001928E-02 0.  1.
    10030    2    1    2    0    0  0.00000000000E+00  0.00000000000E+00  0.16413482676E+04  0.41093621273E+04  0.37673376485E+04 0.  0.
        3    1    3    3  502    0  0.70329981996E+03 -0.19181688555E+03  0.27152498542E+04  0.28114064337E+04  0.10100000352E+00 0. -1.
       -3    1    3    3    0  502 -0.70329981996E+03  0.19181688555E+03 -0.10739015867E+04  0.12979556936E+04  0.10100000352E+00 0.  1.
</event>
<event>
 5   0  0.6661000E-08  0.3720605E+04  0.7818609E-02  0.8063411E-01
        1   -1    0    0  501    0  0.00000000000E+00  0.00000000000E+00  0.31776778573E+04  0.31776778573E+04  0.50400001928E-02 0. -1.
       -1   -1    0    0    0  501  0.00000000000E+00  0.00000000000E+00 -0.10890736526E+04  0.10890736526E+04  0.50400001928E-02 0.  1.
    10030    2    1    2    0    0  0.00000000000E+00  0.00000000000E+00  0.20886042047E+04  0.42667515099E+04  0.37206049136E+04 0.  0.
        2    1    3    3  502    0  0.50583658639E+03  0.12889538377E+04 -0.38042091771E+03  0.14359640394E+04  0.25500000920E-02 0.  1.
       -2    1    3    3    0  502 -0.50583658639E+03 -0.12889538377E+04  0.24690251224E+04  0.28307874705E+04  0.25500000920E-02 0. -1.
</event>
<event>
 5   0  0.6661000E-08  0.3792232E+04  0.7818609E-02  0.8047824E-01
       -1   -1    0    0    0  501  0.00000000000E+00  0.00000000000E+00  0.24926677257E+04  0.24926677257E+04  0.50400001928E-02 0. -1.
        1   -1    0    0  501    0  0.00000000000E+00  0.00000000000E+00 -0.14423325459E+04  0.14423325459E+04  0.50400001928E-02 0.  1.
    10030    2    1    2    0    0  0.00000000000E+00  0.00000000000E+00  0.10503351798E+04  0.39350002717E+04  0.37922319481E+04 0.  0.
        1    1    3    3  502    0 -0.85732242932E+03  0.11972089670E+03 -0.12253290846E+04  0.15002553804E+04  0.50400001928E-02 0.  1.
       -1    1    3    3    0  502  0.85732242932E+03 -0.11972089670E+03  0.22756642644E+04  0.24347448912E+04  0.50400001928E-02 0. -1.
</event>
<event>
 5   0  0.6661000E-08  0.3804346E+04  0.7818609E-02  0.8045223E-01
       -1   -1    0    0    0  501  0.00000000000E+00  0.00000000000E+00  0.15020882349E+04  0.15020882349E+04  0.50400001928E-02 0. -1.
        1   -1    0    0  501    0  0.00000000000E+00  0.00000000000E+00 -0.24088218654E+04  0.24088218654E+04  0.50400001928E-02 0.  1.
    10030    2    1    2    0    0  0.00000000000E+00  0.00000000000E+00 -0.90673363055E+03  0.39109101003E+04  0.38043464532E+04 0.  0.
        3    1    3    3  502    0 -0.90592771652E+03  0.77105404572E+03 -0.19792044890E+04  0.23092162715E+04  0.10100000352E+00 0.  1.
       -3    1    3    3    0  502  0.90592771652E+03 -0.77105404572E+03  0.10724708584E+04  0.16016938288E+04  0.10100000352E+00 0. -1.
</event>
<event>
 5   0  0.6725199E-08  0.3805034E+04  0.7818609E-02  0.8045075E-01
        1   -1    0    0  501    0  0.00000000000E+00  0.00000000000E+00  0.13624089047E+04  0.13624089047E+04  0.50400001928E-02 0. -1.
       -1   -1    0    0    0  501  0.00000000000E+00  0.00000000000E+00 -0.26567437519E+04  0.26567437519E+04  0.50400001928E-02 0.  1.
    10030    2    1    2    0    0  0.00000000000E+00  0.00000000000E+00 -0.12943348472E+04  0.40191526566E+04  0.38050342154E+04 0.  0.
        5    1    3    3  502    0  0.16927107365E+04 -0.75655967191E+03 -0.10976612043E+04  0.21546541217E+04  0.46999998093E+01 0.  1.
       -5    1    3    3    0  502 -0.16927107365E+04  0.75655967191E+03 -0.19667364290E+03  0.18644985349E+04  0.46999998093E+01 0. -1.
</event>
<event>
 5   0  0.6725199E-08  0.3812354E+04  0.7818609E-02  0.8043509E-01
       -1   -1    0    0    0  501  0.00000000000E+00  0.00000000000E+00  0.18958037508E+04  0.18958037508E+04  0.50400001928E-02 0. -1.
        1   -1    0    0  501    0  0.00000000000E+00  0.00000000000E+00 -0.19166069863E+04  0.19166069863E+04  0.50400001928E-02 0.  1.
    10030    2    1    2    0    0  0.00000000000E+00  0.00000000000E+00 -0.20803235434E+02  0.38124107371E+04  0.38123539780E+04 0.  0.
        5    1    3    3  502    0 -0.46459717319E+03  0.17372775676E+04 -0.64247490381E+03  0.19096544118E+04  0.46999998093E+01 0.  1.
       -5    1    3    3    0  502  0.46459717319E+03 -0.17372775676E+04  0.62167166838E+03  0.19027563253E+04  0.46999998093E+01 0. -1.
</event>
<event>
 5   0  0.2135314E-07  0.3804460E+04  0.7818609E-02  0.8045199E-01
       -2   -1    0    0    0  501  0.00000000000E+00  0.00000000000E+00  0.12599921944E+04  0.12599921944E+04  0.25500000920E-02 0. -1.
        2   -1    0    0  501    0  0.00000000000E+00  0.00000000000E+00 -0.28718261136E+04  0.28718261136E+04  0.25500000920E-02 0.  1.
    10030    2    1    2    0    0  0.00000000000E+00  0.00000000000E+00 -0.16118339192E+04  0.41318183081E+04  0.38044597446E+04 0.  0.
        4    1    3    3  502    0  0.45104209719E+03  0.24537127790E+03 -0.27951402511E+04  0.28419107434E+04  0.12699999809E+01 0.  1.
       -4    1    3    3    0  502 -0.45104209719E+03 -0.24537127790E+03  0.11833063319E+04  0.12899075647E+04  0.12699999809E+01 0. -1.
</event>
<event>
 5   0  0.6661000E-08  0.3790938E+04  0.7818609E-02  0.8048102E-01
       -1   -1    0    0    0  501  0.00000000000E+00  0.00000000000E+00  0.20207936325E+04  0.20207936325E+04  0.50400001928E-02 0.  1.
        1   -1    0    0  501    0  0.00000000000E+00  0.00000000000E+00 -0.17779170197E+04  0.17779170197E+04  0.50400001928E-02 0. -1.
    10030    2    1    2    0    0  0.00000000000E+00  0.00000000000E+00  0.24287661274E+03  0.37987106522E+04  0.37909383496E+04 0.  0.
        4    1    3    3  502    0 -0.94121784114E+03 -0.17230611315E+03  0.17610146118E+04  0.20041842473E+04  0.12699999809E+01 0.  1.
       -4    1    3    3    0  502  0.94121784114E+03  0.17230611315E+03 -0.15181379990E+04  0.17945264050E+04  0.12699999809E+01 0. -1.
</event>
<event>
 5   0  0.2203998E-07  0.3814453E+04  0.7818609E-02  0.8043061E-01
       -2   -1    0    0    0  501  0.00000000000E+00  0.00000000000E+00  0.18898158644E+04  0.18898158644E+04  0.25500000920E-02 0.  1.
        2   -1    0    0  501    0  0.00000000000E+00  0.00000000000E+00 -0.19247970834E+04  0.19247970834E+04  0.25500000920E-02 0. -1.
    10030    2    1    2    0    0  0.00000000000E+00  0.00000000000E+00 -0.34981219075E+02  0.38146129478E+04  0.38144525500E+04 0.  0.
        3    1    3    3  502    0  0.20680025579E+03 -0.14813266582E+04  0.11659513270E+04  0.18964539334E+04  0.10100000352E+00 0.  1.
       -3    1    3    3    0  502 -0.20680025579E+03  0.14813266582E+04 -0.12009325461E+04  0.19181590144E+04  0.10100000352E+00 0. -1.
</event>
<event>
 5   0  0.2081337E-07  0.3836809E+04  0.7818609E-02  0.8038302E-01
        2   -1    0    0  501    0  0.00000000000E+00  0.00000000000E+00  0.24487975743E+04  0.24487975743E+04  0.25500000920E-02 0. -1.
       -2   -1    0    0    0  501  0.00000000000E+00  0.00000000000E+00 -0.15028910716E+04  0.15028910716E+04  0.25500000920E-02 0.  1.
    10030    2    1    2    0    0  0.00000000000E+00  0.00000000000E+00  0.94590650268E+03  0.39516886459E+04  0.38368090964E+04 0.  0.
        1    1    3    3  502    0 -0.17227806430E+04  0.59165208414E+03  0.10928468213E+04  0.21242268023E+04  0.50400001928E-02 0.  1.
       -1    1    3    3    0  502  0.17227806430E+04 -0.59165208414E+03 -0.14694031859E+03  0.18274618436E+04  0.50400001928E-02 0. -1.
</event>
<event>
 5   0  0.6661000E-08  0.3759482E+04  0.7818609E-02  0.8054906E-01
       -1   -1    0    0    0  501  0.00000000000E+00  0.00000000000E+00  0.17783378437E+04  0.17783378437E+04  0.50400001928E-02 0.  1.
        1   -1    0    0  501    0  0.00000000000E+00  0.00000000000E+00 -0.19869258206E+04  0.19869258206E+04  0.50400001928E-02 0. -1.
    10030    2    1    2    0    0  0.00000000000E+00  0.00000000000E+00 -0.20858797691E+03  0.37652636643E+04  0.37594815491E+04 0.  0.
        2    1    3    3  502    0 -0.19259176754E+03  0.67993554233E+02  0.17671919156E+04  0.17789553055E+04  0.25500000920E-02 0.  1.
       -2    1    3    3    0  502  0.19259176754E+03 -0.67993554233E+02 -0.19757798926E+04  0.19863083588E+04  0.25500000920E-02 0. -1.
</event>
<event>
 5   0  0.2081337E-07  0.3816285E+04  0.7818609E-02  0.8042669E-01
       -2   -1    0    0    0  501  0.00000000000E+00  0.00000000000E+00  0.16249596709E+04  0.16249596709E+04  0.25500000920E-02 0. -1.
        2   -1    0    0  501    0  0.00000000000E+00  0.00000000000E+00 -0.22406757974E+04  0.22406757974E+04  0.25500000920E-02 0.  1.
    10030    2    1    2    0    0  0.00000000000E+00  0.00000000000E+00 -0.61571612645E+03  0.38656354683E+04  0.38162850032E+04 0.  0.
        1    1    3    3  502    0 -0.10162958138E+04  0.15234360019E+04  0.23507076352E+03  0.18463403524E+04  0.50400001928E-02 0. -1.
       -1    1    3    3    0  502  0.10162958138E+04 -0.15234360019E+04 -0.85078688997E+03  0.20192951159E+04  0.50400001928E-02 0.  1.
</event>
<event>
 5   0  0.2203998E-07  0.3828229E+04  0.7818609E-02  0.8040124E-01
       -2   -1    0    0    0  501  0.00000000000E+00  0.00000000000E+00  0.11314367853E+04  0.11314367853E+04  0.25500000920E-02 0. -1.
        2   -1    0    0  501    0  0.00000000000E+00  0.00000000000E+00 -0.32382140469E+04  0.32382140469E+04  0.25500000920E-02 0.  1.
    10030    2    1    2    0    0  0.00000000000E+00  0.00000000000E+00 -0.21067772617E+04  0.43696508322E+04  0.38282290899E+04 0.  0.
        3    1    3    3  502    0 -0.19128918993E+04 -0.48367527932E+02 -0.11085993974E+04  0.22114446569E+04  0.10100000352E+00 0.  1.
       -3    1    3    3    0  502  0.19128918993E+04  0.48367527932E+02 -0.99817786426E+03  0.21582061753E+04  0.10100000352E+00 0. -1.
</event>
<event>
 5   0  0.6661000E-08  0.3734393E+04  0.7818609E-02  0.8060382E-01
        1   -1    0    0  501    0  0.00000000000E+00  0.00000000000E+00  0.11792033711E+04  0.11792033711E+04  0.50400001928E-02 0.  1.
       -1   -1    0    0    0  501  0.00000000000E+00  0.00000000000E+00 -0.29565918238E+04  0.29565918238E+04  0.50400001928E-02 0. -1.
    10030    2    1    2    0    0  0.00000000000E+00  0.00000000000E+00 -0.17773884527E+04  0.41357951949E+04  0.37343931478E+04 0.  0.
        2    1    3    3  502    0 -0.11322209815E+04 -0.11729627194E+04 -0.18968471844E+04  0.25011587581E+04  0.25500000920E-02 0. -1.
       -2    1    3    3    0  502  0.11322209815E+04  0.11729627194E+04  0.11945873172E+03  0.16346364368E+04  0.25500000920E-02 0.  1.
</event>
<event>
 5   0  0.2203998E-07  0.3802522E+04  0.7818609E-02  0.8045614E-01
       -2   -1    0    0    0  501  0.00000000000E+00  0.00000000000E+00  0.27549016521E+04  0.27549016521E+04  0.25500000920E-02 0. -1.
        2   -1    0    0  501    0  0.00000000000E+00  0.00000000000E+00 -0.13121318428E+04  0.13121318428E+04  0.25500000920E-02 0.  1.
    10030    2    1    2    0    0  0.00000000000E+00  0.00000000000E+00  0.14427698093E+04  0.40670334949E+04  0.38025224162E+04 0.  0.
        3    1    3    3  502    0 -0.13560785894E+04 -0.25540148417E+03  0.21202702432E+04  0.25297677706E+04  0.10100000352E+00 0. -1.
       -3    1    3    3    0  502  0.13560785894E+04  0.25540148417E+03 -0.67750043388E+03  0.15372657243E+04  0.10100000352E+00 0.  1.
</event>
<event>
 5   0  0.6661000E-08  0.3810466E+04  0.7818609E-02  0.8043913E-01
       -1   -1    0    0    0  501  0.00000000000E+00  0.00000000000E+00  0.27575508587E+04  0.27575508587E+04  0.50400001928E-02 0. -1.
        1   -1    0    0  501    0  0.00000000000E+00  0.00000000000E+00 -0.13163539268E+04  0.13163539268E+04  0.50400001928E-02 0.  1.
    10030    2    1    2    0    0  0.00000000000E+00  0.00000000000E+00  0.14411969319E+04  0.40739047855E+04  0.38104660613E+04 0.  0.
        4    1    3    3  502    0 -0.71479007600E+03 -0.12796301548E+04 -0.58073457423E+03  0.15765888635E+04  0.12699999809E+01 0.  1.
       -4    1    3    3    0  502  0.71479007600E+03  0.12796301548E+04  0.20219315062E+04  0.24973159220E+04  0.12699999809E+01 0. -1.
</event>
<event>
 5   0  0.1370688E-07  0.3800987E+04  0.7818609E-02  0.8045943E-01
       -2   -1    0    0    0  501  0.00000000000E+00  0.00000000000E+00  0.16052117325E+04  0.16052117325E+04  0.25500000920E-02 0.  1.
        2   -1    0    0  501    0  0.00000000000E+00  0.00000000000E+00 -0.22500925212E+04  0.22500925212E+04  0.25500000920E-02 0. -1.
    10030    2    1    2    0    0  0.00000000000E+00  0.00000000000E+00 -0.64488078863E+03  0.38553042537E+04  0.38009866689E+04 0.  0.
        5    1    3    3  502    0  0.22419395727E+03 -0.10722893169E+04 -0.18976257018E+04  0.21911350264E+04  0.46999998093E+01 0. -1.
       -5    1    3    3    0  502 -0.22419395727E+03  0.10722893169E+04  0.12527449132E+04  0.16641692273E+04  0.46999998093E+01 0.  1.
</event>
<event>
 5   0  0.6661000E-08  0.3808824E+04  0.7818609E-02  0.8044264E-01
       -1   -1    0    0    0  501  0.00000000000E+00  0.00000000000E+00  0.16887027252E+04  0.16887027252E+04  0.50400001928E-02 0. -1.
        1   -1    0    0  501    0  0.00000000000E+00  0.00000000000E+00 -0.21476751170E+04  0.21476751170E+04  0.50400001928E-02 0.  1.
    10030    2    1    2    0    0  0.00000000000E+00  0.00000000000E+00 -0.45897239184E+03  0.38363778422E+04  0.38088238725E+04 0.  0.
        4    1    3    3  502    0  0.16088151032E+04 -0.27275039691E+03 -0.12184775951E+04  0.20365087964E+04  0.12699999809E+01 0.  1.
       -4    1    3    3    0  502 -0.16088151032E+04  0.27275039691E+03  0.75950520325E+03  0.17998690458E+04  0.12699999809E+01 0. -1.
</event>
<event>
 5   0  0.2081337E-07  0.3820785E+04  0.7818609E-02  0.8041709E-01
        2   -1    0    0  501    0  0.00000000000E+00  0.00000000000E+00  0.23199483654E+04  0.23199483654E+04  0.25500000920E-02 0. -1.
       -2   -1    0    0    0  501  0.00000000000E+00  0.00000000000E+00 -0.15731383292E+04  0.15731383292E+04  0.25500000920E-02 0.  1.
    10030    2    1    2    0    0  0.00000000000E+00  0.00000000000E+00  0.74681003618E+03  0.38930866946E+04  0.38207851002E+04 0.  0.
        1    1    3    3  502    0 -0.17652396945E+03 -0.18804471072E+04  0.80994180570E+02  0.18904502353E+04  0.50400001928E-02 0. -1.
       -1    1    3    3    0  502  0.17652396945E+03  0.18804471072E+04  0.66581585561E+03  0.20026364594E+04  0.50400001928E-02 0.  1.
</event>
<event>
 5   0  0.6661000E-08  0.3809072E+04  0.7818609E-02  0.8044211E-01
        1   -1    0    0  501    0  0.00000000000E+00  0.00000000000E+00  0.32976726631E+04  0.32976726631E+04  0.50400001928E-02 0.  1.
       -1   -1    0    0    0  501  0.00000000000E+00  0.00000000000E+00 -0.10999446049E+04  0.10999446049E+04  0.50400001928E-02 0. -1.
    10030    2    1    2    0    0  0.00000000000E+00  0.00000000000E+00  0.21977280582E+04  0.43976172680E+04  0.38090719366E+04 0.  0.
        4    1    3    3  502    0  0.18701831299E+04  0.28996752975E+03  0.13453719229E+04  0.23220020093E+04  0.12699999809E+01 0.  1.
       -4    1    3    3    0  502 -0.18701831299E+04 -0.28996752975E+03  0.85235613529E+03  0.20756152586E+04  0.12699999809E+01 0. -1.
</event>
<event>
 5   0  0.6661000E-08  0.3801388E+04  0.7818609E-02  0.8045857E-01
        1   -1    0    0  501    0  0.00000000000E+00  0.00000000000E+00  0.23897733828E+04  0.23897733828E+04  0.50400001928E-02 0. -1.
       -1   -1    0    0    0  501  0.00000000000E+00  0.00000000000E+00 -0.15117069541E+04  0.15117069541E+04  0.50400001928E-02 0.  1.
    10030    2    1    2    0    0  0.00000000000E+00  0.00000000000E+00  0.87806642870E+03  0.39014803368E+04  0.38013876631E+04 0.  0.
        2    1    3    3  502    0 -0.12301890142E+03 -0.54905066462E+03 -0.14242717608E+04  0.15313851022E+04  0.25500000920E-02 0.  1.
       -2    1    3    3    0  502  0.12301890142E+03  0.54905066462E+03  0.23023381895E+04  0.23700952347E+04  0.25500000920E-02 0. -1.
</event>
<event>
 5   0  0.2205204E-07  0.3833513E+04  0.7818609E-02  0.8039001E-01
       -2   -1    0    0    0  501  0.00000000000E+00  0.00000000000E+00  0.24198315294E+04  0.24198315294E+04  0.25500000920E-02 0. -1.
        2   -1    0    0  501    0  0.00000000000E+00  0.00000000000E+00 -0.15182689344E+04  0.15182689344E+04  0.25500000920E-02 0.  1.
    10030    2    1    2    0    0  0.00000000000E+00  0.00000000000E+00  0.90156259495E+03  0.39381004638E+04  0.38335127691E+04 0.  0.
        2    1    3    3  502    0 -0.13839123660E+04 -0.23916285859E+03 -0.88923878342E+03  0.16622749242E+04  0.25500000920E-02 0.  1.
       -2    1    3    3    0  502  0.13839123660E+04  0.23916285859E+03  0.17908013784E+04  0.22758255396E+04  0.25500000920E-02 0. -1.
</event>
<event>
 5   0  0.2205204E-07  0.3772130E+04  0.7818609E-02  0.8052162E-01
        2   -1    0    0  501    0  0.00000000000E+00  0.00000000000E+00  0.21171577528E+04  0.21171577528E+04  0.25500000920E-02 0.  1.
       -2   -1    0    0    0  501  0.00000000000E+00  0.00000000000E+00 -0.16801965055E+04  0.16801965055E+04  0.25500000920E-02 0. -1.
    10030    2    1    2    0    0  0.00000000000E+00  0.00000000000E+00  0.43696124733E+03  0.37973542583E+04  0.37721299330E+04 0.  0.
        2    1    3    3  502    0  0.86256386350E+03 -0.15958281209E+04 -0.30126365683E+03  0.18388701968E+04  0.25500000920E-02 0. -1.
       -2    1    3    3    0  502 -0.86256386350E+03  0.15958281209E+04  0.73822490416E+03  0.19584840615E+04  0.25500000920E-02 0.  1.
</event>
<event>
 5   0  0.1370688E-07  0.3770191E+04  0.7818609E-02  0.8052582E-01
       -2   -1    0    0    0  501  0.00000000000E+00  0.00000000000E+00  0.16771471863E+04  0.16771471863E+04  0.25500000920E-02 0.  1.
        2   -1    0    0  501    0  0.00000000000E+00  0.00000000000E+00 -0.21188270058E+04  0.21188270058E+04  0.25500000920E-02 0. -1.
    10030    2    1    2    0    0  0.00000000000E+00  0.00000000000E+00 -0.44167981949E+03  0.37959741921E+04  0.37701908446E+04 0.  0.
        5    1    3    3  502    0 -0.67736477743E+03  0.29351181864E+03 -0.19672307773E+04  0.21011880569E+04  0.46999998093E+01 0. -1.
       -5    1    3    3    0  502  0.67736477743E+03 -0.29351181864E+03  0.15255509578E+04  0.16947861352E+04  0.46999998093E+01 0.  1.
</event>
<event>
 5   0  0.2081337E-07  0.3804489E+04  0.7818609E-02  0.8045192E-01
        2   -1    0    0  501    0  0.00000000000E+00  0.00000000000E+00  0.13580636834E+04  0.13580636834E+04  0.25500000920E-02 0.  1.
       -2   -1    0    0    0  501  0.00000000000E+00  0.00000000000E+00 -0.26644802385E+04  0.26644802385E+04  0.25500000920E-02 0. -1.
    10030    2    1    2    0    0  0.00000000000E+00  0.00000000000E+00 -0.13064165551E+04  0.40225439219E+04  0.38044888471E+04 0.  0.
        1    1    3    3  502    0 -0.14046281136E+04  0.91965789861E+03 -0.15987715171E+04  0.23183660521E+04  0.50400001928E-02 0. -1.
       -1    1    3    3    0  502  0.14046281136E+04 -0.91965789861E+03  0.29235496197E+03  0.17041778697E+04  0.50400001928E-02 0.  1.
</event>
<event>
 5   0  0.6661000E-08  0.3796889E+04  0.7818609E-02  0.8046823E-01
        1   -1    0    0  501    0  0.00000000000E+00  0.00000000000E+00  0.22289452240E+04  0.22289452240E+04  0.50400001928E-02 0. -1.
       -1   -1    0    0    0  501  0.00000000000E+00  0.00000000000E+00 -0.16169490054E+04  0.16169490055E+04  0.50400001928E-02 0.  1.
    10030    2    1    2    0    0  0.00000000000E+00  0.00000000000E+00  0.61199621858E+03  0.38458942295E+04  0.37968886016E+04 0.  0.
        1    1    3    3  502    0 -0.42593958413E+03 -0.18056654427E+04  0.71398527311E+03  0.19878700135E+04  0.50400001928E-02 0.  1.
       -1    1    3    3    0  502  0.42593958413E+03  0.18056654427E+04 -0.10198905453E+03  0.18580242160E+04  0.50400001928E-02 0. -1.
</event>
<event>
 5   0  0.2135314E-07  0.3781880E+04  0.7818609E-02  0.8050055E-01
       -2   -1    0    0    0  501  0.00000000000E+00  0.00000000000E+00  0.24543299849E+04  0.24543299849E+04  0.25500000920E-02 0.  1.
        2   -1    0    0  501    0  0.00000000000E+00  0.00000000000E+00 -0.14568760018E+04  0.14568760018E+04  0.25500000920E-02 0. -1.
    10030    2    1    2    0    0  0.00000000000E+00  0.00000000000E+00  0.99745398307E+03  0.39112059867E+04  0.37818801967E+04 0.  0.
        4    1    3    3  502    0 -0.16667492463E+04 -0.85590193798E+03  0.23499345429E+03  0.18883444373E+04  0.12699999809E+01 0. -1.
       -4    1    3    3    0  502  0.16667492463E+04  0.85590193798E+03  0.76246052878E+03  0.20228615494E+04  0.12699999809E+01 0.  1.
</event>
<event>
 5   0  0.1370688E-07  0.3799779E+04  0.7818609E-02  0.8046202E-01
       -2   -1    0    0    0  501  0.00000000000E+00  0.00000000000E+00  0.16448504045E+04  0.16448504045E+04  0.25500000920E-02 0.  1.
        2   -1    0    0  501    0  0.00000000000E+00  0.00000000000E+00 -0.21944728749E+04  0.21944728749E+04  0.25500000920E-02 0. -1.
    10030    2    1    2    0    0  0.00000000000E+00  0.00000000000E+00 -0.54962247037E+03  0.38393232794E+04  0.37997787283E+04 0.  0.
        5    1    3    3  502    0  0.28713355957E+03  0.94210103163E+03 -0.19163907964E+04  0.21546637346E+04  0.46999998093E+01 0. -1.
       -5    1    3    3    0  502 -0.28713355957E+03 -0.94210103163E+03  0.13667683260E+04  0.16846595448E+04  0.46999998093E+01 0.  1.
</event>
<event>
 5   0  0.2203998E-07  0.3798024E+04  0.7818609E-02  0.8046579E-01
        2   -1    0    0  501    0  0.00000000000E+00  0.00000000000E+00  0.18428879138E+04  0.18428879138E+04  0.25500000920E-02 0.  1.
       -2   -1    0    0    0  501  0.00000000000E+00  0.00000000000E+00 -0.19568455476E+04  0.19568455476E+04  0.25500000920E-02 0. -1.
    10030    2    1    2    0    0  0.00000000000E+00  0.00000000000E+00 -0.11395763386E+03  0.37997334614E+04  0.37980242279E+04 0.  0.
        3    1    3    3  502    0 -0.38566022193E+03 -0.18152784032E+04  0.34603930170E+03  0.18877798326E+04  0.10100000352E+00 0.  1.
       -3    1    3    3    0  502  0.38566022193E+03  0.18152784032E+04 -0.45999693556E+03  0.19119536288E+04  0.10100000352E+00 0. -1.
</event>
<event>
 5   0  0.6661000E-08  0.3801128E+04  0.7818609E-02  0.8045913E-01
        1   -1    0    0  501    0  0.00000000000E+00  0.00000000000E+00  0.21907415553E+04  0.21907415553E+04  0.50400001928E-02 0.  1.
       -1   -1    0    0    0  501  0.00000000000E+00  0.00000000000E+00 -0.16488224076E+04  0.16488224076E+04  0.50400001928E-02 0. -1.
    10030    2    1    2    0    0  0.00000000000E+00  0.00000000000E+00  0.54191914767E+03  0.38395639629E+04  0.38011281302E+04 0.  0.
        1    1    3    3  502    0 -0.13039756190E+04 -0.58460721213E+03  0.15366362773E+04  0.20984206099E+04  0.50400001928E-02 0.  1.
       -1    1    3    3    0  502  0.13039756190E+04  0.58460721213E+03 -0.99471712964E+03  0.17411433529E+04  0.50400001928E-02 0. -1.
</event>
<event>
 5   0  0.1370688E-07  0.3816365E+04  0.7818609E-02  0.8042652E-01
        2   -1    0    0  501    0  0.00000000000E+00  0.00000000000E+00  0.13603684325E+04  0.13603684325E+04  0.25500000920E-02 0. -1.
       -2   -1    0    0    0  501  0.00000000000E+00  0.00000000000E+00 -0.26765991008E+04  0.26765991008E+04  0.25500000920E-02 0.  1.
    10030    2    1    2    0    0  0.00000000000E+00  0.00000000000E+00 -0.13162306684E+04  0.40369675333E+04  0.38163652462E+04 0.  0.
        5    1    3    3  502    0  0.12664940148E+04  0.11645551219E+04 -0.15310077897E+04  0.23030854660E+04  0.46999998093E+01 0.  1.
       -5    1    3    3    0  502 -0.12664940148E+04 -0.11645551219E+04  0.21477712139E+03  0.17338820673E+04  0.46999998093E+01 0. -1.
</event>
<event>
 5   0  0.6661000E-08  0.3812497E+04  0.7818609E-02  0.8043478E-01
       -1   -1    0    0    0  501  0.00000000000E+00  0.00000000000E+00  0.18506698385E+04  0.18506698385E+04  0.50400001928E-02 0.  1.
        1   -1    0    0  501    0  0.00000000000E+00  0.00000000000E+00 -0.19634965174E+04  0.19634965174E+04  0.50400001928E-02 0. -1.
    10030    2    1    2    0    0  0.00000000000E+00  0.00000000000E+00 -0.11282667890E+03  0.38141663559E+04  0.38124972303E+04 0.  0.
        2    1    3    3  502    0 -0.11505738744E+04  0.14579602962E+04  0.37309421621E+03  0.18943779348E+04  0.25500000920E-02 0.  1.
       -2    1    3    3    0  502  0.11505738744E+04 -0.14579602962E+04 -0.48592089512E+03  0.19197884212E+04  0.25500000920E-02 0. -1.
</event>
<event>
 5   0  0.2205204E-07  0.3809630E+04  0.7818609E-02  0.8044091E-01
       -2   -1    0    0    0  501  0.00000000000E+00  0.00000000000E+00  0.31855306842E+04  0.31855306842E+04  0.25500000920E-02 0. -1.
        2   -1    0    0  501    0  0.00000000000E+00  0.00000000000E+00 -0.11390001763E+04  0.11390001763E+04  0.25500000920E-02 0.  1.
    10030    2    1    2    0    0  0.00000000000E+00  0.00000000000E+00  0.20465305078E+04  0.43245308605E+04  0.38096299091E+04 0.  0.
        2    1    3    3  502    0  0.94044737070E+02 -0.14616210301E+04 -0.35917771142E+03  0.15080414704E+04  0.25500000920E-02 0. -1.
       -2    1    3    3    0  502 -0.94044737070E+02  0.14616210301E+04  0.24057082193E+04  0.28164893901E+04  0.25500000920E-02 0.  1.
</event>
<event>
 5   0  0.2135314E-07  0.3810813E+04  0.7818609E-02  0.8043838E-01
        2   -1    0    0  501    0  0.00000000000E+00  0.00000000000E+00  0.13264683221E+04  0.13264683221E+04  0.25500000920E-02 0.  1.
       -2   -1    0    0    0  501  0.00000000000E+00  0.00000000000E+00 -0.27370225604E+04  0.27370225604E+04  0.25500000920E-02 0. -1.
    10030    2    1    2    0    0  0.00000000000E+00  0.00000000000E+00 -0.14105542383E+04  0.40634908825E+04  0.38108128914E+04 0.  0.
        4    1    3    3  502    0  0.76839513956E+03 -0.10825000949E+03  0.11503466577E+04  0.13876052035E+04  0.12699999809E+01 0.  1.
       -4    1    3    3    0  502 -0.76839513956E+03  0.10825000949E+03 -0.25609008960E+04  0.26758856790E+04  0.12699999809E+01 0. -1.
</event>
<event>
 5   0  0.1370688E-07  0.3805219E+04  0.7818609E-02  0.8045036E-01
       -2   -1    0    0    0  501  0.00000000000E+00  0.00000000000E+00  0.14441465118E+04  0.14441465118E+04  0.25500000920E-02 0.  1.
        2   -1    0    0  501    0  0.00000000000E+00  0.00000000000E+00 -0.25066178737E+04  0.25066178737E+04  0.25500000920E-02 0. -1.
    10030    2    1    2    0    0  0.00000000000E+00  0.00000000000E+00 -0.10624713619E+04  0.39507643856E+04  0.38052192887E+04 0.  0.
        5    1    3    3  502    0  0.32448590684E+02 -0.25817658042E+03 -0.24880505363E+04  0.25016245959E+04  0.46999998093E+01 0. -1.
       -5    1    3    3    0  502 -0.32448590684E+02  0.25817658042E+03  0.14255791743E+04  0.14491397897E+04  0.46999998093E+01 0.  1.
</event>
<event>
 5   0  0.6661000E-08  0.3794788E+04  0.7818609E-02  0.8047274E-01
       -1   -1    0    0    0  501  0.00000000000E+00  0.00000000000E+00  0.14083518025E+04  0.14083518025E+04  0.50400001928E-02 0.  1.
        1   -1    0    0  501    0  0.00000000000E+00  0.00000000000E+00 -0.25562538401E+04  0.25562538401E+04  0.50400001928E-02 0. -1.
    10030    2    1    2    0    0  0.00000000000E+00  0.00000000000E+00 -0.11479020376E+04  0.39646056426E+04  0.37947883753E+04 0.  0.
        4    1    3    3  502    0 -0.46509424628E+03 -0.17660395674E+04 -0.36239858544E+02  0.18266152720E+04  0.12699999809E+01 0.  1.
       -4    1    3    3    0  502  0.46509424628E+03  0.17660395674E+04 -0.11116621790E+04  0.21379903706E+04  0.12699999809E+01 0. -1.
</event>
<event>
 5   0  0.6661000E-08  0.3802497E+04  0.7818609E-02  0.8045619E-01
       -1   -1    0    0    0  501  0.00000000000E+00  0.00000000000E+00  0.26022430641E+04  0.26022430641E+04  0.50400001928E-02 0. -1.
        1   -1    0    0  501    0  0.00000000000E+00  0.00000000000E+00 -0.13890887493E+04  0.13890887493E+04  0.50400001928E-02 0.  1.
    10030    2    1    2    0    0  0.00000000000E+00  0.00000000000E+00  0.12131543149E+04  0.39913318134E+04  0.38024973706E+04 0.  0.
        4    1    3    3  502    0  0.14630105139E+04  0.10813622897E+04  0.26882377009E+02  0.18194692744E+04  0.12699999809E+01 0. -1.
       -4    1    3    3    0  502 -0.14630105139E+04 -0.10813622897E+04  0.11862719378E+04  0.21718625391E+04  0.12699999809E+01 0.  1.
</event>
<event>
 5   0  0.2205204E-07  0.3820650E+04  0.7818609E-02  0.8041738E-01
        2   -1    0    0  501    0  0.00000000000E+00  0.00000000000E+00  0.11975101727E+04  0.11975101727E+04  0.25500000920E-02 0.  1.
       -2   -1    0    0    0  501  0.00000000000E+00  0.00000000000E+00 -0.30474414223E+04  0.30474414223E+04  0.25500000920E-02 0. -1.
    10030    2    1    2    0    0  0.00000000000E+00  0.00000000000E+00 -0.18499312496E+04  0.42449515949E+04  0.38206502608E+04 0.  0.
        2    1    3    3  502    0  0.11402888356E+04  0.90313131102E+03 -0.23008073329E+04  0.27220615674E+04  0.25500000920E-02 0. -1.
       -2    1    3    3    0  502 -0.11402888356E+04 -0.90313131102E+03  0.45087608332E+03  0.15228900275E+04  0.25500000920E-02 0.  1.
</event>
<event>
 5   0  0.2081337E-07  0.3829808E+04  0.7818609E-02  0.8039788E-01
       -2   -1    0    0    0  501  0.00000000000E+00  0.00000000000E+00  0.21076227841E+04  0.21076227841E+04  0.25500000920E-02 0.  1.
        2   -1    0    0  501    0  0.00000000000E+00  0.00000000000E+00 -0.17398074802E+04  0.17398074802E+04  0.25500000920E-02 0. -1.
    10030    2    1    2    0    0  0.00000000000E+00  0.00000000000E+00  0.36781530391E+03  0.38474302644E+04  0.38298082904E+04 0.  0.
        1    1    3    3  502    0  0.52071138489E+03 -0.93471011563E+03  0.17793063631E+04  0.20762356515E+04  0.50400001928E-02 0.  1.
       -1    1    3    3    0  502 -0.52071138489E+03  0.93471011563E+03 -0.14114910592E+04  0.17711946129E+04  0.50400001928E-02 0. -1.
</event>
<event>
 5   0  0.2081337E-07  0.3804839E+04  0.7818609E-02  0.8045117E-01
       -2   -1    0    0    0  501  0.00000000000E+00  0.00000000000E+00  0.16486954950E+04  0.16486954950E+04  0.25500000920E-02 0. -1.
        2   -1    0    0  501    0  0.00000000000E+00  0.00000000000E+00 -0.21951901462E+04  0.21951901462E+04  0.25500000920E-02 0.  1.
    10030    2    1    2    0    0  0.00000000000E+00  0.00000000000E+00 -0.54649465125E+03  0.38438856412E+04  0.38048390792E+04 0.  0.
        1    1    3    3  502    0 -0.13438995647E+04 -0.13338711620E+04 -0.87178535939E+02  0.18954889643E+04  0.50400001928E-02 0.  1.
       -1    1    3    3    0  502  0.13438995647E+04  0.13338711620E+04 -0.45931611531E+03  0.19483966769E+04  0.50400001928E-02 0. -1.
</event>
<event>
 5   0  0.1370688E-07  0.3778455E+04  0.7818609E-02  0.8050794E-01
       -2   -1    0    0    0  501  0.00000000000E+00  0.00000000000E+00  0.21162902128E+04  0.21162902128E+04  0.25500000920E-02 0. -1.
        2   -1    0    0  501    0  0.00000000000E+00  0.00000000000E+00 -0.16865270437E+04  0.16865270437E+04  0.25500000920E-02 0.  1.
    10030    2    1    2    0    0  0.00000000000E+00  0.00000000000E+00  0.42976316910E+03  0.38028172566E+04  0.37784550686E+04 0.  0.
        5    1    3    3  502    0  0.14841687720E+04  0.21320259278E+03  0.13716163134E+04  0.20321332856E+04  0.46999998093E+01 0. -1.
       -5    1    3    3    0  502 -0.14841687720E+04 -0.21320259278E+03 -0.94185314429E+03  0.17706839709E+04  0.46999998093E+01 0.  1.
</event>
<event>
 5   0  0.1370688E-07  0.3736150E+04  0.7818609E-02  0.8059998E-01
       -2   -1    0    0    0  501  0.00000000000E+00  0.00000000000E+00  0.18642075377E+04  0.18642075377E+04  0.25500000920E-02 0. -1.
        2   -1    0    0  501    0  0.00000000000E+00  0.00000000000E+00 -0.18719501622E+04  0.18719501622E+04  0.25500000920E-02 0.  1.
    10030    2    1    2    0    0  0.00000000000E+00  0.00000000000E+00 -0.77426245792E+01  0.37361576999E+04  0.37361496772E+04 0.  0.
        5    1    3    3  502    0  0.96531432756E+02 -0.53871100823E+03  0.17822326447E+04  0.18643774183E+04  0.46999998093E+01 0. -1.
       -5    1    3    3    0  502 -0.96531432756E+02  0.53871100823E+03 -0.17899752693E+04  0.18717802816E+04  0.46999998093E+01 0.  1.
</event>
<event>
 5   0  0.6661000E-08  0.3805460E+04  0.7818609E-02  0.8044984E-01
       -1   -1    0    0    0  501  0.00000000000E+00  0.00000000000E+00  0.14166430767E+04  0.14166430768E+04  0.50400001928E-02 0.  1.
        1   -1    0    0  501    0  0.00000000000E+00  0.00000000000E+00 -0.25556053033E+04  0.25556053033E+04  0.50400001928E-02 0. -1.
    10030    2    1    2    0    0  0.00000000000E+00  0.00000000000E+00 -0.11389622266E+04  0.39722483801E+04  0.38054595307E+04 0.  0.
        4    1    3    3  502    0 -0.45553755479E+03  0.94959284810E+03  0.10846295858E+04  0.15118412589E+04  0.12699999809E+01 0.  1.
       -4    1    3    3    0  502  0.45553755479E+03 -0.94959284810E+03 -0.22235918123E+04  0.24604071212E+04  0.12699999809E+01 0. -1.
</event>
<event>
 5   0  0.6661000E-08  0.3805731E+04  0.7818609E-02  0.8044926E-01
        1   -1    0    0  501    0  0.00000000000E+00  0.00000000000E+00  0.22419180283E+04  0.22419180283E+04  0.50400001928E-02 0. -1.
       -1   -1    0    0    0  501  0.00000000000E+00  0.00000000000E+00 -0.16150893401E+04  0.16150893401E+04  0.50400001928E-02 0.  1.
    10030    2    1    2    0    0  0.00000000000E+00  0.00000000000E+00  0.62682868824E+03  0.38570073684E+04  0.38057314193E+04 0.  0.
        1    1    3    3  502    0  0.25992475143E+03  0.95540194734E+03 -0.13334546368E+04  0.16608597249E+04  0.50400001928E-02 0.  1.
       -1    1    3    3    0  502 -0.25992475143E+03 -0.95540194734E+03  0.19602833251E+04  0.21961476435E+04  0.50400001928E-02 0. -1.
</event>
<event>
 5   0  0.6661000E-08  0.3758213E+04  0.7818609E-02  0.8055182E-01
       -1   -1    0    0    0  501  0.00000000000E+00  0.00000000000E+00  0.18614091428E+04  0.18614091429E+04  0.50400001928E-02 0.  1.
        1   -1    0    0  501    0  0.00000000000E+00  0.00000000000E+00 -0.18969719036E+04  0.18969719036E+04  0.50400001928E-02 0. -1.
    10030    2    1    2    0    0  0.00000000000E+00  0.00000000000E+00 -0.35562760739E+02  0.37583810464E+04  0.37582127907E+04 0.  0.
        1    1    3    3  502    0 -0.30816186970E+03 -0.12764949622E+04 -0.13619537983E+04  0.18919094257E+04  0.50400001928E-02 0. -1.
       -1    1    3    3    0  502  0.30816186970E+03  0.12764949622E+04  0.13263910376E+04  0.18664716207E+04  0.50400001928E-02 0.  1.
</event>
<event>
 5   0  0.1370688E-07  0.3798304E+04  0.7818609E-02  0.8046519E-01
        2   -1    0    0  501    0  0.00000000000E+00  0.00000000000E+00  0.20663929129E+04  0.20663929129E+04  0.25500000920E-02 0.  1.
       -2   -1    0    0    0  501  0.00000000000E+00  0.00000000000E+00 -0.17454468625E+04  0.17454468625E+04  0.25500000920E-02 0. -1.
    10030    2    1    2    0    0  0.00000000000E+00  0.00000000000E+00  0.32094605047E+03  0.38118397754E+04  0.37983043725E+04 0.  0.
        5    1    3    3  502    0  0.18638679796E+04 -0.33584773874E+03  0.30225416989E+03  0.19178574562E+04  0.46999998093E+01 0.  1.
       -5    1    3    3    0  502 -0.18638679796E+04  0.33584773874E+03  0.18691880580E+02  0.18939823192E+04  0.46999998093E+01 0. -1.
</event>
<event>
 5   0  0.6661000E-08  0.3775277E+04  0.7818609E-02  0.8051481E-01
       -1   -1    0    0    0  501  0.00000000000E+00  0.00000000000E+00  0.22307332395E+04  0.22307332395E+04  0.50400001928E-02 0. -1.
        1   -1    0    0  501    0  0.00000000000E+00  0.00000000000E+00 -0.15973129571E+04  0.15973129571E+04  0.50400001928E-02 0.  1.
    10030    2    1    2    0    0  0.00000000000E+00  0.00000000000E+00  0.63342028232E+03  0.38280461966E+04  0.37752770003E+04 0.  0.
        1    1    3    3  502    0 -0.14958708576E+04  0.10020837885E+04  0.89153577412E+03  0.20091385165E+04  0.50400001928E-02 0. -1.
       -1    1    3    3    0  502  0.14958708576E+04 -0.10020837885E+04 -0.25811549180E+03  0.18189076801E+04  0.50400001928E-02 0.  1.
</event>
<event>
 5   0  0.2203998E-07  0.3795235E+04  0.7818609E-02  0.8047178E-01
        2   -1    0    0  501    0  0.00000000000E+00  0.00000000000E+00  0.24623081166E+04  0.24623081166E+04  0.25500000920E-02 0. -1.
       -2   -1    0    0    0  501  0.00000000000E+00  0.00000000000E+00 -0.14624294032E+04  0.14624294032E+04  0.25500000920E-02 0.  1.
    10030    2    1    2    0    0  0.00000000000E+00  0.00000000000E+00  0.99987871338E+03  0.39247375199E+04  0.37952347962E+04 0.  0.
        3    1    3    3  502    0  0.98843430008E+03  0.59097813929E+02 -0.11740799998E+04  0.15358902217E+04  0.10100000352E+00 0.  1.
       -3    1    3    3    0  502 -0.98843430008E+03 -0.59097813929E+02  0.21739587131E+04  0.23888472981E+04  0.10100000352E+00 0. -1.
</event>
<event>
 5   0  0.6661000E-08  0.3802559E+04  0.7818609E-02  0.8045606E-01
        1   -1    0    0  501    0  0.00000000000E+00  0.00000000000E+00  0.19079954996E+04  0.19079954996E+04  0.50400001928E-02 0.  1.
       -1   -1    0    0    0  501  0.00000000000E+00  0.00000000000E+00 -0.18945870808E+04  0.18945870808E+04  0.50400001928E-02 0. -1.
    10030    2    1    2    0    0  0.00000000000E+00  0.00000000000E+00  0.13408418822E+02  0.38025825804E+04  0.38025589404E+04 0.  0.
        1    1    3    3  502    0 -0.17211617958E+03 -0.14032132530E+04 -0.12646149115E+04  0.18968084476E+04  0.50400001928E-02 0. -1.
       -1    1    3    3    0  502  0.17211617958E+03  0.14032132530E+04  0.12780233303E+04  0.19057741328E+04  0.50400001928E-02 0.  1.
</event>
<event>
 5   0  0.2135314E-07  0.3800737E+04  0.7818609E-02  0.8045997E-01
       -2   -1    0    0    0  501  0.00000000000E+00  0.00000000000E+00  0.28993916099E+04  0.28993916099E+04  0.25500000920E-02 0. -1.
        2   -1    0    0  501    0  0.00000000000E+00  0.00000000000E+00 -0.12455719720E+04  0.12455719720E+04  0.25500000920E-02 0.  1.
    10030    2    1    2    0    0  0.00000000000E+00  0.00000000000E+00  0.16538196379E+04  0.41449635820E+04  0.38007372576E+04 0.  0.
        4    1    3    3  502    0 -0.12522722187E+04  0.77215125808E+03 -0.48494731654E+03  0.15490573869E+04  0.12699999809E+01 0.  1.
       -4    1    3    3    0  502  0.12522722187E+04 -0.77215125808E+03  0.21387669545E+04  0.25959061951E+04  0.12699999809E+01 0. -1.
</event>
<event>
 5   0  0.2203998E-07  0.3800479E+04  0.7818609E-02  0.8046052E-01
        2   -1    0    0  501    0  0.00000000000E+00  0.00000000000E+00  0.32887897547E+04  0.32887897547E+04  0.25500000920E-02 0. -1.
       -2   -1    0    0    0  501  0.00000000000E+00  0.00000000000E+00 -0.10979449346E+04  0.10979449346E+04  0.25500000920E-02 0.  1.
    10030    2    1    2    0    0  0.00000000000E+00  0.00000000000E+00  0.21908448201E+04  0.43867346893E+04  0.38004789447E+04 0.  0.
        3    1    3    3  502    0 -0.34749997298E+03 -0.17325532649E+04  0.19020937800E+04  0.25962391656E+04  0.10100000352E+00 0. -1.
       -3    1    3    3    0  502  0.34749997298E+03  0.17325532649E+04  0.28875104005E+03  0.17904955237E+04  0.10100000352E+00 0.  1.
</event>
<event>
 5   0  0.2205204E-07  0.3769602E+04  0.7818609E-02  0.8052710E-01
       -2   -1    0    0    0  501  0.00000000000E+00  0.00000000000E+00  0.26294412814E+04  0.26294412814E+04  0.25500000920E-02 0.  1.
        2   -1    0    0  501    0  0.00000000000E+00  0.00000000000E+00 -0.13510380646E+04  0.13510380646E+04  0.25500000920E-02 0. -1.
    10030    2    1    2    0    0  0.00000000000E+00  0.00000000000E+00  0.12784032169E+04  0.39804793460E+04  0.37696022388E+04 0.  0.
        2    1    3    3  502    0 -0.20477806489E+03 -0.99410037796E+03 -0.10378201747E+04  0.14516336771E+04  0.25500000920E-02 0. -1.
       -2    1    3    3    0  502  0.20477806489E+03  0.99410037796E+03  0.23162233916E+04  0.25288456689E+04  0.25500000920E-02 0.  1.
</event>
<event>
 5   0  0.6725199E-08  0.3810138E+04  0.7818609E-02  0.8043983E-01
       -1   -1    0    0    0  501  0.00000000000E+00  0.00000000000E+00  0.26468305616E+04  0.26468305616E+04  0.50400001928E-02 0. -1.
        1   -1    0    0  501    0  0.00000000000E+00  0.00000000000E+00 -0.13711827442E+04  0.13711827442E+04  0.50400001928E-02 0.  1.
    10030    2    1    2    0    0  0.00000000000E+00  0.00000000000E+00  0.12756478174E+04  0.40180133058E+04  0.38101382615E+04 0.  0.
        5    1    3    3  502    0  0.11924468191E+04 -0.10121647476E+04  0.17847546668E+04  0.23731367856E+04  0.46999998093E+01 0. -1.
       -5    1    3    3    0  502 -0.11924468191E+04  0.10121647476E+04 -0.50910684942E+03  0.16448765202E+04  0.46999998093E+01 0.  1.
</event>
<event>
 5   0  0.6661000E-08  0.3716720E+04  0.7818609E-02  0.8064266E-01
       -1   -1    0    0    0  501  0.00000000000E+00  0.00000000000E+00  0.19267167644E+04  0.19267167644E+04  0.50400001928E-02 0.  1.
        1   -1    0    0  501    0  0.00000000000E+00  0.00000000000E+00 -0.17924287201E+04  0.17924287201E+04  0.50400001928E-02 0. -1.
    10030    2    1    2    0    0  0.00000000000E+00  0.00000000000E+00  0.13428804436E+03  0.37191454845E+04  0.37167203091E+04 0.  0.
        1    1    3    3  502    0 -0.48198832785E+03  0.65435226148E+03  0.17394654410E+04  0.19199556377E+04  0.50400001928E-02 0.  1.
       -1    1    3    3    0  502  0.48198832785E+03 -0.65435226148E+03 -0.16051773966E+04  0.17991898468E+04  0.50400001928E-02 0. -1.
</event>
<event>
 5   0  0.2081337E-07  0.4219443E+04  0.7818609E-02  0.7961684E-01
       -2   -1    0    0    0  501  0.00000000000E+00  0.00000000000E+00  0.25090282646E+04  0.25090282646E+04  0.25500000920E-02 0. -1.
        2   -1    0    0  501    0  0.00000000000E+00  0.00000000000E+00 -0.17739635118E+04  0.17739635118E+04  0.25500000920E-02 0.  1.
    10030    2    1    2    0    0  0.00000000000E+00  0.00000000000E+00  0.73506475278E+03  0.42829917764E+04  0.42194428976E+04 0.  0.
        1    1    3    3  502    0 -0.17929078986E+04 -0.81732970684E+03 -0.39773070077E+03  0.20101582756E+04  0.50400001928E-02 0.  1.
       -1    1    3    3    0  502  0.17929078986E+04  0.81732970684E+03  0.11327954536E+04  0.22728335008E+04  0.50400001928E-02 0. -1.
</event>
<event>
 5   0  0.2135314E-07  0.3794206E+04  0.7818609E-02  0.8047399E-01
        2   -1    0    0  501    0  0.00000000000E+00  0.00000000000E+00  0.18088624218E+04  0.18088624218E+04  0.25500000920E-02 0.  1.
       -2   -1    0    0    0  501  0.00000000000E+00  0.00000000000E+00 -0.19896481935E+04  0.19896481935E+04  0.25500000920E-02 0. -1.
    10030    2    1    2    0    0  0.00000000000E+00  0.00000000000E+00 -0.18078577171E+03  0.37985106153E+04  0.37942060302E+04 0.  0.
        4    1    3    3  502    0  0.20584977783E+03  0.15540717099E+04  0.97922235366E+03  0.18483481927E+04  0.12699999809E+01 0.  1.
       -4    1    3    3    0  502 -0.20584977783E+03 -0.15540717099E+04 -0.11600081254E+04  0.19501624226E+04  0.12699999809E+01 0. -1.
</event>
<event>
 5   0  0.1370688E-07  0.3788476E+04  0.7818609E-02  0.8048632E-01
       -2   -1    0    0    0  501  0.00000000000E+00  0.00000000000E+00  0.13319020045E+04  0.13319020045E+04  0.25500000920E-02 0. -1.
        2   -1    0    0  501    0  0.00000000000E+00  0.00000000000E+00 -0.26939948538E+04  0.26939948538E+04  0.25500000920E-02 0.  1.
    10030    2    1    2    0    0  0.00000000000E+00  0.00000000000E+00 -0.13620928493E+04  0.40258968583E+04  0.37884757599E+04 0.  0.
        5    1    3    3  502    0  0.22813988326E+03  0.18070417379E+04 -0.12339076254E+04  0.21999994925E+04  0.46999998093E+01 0.  1.
       -5    1    3    3    0  502 -0.22813988326E+03 -0.18070417379E+04 -0.12818522392E+03  0.18258973658E+04  0.46999998093E+01 0. -1.
</event>
<event>
 5   0  0.2203998E-07  0.3795859E+04  0.7818609E-02  0.8047044E-01
        2   -1    0    0  501    0  0.00000000000E+00  0.00000000000E+00  0.29912214883E+04  0.29912214883E+04  0.25500000920E-02 0. -1.
       -2   -1    0    0    0  501  0.00000000000E+00  0.00000000000E+00 -0.12042358894E+04  0.12042358894E+04  0.25500000920E-02 0.  1.
    10030    2    1    2    0    0  0.00000000000E+00  0.00000000000E+00  0.17869855989E+04  0.41954573777E+04  0.37958589380E+04 0.  0.
        3    1    3    3  502    0 -0.20140533643E+03  0.93672241260E+03  0.27042927640E+04  0.28690089494E+04  0.10100000352E+00 0. -1.
       -3    1    3    3    0  502  0.20140533643E+03 -0.93672241260E+03 -0.91730716508E+03  0.13264484284E+04  0.10100000352E+00 0.  1.
</event>
<event>
 5   0  0.2135314E-07  0.3791941E+04  0.7818609E-02  0.8047887E-01
       -2   -1    0    0    0  501  0.00000000000E+00  0.00000000000E+00  0.15805644589E+04  0.15805644589E+04  0.25500000920E-02 0.  1.
        2   -1    0    0  501    0  0.00000000000E+00  0.00000000000E+00 -0.22743164615E+04  0.22743164615E+04  0.25500000920E-02 0. -1.
    10030    2    1    2    0    0  0.00000000000E+00  0.00000000000E+00 -0.69375200257E+03  0.38548809204E+04  0.37919408051E+04 0.  0.
        4    1    3    3  502    0  0.75881795289E+03 -0.42934018450E+03  0.13646858100E+04  0.16194155280E+04  0.12699999809E+01 0.  1.
       -4    1    3    3    0  502 -0.75881795289E+03  0.42934018450E+03 -0.20584378125E+04  0.22354653924E+04  0.12699999809E+01 0. -1.
</event>
<event>
 5   0  0.6725199E-08  0.3784720E+04  0.7818609E-02  0.8049442E-01
       -1   -1    0    0    0  501  0.00000000000E+00  0.00000000000E+00  0.19509379237E+04  0.19509379237E+04  0.50400001928E-02 0.  1.
        1   -1    0    0  501    0  0.00000000000E+00  0.00000000000E+00 -0.18355405583E+04  0.18355405583E+04  0.50400001928E-02 0. -1.
    10030    2    1    2    0    0  0.00000000000E+00  0.00000000000E+00  0.11539736535E+03  0.37864784820E+04  0.37847196386E+04 0.  0.
        5    1    3    3  502    0  0.92160416437E+03 -0.16279288302E+04  0.34330829105E+03  0.19019435282E+04  0.46999998093E+01 0.  1.
       -5    1    3    3    0  502 -0.92160416437E+03  0.16279288302E+04 -0.22791092570E+03  0.18845349538E+04  0.46999998093E+01 0. -1.
</event>
<event>
 5   0  0.6661000E-08  0.3793166E+04  0.7818609E-02  0.8047623E-01
       -1   -1    0    0    0  501  0.00000000000E+00  0.00000000000E+00  0.16782250052E+04  0.16782250052E+04  0.50400001928E-02 0. -1.
        1   -1    0    0  501    0  0.00000000000E+00  0.00000000000E+00 -0.21433523827E+04  0.21433523827E+04  0.50400001928E-02 0.  1.
    10030    2    1    2    0    0  0.00000000000E+00  0.00000000000E+00 -0.46512737750E+03  0.38215773879E+04  0.37931662572E+04 0.  0.
        2    1    3    3  502    0 -0.13250578533E+04  0.12847142268E+04 -0.67259425799E+03  0.19643451823E+04  0.25500000920E-02 0.  1.
       -2    1    3    3    0  502  0.13250578533E+04 -0.12847142268E+04  0.20746688049E+03  0.18572322057E+04  0.25500000920E-02 0. -1.
</event>
<event>
 5   0  0.6661000E-08  0.3790699E+04  0.7818609E-02  0.8048154E-01
       -3   -1    0    0    0  501  0.00000000000E+00  0.00000000000E+00  0.11969591420E+04  0.11969591463E+04  0.10100000352E+00 0. -1.
        3   -1    0    0  501    0  0.00000000000E+00  0.00000000000E+00 -0.30012305966E+04  0.30012305983E+04  0.10100000352E+00 0.  1.
    10030    2    1    2    0    0  0.00000000000E+00  0.00000000000E+00 -0.18042714546E+04  0.41981897447E+04  0.37906993616E+04 0.  0.
        3    1    3    3  502    0 -0.19572746809E+03 -0.94504862781E+02  0.11831116249E+04  0.12029104447E+04  0.10100000352E+00 0. -1.
       -3    1    3    3    0  502  0.19572746809E+03  0.94504862781E+02 -0.29873830795E+04  0.29952792999E+04  0.10100000352E+00 0.  1.
</event>
<event>
 5   0  0.2135314E-07  0.3785034E+04  0.7818609E-02  0.8049374E-01
        2   -1    0    0  501    0  0.00000000000E+00  0.00000000000E+00  0.19231712883E+04  0.19231712883E+04  0.25500000920E-02 0. -1.
       -2   -1    0    0    0  501  0.00000000000E+00  0.00000000000E+00 -0.18623512256E+04  0.18623512256E+04  0.25500000920E-02 0.  1.
    10030    2    1    2    0    0  0.00000000000E+00  0.00000000000E+00  0.60820062720E+02  0.37855225139E+04  0.37850338999E+04 0.  0.
        4    1    3    3  502    0  0.83640399609E+03 -0.15223438742E+04 -0.72102994259E+03  0.18806882535E+04  0.12699999809E+01 0.  1.
       -4    1    3    3    0  502 -0.83640399609E+03  0.15223438742E+04  0.78185000531E+03  0.19048342604E+04  0.12699999809E+01 0. -1.
</event>
<event>
 5   0  0.2203998E-07  0.3809865E+04  0.7818609E-02  0.8044041E-01
       -2   -1    0    0    0  501  0.00000000000E+00  0.00000000000E+00  0.12821570194E+04  0.12821570194E+04  0.25500000920E-02 0. -1.
        2   -1    0    0  501    0  0.00000000000E+00  0.00000000000E+00 -0.28302051236E+04  0.28302051236E+04  0.25500000920E-02 0.  1.
    10030    2    1    2    0    0  0.00000000000E+00  0.00000000000E+00 -0.15480481042E+04  0.41123621430E+04  0.38098647564E+04 0.  0.
        3    1    3    3  502    0 -0.15306211146E+04  0.56117337275E+01  0.45000374162E+03  0.15954108767E+04  0.10100000352E+00 0. -1.
       -3    1    3    3    0  502  0.15306211146E+04 -0.56117337275E+01 -0.19980518458E+04  0.25169512663E+04  0.10100000352E+00 0.  1.
</event>
<event>
 5   0  0.6725199E-08  0.3788393E+04  0.7818609E-02  0.8048650E-01
        1   -1    0    0  501    0  0.00000000000E+00  0.00000000000E+00  0.17406972235E+04  0.17406972235E+04  0.50400001928E-02 0.  1.
       -1   -1    0    0    0  501  0.00000000000E+00  0.00000000000E+00 -0.20612321089E+04  0.20612321090E+04  0.50400001928E-02 0. -1.
    10030    2    1    2    0    0  0.00000000000E+00  0.00000000000E+00 -0.32053488545E+03  0.38019293325E+04  0.37883933318E+04 0.  0.
        5    1    3    3  502    0 -0.16611583373E+04 -0.86771405584E+02  0.74905091427E+03  0.18243014171E+04  0.46999998093E+01 0.  1.
       -5    1    3    3    0  502  0.16611583373E+04  0.86771405584E+02 -0.10695857997E+04  0.19776279153E+04  0.46999998093E+01 0. -1.
</event>
<event>
 5   0  0.2205204E-07  0.3794571E+04  0.7818609E-02  0.8047321E-01
        2   -1    0    0  501    0  0.00000000000E+00  0.00000000000E+00  0.22988371172E+04  0.22988371172E+04  0.25500000920E-02 0. -1.
       -2   -1    0    0    0  501  0.00000000000E+00  0.00000000000E+00 -0.15658752040E+04  0.15658752040E+04  0.25500000920E-02 0.  1.
    10030    2    1    2    0    0  0.00000000000E+00  0.00000000000E+00  0.73296191317E+03  0.38647123212E+04  0.37945708795E+04 0.  0.
        2    1    3    3  502    0  0.35146348123E+03 -0.14485450771E+04  0.15620113279E+04  0.21590944416E+04  0.25500000920E-02 0. -1.
       -2    1    3    3    0  502 -0.35146348123E+03  0.14485450771E+04 -0.82904941477E+03  0.17056178796E+04  0.25500000920E-02 0.  1.
</event>
<event>
 5   0  0.2135314E-07  0.3806431E+04  0.7818609E-02  0.8044776E-01
        2   -1    0    0  501    0  0.00000000000E+00  0.00000000000E+00  0.15991286070E+04  0.15991286070E+04  0.25500000920E-02 0.  1.
       -2   -1    0    0    0  501  0.00000000000E+00  0.00000000000E+00 -0.22651266050E+04  0.22651266050E+04  0.25500000920E-02 0. -1.
    10030    2    1    2    0    0  0.00000000000E+00  0.00000000000E+00 -0.66599799794E+03  0.38642552120E+04  0.38064307442E+04 0.  0.
        4    1    3    3  502    0  0.54486091045E+03  0.17688562709E+03 -0.21755264400E+04  0.22496841647E+04  0.12699999809E+01 0. -1.
       -4    1    3    3    0  502 -0.54486091045E+03 -0.17688562709E+03  0.15095284420E+04  0.16145710474E+04  0.12699999809E+01 0.  1.
</event>
<event>
 5   0  0.6661000E-08  0.3808162E+04  0.7818609E-02  0.8044406E-01
        1   -1    0    0  501    0  0.00000000000E+00  0.00000000000E+00  0.22879739444E+04  0.22879739444E+04  0.50400001928E-02 0.  1.
       -1   -1    0    0    0  501  0.00000000000E+00  0.00000000000E+00 -0.15846001908E+04  0.15846001909E+04  0.50400001928E-02 0. -1.
    10030    2    1    2    0    0  0.00000000000E+00  0.00000000000E+00  0.70337375358E+03  0.38725741353E+04  0.38081617345E+04 0.  0.
        1    1    3    3  502    0  0.18869052117E+04  0.24904182231E+03  0.29515117951E+03  0.19260185165E+04  0.50400001928E-02 0.  1.
       -1    1    3    3    0  502 -0.18869052117E+04 -0.24904182231E+03  0.40822257407E+03  0.19465556188E+04  0.50400001928E-02 0. -1.
</event>
<event>
 5   0  0.2205204E-07  0.3748408E+04  0.7818609E-02  0.8057318E-01
        2   -1    0    0  501    0  0.00000000000E+00  0.00000000000E+00  0.25664923410E+04  0.25664923410E+04  0.25500000920E-02 0. -1.
       -2   -1    0    0    0  501  0.00000000000E+00  0.00000000000E+00 -0.13686539637E+04  0.13686539637E+04  0.25500000920E-02 0.  1.
    10030    2    1    2    0    0  0.00000000000E+00  0.00000000000E+00  0.11978383772E+04  0.39351463047E+04  0.37484076168E+04 0.  0.
        2    1    3    3  502    0 -0.43417724822E+03 -0.36450296457E+03  0.24743268457E+04  0.25384376363E+04  0.25500000920E-02 0. -1.
       -2    1    3    3    0  502  0.43417724822E+03  0.36450296457E+03 -0.12764884685E+04  0.13967086684E+04  0.25500000920E-02 0.  1.
</event>
<event>
 5   0  0.6725199E-08  0.3786750E+04  0.7818609E-02  0.8049004E-01
       -1   -1    0    0    0  501  0.00000000000E+00  0.00000000000E+00  0.25402115805E+04  0.25402115805E+04  0.50400001928E-02 0. -1.
        1   -1    0    0  501    0  0.00000000000E+00  0.00000000000E+00 -0.14112481449E+04  0.14112481449E+04  0.50400001928E-02 0.  1.
    10030    2    1    2    0    0  0.00000000000E+00  0.00000000000E+00  0.11289634356E+04  0.39514597254E+04  0.37867499948E+04 0.  0.
        5    1    3    3  502    0  0.15643687336E+04 -0.71313820871E+03  0.13920941446E+04  0.22121853080E+04  0.46999998093E+01 0. -1.
       -5    1    3    3    0  502 -0.15643687336E+04  0.71313820871E+03 -0.26313070904E+03  0.17392744175E+04  0.46999998093E+01 0.  1.
</event>
<event>
 5   0  0.6661000E-08  0.3788783E+04  0.7818609E-02  0.8048566E-01
       -3   -1    0    0    0  501  0.00000000000E+00  0.00000000000E+00  0.17587616091E+04  0.17587616120E+04  0.10100000352E+00 0. -1.
        3   -1    0    0  501    0  0.00000000000E+00  0.00000000000E+00 -0.20404808613E+04  0.20404808638E+04  0.10100000352E+00 0.  1.
    10030    2    1    2    0    0  0.00000000000E+00  0.00000000000E+00 -0.28171925220E+03  0.37992424758E+04  0.37887831362E+04 0.  0.
        4    1    3    3  502    0  0.69171138132E+03  0.97219964229E+03 -0.16163430705E+04  0.20090304413E+04  0.12699999809E+01 0.  1.
       -4    1    3    3    0  502 -0.69171138132E+03 -0.97219964229E+03  0.13346238183E+04  0.17902120346E+04  0.12699999809E+01 0. -1.
</event>
<event>
 5   0  0.6661000E-08  0.3830031E+04  0.7818609E-02  0.8039741E-01
       -1   -1    0    0    0  501  0.00000000000E+00  0.00000000000E+00  0.13842260906E+04  0.13842260906E+04  0.50400001928E-02 0. -1.
        1   -1    0    0  501    0  0.00000000000E+00  0.00000000000E+00 -0.26493397741E+04  0.26493397741E+04  0.50400001928E-02 0.  1.
    10030    2    1    2    0    0  0.00000000000E+00  0.00000000000E+00 -0.12651136835E+04  0.40335658648E+04  0.38300314559E+04 0.  0.
        1    1    3    3  502    0 -0.84314019639E+03  0.17193907436E+04 -0.62227490983E+03  0.20135580408E+04  0.50400001928E-02 0. -1.
       -1    1    3    3    0  502  0.84314019639E+03 -0.17193907436E+04 -0.64283877363E+03  0.20200078240E+04  0.50400001928E-02 0.  1.
</event>
<event>
 5   0  0.1370688E-07  0.3369088E+04  0.7818609E-02  0.8145535E-01
        2   -1    0    0  501    0  0.00000000000E+00  0.00000000000E+00  0.13630393722E+04  0.13630393723E+04  0.25500000920E-02 0.  1.
       -2   -1    0    0    0  501  0.00000000000E+00  0.00000000000E+00 -0.20818835116E+04  0.20818835116E+04  0.25500000920E-02 0. -1.
    10030    2    1    2    0    0  0.00000000000E+00  0.00000000000E+00 -0.71884413935E+03  0.34449228839E+04  0.33690884196E+04 0.  0.
        5    1    3    3  502    0  0.76106858788E+03 -0.13699507773E+04  0.27228370932E+03  0.15906448491E+04  0.46999998093E+01 0. -1.
       -5    1    3    3    0  502 -0.76106858788E+03  0.13699507773E+04 -0.99112784867E+03  0.18542780347E+04  0.46999998093E+01 0.  1.
</event>
<event>
 5   0  0.6725199E-08  0.3801085E+04  0.7818609E-02  0.8045922E-01
       -1   -1    0    0    0  501  0.00000000000E+00  0.00000000000E+00  0.12182129735E+04  0.12182129735E+04  0.50400001928E-02 0. -1.
        1   -1    0    0  501    0  0.00000000000E+00  0.00000000000E+00 -0.29650492615E+04  0.29650492615E+04  0.50400001928E-02 0.  1.
    10030    2    1    2    0    0  0.00000000000E+00  0.00000000000E+00 -0.17468362879E+04  0.41832622350E+04  0.38010848333E+04 0.  0.
        5    1    3    3  502    0 -0.45310691734E+03  0.21515380305E+03  0.11440456626E+04  0.12491835756E+04  0.46999998093E+01 0. -1.
       -5    1    3    3    0  502  0.45310691734E+03 -0.21515380305E+03 -0.28908819505E+04  0.29340786594E+04  0.46999998093E+01 0.  1.
</event>
<event>
 5   0  0.2203998E-07  0.3812816E+04  0.7818609E-02  0.8043410E-01
       -2   -1    0    0    0  501  0.00000000000E+00  0.00000000000E+00  0.11861778683E+04  0.11861778683E+04  0.25500000920E-02 0. -1.
        2   -1    0    0  501    0  0.00000000000E+00  0.00000000000E+00 -0.30639512876E+04  0.30639512876E+04  0.25500000920E-02 0.  1.
    10030    2    1    2    0    0  0.00000000000E+00  0.00000000000E+00 -0.18777734193E+04  0.42501291559E+04  0.38128158660E+04 0.  0.
        3    1    3    3  502    0  0.93818389186E+03 -0.15324613551E+04 -0.22882964284E+03  0.18113502796E+04  0.10100000352E+00 0. -1.
       -3    1    3    3    0  502 -0.93818389186E+03  0.15324613551E+04 -0.16489437764E+04  0.24387788764E+04  0.10100000352E+00 0.  1.
</event>
<event>
 5   0  0.6661000E-08  0.3785293E+04  0.7818609E-02  0.8049318E-01
       -1   -1    0    0    0  501  0.00000000000E+00  0.00000000000E+00  0.12391595331E+04  0.12391595331E+04  0.50400001928E-02 0.  1.
        1   -1    0    0  501    0  0.00000000000E+00  0.00000000000E+00 -0.28907584201E+04  0.28907584201E+04  0.50400001928E-02 0. -1.
    10030    2    1    2    0    0  0.00000000000E+00  0.00000000000E+00 -0.16515988870E+04  0.41299179533E+04  0.37852930424E+04 0.  0.
        4    1    3    3  502    0 -0.14962159109E+04 -0.83252592860E+03 -0.17056618137E+04  0.24168254611E+04  0.12699999809E+01 0. -1.
       -4    1    3    3    0  502  0.14962159109E+04  0.83252592860E+03  0.54062926655E+02  0.17130924922E+04  0.12699999809E+01 0.  1.
</event>
<event>
 5   0  0.6661000E-08  0.3728869E+04  0.7818609E-02  0.8061594E-01
       -1   -1    0    0    0  501  0.00000000000E+00  0.00000000000E+00  0.15614578761E+04  0.15614578761E+04  0.50400001928E-02 0. -1.
        1   -1    0    0  501    0  0.00000000000E+00  0.00000000000E+00 -0.22261993336E+04  0.22261993336E+04  0.50400001928E-02 0.  1.
    10030    2    1    2    0    0  0.00000000000E+00  0.00000000000E+00 -0.66474145748E+03  0.37876572097E+04  0.37288692566E+04 0.  0.
        3    1    3    3  502    0 -0.13273193147E+03  0.15646437903E+04 -0.13533988704E+04  0.20730210971E+04  0.10100000352E+00 0.  1.
       -3    1    3    3    0  502  0.13273193147E+03 -0.15646437903E+04  0.68865741291E+03  0.17146361127E+04  0.10100000352E+00 0. -1.
</event>
<event>
 5   0  0.2203998E-07  0.3810389E+04  0.7818609E-02  0.8043929E-01
        2   -1    0    0  501    0  0.00000000000E+00  0.00000000000E+00  0.21192545830E+04  0.21192545830E+04  0.25500000920E-02 0.  1.
       -2   -1    0    0    0  501  0.00000000000E+00  0.00000000000E+00 -0.17127563022E+04  0.17127563022E+04  0.25500000920E-02 0. -1.
    10030    2    1    2    0    0  0.00000000000E+00  0.00000000000E+00  0.40649828079E+03  0.38320108852E+04  0.38103892940E+04 0.  0.
        3    1    3    3  502    0  0.12197355998E+04 -0.35999257990E+03 -0.12233973719E+04  0.17646673144E+04  0.10100000352E+00 0. -1.
       -3    1    3    3    0  502 -0.12197355998E+04  0.35999257990E+03  0.16298956527E+04  0.20673435708E+04  0.10100000352E+00 0.  1.
</event>
<event>
 5   0  0.1370688E-07  0.3793231E+04  0.7818609E-02  0.8047609E-01
        2   -1    0    0  501    0  0.00000000000E+00  0.00000000000E+00  0.15450641721E+04  0.15450641721E+04  0.25500000920E-02 0.  1.
       -2   -1    0    0    0  501  0.00000000000E+00  0.00000000000E+00 -0.23281560055E+04  0.23281560055E+04  0.25500000920E-02 0. -1.
    10030    2    1    2    0    0  0.00000000000E+00  0.00000000000E+00 -0.78309183341E+03  0.38732201776E+04  0.37932310403E+04 0.  0.
        5    1    3    3  502    0  0.17272905653E+04 -0.13527361034E+02  0.40817647371E+03  0.17749213533E+04  0.46999998093E+01 0.  1.
       -5    1    3    3    0  502 -0.17272905653E+04  0.13527361034E+02 -0.11912683071E+04  0.20982988243E+04  0.46999998093E+01 0. -1.
</event>
<event>
 5   0  0.1370688E-07  0.3788995E+04  0.7818609E-02  0.8048521E-01
        2   -1    0    0  501    0  0.00000000000E+00  0.00000000000E+00  0.25096885681E+04  0.25096885681E+04  0.25500000920E-02 0.  1.
       -2   -1    0    0    0  501  0.00000000000E+00  0.00000000000E+00 -0.14301059296E+04  0.14301059296E+04  0.25500000920E-02 0. -1.
    10030    2    1    2    0    0  0.00000000000E+00  0.00000000000E+00  0.10795826385E+04  0.39397944977E+04  0.37889948549E+04 0.  0.
        5    1    3    3  502    0  0.97750464952E+03  0.16064995558E+04  0.77858832723E+03  0.20353324141E+04  0.46999998093E+01 0. -1.
       -5    1    3    3    0  502 -0.97750464952E+03 -0.16064995558E+04  0.30099431123E+03  0.19044620836E+04  0.46999998093E+01 0.  1.
</event>
<event>
 5   0  0.6661000E-08  0.3772563E+04  0.7818609E-02  0.8052068E-01
       -1   -1    0    0    0  501  0.00000000000E+00  0.00000000000E+00  0.15060755267E+04  0.15060755267E+04  0.50400001928E-02 0. -1.
        1   -1    0    0  501    0  0.00000000000E+00  0.00000000000E+00 -0.23624703524E+04  0.23624703524E+04  0.50400001928E-02 0.  1.
    10030    2    1    2    0    0  0.00000000000E+00  0.00000000000E+00 -0.85639482570E+03  0.38685458791E+04  0.37725634682E+04 0.  0.
        4    1    3    3  502    0  0.60802887780E+03  0.14899996510E+03  0.13964435659E+04  0.15303451740E+04  0.12699999809E+01 0. -1.
       -4    1    3    3    0  502 -0.60802887780E+03 -0.14899996510E+03 -0.22528383916E+04  0.23382007051E+04  0.12699999809E+01 0.  1.
</event>
<event>
 5   0  0.6725199E-08  0.3778668E+04  0.7818609E-02  0.8050748E-01
       -1   -1    0    0    0  501  0.00000000000E+00  0.00000000000E+00  0.15363443281E+04  0.15363443281E+04  0.50400001928E-02 0. -1.
        1   -1    0    0  501    0  0.00000000000E+00  0.00000000000E+00 -0.23234261156E+04  0.23234261156E+04  0.50400001928E-02 0.  1.
    10030    2    1    2    0    0  0.00000000000E+00  0.00000000000E+00 -0.78708178752E+03  0.38597704437E+04  0.37786677729E+04 0.  0.
        5    1    3    3  502    0  0.18181244589E+04 -0.49193311349E+03 -0.24208262211E+03  0.18989999532E+04  0.46999998093E+01 0. -1.
       -5    1    3    3    0  502 -0.18181244589E+04  0.49193311349E+03 -0.54499916541E+03  0.19607704906E+04  0.46999998093E+01 0.  1.
</event>
<event>
 5   0  0.6661000E-08  0.3797269E+04  0.7818609E-02  0.8046741E-01
       -1   -1    0    0    0  501  0.00000000000E+00  0.00000000000E+00  0.19521104159E+04  0.19521104159E+04  0.50400001928E-02 0.  1.
        1   -1    0    0  501    0  0.00000000000E+00  0.00000000000E+00 -0.18466231470E+04  0.18466231470E+04  0.50400001928E-02 0. -1.
    10030    2    1    2    0    0  0.00000000000E+00  0.00000000000E+00  0.10548726892E+03  0.37987335628E+04  0.37972686391E+04 0.  0.
        2    1    3    3  502    0  0.30850247332E+03  0.16477492359E+04 -0.83898173493E+03  0.18746044041E+04  0.25500000920E-02 0. -1.
       -2    1    3    3    0  502 -0.30850247332E+03 -0.16477492359E+04  0.94446900385E+03  0.19241291588E+04  0.25500000920E-02 0.  1.
</event>
<event>
 5   0  0.6661000E-08  0.3766871E+04  0.7818609E-02  0.8053302E-01
        1   -1    0    0  501    0  0.00000000000E+00  0.00000000000E+00  0.25287639523E+04  0.25287639523E+04  0.50400001928E-02 0.  1.
       -1   -1    0    0    0  501  0.00000000000E+00  0.00000000000E+00 -0.14027917127E+04  0.14027917127E+04  0.50400001928E-02 0. -1.
    10030    2    1    2    0    0  0.00000000000E+00  0.00000000000E+00  0.11259722396E+04  0.39315556650E+04  0.37668709113E+04 0.  0.
        1    1    3    3  502    0 -0.35240145310E+03 -0.55522507577E+03 -0.12790726271E+04  0.14382240626E+04  0.50400001928E-02 0. -1.
       -1    1    3    3    0  502  0.35240145310E+03  0.55522507577E+03  0.24050448667E+04  0.24933316024E+04  0.50400001928E-02 0.  1.
</event>
<event>
 5   0  0.6661000E-08  0.3802024E+04  0.7818609E-02  0.8045721E-01
       -1   -1    0    0    0  501  0.00000000000E+00  0.00000000000E+00  0.16660263511E+04  0.16660263511E+04  0.50400001928E-02 0. -1.
        1   -1    0    0  501    0  0.00000000000E+00  0.00000000000E+00 -0.21691414980E+04  0.21691414980E+04  0.50400001928E-02 0.  1.
    10030    2    1    2    0    0  0.00000000000E+00  0.00000000000E+00 -0.50311514691E+03  0.38351678491E+04  0.38020241424E+04 0.  0.
        4    1    3    3  502    0  0.14819699341E+04 -0.20879764746E+03 -0.14339593536E+04  0.20726968867E+04  0.12699999809E+01 0.  1.
       -4    1    3    3    0  502 -0.14819699341E+04  0.20879764746E+03  0.93084420672E+03  0.17624709624E+04  0.12699999809E+01 0. -1.
</event>
<event>
 5   0  0.1370688E-07  0.3669672E+04  0.7818609E-02  0.8074716E-01
       -2   -1    0    0    0  501  0.00000000000E+00  0.00000000000E+00  0.18216325845E+04  0.18216325845E+04  0.25500000920E-02 0.  1.
        2   -1    0    0  501    0  0.00000000000E+00  0.00000000000E+00 -0.18481348391E+04  0.18481348391E+04  0.25500000920E-02 0. -1.
    10030    2    1    2    0    0  0.00000000000E+00  0.00000000000E+00 -0.26502254544E+02  0.36697674236E+04  0.36696717256E+04 0.  0.
        5    1    3    3  502    0 -0.12687730259E+04 -0.79771427170E+03 -0.10718001072E+04  0.18425283201E+04  0.46999998093E+01 0. -1.
       -5    1    3    3    0  502  0.12687730259E+04  0.79771427170E+03  0.10452978527E+04  0.18272391035E+04  0.46999998093E+01 0.  1.
</event>
<event>
 5   0  0.1370688E-07  0.3852644E+04  0.7818609E-02  0.8034951E-01
        2   -1    0    0  501    0  0.00000000000E+00  0.00000000000E+00  0.26056558746E+04  0.26056558746E+04  0.25500000920E-02 0. -1.
       -2   -1    0    0    0  501  0.00000000000E+00  0.00000000000E+00 -0.14241005149E+04  0.14241005149E+04  0.25500000920E-02 0.  1.
    10030    2    1    2    0    0  0.00000000000E+00  0.00000000000E+00  0.11815553597E+04  0.40297563895E+04  0.38526437015E+04 0.  0.
        5    1    3    3  502    0 -0.64330617836E+03 -0.14182149152E+04 -0.59515196488E+03  0.16671545627E+04  0.46999998093E+01 0.  1.
       -5    1    3    3    0  502  0.64330617836E+03  0.14182149152E+04  0.17767073246E+04  0.23626018268E+04  0.46999998093E+01 0. -1.
</event>
<event>
 5   0  0.1370688E-07  0.3795974E+04  0.7818609E-02  0.8047019E-01
       -2   -1    0    0    0  501  0.00000000000E+00  0.00000000000E+00  0.15982942144E+04  0.15982942144E+04  0.25500000920E-02 0.  1.
        2   -1    0    0  501    0  0.00000000000E+00  0.00000000000E+00 -0.22538751322E+04  0.22538751322E+04  0.25500000920E-02 0. -1.
    10030    2    1    2    0    0  0.00000000000E+00  0.00000000000E+00 -0.65558091781E+03  0.38521693467E+04  0.37959744909E+04 0.  0.
        5    1    3    3  502    0 -0.22653989763E+03  0.15204037635E+04  0.80196722168E+03  0.17338170157E+04  0.46999998093E+01 0.  1.
       -5    1    3    3    0  502  0.22653989763E+03 -0.15204037635E+04 -0.14575481395E+04  0.21183523310E+04  0.46999998093E+01 0. -1.
</event>
<event>
 5   0  0.6661000E-08  0.3794935E+04  0.7818609E-02  0.8047243E-01
        1   -1    0    0  501    0  0.00000000000E+00  0.00000000000E+00  0.18181270412E+04  0.18181270412E+04  0.50400001928E-02 0.  1.
       -1   -1    0    0    0  501  0.00000000000E+00  0.00000000000E+00 -0.19802698880E+04  0.19802698880E+04  0.50400001928E-02 0. -1.
    10030    2    1    2    0    0  0.00000000000E+00  0.00000000000E+00 -0.16214284679E+03  0.37983969293E+04  0.37949346410E+04 0.  0.
        1    1    3    3  502    0 -0.17636287822E+04 -0.34178088173E+03 -0.69251465934E+03  0.19252992510E+04  0.50400001928E-02 0. -1.
       -1    1    3    3    0  502  0.17636287822E+04  0.34178088173E+03  0.53037181255E+03  0.18730976782E+04  0.50400001928E-02 0.  1.
</event>
<event>
 5   0  0.2081337E-07  0.3886368E+04  0.7818609E-02  0.8027870E-01
        2   -1    0    0  501    0  0.00000000000E+00  0.00000000000E+00  0.22706047875E+04  0.22706047875E+04  0.25500000920E-02 0. -1.
       -2   -1    0    0    0  501  0.00000000000E+00  0.00000000000E+00 -0.16629772398E+04  0.16629772398E+04  0.25500000920E-02 0.  1.
    10030    2    1    2    0    0  0.00000000000E+00  0.00000000000E+00  0.60762754769E+03  0.39335820272E+04  0.38863680125E+04 0.  0.
        1    1    3    3  502    0 -0.16747109371E+04 -0.56710326560E+03  0.11196465284E+04  0.20928141784E+04  0.50400001928E-02 0. -1.
       -1    1    3    3    0  502  0.16747109371E+04  0.56710326560E+03 -0.51201898066E+03  0.18407678488E+04  0.50400001928E-02 0.  1.
</event>
<event>
 5   0  0.2081337E-07  0.3764346E+04  0.7818609E-02  0.8053850E-01
       -2   -1    0    0    0  501  0.00000000000E+00  0.00000000000E+00  0.15595426897E+04  0.15595426897E+04  0.25500000920E-02 0. -1.
        2   -1    0    0  501    0  0.00000000000E+00  0.00000000000E+00 -0.22715469656E+04  0.22715469656E+04  0.25500000920E-02 0.  1.
    10030    2    1    2    0    0  0.00000000000E+00  0.00000000000E+00 -0.71200427589E+03  0.38310896553E+04  0.37643456082E+04 0.  0.
        1    1    3    3  502    0 -0.12320110601E+04 -0.97673815695E+03  0.69709371003E+03  0.17198279914E+04  0.50400001928E-02 0. -1.
       -1    1    3    3    0  502  0.12320110601E+04  0.97673815695E+03 -0.14090979859E+04  0.21112616639E+04  0.50400001928E-02 0.  1.
</event>
<event>
 5   0  0.6661000E-08  0.3766138E+04  0.7818609E-02  0.8053461E-01
       -1   -1    0    0    0  501  0.00000000000E+00  0.00000000000E+00  0.15201208345E+04  0.15201208345E+04  0.50400001928E-02 0.  1.
        1   -1    0    0  501    0  0.00000000000E+00  0.00000000000E+00 -0.23326757733E+04  0.23326757733E+04  0.50400001928E-02 0. -1.
    10030    2    1    2    0    0  0.00000000000E+00  0.00000000000E+00 -0.81255493879E+03  0.38527966078E+04  0.37661380979E+04 0.  0.
        1    1    3    3  502    0 -0.93139637686E+03  0.12464852509E+04  0.67865546068E+03  0.16975859112E+04  0.50400001928E-02 0.  1.
       -1    1    3    3    0  502  0.93139637686E+03 -0.12464852509E+04 -0.14912103995E+04  0.21552106966E+04  0.50400001928E-02 0. -1.
</event>
<event>
 5   0  0.2135314E-07  0.3845886E+04  0.7818609E-02  0.8036379E-01
       -2   -1    0    0    0  501  0.00000000000E+00  0.00000000000E+00  0.22478547341E+04  0.22478547341E+04  0.25500000920E-02 0.  1.
        2   -1    0    0  501    0  0.00000000000E+00  0.00000000000E+00 -0.16449952529E+04  0.16449952529E+04  0.25500000920E-02 0. -1.
    10030    2    1    2    0    0  0.00000000000E+00  0.00000000000E+00  0.60285948128E+03  0.38928499870E+04  0.38458863045E+04 0.  0.
        4    1    3    3  502    0 -0.59471532001E+03 -0.23319550669E+03 -0.15344556494E+04  0.16621137774E+04  0.12699999809E+01 0. -1.
       -4    1    3    3    0  502  0.59471532001E+03  0.23319550669E+03  0.21373151307E+04  0.22307362096E+04  0.12699999809E+01 0.  1.
</event>
<event>
 5   0  0.6661000E-08  0.3752325E+04  0.7818609E-02  0.8056464E-01
       -1   -1    0    0    0  501  0.00000000000E+00  0.00000000000E+00  0.15593994752E+04  0.15593994752E+04  0.50400001928E-02 0.  1.
        1   -1    0    0  501    0  0.00000000000E+00  0.00000000000E+00 -0.22572704750E+04  0.22572704750E+04  0.50400001928E-02 0. -1.
    10030    2    1    2    0    0  0.00000000000E+00  0.00000000000E+00 -0.69787099978E+03  0.38166699502E+04  0.37523253559E+04 0.  0.
        2    1    3    3  502    0  0.10538908635E+03 -0.14380005843E+03  0.15507638474E+04  0.15609784837E+04  0.25500000920E-02 0.  1.
       -2    1    3    3    0  502 -0.10538908635E+03  0.14380005843E+03 -0.22486348471E+04  0.22556914665E+04  0.25500000920E-02 0. -1.
</event>
<event>
 5   0  0.2205204E-07  0.3792182E+04  0.7818609E-02  0.8047835E-01
       -2   -1    0    0    0  501  0.00000000000E+00  0.00000000000E+00  0.12850587800E+04  0.12850587800E+04  0.25500000920E-02 0.  1.
        2   -1    0    0  501    0  0.00000000000E+00  0.00000000000E+00 -0.27976623861E+04  0.27976623861E+04  0.25500000920E-02 0. -1.
    10030    2    1    2    0    0  0.00000000000E+00  0.00000000000E+00 -0.15126036061E+04  0.40827211660E+04  0.37921817533E+04 0.  0.
        2    1    3    3  502    0  0.27604939990E+03  0.12044792574E+04  0.79199951811E+03  0.14677318520E+04  0.25500000920E-02 0.  1.
       -2    1    3    3    0  502 -0.27604939990E+03 -0.12044792574E+04 -0.23046031242E+04  0.26149893141E+04  0.25500000920E-02 0. -1.
</event>
<event>
 5   0  0.6661000E-08  0.3744355E+04  0.7818609E-02  0.8058203E-01
        1   -1    0    0  501    0  0.00000000000E+00  0.00000000000E+00  0.24444345436E+04  0.24444345436E+04  0.50400001928E-02 0.  1.
       -1   -1    0    0    0  501  0.00000000000E+00  0.00000000000E+00 -0.14338894613E+04  0.14338894613E+04  0.50400001928E-02 0. -1.
    10030    2    1    2    0    0  0.00000000000E+00  0.00000000000E+00  0.10105450823E+04  0.38783240050E+04  0.37443551814E+04 0.  0.
        1    1    3    3  502    0 -0.10569320896E+04 -0.57988461993E+01  0.21058474877E+04  0.23562115164E+04  0.50400001928E-02 0.  1.
       -1    1    3    3    0  502  0.10569320896E+04  0.57988461993E+01 -0.10953024054E+04  0.15221124886E+04  0.50400001928E-02 0. -1.
</event>
<event>
 5   0  0.2205204E-07  0.3811403E+04  0.7818609E-02  0.8043712E-01
        2   -1    0    0  501    0  0.00000000000E+00  0.00000000000E+00  0.22347680692E+04  0.22347680692E+04  0.25500000920E-02 0.  1.
       -2   -1    0    0    0  501  0.00000000000E+00  0.00000000000E+00 -0.16250898782E+04  0.16250898782E+04  0.25500000920E-02 0. -1.
    10030    2    1    2    0    0  0.00000000000E+00  0.00000000000E+00  0.60967819098E+03  0.38598579475E+04  0.38114034001E+04 0.  0.
        2    1    3    3  502    0  0.93821441328E+03  0.21209545479E+03 -0.13612102844E+04  0.16667705918E+04  0.25500000920E-02 0. -1.
       -2    1    3    3    0  502 -0.93821441328E+03 -0.21209545479E+03  0.19708884754E+04  0.21930873557E+04  0.25500000920E-02 0.  1.
</event>
<event>
 5   0  0.1370688E-07  0.3826845E+04  0.7818609E-02  0.8040418E-01
       -2   -1    0    0    0  501  0.00000000000E+00  0.00000000000E+00  0.21582294384E+04  0.21582294384E+04  0.25500000920E-02 0.  1.
        2   -1    0    0  501    0  0.00000000000E+00  0.00000000000E+00 -0.16963841891E+04  0.16963841891E+04  0.25500000920E-02 0. -1.
    10030    2    1    2    0    0  0.00000000000E+00  0.00000000000E+00  0.46184524928E+03  0.38546136275E+04  0.38268453305E+04 0.  0.
        5    1    3    3  502    0 -0.53215638593E+03 -0.73829471952E+03  0.19262561809E+04  0.21304352787E+04  0.46999998093E+01 0.  1.
       -5    1    3    3    0  502  0.53215638593E+03  0.73829471952E+03 -0.14644109317E+04  0.17241783489E+04  0.46999998093E+01 0. -1.
</event>
<event>
 5   0  0.1370688E-07  0.3797040E+04  0.7818609E-02  0.8046790E-01
        2   -1    0    0  501    0  0.00000000000E+00  0.00000000000E+00  0.14579013831E+04  0.14579013831E+04  0.25500000920E-02 0. -1.
       -2   -1    0    0    0  501  0.00000000000E+00  0.00000000000E+00 -0.24723061349E+04  0.24723061349E+04  0.25500000920E-02 0.  1.
    10030    2    1    2    0    0  0.00000000000E+00  0.00000000000E+00 -0.10144047518E+04  0.39302075181E+04  0.37970401808E+04 0.  0.
        5    1    3    3  502    0  0.11757309751E+04 -0.14064898882E+04 -0.10182796000E+04  0.20970151562E+04  0.46999998093E+01 0.  1.
       -5    1    3    3    0  502 -0.11757309751E+04  0.14064898882E+04  0.38748482063E+01  0.18331923619E+04  0.46999998093E+01 0. -1.
</event>
<event>
 5   0  0.1370688E-07  0.3499261E+04  0.7818609E-02  0.8113965E-01
       -2   -1    0    0    0  501  0.00000000000E+00  0.00000000000E+00  0.10302492586E+04  0.10302492586E+04  0.25500000920E-02 0. -1.
        2   -1    0    0  501    0  0.00000000000E+00  0.00000000000E+00 -0.29713268386E+04  0.29713268386E+04  0.25500000920E-02 0.  1.
    10030    2    1    2    0    0  0.00000000000E+00  0.00000000000E+00 -0.19410775800E+04  0.40015760972E+04  0.34992612206E+04 0.  0.
        5    1    3    3  502    0  0.12501493448E+04  0.31637049957E+03 -0.23227443119E+04  0.26567135535E+04  0.46999998093E+01 0.  1.
       -5    1    3    3    0  502 -0.12501493448E+04 -0.31637049957E+03  0.38166673188E+03  0.13448625437E+04  0.46999998093E+01 0. -1.
</event>
<event>
 5   0  0.6661000E-08  0.3794746E+04  0.7818609E-02  0.8047283E-01
        1   -1    0    0  501    0  0.00000000000E+00  0.00000000000E+00  0.13204729049E+04  0.13204729049E+04  0.50400001928E-02 0. -1.
       -1   -1    0    0    0  501  0.00000000000E+00  0.00000000000E+00 -0.27263139652E+04  0.27263139652E+04  0.50400001928E-02 0.  1.
    10030    2    1    2    0    0  0.00000000000E+00  0.00000000000E+00 -0.14058410603E+04  0.40467868701E+04  0.37947456944E+04 0.  0.
        1    1    3    3  502    0 -0.10082632038E+04  0.83105242145E+03 -0.21700817139E+04  0.25330806265E+04  0.50400001928E-02 0.  1.
       -1    1    3    3    0  502  0.10082632038E+04 -0.83105242145E+03  0.76424065356E+03  0.15137062436E+04  0.50400001928E-02 0. -1.
</event>
<event>
 5   0  0.6661000E-08  0.3824640E+04  0.7818609E-02  0.8040888E-01
       -1   -1    0    0    0  501  0.00000000000E+00  0.00000000000E+00  0.25602286182E+04  0.25602286182E+04  0.50400001928E-02 0.  1.
        1   -1    0    0  501    0  0.00000000000E+00  0.00000000000E+00 -0.14283752135E+04  0.14283752135E+04  0.50400001928E-02 0. -1.
    10030    2    1    2    0    0  0.00000000000E+00  0.00000000000E+00  0.11318534047E+04  0.39886038317E+04  0.38246396427E+04 0.  0.
        1    1    3    3  502    0 -0.50375729132E+03  0.13619372136E+04 -0.73173391008E+03  0.16260623904E+04  0.50400001928E-02 0. -1.
       -1    1    3    3    0  502  0.50375729132E+03 -0.13619372136E+04  0.18635873148E+04  0.23625414413E+04  0.50400001928E-02 0.  1.
</event>
<event>
 5   0  0.6661000E-08  0.3806207E+04  0.7818609E-02  0.8044824E-01
       -1   -1    0    0    0  501  0.00000000000E+00  0.00000000000E+00  0.16120418475E+04  0.16120418475E+04  0.50400001928E-02 0.  1.
        1   -1    0    0  501    0  0.00000000000E+00  0.00000000000E+00 -0.22467178656E+04  0.22467178656E+04  0.50400001928E-02 0. -1.
    10030    2    1    2    0    0  0.00000000000E+00  0.00000000000E+00 -0.63467601810E+03  0.38587597132E+04  0.38062071510E+04 0.  0.
        3    1    3    3  502    0 -0.10838568307E+04  0.14733146164E+04  0.21566002523E+03  0.18417141051E+04  0.10100000352E+00 0.  1.
       -3    1    3    3    0  502  0.10838568307E+04 -0.14733146164E+04 -0.85033604333E+03  0.20170456081E+04  0.10100000352E+00 0. -1.
</event>
<event>
 5   0  0.2081337E-07  0.3822607E+04  0.7818609E-02  0.8041321E-01
       -2   -1    0    0    0  501  0.00000000000E+00  0.00000000000E+00  0.16424510784E+04  0.16424510784E+04  0.25500000920E-02 0. -1.
        2   -1    0    0  501    0  0.00000000000E+00  0.00000000000E+00 -0.22241645886E+04  0.22241645886E+04  0.25500000920E-02 0.  1.
    10030    2    1    2    0    0  0.00000000000E+00  0.00000000000E+00 -0.58171351021E+03  0.38666156670E+04  0.38226072396E+04 0.  0.
        1    1    3    3  502    0 -0.18492720570E+04  0.42709464240E+03 -0.51898493891E+03  0.19676286086E+04  0.50400001928E-02 0.  1.
       -1    1    3    3    0  502  0.18492720570E+04 -0.42709464240E+03 -0.62728571307E+02  0.18989870584E+04  0.50400001928E-02 0. -1.
</event>
<event>
 5   0  0.6661000E-08  0.3834988E+04  0.7818609E-02  0.8038688E-01
        1   -1    0    0  501    0  0.00000000000E+00  0.00000000000E+00  0.24444734217E+04  0.24444734218E+04  0.50400001928E-02 0.  1.
       -1   -1    0    0    0  501  0.00000000000E+00  0.00000000000E+00 -0.15041204406E+04  0.15041204406E+04  0.50400001928E-02 0. -1.
    10030    2    1    2    0    0  0.00000000000E+00  0.00000000000E+00  0.94035298112E+03  0.39485938624E+04  0.38349875829E+04 0.  0.
        3    1    3    3  502    0 -0.29225435751E+03 -0.11687687443E+04 -0.10657753992E+04  0.16085117963E+04  0.10100000352E+00 0. -1.
       -3    1    3    3    0  502  0.29225435751E+03  0.11687687443E+04  0.20061283803E+04  0.23400820660E+04  0.10100000352E+00 0.  1.
</event>
<event>
 5   0  0.2081337E-07  0.3796842E+04  0.7818609E-02  0.8046833E-01
        2   -1    0    0  501    0  0.00000000000E+00  0.00000000000E+00  0.25201929602E+04  0.25201929602E+04  0.25500000920E-02 0.  1.
       -2   -1    0    0    0  501  0.00000000000E+00  0.00000000000E+00 -0.14300503972E+04  0.14300503972E+04  0.25500000920E-02 0. -1.
    10030    2    1    2    0    0  0.00000000000E+00  0.00000000000E+00  0.10901425630E+04  0.39502433574E+04  0.37968423427E+04 0.  0.
        1    1    3    3  502    0 -0.14472784251E+04  0.11123286864E+04  0.10877914118E+04  0.21248953155E+04  0.50400001928E-02 0. -1.
       -1    1    3    3    0  502  0.14472784251E+04 -0.11123286864E+04  0.23511512329E+01  0.18253480419E+04  0.50400001928E-02 0.  1.
</event>
<event>
 5   0  0.2203998E-07  0.3807069E+04  0.7818609E-02  0.8044640E-01
       -2   -1    0    0    0  501  0.00000000000E+00  0.00000000000E+00  0.25525446473E+04  0.25525446473E+04  0.25500000920E-02 0. -1.
        2   -1    0    0  501    0  0.00000000000E+00  0.00000000000E+00 -0.14195416459E+04  0.14195416459E+04  0.25500000920E-02 0.  1.
    10030    2    1    2    0    0  0.00000000000E+00  0.00000000000E+00  0.11330030014E+04  0.39720862932E+04  0.38070689145E+04 0.  0.
        3    1    3    3  502    0  0.12438303800E+04  0.14238760255E+03  0.20625487817E+04  0.24127775966E+04  0.10100000352E+00 0. -1.
       -3    1    3    3    0  502 -0.12438303800E+04 -0.14238760255E+03 -0.92954578031E+03  0.15593086967E+04  0.10100000352E+00 0.  1.
</event>
<event>
 5   0  0.2205204E-07  0.3813499E+04  0.7818609E-02  0.8043264E-01
       -2   -1    0    0    0  501  0.00000000000E+00  0.00000000000E+00  0.16502359111E+04  0.16502359112E+04  0.25500000920E-02 0.  1.
        2   -1    0    0  501    0  0.00000000000E+00  0.00000000000E+00 -0.22031357216E+04  0.22031357216E+04  0.25500000920E-02 0. -1.
    10030    2    1    2    0    0  0.00000000000E+00  0.00000000000E+00 -0.55289981044E+03  0.38533716327E+04  0.38134990153E+04 0.  0.
        2    1    3    3  502    0  0.36754949836E+03  0.17259493690E+04 -0.10062898074E+04  0.20314066640E+04  0.25500000920E-02 0. -1.
       -2    1    3    3    0  502 -0.36754949836E+03 -0.17259493690E+04  0.45338999697E+03  0.18219649688E+04  0.25500000920E-02 0.  1.
</event>
<event>
 5   0  0.6661000E-08  0.3780346E+04  0.7818609E-02  0.8050386E-01
        1   -1    0    0  501    0  0.00000000000E+00  0.00000000000E+00  0.12492210957E+04  0.12492210957E+04  0.50400001928E-02 0.  1.
       -1   -1    0    0    0  501  0.00000000000E+00  0.00000000000E+00 -0.28599846481E+04  0.28599846481E+04  0.50400001928E-02 0. -1.
    10030    2    1    2    0    0  0.00000000000E+00  0.00000000000E+00 -0.16107635524E+04  0.41092057439E+04  0.37803455694E+04 0.  0.
        2    1    3    3  502    0 -0.43738207070E+03  0.13155904041E+04 -0.22019326897E+04  0.26020355027E+04  0.25500000920E-02 0. -1.
       -2    1    3    3    0  502  0.43738207070E+03 -0.13155904041E+04  0.59116913728E+03  0.15071702412E+04  0.25500000920E-02 0.  1.
</event>
<event>
 5   0  0.1370688E-07  0.3773419E+04  0.7818609E-02  0.8051883E-01
        2   -1    0    0  501    0  0.00000000000E+00  0.00000000000E+00  0.27388805605E+04  0.27388805605E+04  0.25500000920E-02 0.  1.
       -2   -1    0    0    0  501  0.00000000000E+00  0.00000000000E+00 -0.12996818669E+04  0.12996818669E+04  0.25500000920E-02 0. -1.
    10030    2    1    2    0    0  0.00000000000E+00  0.00000000000E+00  0.14391986936E+04  0.40385624274E+04  0.37734193512E+04 0.  0.
        5    1    3    3  502    0 -0.17778723302E+04 -0.46216452078E+03  0.25898038153E+03  0.18551331474E+04  0.46999998093E+01 0. -1.
       -5    1    3    3    0  502  0.17778723302E+04  0.46216452078E+03  0.11802183120E+04  0.21834292800E+04  0.46999998093E+01 0.  1.
</event>
<event>
 5   0  0.6725199E-08  0.3806943E+04  0.7818609E-02  0.8044667E-01
       -1   -1    0    0    0  501  0.00000000000E+00  0.00000000000E+00  0.22419567012E+04  0.22419567012E+04  0.50400001928E-02 0.  1.
        1   -1    0    0  501    0  0.00000000000E+00  0.00000000000E+00 -0.16160900443E+04  0.16160900443E+04  0.50400001928E-02 0. -1.
    10030    2    1    2    0    0  0.00000000000E+00  0.00000000000E+00  0.62586665689E+03  0.38580467456E+04  0.38069430806E+04 0.  0.
        5    1    3    3  502    0 -0.16173300871E+04  0.10033822258E+04  0.28710964811E+03  0.19248341595E+04  0.46999998093E+01 0. -1.
       -5    1    3    3    0  502  0.16173300871E+04 -0.10033822258E+04  0.33875700878E+03  0.19332125860E+04  0.46999998093E+01 0.  1.
</event>
<event>
 5   0  0.1370688E-07  0.3796103E+04  0.7818609E-02  0.8046992E-01
       -2   -1    0    0    0  501  0.00000000000E+00  0.00000000000E+00  0.12386698248E+04  0.12386698248E+04  0.25500000920E-02 0.  1.
        2   -1    0    0  501    0  0.00000000000E+00  0.00000000000E+00 -0.29084413858E+04  0.29084413858E+04  0.25500000920E-02 0. -1.
    10030    2    1    2    0    0  0.00000000000E+00  0.00000000000E+00 -0.16697715610E+04  0.41471112106E+04  0.37961025180E+04 0.  0.
        5    1    3    3  502    0  0.23257615494E+03 -0.14612010993E+04  0.46389732816E+03  0.15506202442E+04  0.46999998093E+01 0.  1.
       -5    1    3    3    0  502 -0.23257615494E+03  0.14612010993E+04 -0.21336688891E+04  0.25964909665E+04  0.46999998093E+01 0. -1.
</event>
<event>
 5   0  0.2081337E-07  0.3813620E+04  0.7818609E-02  0.8043238E-01
        2   -1    0    0  501    0  0.00000000000E+00  0.00000000000E+00  0.23410441099E+04  0.23410441099E+04  0.25500000920E-02 0. -1.
       -2   -1    0    0    0  501  0.00000000000E+00  0.00000000000E+00 -0.15531209508E+04  0.15531209508E+04  0.25500000920E-02 0.  1.
    10030    2    1    2    0    0  0.00000000000E+00  0.00000000000E+00  0.78792315910E+03  0.38941650606E+04  0.38136201456E+04 0.  0.
        1    1    3    3  502    0  0.13595361089E+04  0.10265949865E+04 -0.48068562760E+03  0.17701114005E+04  0.50400001928E-02 0.  1.
       -1    1    3    3    0  502 -0.13595361089E+04 -0.10265949865E+04  0.12686087867E+04  0.21240536602E+04  0.50400001928E-02 0. -1.
</event>
<event>
 5   0  0.2135314E-07  0.3745592E+04  0.7818609E-02  0.8057933E-01
       -2   -1    0    0    0  501  0.00000000000E+00  0.00000000000E+00  0.12158569213E+04  0.12158569213E+04  0.25500000920E-02 0. -1.
        2   -1    0    0  501    0  0.00000000000E+00  0.00000000000E+00 -0.28846855055E+04  0.28846855055E+04  0.25500000920E-02 0.  1.
    10030    2    1    2    0    0  0.00000000000E+00  0.00000000000E+00 -0.16688285842E+04  0.41005424268E+04  0.37455919893E+04 0.  0.
        4    1    3    3  502    0  0.28517922524E+03 -0.14439924844E+04 -0.21021320038E+04  0.25662038227E+04  0.12699999809E+01 0.  1.
       -4    1    3    3    0  502 -0.28517922524E+03  0.14439924844E+04  0.43330341954E+03  0.15343386040E+04  0.12699999809E+01 0. -1.
</event>
<event>
 5   0  0.6661000E-08  0.3833611E+04  0.7818609E-02  0.8038980E-01
       -1   -1    0    0    0  501  0.00000000000E+00  0.00000000000E+00  0.12879874169E+04  0.12879874169E+04  0.50400001928E-02 0. -1.
        1   -1    0    0  501    0  0.00000000000E+00  0.00000000000E+00 -0.28526228760E+04  0.28526228760E+04  0.50400001928E-02 0.  1.
    10030    2    1    2    0    0  0.00000000000E+00  0.00000000000E+00 -0.15646354591E+04  0.41406102929E+04  0.38336105015E+04 0.  0.
        2    1    3    3  502    0 -0.85901408451E+03 -0.13362912970E+04 -0.19408590407E+04  0.25080896004E+04  0.25500000920E-02 0.  1.
       -2    1    3    3    0  502  0.85901408451E+03  0.13362912970E+04  0.37622358159E+03  0.16325206924E+04  0.25500000920E-02 0. -1.
</event>
<event>
 5   0  0.6661000E-08  0.3814200E+04  0.7818609E-02  0.8043114E-01
       -1   -1    0    0    0  501  0.00000000000E+00  0.00000000000E+00  0.15566528957E+04  0.15566528957E+04  0.50400001928E-02 0.  1.
        1   -1    0    0  501    0  0.00000000000E+00  0.00000000000E+00 -0.23364428242E+04  0.23364428242E+04  0.50400001928E-02 0. -1.
    10030    2    1    2    0    0  0.00000000000E+00  0.00000000000E+00 -0.77978992855E+03  0.38930957199E+04  0.38142000408E+04 0.  0.
        2    1    3    3  502    0 -0.26614319511E+02 -0.50222830843E+02 -0.23355781049E+04  0.23362696203E+04  0.25500000920E-02 0. -1.
       -2    1    3    3    0  502  0.26614319511E+02  0.50222830843E+02  0.15557881763E+04  0.15568260996E+04  0.25500000920E-02 0.  1.
</event>
<event>
 5   0  0.1370688E-07  0.3596017E+04  0.7818609E-02  0.8091405E-01
        2   -1    0    0  501    0  0.00000000000E+00  0.00000000000E+00  0.22568361422E+04  0.22568361422E+04  0.25500000920E-02 0.  1.
       -2   -1    0    0    0  501  0.00000000000E+00  0.00000000000E+00 -0.14324632789E+04  0.14324632789E+04  0.25500000920E-02 0. -1.
    10030    2    1    2    0    0  0.00000000000E+00  0.00000000000E+00  0.82437286328E+03  0.36892994211E+04  0.35960171859E+04 0.  0.
        5    1    3    3  502    0 -0.10683976196E+03 -0.39740361459E+03 -0.13834931755E+04  0.14434056340E+04  0.46999998093E+01 0. -1.
       -5    1    3    3    0  502  0.10683976196E+03  0.39740361459E+03  0.22078660388E+04  0.22458937871E+04  0.46999998093E+01 0.  1.
</event>
<event>
 5   0  0.2203998E-07  0.3768086E+04  0.7818609E-02  0.8053039E-01
       -2   -1    0    0    0  501  0.00000000000E+00  0.00000000000E+00  0.16665334601E+04  0.16665334601E+04  0.25500000920E-02 0. -1.
        2   -1    0    0  501    0  0.00000000000E+00  0.00000000000E+00 -0.21299404971E+04  0.21299404971E+04  0.25500000920E-02 0.  1.
    10030    2    1    2    0    0  0.00000000000E+00  0.00000000000E+00 -0.46340703697E+03  0.37964739572E+04  0.37680855120E+04 0.  0.
        3    1    3    3  502    0 -0.27925446992E+03  0.14626171789E+04 -0.13946896787E+04  0.20401939567E+04  0.10100000352E+00 0.  1.
       -3    1    3    3    0  502  0.27925446992E+03 -0.14626171789E+04  0.93128264172E+03  0.17562800004E+04  0.10100000352E+00 0. -1.
</event>
<event>
 5   0  0.1370688E-07  0.3808127E+04  0.7818609E-02  0.8044413E-01
        2   -1    0    0  501    0  0.00000000000E+00  0.00000000000E+00  0.21306721840E+04  0.21306721840E+04  0.25500000920E-02 0. -1.
       -2   -1    0    0    0  501  0.00000000000E+00  0.00000000000E+00 -0.17015558119E+04  0.17015558119E+04  0.25500000920E-02 0.  1.
    10030    2    1    2    0    0  0.00000000000E+00  0.00000000000E+00  0.42911637209E+03  0.38322279959E+04  0.38081269086E+04 0.  0.
        5    1    3    3  502    0 -0.88392870048E+03  0.13297055171E+03  0.19063955632E+04  0.21055586548E+04  0.46999998093E+01 0. -1.
       -5    1    3    3    0  502  0.88392870048E+03 -0.13297055171E+03 -0.14772791911E+04  0.17266693412E+04  0.46999998093E+01 0.  1.
</event>
<event>
 5   0  0.2135314E-07  0.3812753E+04  0.7818609E-02  0.8043424E-01
       -2   -1    0    0    0  501  0.00000000000E+00  0.00000000000E+00  0.13358025423E+04  0.13358025423E+04  0.25500000920E-02 0.  1.
        2   -1    0    0  501    0  0.00000000000E+00  0.00000000000E+00 -0.27206644211E+04  0.27206644211E+04  0.25500000920E-02 0. -1.
    10030    2    1    2    0    0  0.00000000000E+00  0.00000000000E+00 -0.13848618788E+04  0.40564669635E+04  0.38127525231E+04 0.  0.
        4    1    3    3  502    0  0.56966841481E+03 -0.16966232361E+04 -0.13910765351E+04  0.22667483423E+04  0.12699999809E+01 0. -1.
       -4    1    3    3    0  502 -0.56966841481E+03  0.16966232361E+04  0.62146562944E+01  0.17897186211E+04  0.12699999809E+01 0.  1.
</event>
<event>
 5   0  0.6661000E-08  0.3766333E+04  0.7818609E-02  0.8053419E-01
        1   -1    0    0  501    0  0.00000000000E+00  0.00000000000E+00  0.11865750805E+04  0.11865750805E+04  0.50400001928E-02 0. -1.
       -1   -1    0    0    0  501  0.00000000000E+00  0.00000000000E+00 -0.29886987220E+04  0.29886987220E+04  0.50400001928E-02 0.  1.
    10030    2    1    2    0    0  0.00000000000E+00  0.00000000000E+00 -0.18021236415E+04  0.41752738025E+04  0.37663326601E+04 0.  0.
        2    1    3    3  502    0 -0.92538654613E+03 -0.80373705112E+03 -0.24859725637E+04  0.27717130253E+04  0.25500000920E-02 0.  1.
       -2    1    3    3    0  502  0.92538654613E+03  0.80373705112E+03  0.68384892213E+03  0.14035607772E+04  0.25500000920E-02 0. -1.
</event>
<event>
 5   0  0.6661000E-08  0.3715908E+04  0.7818609E-02  0.8064446E-01
       -1   -1    0    0    0  501  0.00000000000E+00  0.00000000000E+00  0.14542485028E+04  0.14542485028E+04  0.50400001928E-02 0.  1.
        1   -1    0    0  501    0  0.00000000000E+00  0.00000000000E+00 -0.23737296669E+04  0.23737296669E+04  0.50400001928E-02 0. -1.
    10030    2    1    2    0    0  0.00000000000E+00  0.00000000000E+00 -0.91948116406E+03  0.38279781697E+04  0.37159078644E+04 0.  0.
        3    1    3    3  502    0  0.51591240635E+03 -0.13089928677E+04 -0.17097469860E+04  0.22142408868E+04  0.10100000352E+00 0. -1.
       -3    1    3    3    0  502 -0.51591240635E+03  0.13089928677E+04  0.79026582189E+03  0.16137372829E+04  0.10100000352E+00 0.  1.
</event>
<event>
 5   0  0.2081337E-07  0.3809438E+04  0.7818609E-02  0.8044132E-01
       -2   -1    0    0    0  501  0.00000000000E+00  0.00000000000E+00  0.16219871515E+04  0.16219871515E+04  0.25500000920E-02 0.  1.
        2   -1    0    0  501    0  0.00000000000E+00  0.00000000000E+00 -0.22367347233E+04  0.22367347233E+04  0.25500000920E-02 0. -1.
    10030    2    1    2    0    0  0.00000000000E+00  0.00000000000E+00 -0.61474757180E+03  0.38587218748E+04  0.38094382696E+04 0.  0.
        1    1    3    3  502    0  0.12981483247E+04 -0.31321254239E+03 -0.16831289470E+04  0.21485376939E+04  0.50400001928E-02 0. -1.
       -1    1    3    3    0  502 -0.12981483247E+04  0.31321254239E+03  0.10683813752E+04  0.17101841809E+04  0.50400001928E-02 0.  1.
</event>
<event>
 5   0  0.6661000E-08  0.3796436E+04  0.7818609E-02  0.8046920E-01
       -1   -1    0    0    0  501  0.00000000000E+00  0.00000000000E+00  0.16232720516E+04  0.16232720516E+04  0.50400001928E-02 0. -1.
        1   -1    0    0  501    0  0.00000000000E+00  0.00000000000E+00 -0.22197338074E+04  0.22197338074E+04  0.50400001928E-02 0.  1.
    10030    2    1    2    0    0  0.00000000000E+00  0.00000000000E+00 -0.59646175581E+03  0.38430058591E+04  0.37964361455E+04 0.  0.
        2    1    3    3  502    0  0.51053781586E+03  0.17147868137E+04  0.34365251124E+03  0.18218780767E+04  0.25500000920E-02 0. -1.
       -2    1    3    3    0  502 -0.51053781586E+03 -0.17147868137E+04 -0.94011426705E+03  0.20211277824E+04  0.25500000920E-02 0.  1.
</event>
<event>
 5   0  0.2081337E-07  0.3789177E+04  0.7818609E-02  0.8048481E-01
        2   -1    0    0  501    0  0.00000000000E+00  0.00000000000E+00  0.23684105256E+04  0.23684105256E+04  0.25500000920E-02 0. -1.
       -2   -1    0    0    0  501  0.00000000000E+00  0.00000000000E+00 -0.15155591347E+04  0.15155591347E+04  0.25500000920E-02 0.  1.
    10030    2    1    2    0    0  0.00000000000E+00  0.00000000000E+00  0.85285139089E+03  0.38839696602E+04  0.37891773285E+04 0.  0.
        1    1    3    3  502    0  0.13727754012E+04 -0.13031572091E+04  0.51054698479E+03  0.19604563850E+04  0.50400001928E-02 0.  1.
       -1    1    3    3    0  502 -0.13727754012E+04  0.13031572091E+04  0.34230440610E+03  0.19235132753E+04  0.50400001928E-02 0. -1.
</event>
<event>
 5   0  0.2203998E-07  0.3786703E+04  0.7818609E-02  0.8049014E-01
       -2   -1    0    0    0  501  0.00000000000E+00  0.00000000000E+00  0.23751243470E+04  0.23751243470E+04  0.25500000920E-02 0. -1.
        2   -1    0    0  501    0  0.00000000000E+00  0.00000000000E+00 -0.15093020613E+04  0.15093020613E+04  0.25500000920E-02 0.  1.
    10030    2    1    2    0    0  0.00000000000E+00  0.00000000000E+00  0.86582228573E+03  0.38844264083E+04  0.37867030899E+04 0.  0.
        3    1    3    3  502    0 -0.10718885688E+04 -0.60803990312E+03  0.19074073873E+04  0.22708722066E+04  0.10100000352E+00 0. -1.
       -3    1    3    3    0  502  0.10718885688E+04  0.60803990312E+03 -0.10415851016E+04  0.16135542016E+04  0.10100000352E+00 0.  1.
</event>
<event>
 5   0  0.6661000E-08  0.3812683E+04  0.7818609E-02  0.8043439E-01
        1   -1    0    0  501    0  0.00000000000E+00  0.00000000000E+00  0.25220017431E+04  0.25220017431E+04  0.50400001928E-02 0. -1.
       -1   -1    0    0    0  501  0.00000000000E+00  0.00000000000E+00 -0.14409733960E+04  0.14409733960E+04  0.50400001928E-02 0.  1.
    10030    2    1    2    0    0  0.00000000000E+00  0.00000000000E+00  0.10810283471E+04  0.39629751392E+04  0.38126827388E+04 0.  0.
        1    1    3    3  502    0  0.48787466907E+03  0.17527756561E+04  0.11320643803E+04  0.21428518274E+04  0.50400001928E-02 0. -1.
       -1    1    3    3    0  502 -0.48787466907E+03 -0.17527756561E+04 -0.51036033197E+02  0.18201233117E+04  0.50400001928E-02 0.  1.
</event>
<event>
 5   0  0.6661000E-08  0.3789929E+04  0.7818609E-02  0.8048319E-01
        1   -1    0    0  501    0  0.00000000000E+00  0.00000000000E+00  0.23326833872E+04  0.23326833872E+04  0.50400001928E-02 0.  1.
       -1   -1    0    0    0  501  0.00000000000E+00  0.00000000000E+00 -0.15393820151E+04  0.15393820151E+04  0.50400001928E-02 0. -1.
    10030    2    1    2    0    0  0.00000000000E+00  0.00000000000E+00  0.79330137208E+03  0.38720654023E+04  0.37899292094E+04 0.  0.
        1    1    3    3  502    0 -0.17628848082E+04 -0.68126672989E+03  0.53749200549E+03  0.19648880020E+04  0.50400001928E-02 0. -1.
       -1    1    3    3    0  502  0.17628848082E+04  0.68126672989E+03  0.25580936659E+03  0.19071774003E+04  0.50400001928E-02 0.  1.
</event>
<event>
 5   0  0.2081337E-07  0.3800706E+04  0.7818609E-02  0.8046003E-01
       -2   -1    0    0    0  501  0.00000000000E+00  0.00000000000E+00  0.19133294957E+04  0.19133294957E+04  0.25500000920E-02 0.  1.
        2   -1    0    0  501    0  0.00000000000E+00  0.00000000000E+00 -0.18874640990E+04  0.18874640990E+04  0.25500000920E-02 0. -1.
    10030    2    1    2    0    0  0.00000000000E+00  0.00000000000E+00  0.25865396747E+02  0.38007935947E+04  0.38007055833E+04 0.  0.
        1    1    3    3  502    0 -0.44524526671E+03  0.18270656043E+04 -0.26080464505E+03  0.18985339430E+04  0.50400001928E-02 0.  1.
       -1    1    3    3    0  502  0.44524526671E+03 -0.18270656043E+04  0.28667004180E+03  0.19022596517E+04  0.50400001928E-02 0. -1.
</event>
<event>
 5   0  0.1370688E-07  0.3799936E+04  0.7818609E-02  0.8046169E-01
       -2   -1    0    0    0  501  0.00000000000E+00  0.00000000000E+00  0.14962411136E+04  0.14962411136E+04  0.25500000920E-02 0. -1.
        2   -1    0    0  501    0  0.00000000000E+00  0.00000000000E+00 -0.24126314151E+04  0.24126314151E+04  0.25500000920E-02 0.  1.
    10030    2    1    2    0    0  0.00000000000E+00  0.00000000000E+00 -0.91639030143E+03  0.39088725287E+04  0.37999359549E+04 0.  0.
        5    1    3    3  502    0 -0.31636758521E+03  0.76571508863E+03 -0.22170213695E+04  0.23667728849E+04  0.46999998093E+01 0.  1.
       -5    1    3    3    0  502  0.31636758521E+03 -0.76571508863E+03  0.13006310681E+04  0.15420996438E+04  0.46999998093E+01 0. -1.
</event>
<event>
 5   0  0.6661000E-08  0.3765107E+04  0.7818609E-02  0.8053685E-01
       -1   -1    0    0    0  501  0.00000000000E+00  0.00000000000E+00  0.20537353983E+04  0.20537353983E+04  0.50400001928E-02 0.  1.
        1   -1    0    0  501    0  0.00000000000E+00  0.00000000000E+00 -0.17256400077E+04  0.17256400077E+04  0.50400001928E-02 0. -1.
    10030    2    1    2    0    0  0.00000000000E+00  0.00000000000E+00  0.32809539057E+03  0.37793754060E+04  0.37651071531E+04 0.  0.
        1    1    3    3  502    0 -0.15424278888E+04 -0.10730092937E+04  0.28100202963E+03  0.18998407505E+04  0.50400001928E-02 0. -1.
       -1    1    3    3    0  502  0.15424278888E+04  0.10730092937E+04  0.47093360941E+02  0.18795346555E+04  0.50400001928E-02 0.  1.
</event>
<event>
 5   0  0.2203998E-07  0.3766835E+04  0.7818609E-02  0.8053310E-01
       -2   -1    0    0    0  501  0.00000000000E+00  0.00000000000E+00  0.15936701326E+04  0.15936701326E+04  0.25500000920E-02 0. -1.
        2   -1    0    0  501    0  0.00000000000E+00  0.00000000000E+00 -0.22258442329E+04  0.22258442329E+04  0.25500000920E-02 0.  1.
    10030    2    1    2    0    0  0.00000000000E+00  0.00000000000E+00 -0.63217410025E+03  0.38195143655E+04  0.37668349971E+04 0.  0.
        3    1    3    3  502    0  0.11930270096E+04 -0.68714396080E+03  0.98710316308E+03  0.16940640287E+04  0.10100000352E+00 0. -1.
       -3    1    3    3    0  502 -0.11930270096E+04  0.68714396080E+03 -0.16192772633E+04  0.21254503368E+04  0.10100000352E+00 0.  1.
</event>
<event>
 5   0  0.6661000E-08  0.3810586E+04  0.7818609E-02  0.8043887E-01
       -1   -1    0    0    0  501  0.00000000000E+00  0.00000000000E+00  0.29039710546E+04  0.29039710546E+04  0.50400001928E-02 0.  1.
        1   -1    0    0  501    0  0.00000000000E+00  0.00000000000E+00 -0.12500612092E+04  0.12500612092E+04  0.50400001928E-02 0. -1.
    10030    2    1    2    0    0  0.00000000000E+00  0.00000000000E+00  0.16539098454E+04  0.41540322639E+04  0.38105860800E+04 0.  0.
        4    1    3    3  502    0  0.12946274787E+04 -0.78099232340E+02 -0.69453945878E+03  0.14712397736E+04  0.12699999809E+01 0. -1.
       -4    1    3    3    0  502 -0.12946274787E+04  0.78099232340E+02  0.23484493042E+04  0.26827924903E+04  0.12699999809E+01 0.  1.
</event>
<event>
 5   0  0.6661000E-08  0.3809735E+04  0.7818609E-02  0.8044069E-01
        1   -1    0    0  501    0  0.00000000000E+00  0.00000000000E+00  0.22375306683E+04  0.22375306683E+04  0.50400001928E-02 0. -1.
       -1   -1    0    0    0  501  0.00000000000E+00  0.00000000000E+00 -0.16216630865E+04  0.16216630865E+04  0.50400001928E-02 0.  1.
    10030    2    1    2    0    0  0.00000000000E+00  0.00000000000E+00  0.61586758179E+03  0.38591937548E+04  0.38097353660E+04 0.  0.
        4    1    3    3  502    0 -0.11273927987E+04  0.52826853365E+03  0.17683283891E+04  0.21626532479E+04  0.12699999809E+01 0. -1.
       -4    1    3    3    0  502  0.11273927987E+04 -0.52826853365E+03 -0.11524608073E+04  0.16965405069E+04  0.12699999809E+01 0.  1.
</event>
<event>
 5   0  0.6661000E-08  0.3799778E+04  0.7818609E-02  0.8046202E-01
        1   -1    0    0  501    0  0.00000000000E+00  0.00000000000E+00  0.15991642708E+04  0.15991642708E+04  0.50400001928E-02 0.  1.
       -1   -1    0    0    0  501  0.00000000000E+00  0.00000000000E+00 -0.22571656717E+04  0.22571656717E+04  0.50400001928E-02 0. -1.
    10030    2    1    2    0    0  0.00000000000E+00  0.00000000000E+00 -0.65800140087E+03  0.38563299425E+04  0.37997782543E+04 0.  0.
        4    1    3    3  502    0  0.55326926271E+03 -0.16494320176E+04 -0.11038052823E+04  0.20603690378E+04  0.12699999809E+01 0. -1.
       -4    1    3    3    0  502 -0.55326926271E+03  0.16494320176E+04  0.44580388142E+03  0.17959609047E+04  0.12699999809E+01 0.  1.
</event>
<event>
 5   0  0.2205204E-07  0.3794082E+04  0.7818609E-02  0.8047426E-01
       -2   -1    0    0    0  501  0.00000000000E+00  0.00000000000E+00  0.18812512273E+04  0.18812512273E+04  0.25500000920E-02 0. -1.
        2   -1    0    0  501    0  0.00000000000E+00  0.00000000000E+00 -0.19129628054E+04  0.19129628054E+04  0.25500000920E-02 0.  1.
    10030    2    1    2    0    0  0.00000000000E+00  0.00000000000E+00 -0.31711578070E+02  0.37942140327E+04  0.37940815097E+04 0.  0.
        2    1    3    3  502    0  0.18626125823E+04  0.30592416554E+03  0.17348755811E+03  0.18955245078E+04  0.25500000920E-02 0. -1.
       -2    1    3    3    0  502 -0.18626125823E+04 -0.30592416554E+03 -0.20519913618E+03  0.18986895250E+04  0.25500000920E-02 0.  1.
</event>
<event>
 5   0  0.2135314E-07  0.3798185E+04  0.7818609E-02  0.8046545E-01
       -2   -1    0    0    0  501  0.00000000000E+00  0.00000000000E+00  0.18518857858E+04  0.18518857859E+04  0.25500000920E-02 0. -1.
        2   -1    0    0  501    0  0.00000000000E+00  0.00000000000E+00 -0.19475023174E+04  0.19475023174E+04  0.25500000920E-02 0.  1.
    10030    2    1    2    0    0  0.00000000000E+00  0.00000000000E+00 -0.95616531578E+02  0.37993881033E+04  0.37981847557E+04 0.  0.
        4    1    3    3  502    0 -0.68442632709E+03 -0.12808645459E+03  0.17195861641E+04  0.18552152775E+04  0.12699999809E+01 0. -1.
       -4    1    3    3    0  502  0.68442632709E+03  0.12808645459E+03 -0.18152026957E+04  0.19441728258E+04  0.12699999809E+01 0.  1.
</event>
<event>
 5   0  0.2203998E-07  0.3786751E+04  0.7818609E-02  0.8049004E-01
       -2   -1    0    0    0  501  0.00000000000E+00  0.00000000000E+00  0.17133128813E+04  0.17133128813E+04  0.25500000920E-02 0. -1.
        2   -1    0    0  501    0  0.00000000000E+00  0.00000000000E+00 -0.20923622933E+04  0.20923622933E+04  0.25500000920E-02 0.  1.
    10030    2    1    2    0    0  0.00000000000E+00  0.00000000000E+00 -0.37904941196E+03  0.38056751746E+04  0.37867512564E+04 0.  0.
        3    1    3    3  502    0 -0.40845827941E+03 -0.17934242151E+04 -0.64083756119E+03  0.19477888415E+04  0.10100000352E+00 0.  1.
       -3    1    3    3    0  502  0.40845827941E+03  0.17934242151E+04  0.26178814923E+03  0.18578863330E+04  0.10100000352E+00 0. -1.
</event>
<event>
 5   0  0.6661000E-08  0.3502849E+04  0.7818609E-02  0.8113115E-01
        1   -1    0    0  501    0  0.00000000000E+00  0.00000000000E+00  0.10392654880E+04  0.10392654880E+04  0.50400001928E-02 0. -1.
       -1   -1    0    0    0  501  0.00000000000E+00  0.00000000000E+00 -0.29515919917E+04  0.29515919917E+04  0.50400001928E-02 0.  1.
    10030    2    1    2    0    0  0.00000000000E+00  0.00000000000E+00 -0.19123265036E+04  0.39908574797E+04  0.35028489500E+04 0.  0.
        3    1    3    3  502    0 -0.16599966688E+04  0.22250723340E+03 -0.37255980810E+03  0.17157794818E+04  0.10100000352E+00 0.  1.
       -3    1    3    3    0  502  0.16599966688E+04 -0.22250723340E+03 -0.15397666955E+04  0.22750779979E+04  0.10100000352E+00 0. -1.
</event>
<event>
 5   0  0.1370688E-07  0.3813240E+04  0.7818609E-02  0.8043319E-01
        2   -1    0    0  501    0  0.00000000000E+00  0.00000000000E+00  0.21319666774E+04  0.21319666774E+04  0.25500000920E-02 0.  1.
       -2   -1    0    0    0  501  0.00000000000E+00  0.00000000000E+00 -0.17050925896E+04  0.17050925896E+04  0.25500000920E-02 0. -1.
    10030    2    1    2    0    0  0.00000000000E+00  0.00000000000E+00  0.42687408783E+03  0.38370592669E+04  0.38132403978E+04 0.  0.
        5    1    3    3  502    0  0.72973335879E+03  0.17247224334E+04 -0.14656894299E+03  0.18784788507E+04  0.46999998093E+01 0. -1.
       -5    1    3    3    0  502 -0.72973335879E+03 -0.17247224334E+04  0.57344303082E+03  0.19585804163E+04  0.46999998093E+01 0.  1.
</event>
<event>
 5   0  0.2205204E-07  0.3790851E+04  0.7818609E-02  0.8048121E-01
       -2   -1    0    0    0  501  0.00000000000E+00  0.00000000000E+00  0.20785216362E+04  0.20785216362E+04  0.25500000920E-02 0. -1.
        2   -1    0    0  501    0  0.00000000000E+00  0.00000000000E+00 -0.17284582789E+04  0.17284582789E+04  0.25500000920E-02 0.  1.
    10030    2    1    2    0    0  0.00000000000E+00  0.00000000000E+00  0.35006335730E+03  0.38069799150E+04  0.37908510548E+04 0.  0.
        2    1    3    3  502    0  0.17546088211E+04 -0.41277562779E+03 -0.41363813570E+03  0.18493599815E+04  0.25500000920E-02 0.  1.
       -2    1    3    3    0  502 -0.17546088211E+04  0.41277562779E+03  0.76370149300E+03  0.19576199336E+04  0.25500000920E-02 0. -1.
</event>
<event>
 5   0  0.6661000E-08  0.3790157E+04  0.7818609E-02  0.8048271E-01
       -1   -1    0    0    0  501  0.00000000000E+00  0.00000000000E+00  0.29149287639E+04  0.29149287639E+04  0.50400001928E-02 0.  1.
        1   -1    0    0  501    0  0.00000000000E+00  0.00000000000E+00 -0.12320443721E+04  0.12320443721E+04  0.50400001928E-02 0. -1.
    10030    2    1    2    0    0  0.00000000000E+00  0.00000000000E+00  0.16828843918E+04  0.41469731360E+04  0.37901565026E+04 0.  0.
        3    1    3    3  502    0 -0.76496744519E+03 -0.38292179715E+02  0.27380310681E+04  0.28431418578E+04  0.10100000352E+00 0.  1.
       -3    1    3    3    0  502  0.76496744519E+03  0.38292179715E+02 -0.10551466763E+04  0.13038312782E+04  0.10100000352E+00 0. -1.
</event>
<event>
 5   0  0.1370688E-07  0.3792985E+04  0.7818609E-02  0.8047662E-01
        2   -1    0    0  501    0  0.00000000000E+00  0.00000000000E+00  0.18297553215E+04  0.18297553215E+04  0.25500000920E-02 0.  1.
       -2   -1    0    0    0  501  0.00000000000E+00  0.00000000000E+00 -0.19656634756E+04  0.19656634756E+04  0.25500000920E-02 0. -1.
    10030    2    1    2    0    0  0.00000000000E+00  0.00000000000E+00 -0.13590815408E+03  0.37954187971E+04  0.37929846848E+04 0.  0.
        5    1    3    3  502    0  0.85114465781E+03 -0.64533686231E+02  0.16266643337E+04  0.18370276998E+04  0.46999998093E+01 0.  1.
       -5    1    3    3    0  502 -0.85114465781E+03  0.64533686231E+02 -0.17625724878E+04  0.19583910973E+04  0.46999998093E+01 0. -1.
</event>
<event>
 5   0  0.6725199E-08  0.3785201E+04  0.7818609E-02  0.8049338E-01
       -1   -1    0    0    0  501  0.00000000000E+00  0.00000000000E+00  0.24847440100E+04  0.24847440100E+04  0.50400001928E-02 0. -1.
        1   -1    0    0  501    0  0.00000000000E+00  0.00000000000E+00 -0.14415717685E+04  0.14415717685E+04  0.50400001928E-02 0.  1.
    10030    2    1    2    0    0  0.00000000000E+00  0.00000000000E+00  0.10431722415E+04  0.39263157784E+04  0.37852010867E+04 0.  0.
        5    1    3    3  502    0 -0.14555271825E+04 -0.81206003615E+03  0.14516248271E+04  0.22102573628E+04  0.46999998093E+01 0. -1.
       -5    1    3    3    0  502  0.14555271825E+04  0.81206003615E+03 -0.40845258560E+03  0.17160584156E+04  0.46999998093E+01 0.  1.
</event>
<event>
 5   0  0.1370688E-07  0.3814641E+04  0.7818609E-02  0.8043020E-01
        2   -1    0    0  501    0  0.00000000000E+00  0.00000000000E+00  0.21595274036E+04  0.21595274036E+04  0.25500000920E-02 0. -1.
       -2   -1    0    0    0  501  0.00000000000E+00  0.00000000000E+00 -0.16845679895E+04  0.16845679895E+04  0.25500000920E-02 0.  1.
    10030    2    1    2    0    0  0.00000000000E+00  0.00000000000E+00  0.47495941408E+03  0.38440953931E+04  0.38146406051E+04 0.  0.
        5    1    3    3  502    0 -0.82017197321E+03  0.72545347997E+02  0.19712011623E+04  0.21362586467E+04  0.46999998093E+01 0. -1.
       -5    1    3    3    0  502  0.82017197321E+03 -0.72545347997E+02 -0.14962417482E+04  0.17078367464E+04  0.46999998093E+01 0.  1.
</event>
<event>
 5   0  0.2081337E-07  0.3797122E+04  0.7818609E-02  0.8046773E-01
       -2   -1    0    0    0  501  0.00000000000E+00  0.00000000000E+00  0.17193481521E+04  0.17193481521E+04  0.25500000920E-02 0. -1.
        2   -1    0    0  501    0  0.00000000000E+00  0.00000000000E+00 -0.20964534401E+04  0.20964534401E+04  0.25500000920E-02 0.  1.
    10030    2    1    2    0    0  0.00000000000E+00  0.00000000000E+00 -0.37710528799E+03  0.38158015921E+04  0.37971217247E+04 0.  0.
        1    1    3    3  502    0  0.91103597479E+03 -0.15030222009E+04 -0.91004778558E+03  0.19792041976E+04  0.50400001928E-02 0.  1.
       -1    1    3    3    0  502 -0.91103597479E+03  0.15030222009E+04  0.53294249759E+03  0.18365973945E+04  0.50400001928E-02 0. -1.
</event>
<event>
 5   0  0.2135314E-07  0.3810497E+04  0.7818609E-02  0.8043906E-01
        2   -1    0    0  501    0  0.00000000000E+00  0.00000000000E+00  0.11805925733E+04  0.11805925733E+04  0.25500000920E-02 0. -1.
       -2   -1    0    0    0  501  0.00000000000E+00  0.00000000000E+00 -0.30747026059E+04  0.30747026059E+04  0.25500000920E-02 0.  1.
    10030    2    1    2    0    0  0.00000000000E+00  0.00000000000E+00 -0.18941100326E+04  0.42552951792E+04  0.38104965880E+04 0.  0.
        4    1    3    3  502    0 -0.89261053909E+03 -0.13788387523E+04  0.13104891574E+03  0.16477637302E+04  0.12699999809E+01 0. -1.
       -4    1    3    3    0  502  0.89261053909E+03  0.13788387523E+04 -0.20251589483E+04  0.26075314491E+04  0.12699999809E+01 0.  1.
</event>
<event>
 5   0  0.6661000E-08  0.3806023E+04  0.7818609E-02  0.8044864E-01
        1   -1    0    0  501    0  0.00000000000E+00  0.00000000000E+00  0.25781322726E+04  0.25781322726E+04  0.50400001928E-02 0.  1.
       -1   -1    0    0    0  501  0.00000000000E+00  0.00000000000E+00 -0.14046808014E+04  0.14046808014E+04  0.50400001928E-02 0. -1.
    10030    2    1    2    0    0  0.00000000000E+00  0.00000000000E+00  0.11734514712E+04  0.39828130740E+04  0.38060230724E+04 0.  0.
        3    1    3    3  502    0  0.13844821336E+04 -0.12861676668E+04  0.82173440325E+03  0.20606468608E+04  0.10100000352E+00 0. -1.
       -3    1    3    3    0  502 -0.13844821336E+04  0.12861676668E+04  0.35171706792E+03  0.19221662132E+04  0.10100000352E+00 0.  1.
</event>
<event>
 5   0  0.6661000E-08  0.3761213E+04  0.7818609E-02  0.8054530E-01
        1   -1    0    0  501    0  0.00000000000E+00  0.00000000000E+00  0.20304445963E+04  0.20304445963E+04  0.50400001928E-02 0.  1.
       -1   -1    0    0    0  501  0.00000000000E+00  0.00000000000E+00 -0.17418259551E+04  0.17418259551E+04  0.50400001928E-02 0. -1.
    10030    2    1    2    0    0  0.00000000000E+00  0.00000000000E+00  0.28861864128E+03  0.37722705514E+04  0.37612131544E+04 0.  0.
        4    1    3    3  502    0  0.67634657189E+03  0.32111759830E+03  0.18745239558E+04  0.20185150163E+04  0.12699999809E+01 0.  1.
       -4    1    3    3    0  502 -0.67634657189E+03 -0.32111759830E+03 -0.15859053145E+04  0.17537555351E+04  0.12699999809E+01 0. -1.
</event>
<event>
 5   0  0.2081337E-07  0.3375616E+04  0.7818609E-02  0.8143917E-01
        2   -1    0    0  501    0  0.00000000000E+00  0.00000000000E+00  0.15244199955E+04  0.15244199956E+04  0.25500000920E-02 0.  1.
       -2   -1    0    0    0  501  0.00000000000E+00  0.00000000000E+00 -0.18687082166E+04  0.18687082166E+04  0.25500000920E-02 0. -1.
    10030    2    1    2    0    0  0.00000000000E+00  0.00000000000E+00 -0.34428822103E+03  0.33931282121E+04  0.33756161934E+04 0.  0.
        1    1    3    3  502    0  0.13588623090E+03  0.15917105778E+04  0.37537287185E+03  0.16410095747E+04  0.50400001928E-02 0. -1.
       -1    1    3    3    0  502 -0.13588623090E+03 -0.15917105778E+04 -0.71966109289E+03  0.17521186375E+04  0.50400001928E-02 0.  1.
</event>
<event>
 5   0  0.6661000E-08  0.3800752E+04  0.7818609E-02  0.8045993E-01
        1   -1    0    0  501    0  0.00000000000E+00  0.00000000000E+00  0.14209847388E+04  0.14209847388E+04  0.50400001928E-02 0. -1.
       -1   -1    0    0    0  501  0.00000000000E+00  0.00000000000E+00 -0.25414978467E+04  0.25414978468E+04  0.50400001928E-02 0.  1.
    10030    2    1    2    0    0  0.00000000000E+00  0.00000000000E+00 -0.11205131079E+04  0.39624825856E+04  0.38007523750E+04 0.  0.
        4    1    3    3  502    0 -0.15232714817E+04  0.76439816526E+03  0.31621145696E+03  0.17333931638E+04  0.12699999809E+01 0. -1.
       -4    1    3    3    0  502  0.15232714817E+04 -0.76439816526E+03 -0.14367245649E+04  0.22290894218E+04  0.12699999809E+01 0.  1.
</event>
<event>
 5   0  0.2135314E-07  0.3795754E+04  0.7818609E-02  0.8047067E-01
       -2   -1    0    0    0  501  0.00000000000E+00  0.00000000000E+00  0.18895042761E+04  0.18895042761E+04  0.25500000920E-02 0.  1.
        2   -1    0    0  501    0  0.00000000000E+00  0.00000000000E+00 -0.19062873124E+04  0.19062873124E+04  0.25500000920E-02 0. -1.
    10030    2    1    2    0    0  0.00000000000E+00  0.00000000000E+00 -0.16783036354E+02  0.37957915885E+04  0.37957544853E+04 0.  0.
        4    1    3    3  502    0 -0.60130992533E+02  0.98110007841E+03 -0.16319107956E+04  0.19050741607E+04  0.12699999809E+01 0. -1.
       -4    1    3    3    0  502  0.60130992533E+02 -0.98110007841E+03  0.16151277592E+04  0.18907174278E+04  0.12699999809E+01 0.  1.
</event>
<event>
 5   0  0.1370688E-07  0.3804366E+04  0.7818609E-02  0.8045219E-01
        2   -1    0    0  501    0  0.00000000000E+00  0.00000000000E+00  0.23496184121E+04  0.23496184121E+04  0.25500000920E-02 0. -1.
       -2   -1    0    0    0  501  0.00000000000E+00  0.00000000000E+00 -0.15399520977E+04  0.15399520977E+04  0.25500000920E-02 0.  1.
    10030    2    1    2    0    0  0.00000000000E+00  0.00000000000E+00  0.80966631446E+03  0.38895705098E+04  0.38043658092E+04 0.  0.
        5    1    3    3  502    0 -0.16257834938E+03  0.18337582277E+03 -0.15237382975E+04  0.15433272178E+04  0.46999998093E+01 0.  1.
       -5    1    3    3    0  502  0.16257834938E+03 -0.18337582277E+03  0.23334046119E+04  0.23462432920E+04  0.46999998093E+01 0. -1.
</event>
<event>
 5   0  0.1370688E-07  0.3762312E+04  0.7818609E-02  0.8054291E-01
       -2   -1    0    0    0  501  0.00000000000E+00  0.00000000000E+00  0.24517652418E+04  0.24517652418E+04  0.25500000920E-02 0.  1.
        2   -1    0    0  501    0  0.00000000000E+00  0.00000000000E+00 -0.14433473339E+04  0.14433473339E+04  0.25500000920E-02 0. -1.
    10030    2    1    2    0    0  0.00000000000E+00  0.00000000000E+00  0.10084179079E+04  0.38951125757E+04  0.37623124937E+04 0.  0.
        5    1    3    3  502    0 -0.16972118938E+04 -0.81114043776E+03  0.52056904715E+03  0.19517918037E+04  0.46999998093E+01 0.  1.
       -5    1    3    3    0  502  0.16972118938E+04  0.81114043776E+03  0.48784886072E+03  0.19433207720E+04  0.46999998093E+01 0. -1.
</event>
<event>
 5   0  0.6661000E-08  0.3780740E+04  0.7818609E-02  0.8050301E-01
        1   -1    0    0  501    0  0.00000000000E+00  0.00000000000E+00  0.14759524478E+04  0.14759524478E+04  0.50400001928E-02 0.  1.
       -1   -1    0    0    0  501  0.00000000000E+00  0.00000000000E+00 -0.24211474195E+04  0.24211474195E+04  0.50400001928E-02 0. -1.
    10030    2    1    2    0    0  0.00000000000E+00  0.00000000000E+00 -0.94519497175E+03  0.38970998673E+04  0.37807398537E+04 0.  0.
        2    1    3    3  502    0 -0.18654520378E+04 -0.25518016541E+03 -0.64652179626E+03  0.19907331954E+04  0.25500000920E-02 0. -1.
       -2    1    3    3    0  502  0.18654520378E+04  0.25518016541E+03 -0.29867317549E+03  0.19063666719E+04  0.25500000920E-02 0.  1.
</event>
<event>
 5   0  0.6661000E-08  0.3804738E+04  0.7818609E-02  0.8045139E-01
        1   -1    0    0  501    0  0.00000000000E+00  0.00000000000E+00  0.21950771719E+04  0.21950771719E+04  0.50400001928E-02 0. -1.
       -1   -1    0    0    0  501  0.00000000000E+00  0.00000000000E+00 -0.16486925311E+04  0.16486925311E+04  0.50400001928E-02 0.  1.
    10030    2    1    2    0    0  0.00000000000E+00  0.00000000000E+00  0.54638464077E+03  0.38437697030E+04  0.38047377510E+04 0.  0.
        2    1    3    3  502    0  0.36778083338E+03  0.17400260039E+04 -0.40905339251E+03  0.18249049054E+04  0.25500000920E-02 0.  1.
       -2    1    3    3    0  502 -0.36778083338E+03 -0.17400260039E+04  0.95543803329E+03  0.20188647977E+04  0.25500000920E-02 0. -1.
</event>
<event>
 5   0  0.6661000E-08  0.3362621E+04  0.7818609E-02  0.8147142E-01
        3   -1    0    0  501    0  0.00000000000E+00  0.00000000000E+00  0.20795269525E+04  0.20795269550E+04  0.10100000352E+00 0.  1.
       -3   -1    0    0    0  501  0.00000000000E+00  0.00000000000E+00 -0.13593503234E+04  0.13593503272E+04  0.10100000352E+00 0. -1.
    10030    2    1    2    0    0  0.00000000000E+00  0.00000000000E+00  0.72017662911E+03  0.34388772822E+04  0.33626213859E+04 0.  0.
        3    1    3    3  502    0  0.12210368964E+04 -0.88548948251E+03 -0.39957793152E+03  0.15603478008E+04  0.10100000352E+00 0. -1.
       -3    1    3    3    0  502 -0.12210368964E+04  0.88548948251E+03  0.11197545606E+04  0.18785294813E+04  0.10100000352E+00 0.  1.
</event>
<event>
 5   0  0.6661000E-08  0.3793495E+04  0.7818609E-02  0.8047552E-01
        1   -1    0    0  501    0  0.00000000000E+00  0.00000000000E+00  0.20342440909E+04  0.20342440909E+04  0.50400001928E-02 0.  1.
       -1   -1    0    0    0  501  0.00000000000E+00  0.00000000000E+00 -0.17685440013E+04  0.17685440013E+04  0.50400001928E-02 0. -1.
    10030    2    1    2    0    0  0.00000000000E+00  0.00000000000E+00  0.26570008960E+03  0.38027880922E+04  0.37934945284E+04 0.  0.
        1    1    3    3  502    0 -0.13394528484E+04 -0.13075445460E+04  0.43993941790E+03  0.19228503229E+04  0.50400001928E-02 0.  1.
       -1    1    3    3    0  502  0.13394528484E+04  0.13075445460E+04 -0.17423932830E+03  0.18799377693E+04  0.50400001928E-02 0. -1.
</event>
<event>
 5   0  0.1370688E-07  0.3714117E+04  0.7818609E-02  0.8064840E-01
       -2   -1    0    0    0  501  0.00000000000E+00  0.00000000000E+00  0.29467432149E+04  0.29467432149E+04  0.25500000920E-02 0.  1.
        2   -1    0    0  501    0  0.00000000000E+00  0.00000000000E+00 -0.11703316916E+04  0.11703316916E+04  0.25500000920E-02 0. -1.
    10030    2    1    2    0    0  0.00000000000E+00  0.00000000000E+00  0.17764115233E+04  0.41170749066E+04  0.37141173765E+04 0.  0.
        5    1    3    3  502    0 -0.28326102194E+03 -0.89536765115E+03  0.26641233208E+04  0.28248000276E+04  0.46999998093E+01 0.  1.
       -5    1    3    3    0  502  0.28326102194E+03  0.89536765115E+03 -0.88771179757E+03  0.12922748790E+04  0.46999998093E+01 0. -1.
</event>
<event>
 5   0  0.2081337E-07  0.3809119E+04  0.7818609E-02  0.8044201E-01
       -2   -1    0    0    0  501  0.00000000000E+00  0.00000000000E+00  0.17302192146E+04  0.17302192146E+04  0.25500000920E-02 0. -1.
        2   -1    0    0  501    0  0.00000000000E+00  0.00000000000E+00 -0.20964667020E+04  0.20964667020E+04  0.25500000920E-02 0.  1.
    10030    2    1    2    0    0  0.00000000000E+00  0.00000000000E+00 -0.36624748736E+03  0.38266859166E+04  0.38091190428E+04 0.  0.
        1    1    3    3  502    0 -0.14112043921E+04 -0.14535758636E+03  0.10934529932E+04  0.17911633406E+04  0.50400001928E-02 0. -1.
       -1    1    3    3    0  502  0.14112043921E+04  0.14535758636E+03 -0.14597004806E+04  0.20355225760E+04  0.50400001928E-02 0.  1.
</event>
<event>
 5   0  0.2081337E-07  0.3827672E+04  0.7818609E-02  0.8040242E-01
        2   -1    0    0  501    0  0.00000000000E+00  0.00000000000E+00  0.14326098311E+04  0.14326098311E+04  0.25500000920E-02 0. -1.
       -2   -1    0    0    0  501  0.00000000000E+00  0.00000000000E+00 -0.25567102831E+04  0.25567102831E+04  0.25500000920E-02 0.  1.
    10030    2    1    2    0    0  0.00000000000E+00  0.00000000000E+00 -0.11241004520E+04  0.39893201142E+04  0.38276720271E+04 0.  0.
        1    1    3    3  502    0  0.14373665593E+04  0.61211058521E+03 -0.17142069297E+04  0.23193118359E+04  0.50400001928E-02 0.  1.
       -1    1    3    3    0  502 -0.14373665593E+04 -0.61211058521E+03  0.59010647771E+03  0.16700082783E+04  0.50400001928E-02 0. -1.
</event>
<event>
 5   0  0.2081337E-07  0.3807355E+04  0.7818609E-02  0.8044578E-01
       -2   -1    0    0    0  501  0.00000000000E+00  0.00000000000E+00  0.15350076036E+04  0.15350076036E+04  0.25500000920E-02 0. -1.
        2   -1    0    0  501    0  0.00000000000E+00  0.00000000000E+00 -0.23608930558E+04  0.23608930558E+04  0.25500000920E-02 0.  1.
    10030    2    1    2    0    0  0.00000000000E+00  0.00000000000E+00 -0.82588545216E+03  0.38959006594E+04  0.38073554034E+04 0.  0.
        1    1    3    3  502    0 -0.46392655777E+03 -0.49229107862E+03  0.14078816542E+04  0.15619568206E+04  0.50400001928E-02 0. -1.
       -1    1    3    3    0  502  0.46392655777E+03  0.49229107862E+03 -0.22337671064E+04  0.23339438388E+04  0.50400001928E-02 0.  1.
</event>
<event>
 5   0  0.6661000E-08  0.3833004E+04  0.7818609E-02  0.8039109E-01
       -1   -1    0    0    0  501  0.00000000000E+00  0.00000000000E+00  0.29458123256E+04  0.29458123256E+04  0.50400001928E-02 0.  1.
        1   -1    0    0  501    0  0.00000000000E+00  0.00000000000E+00 -0.12468481017E+04  0.12468481017E+04  0.50400001928E-02 0. -1.
    10030    2    1    2    0    0  0.00000000000E+00  0.00000000000E+00  0.16989642239E+04  0.41926604273E+04  0.38330043079E+04 0.  0.
        2    1    3    3  502    0  0.14824776528E+04  0.51933453611E+03 -0.35150896669E+03  0.16096604938E+04  0.25500000920E-02 0. -1.
       -2    1    3    3    0  502 -0.14824776528E+04 -0.51933453611E+03  0.20504731906E+04  0.25829999335E+04  0.25500000920E-02 0.  1.
</event>
<event>
 5   0  0.6725199E-08  0.3799746E+04  0.7818609E-02  0.8046209E-01
        1   -1    0    0  501    0  0.00000000000E+00  0.00000000000E+00  0.15569710296E+04  0.15569710296E+04  0.50400001928E-02 0.  1.
       -1   -1    0    0    0  501  0.00000000000E+00  0.00000000000E+00 -0.23182940302E+04  0.23182940302E+04  0.50400001928E-02 0. -1.
    10030    2    1    2    0    0  0.00000000000E+00  0.00000000000E+00 -0.76132300052E+03  0.38752650598E+04  0.37997455931E+04 0.  0.
        5    1    3    3  502    0 -0.46853325058E+03 -0.78298209829E+03  0.13188644841E+04  0.16037487305E+04  0.46999998093E+01 0.  1.
       -5    1    3    3    0  502  0.46853325058E+03  0.78298209829E+03 -0.20801874846E+04  0.22715163293E+04  0.46999998093E+01 0. -1.
</event>
<event>
 5   0  0.1370688E-07  0.3663325E+04  0.7818609E-02  0.8076138E-01
        2   -1    0    0  501    0  0.00000000000E+00  0.00000000000E+00  0.13261366236E+04  0.13261366236E+04  0.25500000920E-02 0. -1.
       -2   -1    0    0    0  501  0.00000000000E+00  0.00000000000E+00 -0.25298954606E+04  0.25298954606E+04  0.25500000920E-02 0.  1.
    10030    2    1    2    0    0  0.00000000000E+00  0.00000000000E+00 -0.12037588370E+04  0.38560320842E+04  0.36633247327E+04 0.  0.
        5    1    3    3  502    0 -0.78382945977E+03  0.16060199439E+04 -0.17916171981E+03  0.17960539230E+04  0.46999998093E+01 0.  1.
       -5    1    3    3    0  502  0.78382945977E+03 -0.16060199439E+04 -0.10245971172E+04  0.20599781613E+04  0.46999998093E+01 0. -1.
</event>
<event>
 5   0  0.6661000E-08  0.3792597E+04  0.7818609E-02  0.8047745E-01
       -1   -1    0    0    0  501  0.00000000000E+00  0.00000000000E+00  0.15079524075E+04  0.15079524075E+04  0.50400001928E-02 0.  1.
        1   -1    0    0  501    0  0.00000000000E+00  0.00000000000E+00 -0.23846557727E+04  0.23846557727E+04  0.50400001928E-02 0. -1.
    10030    2    1    2    0    0  0.00000000000E+00  0.00000000000E+00 -0.87670336519E+03  0.38926081801E+04  0.37925966901E+04 0.  0.
        2    1    3    3  502    0 -0.53942452096E+03  0.12575238613E+04  0.90912905785E+03  0.16428209638E+04  0.25500000920E-02 0.  1.
       -2    1    3    3    0  502  0.53942452096E+03 -0.12575238613E+04 -0.17858324230E+04  0.22497872163E+04  0.25500000920E-02 0. -1.
</event>
<event>
 5   0  0.2205204E-07  0.3791983E+04  0.7818609E-02  0.8047878E-01
       -2   -1    0    0    0  501  0.00000000000E+00  0.00000000000E+00  0.14531932438E+04  0.14531932438E+04  0.25500000920E-02 0. -1.
        2   -1    0    0  501    0  0.00000000000E+00  0.00000000000E+00 -0.24737132353E+04  0.24737132353E+04  0.25500000920E-02 0.  1.
    10030    2    1    2    0    0  0.00000000000E+00  0.00000000000E+00 -0.10205199916E+04  0.39269064791E+04  0.37919827851E+04 0.  0.
        2    1    3    3  502    0  0.17190398703E+04  0.61955534712E+03  0.13539911463E+02  0.18273287151E+04  0.25500000920E-02 0.  1.
       -2    1    3    3    0  502 -0.17190398703E+04 -0.61955534712E+03 -0.10340599030E+04  0.20995777640E+04  0.25500000920E-02 0. -1.
</event>
<event>
 5   0  0.6661000E-08  0.3773270E+04  0.7818609E-02  0.8051915E-01
       -1   -1    0    0    0  501  0.00000000000E+00  0.00000000000E+00  0.21195968396E+04  0.21195968396E+04  0.50400001928E-02 0.  1.
        1   -1    0    0  501    0  0.00000000000E+00  0.00000000000E+00 -0.16792778094E+04  0.16792778094E+04  0.50400001928E-02 0. -1.
    10030    2    1    2    0    0  0.00000000000E+00  0.00000000000E+00  0.44031903016E+03  0.37988746490E+04  0.37732701667E+04 0.  0.
        1    1    3    3  502    0 -0.86799781493E+03  0.90542014122E+03 -0.11987249395E+04  0.17349776135E+04  0.50400001928E-02 0. -1.
       -1    1    3    3    0  502  0.86799781493E+03 -0.90542014122E+03  0.16390439696E+04  0.20638970355E+04  0.50400001928E-02 0.  1.
</event>
<event>
 5   0  0.2203998E-07  0.3815676E+04  0.7818609E-02  0.8042799E-01
        2   -1    0    0  501    0  0.00000000000E+00  0.00000000000E+00  0.27898099084E+04  0.27898099084E+04  0.25500000920E-02 0.  1.
       -2   -1    0    0    0  501  0.00000000000E+00  0.00000000000E+00 -0.13046928831E+04  0.13046928831E+04  0.25500000920E-02 0. -1.
    10030    2    1    2    0    0  0.00000000000E+00  0.00000000000E+00  0.14851170253E+04  0.40945027915E+04  0.38156756323E+04 0.  0.
        3    1    3    3  502    0 -0.35991587050E+03  0.17176773794E+04  0.15454948648E+04  0.23384844239E+04  0.10100000352E+00 0.  1.
       -3    1    3    3    0  502  0.35991587050E+03 -0.17176773794E+04 -0.60377839489E+02  0.17560183676E+04  0.10100000352E+00 0. -1.
</event>
<event>
 5   0  0.1370688E-07  0.3803524E+04  0.7818609E-02  0.8045399E-01
        2   -1    0    0  501    0  0.00000000000E+00  0.00000000000E+00  0.28953664134E+04  0.28953664134E+04  0.25500000920E-02 0. -1.
       -2   -1    0    0    0  501  0.00000000000E+00  0.00000000000E+00 -0.12491330375E+04  0.12491330375E+04  0.25500000920E-02 0.  1.
    10030    2    1    2    0    0  0.00000000000E+00  0.00000000000E+00  0.16462333758E+04  0.41444994509E+04  0.38035235468E+04 0.  0.
        5    1    3    3  502    0  0.13839698337E+04 -0.11058526800E+04  0.69451541170E+02  0.17728869837E+04  0.46999998093E+01 0.  1.
       -5    1    3    3    0  502 -0.13839698337E+04  0.11058526800E+04  0.15767818347E+04  0.23716124672E+04  0.46999998093E+01 0. -1.
</event>
<event>
 5   0  0.6661000E-08  0.3915100E+04  0.7818609E-02  0.8021896E-01
        1   -1    0    0  501    0  0.00000000000E+00  0.00000000000E+00  0.16094922084E+04  0.16094922084E+04  0.50400001928E-02 0.  1.
       -1   -1    0    0    0  501  0.00000000000E+00  0.00000000000E+00 -0.23808764900E+04  0.23808764900E+04  0.50400001928E-02 0. -1.
    10030    2    1    2    0    0  0.00000000000E+00  0.00000000000E+00 -0.77138428159E+03  0.39903686984E+04  0.39151000804E+04 0.  0.
        1    1    3    3  502    0 -0.20939429135E+03 -0.18468011157E+04 -0.10118995222E+04  0.21162374567E+04  0.50400001928E-02 0.  1.
       -1    1    3    3    0  502  0.20939429135E+03  0.18468011157E+04  0.24051524061E+03  0.18741312417E+04  0.50400001928E-02 0. -1.
</event>
<event>
 5   0  0.6661000E-08  0.3345231E+04  0.7818609E-02  0.8151481E-01
       -1   -1    0    0    0  501  0.00000000000E+00  0.00000000000E+00  0.14387278631E+04  0.14387278631E+04  0.50400001928E-02 0. -1.
        1   -1    0    0  501    0  0.00000000000E+00  0.00000000000E+00 -0.19445253403E+04  0.19445253403E+04  0.50400001928E-02 0.  1.
    10030    2    1    2    0    0  0.00000000000E+00  0.00000000000E+00 -0.50579747720E+03  0.33832532034E+04  0.33452311056E+04 0.  0.
        4    1    3    3  502    0  0.89172931593E+03 -0.10984622416E+04 -0.11551374346E+04  0.18265115863E+04  0.12699999809E+01 0.  1.
       -4    1    3    3    0  502 -0.89172931593E+03  0.10984622416E+04  0.64933995744E+03  0.15567416171E+04  0.12699999809E+01 0. -1.
</event>
<event>
 5   0  0.6725199E-08  0.3794630E+04  0.7818609E-02  0.8047308E-01
        1   -1    0    0  501    0  0.00000000000E+00  0.00000000000E+00  0.25868015819E+04  0.25868015819E+04  0.50400001928E-02 0. -1.
       -1   -1    0    0    0  501  0.00000000000E+00  0.00000000000E+00 -0.13916043883E+04  0.13916043883E+04  0.50400001928E-02 0.  1.
    10030    2    1    2    0    0  0.00000000000E+00  0.00000000000E+00  0.11951971936E+04  0.39784059702E+04  0.37946301179E+04 0.  0.
        5    1    3    3  502    0 -0.12681100247E+04 -0.60610263368E+03  0.19338103829E+04  0.23906292319E+04  0.46999998093E+01 0. -1.
       -5    1    3    3    0  502  0.12681100247E+04  0.60610263368E+03 -0.73861318931E+03  0.15877767383E+04  0.46999998093E+01 0.  1.
</event>
<event>
 5   0  0.6725199E-08  0.3799686E+04  0.7818609E-02  0.8046222E-01
       -1   -1    0    0    0  501  0.00000000000E+00  0.00000000000E+00  0.14986157102E+04  0.14986157102E+04  0.50400001928E-02 0.  1.
        1   -1    0    0  501    0  0.00000000000E+00  0.00000000000E+00 -0.24084912919E+04  0.24084912919E+04  0.50400001928E-02 0. -1.
    10030    2    1    2    0    0  0.00000000000E+00  0.00000000000E+00 -0.90987558167E+03  0.39071070022E+04  0.37996857176E+04 0.  0.
        5    1    3    3  502    0 -0.99265866531E+02 -0.37003442311E+03 -0.23683515482E+04  0.23991436665E+04  0.46999998093E+01 0. -1.
       -5    1    3    3    0  502  0.99265866531E+02  0.37003442311E+03  0.14584759666E+04  0.15079633356E+04  0.46999998093E+01 0.  1.
</event>
<event>
 5   0  0.1370688E-07  0.3792717E+04  0.7818609E-02  0.8047720E-01
        2   -1    0    0  501    0  0.00000000000E+00  0.00000000000E+00  0.18616971247E+04  0.18616971247E+04  0.25500000920E-02 0.  1.
       -2   -1    0    0    0  501  0.00000000000E+00  0.00000000000E+00 -0.19316654400E+04  0.19316654400E+04  0.25500000920E-02 0. -1.
    10030    2    1    2    0    0  0.00000000000E+00  0.00000000000E+00 -0.69968315303E+02  0.37933625647E+04  0.37927172294E+04 0.  0.
        5    1    3    3  502    0 -0.16188215383E+04 -0.73209091274E+03  0.62816231382E+03  0.18844495907E+04  0.46999998093E+01 0. -1.
       -5    1    3    3    0  502  0.16188215383E+04  0.73209091274E+03 -0.69813062912E+03  0.19089129741E+04  0.46999998093E+01 0.  1.
</event>
<event>
 5   0  0.1370688E-07  0.3813847E+04  0.7818609E-02  0.8043190E-01
        2   -1    0    0  501    0  0.00000000000E+00  0.00000000000E+00  0.23269200462E+04  0.23269200462E+04  0.25500000920E-02 0.  1.
       -2   -1    0    0    0  501  0.00000000000E+00  0.00000000000E+00 -0.15627343164E+04  0.15627343164E+04  0.25500000920E-02 0. -1.
    10030    2    1    2    0    0  0.00000000000E+00  0.00000000000E+00  0.76418572982E+03  0.38896543626E+04  0.38138473004E+04 0.  0.
        5    1    3    3  502    0  0.11116533793E+04 -0.11927309508E+04  0.13906656066E+04  0.21429776658E+04  0.46999998093E+01 0.  1.
       -5    1    3    3    0  502 -0.11116533793E+04  0.11927309508E+04 -0.62647987675E+03  0.17466766967E+04  0.46999998093E+01 0. -1.
</event>
<event>
 5   0  0.2203998E-07  0.3798938E+04  0.7818609E-02  0.8046383E-01
       -2   -1    0    0    0  501  0.00000000000E+00  0.00000000000E+00  0.16116771597E+04  0.16116771597E+04  0.25500000920E-02 0.  1.
        2   -1    0    0  501    0  0.00000000000E+00  0.00000000000E+00 -0.22386505526E+04  0.22386505526E+04  0.25500000920E-02 0. -1.
    10030    2    1    2    0    0  0.00000000000E+00  0.00000000000E+00 -0.62697339293E+03  0.38503277123E+04  0.37989377274E+04 0.  0.
        3    1    3    3  502    0 -0.52905797179E+03 -0.12739471269E+04 -0.16369604395E+04  0.21406735179E+04  0.10100000352E+00 0. -1.
       -3    1    3    3    0  502  0.52905797179E+03  0.12739471269E+04  0.10099870466E+04  0.17096541943E+04  0.10100000352E+00 0.  1.
</event>
<event>
 5   0  0.1370688E-07  0.3874628E+04  0.7818609E-02  0.8030327E-01
        2   -1    0    0  501    0  0.00000000000E+00  0.00000000000E+00  0.24087173539E+04  0.24087173539E+04  0.25500000920E-02 0. -1.
       -2   -1    0    0    0  501  0.00000000000E+00  0.00000000000E+00 -0.15581677863E+04  0.15581677863E+04  0.25500000920E-02 0.  1.
    10030    2    1    2    0    0  0.00000000000E+00  0.00000000000E+00  0.85054956758E+03  0.39668851403E+04  0.38746281304E+04 0.  0.
        5    1    3    3  502    0  0.61181914530E+03 -0.18318103148E+04  0.58159292308E+03  0.20169591256E+04  0.46999998093E+01 0.  1.
       -5    1    3    3    0  502 -0.61181914530E+03  0.18318103148E+04  0.26895664450E+03  0.19499260147E+04  0.46999998093E+01 0. -1.
</event>
<event>
 5   0  0.6661000E-08  0.3738384E+04  0.7818609E-02  0.8059508E-01
       -1   -1    0    0    0  501  0.00000000000E+00  0.00000000000E+00  0.24109057037E+04  0.24109057037E+04  0.50400001928E-02 0. -1.
        1   -1    0    0  501    0  0.00000000000E+00  0.00000000000E+00 -0.14491976695E+04  0.14491976695E+04  0.50400001928E-02 0.  1.
    10030    2    1    2    0    0  0.00000000000E+00  0.00000000000E+00  0.96170803421E+03  0.38601033731E+04  0.37383841039E+04 0.  0.
        2    1    3    3  502    0 -0.36052842661E+03 -0.14081878880E+04 -0.73252623702E+03  0.16277495392E+04  0.25500000920E-02 0.  1.
       -2    1    3    3    0  502  0.36052842661E+03  0.14081878880E+04  0.16942342712E+04  0.22323538340E+04  0.25500000920E-02 0. -1.
</event>
<event>
 5   0  0.2203998E-07  0.3787212E+04  0.7818609E-02  0.8048905E-01
       -2   -1    0    0    0  501  0.00000000000E+00  0.00000000000E+00  0.16104508291E+04  0.16104508291E+04  0.25500000920E-02 0. -1.
        2   -1    0    0  501    0  0.00000000000E+00  0.00000000000E+00 -0.22265470696E+04  0.22265470696E+04  0.25500000920E-02 0.  1.
    10030    2    1    2    0    0  0.00000000000E+00  0.00000000000E+00 -0.61609624051E+03  0.38369978987E+04  0.37872124705E+04 0.  0.
        3    1    3    3  502    0 -0.79767416464E+03 -0.16405065957E+04 -0.82286032302E+03  0.20011609343E+04  0.10100000352E+00 0.  1.
       -3    1    3    3    0  502  0.79767416464E+03  0.16405065957E+04  0.20676408250E+03  0.18358369643E+04  0.10100000352E+00 0. -1.
</event>
<event>
 5   0  0.2135314E-07  0.3770372E+04  0.7818609E-02  0.8052543E-01
        2   -1    0    0  501    0  0.00000000000E+00  0.00000000000E+00  0.16469824354E+04  0.16469824354E+04  0.25500000920E-02 0.  1.
       -2   -1    0    0    0  501  0.00000000000E+00  0.00000000000E+00 -0.21578412454E+04  0.21578412454E+04  0.25500000920E-02 0. -1.
    10030    2    1    2    0    0  0.00000000000E+00  0.00000000000E+00 -0.51085881004E+03  0.38048236808E+04  0.37703721988E+04 0.  0.
        4    1    3    3  502    0  0.98737493058E+03 -0.11881535050E+04  0.83486267811E+03  0.17560225822E+04  0.12699999809E+01 0.  1.
       -4    1    3    3    0  502 -0.98737493058E+03  0.11881535050E+04 -0.13457214882E+04  0.20488010986E+04  0.12699999809E+01 0. -1.
</event>
<event>
 5   0  0.2203998E-07  0.3747937E+04  0.7818609E-02  0.8057421E-01
       -2   -1    0    0    0  501  0.00000000000E+00  0.00000000000E+00  0.11928103580E+04  0.11928103580E+04  0.25500000920E-02 0. -1.
        2   -1    0    0  501    0  0.00000000000E+00  0.00000000000E+00 -0.29441038507E+04  0.29441038507E+04  0.25500000920E-02 0.  1.
    10030    2    1    2    0    0  0.00000000000E+00  0.00000000000E+00 -0.17512934926E+04  0.41369142087E+04  0.37479368021E+04 0.  0.
        3    1    3    3  502    0  0.53287793866E+03 -0.43311457056E+03 -0.28002272307E+04  0.28831960881E+04  0.10100000352E+00 0.  1.
       -3    1    3    3    0  502 -0.53287793866E+03  0.43311457056E+03  0.10489337381E+04  0.12537181206E+04  0.10100000352E+00 0. -1.
</event>
<event>
 5   0  0.1370688E-07  0.3785279E+04  0.7818609E-02  0.8049321E-01
       -2   -1    0    0    0  501  0.00000000000E+00  0.00000000000E+00  0.16056519590E+04  0.16056519590E+04  0.25500000920E-02 0.  1.
        2   -1    0    0  501    0  0.00000000000E+00  0.00000000000E+00 -0.22309225595E+04  0.22309225595E+04  0.25500000920E-02 0. -1.
    10030    2    1    2    0    0  0.00000000000E+00  0.00000000000E+00 -0.62527060057E+03  0.38365745185E+04  0.37852794761E+04 0.  0.
        5    1    3    3  502    0  0.68090246549E+03  0.45657848404E+03  0.14163448968E+04  0.16365045176E+04  0.46999998093E+01 0.  1.
       -5    1    3    3    0  502 -0.68090246549E+03 -0.45657848404E+03 -0.20416154974E+04  0.22000700009E+04  0.46999998093E+01 0. -1.
</event>
<event>
 5   0  0.2205204E-07  0.3817805E+04  0.7818609E-02  0.8042345E-01
       -2   -1    0    0    0  501  0.00000000000E+00  0.00000000000E+00  0.17567459421E+04  0.17567459421E+04  0.25500000920E-02 0. -1.
        2   -1    0    0  501    0  0.00000000000E+00  0.00000000000E+00 -0.20742372744E+04  0.20742372744E+04  0.25500000920E-02 0.  1.
    10030    2    1    2    0    0  0.00000000000E+00  0.00000000000E+00 -0.31749133222E+03  0.38309832165E+04  0.38178045601E+04 0.  0.
        2    1    3    3  502    0  0.18657558534E+04  0.17022905491E+02 -0.56334119163E+03  0.19490223144E+04  0.25500000920E-02 0. -1.
       -2    1    3    3    0  502 -0.18657558534E+04 -0.17022905491E+02  0.24584985941E+03  0.18819609021E+04  0.25500000920E-02 0.  1.
</event>
<event>
 5   0  0.6661000E-08  0.3760959E+04  0.7818609E-02  0.8054585E-01
       -1   -1    0    0    0  501  0.00000000000E+00  0.00000000000E+00  0.30209294007E+04  0.30209294007E+04  0.50400001928E-02 0.  1.
        1   -1    0    0  501    0  0.00000000000E+00  0.00000000000E+00 -0.11705680545E+04  0.11705680545E+04  0.50400001928E-02 0. -1.
    10030    2    1    2    0    0  0.00000000000E+00  0.00000000000E+00  0.18503613462E+04  0.41914974553E+04  0.37609591604E+04 0.  0.
        2    1    3    3  502    0  0.94187645301E+03  0.13756379927E+04 -0.44280119908E+02  0.16677745258E+04  0.25500000920E-02 0. -1.
       -2    1    3    3    0  502 -0.94187645301E+03 -0.13756379927E+04  0.18946414661E+04  0.25237229295E+04  0.25500000920E-02 0.  1.
</event>
<event>
 5   0  0.6661000E-08  0.3609673E+04  0.7818609E-02  0.8088280E-01
       -1   -1    0    0    0  501  0.00000000000E+00  0.00000000000E+00  0.21643549302E+04  0.21643549302E+04  0.50400001928E-02 0. -1.
        1   -1    0    0  501    0  0.00000000000E+00  0.00000000000E+00 -0.15050374199E+04  0.15050374199E+04  0.50400001928E-02 0.  1.
    10030    2    1    2    0    0  0.00000000000E+00  0.00000000000E+00  0.65931751035E+03  0.36693923501E+04  0.36096732040E+04 0.  0.
        2    1    3    3  502    0 -0.12675325618E+04  0.34845766757E+03 -0.92747955949E+03  0.16088131883E+04  0.25500000920E-02 0.  1.
       -2    1    3    3    0  502  0.12675325618E+04 -0.34845766757E+03  0.15867970698E+04  0.20605791619E+04  0.25500000920E-02 0. -1.
</event>
<event>
 5   0  0.2135314E-07  0.3765738E+04  0.7818609E-02  0.8053548E-01
        2   -1    0    0  501    0  0.00000000000E+00  0.00000000000E+00  0.98649350834E+03  0.98649350835E+03  0.25500000920E-02 0.  1.
       -2   -1    0    0    0  501  0.00000000000E+00  0.00000000000E+00 -0.35937337137E+04  0.35937337137E+04  0.25500000920E-02 0. -1.
    10030    2    1    2    0    0  0.00000000000E+00  0.00000000000E+00 -0.26072402053E+04  0.45802272220E+04  0.37657376325E+04 0.  0.
        4    1    3    3  502    0 -0.14164291609E+04  0.11055551061E+03  0.19922325166E+03  0.14346377960E+04  0.12699999809E+01 0.  1.
       -4    1    3    3    0  502  0.14164291609E+04 -0.11055551061E+03 -0.28064634570E+04  0.31455894260E+04  0.12699999809E+01 0. -1.
</event>
<event>
 5   0  0.6661000E-08  0.3735476E+04  0.7818609E-02  0.8060145E-01
        1   -1    0    0  501    0  0.00000000000E+00  0.00000000000E+00  0.19403992308E+04  0.19403992308E+04  0.50400001928E-02 0. -1.
       -1   -1    0    0    0  501  0.00000000000E+00  0.00000000000E+00 -0.17977977149E+04  0.17977977149E+04  0.50400001928E-02 0.  1.
    10030    2    1    2    0    0  0.00000000000E+00  0.00000000000E+00  0.14260151586E+03  0.37381969457E+04  0.37354760356E+04 0.  0.
        3    1    3    3  502    0  0.70798105512E+03  0.15793909775E+04 -0.63115944007E+03  0.18423016265E+04  0.10100000352E+00 0. -1.
       -3    1    3    3    0  502 -0.70798105512E+03 -0.15793909775E+04  0.77376095593E+03  0.18958953192E+04  0.10100000352E+00 0.  1.
</event>
<event>
 5   0  0.1370688E-07  0.3787575E+04  0.7818609E-02  0.8048826E-01
        2   -1    0    0  501    0  0.00000000000E+00  0.00000000000E+00  0.19817357955E+04  0.19817357955E+04  0.25500000920E-02 0. -1.
       -2   -1    0    0    0  501  0.00000000000E+00  0.00000000000E+00 -0.18097426038E+04  0.18097426038E+04  0.25500000920E-02 0.  1.
    10030    2    1    2    0    0  0.00000000000E+00  0.00000000000E+00  0.17199319173E+03  0.37914783993E+04  0.37875753187E+04 0.  0.
        5    1    3    3  502    0  0.17396790183E+04  0.60654972557E+03 -0.35266035001E+03  0.18758403633E+04  0.46999998093E+01 0. -1.
       -5    1    3    3    0  502 -0.17396790183E+04 -0.60654972557E+03  0.52465354174E+03  0.19156380360E+04  0.46999998093E+01 0.  1.
</event>
<event>
 5   0  0.2203998E-07  0.3807234E+04  0.7818609E-02  0.8044604E-01
        2   -1    0    0  501    0  0.00000000000E+00  0.00000000000E+00  0.26581330004E+04  0.26581330004E+04  0.25500000920E-02 0.  1.
       -2   -1    0    0    0  501  0.00000000000E+00  0.00000000000E+00 -0.13632717907E+04  0.13632717907E+04  0.25500000920E-02 0. -1.
    10030    2    1    2    0    0  0.00000000000E+00  0.00000000000E+00  0.12948612097E+04  0.40214047911E+04  0.38072340276E+04 0.  0.
        3    1    3    3  502    0  0.77923240048E+02  0.17615867516E+04 -0.11020431437E+03  0.17667498170E+04  0.10100000352E+00 0. -1.
       -3    1    3    3    0  502 -0.77923240048E+02 -0.17615867516E+04  0.14050655241E+04  0.22546549740E+04  0.10100000352E+00 0.  1.
</event>
<event>
 5   0  0.2203998E-07  0.3784038E+04  0.7818609E-02  0.8049589E-01
        2   -1    0    0  501    0  0.00000000000E+00  0.00000000000E+00  0.20735416940E+04  0.20735416940E+04  0.25500000920E-02 0. -1.
       -2   -1    0    0    0  501  0.00000000000E+00  0.00000000000E+00 -0.17263869467E+04  0.17263869467E+04  0.25500000920E-02 0.  1.
    10030    2    1    2    0    0  0.00000000000E+00  0.00000000000E+00  0.34715474732E+03  0.37999286406E+04  0.37840376921E+04 0.  0.
        3    1    3    3  502    0  0.25596529887E+03  0.18029032020E+04 -0.34215224992E+03  0.18528481757E+04  0.10100000352E+00 0.  1.
       -3    1    3    3    0  502 -0.25596529887E+03 -0.18029032020E+04  0.68930699724E+03  0.19470804649E+04  0.10100000352E+00 0. -1.
</event>
<event>
 5   0  0.2135314E-07  0.3840407E+04  0.7818609E-02  0.8037539E-01
        2   -1    0    0  501    0  0.00000000000E+00  0.00000000000E+00  0.12052764596E+04  0.12052764596E+04  0.25500000920E-02 0.  1.
       -2   -1    0    0    0  501  0.00000000000E+00  0.00000000000E+00 -0.30591997711E+04  0.30591997711E+04  0.25500000920E-02 0. -1.
    10030    2    1    2    0    0  0.00000000000E+00  0.00000000000E+00 -0.18539233115E+04  0.42644762306E+04  0.38404069936E+04 0.  0.
        4    1    3    3  502    0  0.19167804785E+04 -0.94111912252E+02 -0.99956838870E+03  0.21638029096E+04  0.12699999809E+01 0. -1.
       -4    1    3    3    0  502 -0.19167804785E+04  0.94111912252E+02 -0.85435492280E+03  0.21006733211E+04  0.12699999809E+01 0.  1.
</event>
<event>
 5   0  0.6661000E-08  0.3799880E+04  0.7818609E-02  0.8046181E-01
        1   -1    0    0  501    0  0.00000000000E+00  0.00000000000E+00  0.22996254781E+04  0.22996254781E+04  0.50400001928E-02 0.  1.
       -1   -1    0    0    0  501  0.00000000000E+00  0.00000000000E+00 -0.15697217249E+04  0.15697217249E+04  0.50400001928E-02 0. -1.
    10030    2    1    2    0    0  0.00000000000E+00  0.00000000000E+00  0.72990375320E+03  0.38693472031E+04  0.37998800361E+04 0.  0.
        1    1    3    3  502    0  0.28865172324E+03  0.14227854713E+04  0.16129735244E+04  0.21700972110E+04  0.50400001928E-02 0.  1.
       -1    1    3    3    0  502 -0.28865172324E+03 -0.14227854713E+04 -0.88306977118E+03  0.16992499921E+04  0.50400001928E-02 0. -1.
</event>
<event>
 5   0  0.2135314E-07  0.3840017E+04  0.7818609E-02  0.8037621E-01
        2   -1    0    0  501    0  0.00000000000E+00  0.00000000000E+00  0.19197414397E+04  0.19197414397E+04  0.25500000920E-02 0.  1.
       -2   -1    0    0    0  501  0.00000000000E+00  0.00000000000E+00 -0.19202754828E+04  0.19202754828E+04  0.25500000920E-02 0. -1.
    10030    2    1    2    0    0  0.00000000000E+00  0.00000000000E+00 -0.53404309153E+00  0.38400169225E+04  0.38400168853E+04 0.  0.
        4    1    3    3  502    0  0.17417536212E+04  0.59531453101E+03 -0.54645906200E+03  0.19200844219E+04  0.12699999809E+01 0.  1.
       -4    1    3    3    0  502 -0.17417536212E+04 -0.59531453101E+03  0.54592501891E+03  0.19199325006E+04  0.12699999809E+01 0. -1.
</event>
<event>
 5   0  0.6661000E-08  0.3807526E+04  0.7818609E-02  0.8044542E-01
        1   -1    0    0  501    0  0.00000000000E+00  0.00000000000E+00  0.20260746020E+04  0.20260746020E+04  0.50400001928E-02 0. -1.
       -1   -1    0    0    0  501  0.00000000000E+00  0.00000000000E+00 -0.17888355645E+04  0.17888355645E+04  0.50400001928E-02 0.  1.
    10030    2    1    2    0    0  0.00000000000E+00  0.00000000000E+00  0.23723903754E+03  0.38149101666E+04  0.38075263910E+04 0.  0.
        1    1    3    3  502    0 -0.10222560215E+04 -0.14236739563E+03 -0.14841822002E+04  0.18077811406E+04  0.50400001928E-02 0.  1.
       -1    1    3    3    0  502  0.10222560215E+04  0.14236739563E+03  0.17214212378E+04  0.20071290259E+04  0.50400001928E-02 0. -1.
</event>
<event>
 5   0  0.2203998E-07  0.3788910E+04  0.7818609E-02  0.8048539E-01
       -2   -1    0    0    0  501  0.00000000000E+00  0.00000000000E+00  0.18499955751E+04  0.18499955751E+04  0.25500000920E-02 0.  1.
        2   -1    0    0  501    0  0.00000000000E+00  0.00000000000E+00 -0.19399833862E+04  0.19399833862E+04  0.25500000920E-02 0. -1.
    10030    2    1    2    0    0  0.00000000000E+00  0.00000000000E+00 -0.89987811115E+02  0.37899789613E+04  0.37889104926E+04 0.  0.
        3    1    3    3  502    0 -0.11366551685E+04 -0.36529351119E+03  0.14263173296E+04  0.18600552294E+04  0.10100000352E+00 0.  1.
       -3    1    3    3    0  502  0.11366551685E+04  0.36529351119E+03 -0.15163051407E+04  0.19299237320E+04  0.10100000352E+00 0. -1.
</event>
<event>
 5   0  0.1370688E-07  0.3809732E+04  0.7818609E-02  0.8044070E-01
       -2   -1    0    0    0  501  0.00000000000E+00  0.00000000000E+00  0.15039355937E+04  0.15039355937E+04  0.25500000920E-02 0. -1.
        2   -1    0    0  501    0  0.00000000000E+00  0.00000000000E+00 -0.24126800286E+04  0.24126800286E+04  0.25500000920E-02 0.  1.
    10030    2    1    2    0    0  0.00000000000E+00  0.00000000000E+00 -0.90874443486E+03  0.39166156223E+04  0.38097324689E+04 0.  0.
        5    1    3    3  502    0  0.12875382156E+04  0.10678535315E+04 -0.13912163117E+04  0.21756770756E+04  0.46999998093E+01 0.  1.
       -5    1    3    3    0  502 -0.12875382156E+04 -0.10678535315E+04  0.48247187687E+03  0.17409385467E+04  0.46999998093E+01 0. -1.
</event>
<event>
 5   0  0.6661000E-08  0.3813772E+04  0.7818609E-02  0.8043206E-01
        1   -1    0    0  501    0  0.00000000000E+00  0.00000000000E+00  0.20047701160E+04  0.20047701160E+04  0.50400001928E-02 0. -1.
       -1   -1    0    0    0  501  0.00000000000E+00  0.00000000000E+00 -0.18137808459E+04  0.18137808459E+04  0.50400001928E-02 0.  1.
    10030    2    1    2    0    0  0.00000000000E+00  0.00000000000E+00  0.19098927007E+03  0.38185509619E+04  0.38137716958E+04 0.  0.
        4    1    3    3  502    0 -0.13925647138E+04 -0.59840148088E+02  0.13984303767E+04  0.19744433283E+04  0.12699999809E+01 0. -1.
       -4    1    3    3    0  502  0.13925647138E+04  0.59840148088E+02 -0.12074411066E+04  0.18441076336E+04  0.12699999809E+01 0.  1.
</event>
<event>
 5   0  0.6661000E-08  0.3798591E+04  0.7818609E-02  0.8046457E-01
       -1   -1    0    0    0  501  0.00000000000E+00  0.00000000000E+00  0.34123688385E+04  0.34123688385E+04  0.50400001928E-02 0. -1.
        1   -1    0    0  501    0  0.00000000000E+00  0.00000000000E+00 -0.10571320080E+04  0.10571320080E+04  0.50400001928E-02 0.  1.
    10030    2    1    2    0    0  0.00000000000E+00  0.00000000000E+00  0.23552368305E+04  0.44695008464E+04  0.37985914875E+04 0.  0.
        1    1    3    3  502    0  0.77781241997E+03 -0.17287251425E+04  0.13160479284E+04  0.23076968884E+04  0.50400001928E-02 0.  1.
       -1    1    3    3    0  502 -0.77781241997E+03  0.17287251425E+04  0.10391889021E+04  0.21618039581E+04  0.50400001928E-02 0. -1.
</event>
<event>
 5   0  0.2081337E-07  0.3801036E+04  0.7818609E-02  0.8045933E-01
       -2   -1    0    0    0  501  0.00000000000E+00  0.00000000000E+00  0.20236345886E+04  0.20236345886E+04  0.25500000920E-02 0.  1.
        2   -1    0    0  501    0  0.00000000000E+00  0.00000000000E+00 -0.17848919042E+04  0.17848919042E+04  0.25500000920E-02 0. -1.
    10030    2    1    2    0    0  0.00000000000E+00  0.00000000000E+00  0.23874268437E+03  0.38085264928E+04  0.38010361715E+04 0.  0.
        1    1    3    3  502    0 -0.68927943107E+03 -0.14139844619E+04 -0.94927189860E+03  0.18372738854E+04  0.50400001928E-02 0. -1.
       -1    1    3    3    0  502  0.68927943107E+03  0.14139844619E+04  0.11880145830E+04  0.19712526073E+04  0.50400001928E-02 0.  1.
</event>
<event>
 5   0  0.6661000E-08  0.3808155E+04  0.7818609E-02  0.8044407E-01
        1   -1    0    0  501    0  0.00000000000E+00  0.00000000000E+00  0.16327994587E+04  0.16327994587E+04  0.50400001928E-02 0. -1.
       -1   -1    0    0    0  501  0.00000000000E+00  0.00000000000E+00 -0.22204267957E+04  0.22204267957E+04  0.50400001928E-02 0.  1.
    10030    2    1    2    0    0  0.00000000000E+00  0.00000000000E+00 -0.58762733699E+03  0.38532262544E+04  0.38081552857E+04 0.  0.
        2    1    3    3  502    0 -0.58728615481E+03  0.52611075218E+03  0.14598503389E+04  0.16591746633E+04  0.25500000920E-02 0. -1.
       -2    1    3    3    0  502  0.58728615481E+03 -0.52611075218E+03 -0.20474776759E+04  0.21940515911E+04  0.25500000920E-02 0.  1.
</event>
<event>
 5   0  0.1370688E-07  0.3784455E+04  0.7818609E-02  0.8049499E-01
        2   -1    0    0  501    0  0.00000000000E+00  0.00000000000E+00  0.26421409532E+04  0.26421409532E+04  0.25500000920E-02 0. -1.
       -2   -1    0    0    0  501  0.00000000000E+00  0.00000000000E+00 -0.13551601615E+04  0.13551601615E+04  0.25500000920E-02 0.  1.
    10030    2    1    2    0    0  0.00000000000E+00  0.00000000000E+00  0.12869807916E+04  0.39973011147E+04  0.37844546032E+04 0.  0.
        5    1    3    3  502    0 -0.14359039189E+04 -0.13518303525E+03 -0.65031269898E+03  0.15820945654E+04  0.46999998093E+01 0.  1.
       -5    1    3    3    0  502  0.14359039189E+04  0.13518303525E+03  0.19372934906E+04  0.24152065494E+04  0.46999998093E+01 0. -1.
</event>
<event>
 5   0  0.6661000E-08  0.3812016E+04  0.7818609E-02  0.8043581E-01
       -1   -1    0    0    0  501  0.00000000000E+00  0.00000000000E+00  0.12732661811E+04  0.12732661811E+04  0.50400001928E-02 0.  1.
        1   -1    0    0  501    0  0.00000000000E+00  0.00000000000E+00 -0.28531863932E+04  0.28531863932E+04  0.50400001928E-02 0. -1.
    10030    2    1    2    0    0  0.00000000000E+00  0.00000000000E+00 -0.15799202121E+04  0.41264525742E+04  0.38120156047E+04 0.  0.
        2    1    3    3  502    0 -0.72971043729E+02  0.13122407271E+04 -0.22842473867E+04  0.26353532254E+04  0.25500000920E-02 0. -1.
       -2    1    3    3    0  502  0.72971043729E+02 -0.13122407271E+04  0.70432717462E+03  0.14910993488E+04  0.25500000920E-02 0.  1.
</event>
<event>
 5   0  0.6725199E-08  0.3791692E+04  0.7818609E-02  0.8047940E-01
       -1   -1    0    0    0  501  0.00000000000E+00  0.00000000000E+00  0.21869572992E+04  0.21869572992E+04  0.50400001928E-02 0.  1.
        1   -1    0    0  501    0  0.00000000000E+00  0.00000000000E+00 -0.16434850573E+04  0.16434850573E+04  0.50400001928E-02 0. -1.
    10030    2    1    2    0    0  0.00000000000E+00  0.00000000000E+00  0.54347224192E+03  0.38304423566E+04  0.37916917820E+04 0.  0.
        5    1    3    3  502    0 -0.19775258822E+03 -0.13169770101E+04  0.16348499405E+04  0.21086229984E+04  0.46999998093E+01 0.  1.
       -5    1    3    3    0  502  0.19775258822E+03  0.13169770101E+04 -0.10913776986E+04  0.17218193582E+04  0.46999998093E+01 0. -1.
</event>
<event>
 5   0  0.6661000E-08  0.3813845E+04  0.7818609E-02  0.8043190E-01
        1   -1    0    0  501    0  0.00000000000E+00  0.00000000000E+00  0.23778288856E+04  0.23778288857E+04  0.50400001928E-02 0.  1.
       -1   -1    0    0    0  501  0.00000000000E+00  0.00000000000E+00 -0.15292750355E+04  0.15292750355E+04  0.50400001928E-02 0. -1.
    10030    2    1    2    0    0  0.00000000000E+00  0.00000000000E+00  0.84855385014E+03  0.39071039212E+04  0.38138454890E+04 0.  0.
        1    1    3    3  502    0 -0.14233724196E+04  0.59349097022E+02  0.17228864680E+04  0.22355869793E+04  0.50400001928E-02 0.  1.
       -1    1    3    3    0  502  0.14233724196E+04 -0.59349097022E+02 -0.87433261785E+03  0.16715169419E+04  0.50400001928E-02 0. -1.
</event>
<event>
 5   0  0.1370688E-07  0.3846772E+04  0.7818609E-02  0.8036192E-01
       -2   -1    0    0    0  501  0.00000000000E+00  0.00000000000E+00  0.15876600212E+04  0.15876600212E+04  0.25500000920E-02 0.  1.
        2   -1    0    0  501    0  0.00000000000E+00  0.00000000000E+00 -0.23301047132E+04  0.23301047132E+04  0.25500000920E-02 0. -1.
    10030    2    1    2    0    0  0.00000000000E+00  0.00000000000E+00 -0.74244469200E+03  0.39177647345E+04  0.38467722046E+04 0.  0.
        5    1    3    3  502    0  0.18552489865E+03  0.18507044056E+04 -0.87002181161E+03  0.20534084659E+04  0.46999998093E+01 0. -1.
       -5    1    3    3    0  502 -0.18552489865E+03 -0.18507044056E+04  0.12757711961E+03  0.18643562686E+04  0.46999998093E+01 0.  1.
</event>
<event>
 5   0  0.6661000E-08  0.3727722E+04  0.7818609E-02  0.8061846E-01
       -1   -1    0    0    0  501  0.00000000000E+00  0.00000000000E+00  0.13004910334E+04  0.13004910334E+04  0.50400001928E-02 0.  1.
        1   -1    0    0  501    0  0.00000000000E+00  0.00000000000E+00 -0.26712819845E+04  0.26712819845E+04  0.50400001928E-02 0. -1.
    10030    2    1    2    0    0  0.00000000000E+00  0.00000000000E+00 -0.13707909511E+04  0.39717730179E+04  0.37277222367E+04 0.  0.
        2    1    3    3  502    0  0.10502378847E+04  0.91398070601E+03 -0.20057253895E+04  0.24415762703E+04  0.25500000920E-02 0. -1.
       -2    1    3    3    0  502 -0.10502378847E+04 -0.91398070601E+03  0.63493443843E+03  0.15301967476E+04  0.25500000920E-02 0.  1.
</event>
<event>
 5   0  0.6661000E-08  0.3781763E+04  0.7818609E-02  0.8050080E-01
        1   -1    0    0  501    0  0.00000000000E+00  0.00000000000E+00  0.24983070097E+04  0.24983070097E+04  0.50400001928E-02 0. -1.
       -1   -1    0    0    0  501  0.00000000000E+00  0.00000000000E+00 -0.14311422104E+04  0.14311422105E+04  0.50400001928E-02 0.  1.
    10030    2    1    2    0    0  0.00000000000E+00  0.00000000000E+00  0.10671647992E+04  0.39294492201E+04  0.37817628779E+04 0.  0.
        3    1    3    3  502    0 -0.14762702632E+04 -0.10695576223E+04  0.10552913595E+04  0.21064109906E+04  0.10100000352E+00 0. -1.
       -3    1    3    3    0  502  0.14762702632E+04  0.10695576223E+04  0.11873439709E+02  0.18230382295E+04  0.10100000352E+00 0.  1.
</event>
<event>
 5   0  0.2203998E-07  0.3792490E+04  0.7818609E-02  0.8047768E-01
        2   -1    0    0  501    0  0.00000000000E+00  0.00000000000E+00  0.22084133403E+04  0.22084133403E+04  0.25500000920E-02 0.  1.
       -2   -1    0    0    0  501  0.00000000000E+00  0.00000000000E+00 -0.16282030711E+04  0.16282030711E+04  0.25500000920E-02 0. -1.
    10030    2    1    2    0    0  0.00000000000E+00  0.00000000000E+00  0.58021026920E+03  0.38366164114E+04  0.37924901491E+04 0.  0.
        3    1    3    3  502    0  0.45958589254E+02 -0.55007752158E+03  0.21253373346E+04  0.21958497826E+04  0.10100000352E+00 0.  1.
       -3    1    3    3    0  502 -0.45958589254E+02  0.55007752158E+03 -0.15451270654E+04  0.16407666288E+04  0.10100000352E+00 0. -1.
</event>
<event>
 5   0  0.1370688E-07  0.3787974E+04  0.7818609E-02  0.8048741E-01
        2   -1    0    0  501    0  0.00000000000E+00  0.00000000000E+00  0.11887179729E+04  0.11887179729E+04  0.25500000920E-02 0.  1.
       -2   -1    0    0    0  501  0.00000000000E+00  0.00000000000E+00 -0.30176937083E+04  0.30176937083E+04  0.25500000920E-02 0. -1.
    10030    2    1    2    0    0  0.00000000000E+00  0.00000000000E+00 -0.18289757354E+04  0.42064116813E+04  0.37879739956E+04 0.  0.
        5    1    3    3  502    0  0.12695494803E+04  0.79452990514E+03  0.37294794391E+03  0.15434201994E+04  0.46999998093E+01 0.  1.
       -5    1    3    3    0  502 -0.12695494803E+04 -0.79452990514E+03 -0.22019236793E+04  0.26629914819E+04  0.46999998093E+01 0. -1.
</event>
<event>
 5   0  0.2081337E-07  0.3828128E+04  0.7818609E-02  0.8040146E-01
        2   -1    0    0  501    0  0.00000000000E+00  0.00000000000E+00  0.18483532351E+04  0.18483532351E+04  0.25500000920E-02 0.  1.
       -2   -1    0    0    0  501  0.00000000000E+00  0.00000000000E+00 -0.19821103957E+04  0.19821103957E+04  0.25500000920E-02 0. -1.
    10030    2    1    2    0    0  0.00000000000E+00  0.00000000000E+00 -0.13375716061E+03  0.38304636309E+04  0.38281275644E+04 0.  0.
        1    1    3    3  502    0 -0.31309915608E+03 -0.12083295327E+04 -0.15188150026E+04  0.19659324386E+04  0.50400001928E-02 0. -1.
       -1    1    3    3    0  502  0.31309915608E+03  0.12083295327E+04  0.13850578420E+04  0.18645311922E+04  0.50400001928E-02 0.  1.
</event>
<event>
 5   0  0.6661000E-08  0.3775249E+04  0.7818609E-02  0.8051487E-01
        1   -1    0    0  501    0  0.00000000000E+00  0.00000000000E+00  0.25441307922E+04  0.25441307922E+04  0.50400001928E-02 0.  1.
       -1   -1    0    0    0  501  0.00000000000E+00  0.00000000000E+00 -0.14005275796E+04  0.14005275796E+04  0.50400001928E-02 0. -1.
    10030    2    1    2    0    0  0.00000000000E+00  0.00000000000E+00  0.11436032127E+04  0.39446583718E+04  0.37752485166E+04 0.  0.
        4    1    3    3  502    0  0.17508534904E+04 -0.60097062430E+03  0.95779741819E+03  0.20842339464E+04  0.12699999809E+01 0. -1.
       -4    1    3    3    0  502 -0.17508534904E+04  0.60097062430E+03  0.18580579447E+03  0.18604244254E+04  0.12699999809E+01 0.  1.
</event>
<event>
 5   0  0.6661000E-08  0.3803653E+04  0.7818609E-02  0.8045371E-01
        1   -1    0    0  501    0  0.00000000000E+00  0.00000000000E+00  0.20451573164E+04  0.20451573164E+04  0.50400001928E-02 0.  1.
       -1   -1    0    0    0  501  0.00000000000E+00  0.00000000000E+00 -0.17685408545E+04  0.17685408545E+04  0.50400001928E-02 0. -1.
    10030    2    1    2    0    0  0.00000000000E+00  0.00000000000E+00  0.27661646187E+03  0.38136981709E+04  0.38036531219E+04 0.  0.
        3    1    3    3  502    0 -0.17130257752E+04 -0.63444328841E+03 -0.39220977385E+03  0.18683693718E+04  0.10100000352E+00 0. -1.
       -3    1    3    3    0  502  0.17130257752E+04  0.63444328841E+03  0.66882623572E+03  0.19453287991E+04  0.10100000352E+00 0.  1.
</event>
<event>
 5   0  0.6661000E-08  0.3786958E+04  0.7818609E-02  0.8048959E-01
       -1   -1    0    0    0  501  0.00000000000E+00  0.00000000000E+00  0.13305476637E+04  0.13305476637E+04  0.50400001928E-02 0. -1.
        1   -1    0    0  501    0  0.00000000000E+00  0.00000000000E+00 -0.26945768564E+04  0.26945768564E+04  0.50400001928E-02 0.  1.
    10030    2    1    2    0    0  0.00000000000E+00  0.00000000000E+00 -0.13640291928E+04  0.40251245201E+04  0.37869581149E+04 0.  0.
        1    1    3    3  502    0 -0.76969299383E+03 -0.30949111878E+03 -0.24911325352E+04  0.26256338978E+04  0.50400001928E-02 0.  1.
       -1    1    3    3    0  502  0.76969299383E+03  0.30949111878E+03  0.11271033424E+04  0.13994906223E+04  0.50400001928E-02 0. -1.
</event>
<event>
 5   0  0.2205204E-07  0.3790461E+04  0.7818609E-02  0.8048205E-01
       -2   -1    0    0    0  501  0.00000000000E+00  0.00000000000E+00  0.23161098708E+04  0.23161098708E+04  0.25500000920E-02 0.  1.
        2   -1    0    0  501    0  0.00000000000E+00  0.00000000000E+00 -0.15508321766E+04  0.15508321766E+04  0.25500000920E-02 0. -1.
    10030    2    1    2    0    0  0.00000000000E+00  0.00000000000E+00  0.76527769419E+03  0.38669420475E+04  0.37904605062E+04 0.  0.
        2    1    3    3  502    0  0.21417020875E+02 -0.18404398347E+04  0.84366448446E+03  0.20247091733E+04  0.25500000920E-02 0. -1.
       -2    1    3    3    0  502 -0.21417020875E+02  0.18404398347E+04 -0.78386790273E+02  0.18422328742E+04  0.25500000920E-02 0.  1.
</event>
<event>
 5   0  0.6661000E-08  0.3827936E+04  0.7818609E-02  0.8040186E-01
       -1   -1    0    0    0  501  0.00000000000E+00  0.00000000000E+00  0.18971039650E+04  0.18971039650E+04  0.50400001928E-02 0. -1.
        1   -1    0    0  501    0  0.00000000000E+00  0.00000000000E+00 -0.19309819364E+04  0.19309819364E+04  0.50400001928E-02 0.  1.
    10030    2    1    2    0    0  0.00000000000E+00  0.00000000000E+00 -0.33877971375E+02  0.38280859015E+04  0.38279359911E+04 0.  0.
        1    1    3    3  502    0  0.51932633169E+03 -0.89851552479E+03 -0.16251821485E+04  0.19282756553E+04  0.50400001928E-02 0.  1.
       -1    1    3    3    0  502 -0.51932633169E+03  0.89851552479E+03  0.15913041771E+04  0.18998102461E+04  0.50400001928E-02 0. -1.
</event>
<event>
 5   0  0.1370688E-07  0.3842407E+04  0.7818609E-02  0.8037115E-01
        2   -1    0    0  501    0  0.00000000000E+00  0.00000000000E+00  0.18402129714E+04  0.18402129714E+04  0.25500000920E-02 0. -1.
       -2   -1    0    0    0  501  0.00000000000E+00  0.00000000000E+00 -0.20057585664E+04  0.20057585664E+04  0.25500000920E-02 0.  1.
    10030    2    1    2    0    0  0.00000000000E+00  0.00000000000E+00 -0.16554559495E+03  0.38459715378E+04  0.38424070224E+04 0.  0.
        5    1    3    3  502    0  0.16524282298E+04  0.26774935015E+02  0.89781193651E+03  0.18807775826E+04  0.46999998093E+01 0. -1.
       -5    1    3    3    0  502 -0.16524282298E+04 -0.26774935015E+02 -0.10633575315E+04  0.19651939552E+04  0.46999998093E+01 0.  1.
</event>
<event>
 5   0  0.6661000E-08  0.3780622E+04  0.7818609E-02  0.8050326E-01
       -1   -1    0    0    0  501  0.00000000000E+00  0.00000000000E+00  0.14857290731E+04  0.14857290731E+04  0.50400001928E-02 0.  1.
        1   -1    0    0  501    0  0.00000000000E+00  0.00000000000E+00 -0.24050648790E+04  0.24050648790E+04  0.50400001928E-02 0. -1.
    10030    2    1    2    0    0  0.00000000000E+00  0.00000000000E+00 -0.91933580599E+03  0.38907939521E+04  0.37806215433E+04 0.  0.
        4    1    3    3  502    0 -0.43088766554E+03 -0.16154474084E+04 -0.13673791429E+04  0.21598754230E+04  0.12699999809E+01 0. -1.
       -4    1    3    3    0  502  0.43088766554E+03  0.16154474084E+04  0.44804333686E+03  0.17309185291E+04  0.12699999809E+01 0.  1.
</event>
<event>
 5   0  0.2203998E-07  0.3798950E+04  0.7818609E-02  0.8046380E-01
       -2   -1    0    0    0  501  0.00000000000E+00  0.00000000000E+00  0.17429476448E+04  0.17429476448E+04  0.25500000920E-02 0.  1.
        2   -1    0    0  501    0  0.00000000000E+00  0.00000000000E+00 -0.20700594741E+04  0.20700594741E+04  0.25500000920E-02 0. -1.
    10030    2    1    2    0    0  0.00000000000E+00  0.00000000000E+00 -0.32711182926E+03  0.38130071189E+04  0.37989500050E+04 0.  0.
        3    1    3    3  502    0 -0.11929356111E+04 -0.42460127331E+03  0.12575304226E+04  0.17845908180E+04  0.10100000352E+00 0.  1.
       -3    1    3    3    0  502  0.11929356111E+04  0.42460127331E+03 -0.15846422519E+04  0.20284163010E+04  0.10100000352E+00 0. -1.
</event>
<event>
 5   0  0.2203998E-07  0.3784434E+04  0.7818609E-02  0.8049504E-01
        2   -1    0    0  501    0  0.00000000000E+00  0.00000000000E+00  0.20404949623E+04  0.20404949623E+04  0.25500000920E-02 0. -1.
       -2   -1    0    0    0  501  0.00000000000E+00  0.00000000000E+00 -0.17547141012E+04  0.17547141012E+04  0.25500000920E-02 0.  1.
    10030    2    1    2    0    0  0.00000000000E+00  0.00000000000E+00  0.28578086112E+03  0.37952090636E+04  0.37844340575E+04 0.  0.
        3    1    3    3  502    0  0.22596445387E+03 -0.17143482189E+04  0.91347623062E+03  0.19556299712E+04  0.10100000352E+00 0. -1.
       -3    1    3    3    0  502 -0.22596445387E+03  0.17143482189E+04 -0.62769536950E+03  0.18395790924E+04  0.10100000352E+00 0.  1.
</event>
<event>
 5   0  0.1370688E-07  0.3783500E+04  0.7818609E-02  0.8049705E-01
       -2   -1    0    0    0  501  0.00000000000E+00  0.00000000000E+00  0.16551521916E+04  0.16551521916E+04  0.25500000920E-02 0. -1.
        2   -1    0    0  501    0  0.00000000000E+00  0.00000000000E+00 -0.21621680794E+04  0.21621680794E+04  0.25500000920E-02 0.  1.
    10030    2    1    2    0    0  0.00000000000E+00  0.00000000000E+00 -0.50701588779E+03  0.38173202710E+04  0.37834995627E+04 0.  0.
        5    1    3    3  502    0  0.46620407899E+03  0.15401142748E+04  0.75006787393E+03  0.17753653506E+04  0.46999998093E+01 0. -1.
       -5    1    3    3    0  502 -0.46620407899E+03 -0.15401142748E+04 -0.12570837617E+04  0.20419549203E+04  0.46999998093E+01 0.  1.
</event>
<event>
 5   0  0.6725199E-08  0.3792038E+04  0.7818609E-02  0.8047866E-01
        1   -1    0    0  501    0  0.00000000000E+00  0.00000000000E+00  0.17181891744E+04  0.17181891744E+04  0.50400001928E-02 0. -1.
       -1   -1    0    0    0  501  0.00000000000E+00  0.00000000000E+00 -0.20922537935E+04  0.20922537935E+04  0.50400001928E-02 0.  1.
    10030    2    1    2    0    0  0.00000000000E+00  0.00000000000E+00 -0.37406461910E+03  0.38104429680E+04  0.37920378786E+04 0.  0.
        5    1    3    3  502    0  0.18413863838E+04  0.36690269365E+03 -0.45202485309E+03  0.19312353453E+04  0.46999998093E+01 0.  1.
       -5    1    3    3    0  502 -0.18413863838E+04 -0.36690269365E+03  0.77960233991E+02  0.18792076227E+04  0.46999998093E+01 0. -1.
</event>
<event>
 5   0  0.6725199E-08  0.3739593E+04  0.7818609E-02  0.8059244E-01
       -1   -1    0    0    0  501  0.00000000000E+00  0.00000000000E+00  0.10249171741E+04  0.10249171741E+04  0.50400001928E-02 0. -1.
        1   -1    0    0  501    0  0.00000000000E+00  0.00000000000E+00 -0.34111434200E+04  0.34111434200E+04  0.50400001928E-02 0.  1.
    10030    2    1    2    0    0  0.00000000000E+00  0.00000000000E+00 -0.23862262459E+04  0.44360605941E+04  0.37395932797E+04 0.  0.
        5    1    3    3  502    0 -0.88140833801E+03 -0.15268043908E+04 -0.45410746761E+03  0.18205076182E+04  0.46999998093E+01 0. -1.
       -5    1    3    3    0  502  0.88140833801E+03  0.15268043908E+04 -0.19321187783E+04  0.26155529758E+04  0.46999998093E+01 0.  1.
</event>
<event>
 5   0  0.1370688E-07  0.3814409E+04  0.7818609E-02  0.8043070E-01
        2   -1    0    0  501    0  0.00000000000E+00  0.00000000000E+00  0.21986861286E+04  0.21986861286E+04  0.25500000920E-02 0.  1.
       -2   -1    0    0    0  501  0.00000000000E+00  0.00000000000E+00 -0.16543646686E+04  0.16543646686E+04  0.25500000920E-02 0. -1.
    10030    2    1    2    0    0  0.00000000000E+00  0.00000000000E+00  0.54432145999E+03  0.38530507971E+04  0.38144088131E+04 0.  0.
        5    1    3    3  502    0  0.37821192310E+03  0.18249512126E+04  0.68112685672E+03  0.19843001467E+04  0.46999998093E+01 0.  1.
       -5    1    3    3    0  502 -0.37821192310E+03 -0.18249512126E+04 -0.13680539673E+03  0.18687506505E+04  0.46999998093E+01 0. -1.
</event>
<event>
 5   0  0.2081337E-07  0.3783818E+04  0.7818609E-02  0.8049636E-01
       -2   -1    0    0    0  501  0.00000000000E+00  0.00000000000E+00  0.24937151186E+04  0.24937151186E+04  0.25500000920E-02 0. -1.
        2   -1    0    0  501    0  0.00000000000E+00  0.00000000000E+00 -0.14353359911E+04  0.14353359911E+04  0.25500000920E-02 0.  1.
    10030    2    1    2    0    0  0.00000000000E+00  0.00000000000E+00  0.10583791275E+04  0.39290511097E+04  0.37838176813E+04 0.  0.
        1    1    3    3  502    0  0.17953453254E+04  0.55289744122E+03  0.29616887188E+03  0.19017561406E+04  0.50400001928E-02 0. -1.
       -1    1    3    3    0  502 -0.17953453254E+04 -0.55289744122E+03  0.76221025561E+03  0.20272949691E+04  0.50400001928E-02 0.  1.
</event>
<event>
 5   0  0.6725199E-08  0.3846405E+04  0.7818609E-02  0.8036269E-01
       -1   -1    0    0    0  501  0.00000000000E+00  0.00000000000E+00  0.14626281575E+04  0.14626281575E+04  0.50400001928E-02 0. -1.
        1   -1    0    0  501    0  0.00000000000E+00  0.00000000000E+00 -0.25288092428E+04  0.25288092428E+04  0.50400001928E-02 0.  1.
    10030    2    1    2    0    0  0.00000000000E+00  0.00000000000E+00 -0.10661810852E+04  0.39914374003E+04  0.38464048687E+04 0.  0.
        5    1    3    3  502    0  0.37045402816E+02  0.15054140722E+04  0.70827721048E+03  0.16641281764E+04  0.46999998093E+01 0. -1.
       -5    1    3    3    0  502 -0.37045402816E+02 -0.15054140722E+04 -0.17744582957E+04  0.23273092239E+04  0.46999998093E+01 0.  1.
</event>
<event>
 5   0  0.6661000E-08  0.3784299E+04  0.7818609E-02  0.8049533E-01
       -1   -1    0    0    0  501  0.00000000000E+00  0.00000000000E+00  0.11704424671E+04  0.11704424671E+04  0.50400001928E-02 0. -1.
        1   -1    0    0  501    0  0.00000000000E+00  0.00000000000E+00 -0.30588688262E+04  0.30588688262E+04  0.50400001928E-02 0.  1.
    10030    2    1    2    0    0  0.00000000000E+00  0.00000000000E+00 -0.18884263591E+04  0.42293112933E+04  0.37842991296E+04 0.  0.
        2    1    3    3  502    0  0.12892580070E+04  0.96535566485E+03 -0.20540311833E+04  0.26101995844E+04  0.25500000920E-02 0.  1.
       -2    1    3    3    0  502 -0.12892580070E+04 -0.96535566485E+03  0.16560482420E+03  0.16191117089E+04  0.25500000920E-02 0. -1.
</event>
<event>
 5   0  0.2135314E-07  0.3802710E+04  0.7818609E-02  0.8045573E-01
        2   -1    0    0  501    0  0.00000000000E+00  0.00000000000E+00  0.26978298932E+04  0.26978298932E+04  0.25500000920E-02 0. -1.
       -2   -1    0    0    0  501  0.00000000000E+00  0.00000000000E+00 -0.13400221135E+04  0.13400221135E+04  0.25500000920E-02 0.  1.
    10030    2    1    2    0    0  0.00000000000E+00  0.00000000000E+00  0.13578077797E+04  0.40378520066E+04  0.38027104624E+04 0.  0.
        4    1    3    3  502    0  0.48757202085E+03  0.32001381356E+03 -0.12426995625E+04  0.13727487504E+04  0.12699999809E+01 0.  1.
       -4    1    3    3    0  502 -0.48757202085E+03 -0.32001381356E+03  0.26005073422E+04  0.26651032562E+04  0.12699999809E+01 0. -1.
</event>
<event>
 5   0  0.2203998E-07  0.3789029E+04  0.7818609E-02  0.8048513E-01
        2   -1    0    0  501    0  0.00000000000E+00  0.00000000000E+00  0.22198136440E+04  0.22198136440E+04  0.25500000920E-02 0. -1.
       -2   -1    0    0    0  501  0.00000000000E+00  0.00000000000E+00 -0.16168856184E+04  0.16168856184E+04  0.25500000920E-02 0.  1.
    10030    2    1    2    0    0  0.00000000000E+00  0.00000000000E+00  0.60292802563E+03  0.38366992623E+04  0.37890287708E+04 0.  0.
        3    1    3    3  502    0  0.40525005339E+03  0.13704208867E+03 -0.15673386169E+04  0.16246718100E+04  0.10100000352E+00 0.  1.
       -3    1    3    3    0  502 -0.40525005339E+03 -0.13704208867E+03  0.21702666426E+04  0.22120274523E+04  0.10100000352E+00 0. -1.
</event>
<event>
 5   0  0.1370688E-07  0.3783645E+04  0.7818609E-02  0.8049674E-01
       -2   -1    0    0    0  501  0.00000000000E+00  0.00000000000E+00  0.14869181026E+04  0.14869181026E+04  0.25500000920E-02 0. -1.
        2   -1    0    0  501    0  0.00000000000E+00  0.00000000000E+00 -0.24069863010E+04  0.24069863010E+04  0.25500000920E-02 0.  1.
    10030    2    1    2    0    0  0.00000000000E+00  0.00000000000E+00 -0.92006819843E+03  0.38939044035E+04  0.37836445412E+04 0.  0.
        5    1    3    3  502    0 -0.12057883855E+04 -0.90455471202E+03  0.71644332876E+03  0.16689691402E+04  0.46999998093E+01 0. -1.
       -5    1    3    3    0  502  0.12057883855E+04  0.90455471202E+03 -0.16365115272E+04  0.22249352634E+04  0.46999998093E+01 0.  1.
</event>
<event>
 5   0  0.1370688E-07  0.3791394E+04  0.7818609E-02  0.8048004E-01
       -2   -1    0    0    0  501  0.00000000000E+00  0.00000000000E+00  0.15261240351E+04  0.15261240351E+04  0.25500000920E-02 0.  1.
        2   -1    0    0  501    0  0.00000000000E+00  0.00000000000E+00 -0.23547671620E+04  0.23547671620E+04  0.25500000920E-02 0. -1.
    10030    2    1    2    0    0  0.00000000000E+00  0.00000000000E+00 -0.82864312693E+03  0.38808911971E+04  0.37913938139E+04 0.  0.
        5    1    3    3  502    0 -0.53704939929E+03  0.17836262738E+04 -0.77462474938E+03  0.20173770927E+04  0.46999998093E+01 0. -1.
       -5    1    3    3    0  502  0.53704939929E+03 -0.17836262738E+04 -0.54018377546E+02  0.18635141043E+04  0.46999998093E+01 0.  1.
</event>
<event>
 5   0  0.1370688E-07  0.3759162E+04  0.7818609E-02  0.8054976E-01
       -2   -1    0    0    0  501  0.00000000000E+00  0.00000000000E+00  0.17888779771E+04  0.17888779771E+04  0.25500000920E-02 0. -1.
        2   -1    0    0  501    0  0.00000000000E+00  0.00000000000E+00 -0.19748832365E+04  0.19748832365E+04  0.25500000920E-02 0.  1.
    10030    2    1    2    0    0  0.00000000000E+00  0.00000000000E+00 -0.18600525935E+03  0.37637612136E+04  0.37591622094E+04 0.  0.
        5    1    3    3  502    0 -0.38071788561E+03 -0.83415204731E+03  0.15497506348E+04  0.18006956618E+04  0.46999998093E+01 0. -1.
       -5    1    3    3    0  502  0.38071788561E+03  0.83415204731E+03 -0.17357558942E+04  0.19630655518E+04  0.46999998093E+01 0.  1.
</event>
<event>
 5   0  0.6725199E-08  0.3711639E+04  0.7818609E-02  0.8065387E-01
        1   -1    0    0  501    0  0.00000000000E+00  0.00000000000E+00  0.21913805046E+04  0.21913805046E+04  0.50400001928E-02 0. -1.
       -1   -1    0    0    0  501  0.00000000000E+00  0.00000000000E+00 -0.15716421975E+04  0.15716421975E+04  0.50400001928E-02 0.  1.
    10030    2    1    2    0    0  0.00000000000E+00  0.00000000000E+00  0.61973830706E+03  0.37630227021E+04  0.37116390297E+04 0.  0.
        5    1    3    3  502    0 -0.11845335494E+04  0.12168282795E+04  0.10687319722E+04  0.20064896984E+04  0.46999998093E+01 0. -1.
       -5    1    3    3    0  502  0.11845335494E+04 -0.12168282795E+04 -0.44899366516E+03  0.17565330036E+04  0.46999998093E+01 0.  1.
</event>
<event>
 5   0  0.2081337E-07  0.3578726E+04  0.7818609E-02  0.8095382E-01
        2   -1    0    0  501    0  0.00000000000E+00  0.00000000000E+00  0.23327991284E+04  0.23327991284E+04  0.25500000920E-02 0.  1.
       -2   -1    0    0    0  501  0.00000000000E+00  0.00000000000E+00 -0.13725226057E+04  0.13725226058E+04  0.25500000920E-02 0. -1.
    10030    2    1    2    0    0  0.00000000000E+00  0.00000000000E+00  0.96027652261E+03  0.37053217341E+04  0.35787257723E+04 0.  0.
        1    1    3    3  502    0  0.55177486520E+03 -0.13339369021E+04 -0.61460887185E+03  0.15689446217E+04  0.50400001928E-02 0. -1.
       -1    1    3    3    0  502 -0.55177486520E+03  0.13339369021E+04  0.15748853945E+04  0.21363771124E+04  0.50400001928E-02 0.  1.
</event>
<event>
 5   0  0.1370688E-07  0.3715840E+04  0.7818609E-02  0.8064461E-01
        2   -1    0    0  501    0  0.00000000000E+00  0.00000000000E+00  0.22945919377E+04  0.22945919377E+04  0.25500000920E-02 0. -1.
       -2   -1    0    0    0  501  0.00000000000E+00  0.00000000000E+00 -0.15043487727E+04  0.15043487727E+04  0.25500000920E-02 0.  1.
    10030    2    1    2    0    0  0.00000000000E+00  0.00000000000E+00  0.79024316496E+03  0.37989407104E+04  0.37158399133E+04 0.  0.
        5    1    3    3  502    0 -0.77739397603E+02  0.17352941740E+04 -0.27882890428E+03  0.17592773892E+04  0.46999998093E+01 0.  1.
       -5    1    3    3    0  502  0.77739397603E+02 -0.17352941740E+04  0.10690720692E+04  0.20396633211E+04  0.46999998093E+01 0. -1.
</event>
<event>
 5   0  0.6661000E-08  0.3762886E+04  0.7818609E-02  0.8054167E-01
        1   -1    0    0  501    0  0.00000000000E+00  0.00000000000E+00  0.20041553176E+04  0.20041553176E+04  0.50400001928E-02 0.  1.
       -1   -1    0    0    0  501  0.00000000000E+00  0.00000000000E+00 -0.17662446378E+04  0.17662446378E+04  0.50400001928E-02 0. -1.
    10030    2    1    2    0    0  0.00000000000E+00  0.00000000000E+00  0.23791067978E+03  0.37703999553E+04  0.37628864362E+04 0.  0.
        2    1    3    3  502    0 -0.95973568331E+03  0.14853958952E+04  0.76237070670E+03  0.19257992215E+04  0.25500000920E-02 0. -1.
       -2    1    3    3    0  502  0.95973568331E+03 -0.14853958952E+04 -0.52446002692E+03  0.18446007338E+04  0.25500000920E-02 0.  1.
</event>
<event>
 5   0  0.6661000E-08  0.3784835E+04  0.7818609E-02  0.8049417E-01
        1   -1    0    0  501    0  0.00000000000E+00  0.00000000000E+00  0.12232504886E+04  0.12232504886E+04  0.50400001928E-02 0.  1.
       -1   -1    0    0    0  501  0.00000000000E+00  0.00000000000E+00 -0.29276458981E+04  0.29276458981E+04  0.50400001928E-02 0. -1.
    10030    2    1    2    0    0  0.00000000000E+00  0.00000000000E+00 -0.17043954096E+04  0.41508963867E+04  0.37848351485E+04 0.  0.
        1    1    3    3  502    0  0.86888078828E+02 -0.39752345586E+03 -0.28791002452E+04  0.29077126162E+04  0.50400001928E-02 0. -1.
       -1    1    3    3    0  502 -0.86888078828E+02  0.39752345586E+03  0.11747048357E+04  0.12431837705E+04  0.50400001928E-02 0.  1.
</event>
<event>
 5   0  0.2081337E-07  0.3795388E+04  0.7818609E-02  0.8047145E-01
        2   -1    0    0  501    0  0.00000000000E+00  0.00000000000E+00  0.18783441064E+04  0.18783441064E+04  0.25500000920E-02 0. -1.
       -2   -1    0    0    0  501  0.00000000000E+00  0.00000000000E+00 -0.19172432096E+04  0.19172432096E+04  0.25500000920E-02 0.  1.
    10030    2    1    2    0    0  0.00000000000E+00  0.00000000000E+00 -0.38899103155E+02  0.37955873160E+04  0.37953879819E+04 0.  0.
        1    1    3    3  502    0  0.12284840258E+04  0.14334609366E+04  0.17358707312E+03  0.18958153208E+04  0.50400001928E-02 0. -1.
       -1    1    3    3    0  502 -0.12284840258E+04 -0.14334609366E+04 -0.21248617627E+03  0.18997719952E+04  0.50400001928E-02 0.  1.
</event>
<event>
 5   0  0.6661000E-08  0.4148040E+04  0.7818609E-02  0.7975330E-01
        1   -1    0    0  501    0  0.00000000000E+00  0.00000000000E+00  0.13444493316E+04  0.13444493316E+04  0.50400001928E-02 0. -1.
       -1   -1    0    0    0  501  0.00000000000E+00  0.00000000000E+00 -0.31994953088E+04  0.31994953088E+04  0.50400001928E-02 0.  1.
    10030    2    1    2    0    0  0.00000000000E+00  0.00000000000E+00 -0.18550459771E+04  0.45439446404E+04  0.41480401779E+04 0.  0.
        4    1    3    3  502    0 -0.14559904519E+04  0.10532831771E+04 -0.20618464212E+04  0.27350550131E+04  0.12699999809E+01 0.  1.
       -4    1    3    3    0  502  0.14559904519E+04 -0.10532831771E+04  0.20680044412E+03  0.18088896273E+04  0.12699999809E+01 0. -1.
</event>
<event>
 5   0  0.6661000E-08  0.3754226E+04  0.7818609E-02  0.8056050E-01
        1   -1    0    0  501    0  0.00000000000E+00  0.00000000000E+00  0.19246760079E+04  0.19246760079E+04  0.50400001928E-02 0.  1.
       -1   -1    0    0    0  501  0.00000000000E+00  0.00000000000E+00 -0.18307254675E+04  0.18307254675E+04  0.50400001928E-02 0. -1.
    10030    2    1    2    0    0  0.00000000000E+00  0.00000000000E+00  0.93950540455E+02  0.37554014754E+04  0.37542260903E+04 0.  0.
        4    1    3    3  502    0 -0.74926549043E+03 -0.84879506140E+03  0.15446747851E+04  0.19151693492E+04  0.12699999809E+01 0.  1.
       -4    1    3    3    0  502  0.74926549043E+03  0.84879506140E+03 -0.14507242446E+04  0.18402321262E+04  0.12699999809E+01 0. -1.
</event>
<event>
 5   0  0.6661000E-08  0.3800055E+04  0.7818609E-02  0.8046143E-01
       -1   -1    0    0    0  501  0.00000000000E+00  0.00000000000E+00  0.26004750374E+04  0.26004750374E+04  0.50400001928E-02 0. -1.
        1   -1    0    0  501    0  0.00000000000E+00  0.00000000000E+00 -0.13882478953E+04  0.13882478953E+04  0.50400001928E-02 0.  1.
    10030    2    1    2    0    0  0.00000000000E+00  0.00000000000E+00  0.12122271421E+04  0.39887229327E+04  0.38000547351E+04 0.  0.
        3    1    3    3  502    0 -0.14886146395E+03 -0.13214676238E+04  0.20305715376E+04  0.24272736137E+04  0.10100000352E+00 0. -1.
       -3    1    3    3    0  502  0.14886146395E+03  0.13214676238E+04 -0.81834439541E+03  0.15614493190E+04  0.10100000352E+00 0.  1.
</event>
<event>
 5   0  0.2205204E-07  0.3783058E+04  0.7818609E-02  0.8049800E-01
        2   -1    0    0  501    0  0.00000000000E+00  0.00000000000E+00  0.19777655987E+04  0.19777655987E+04  0.25500000920E-02 0. -1.
       -2   -1    0    0    0  501  0.00000000000E+00  0.00000000000E+00 -0.18090525283E+04  0.18090525283E+04  0.25500000920E-02 0.  1.
    10030    2    1    2    0    0  0.00000000000E+00  0.00000000000E+00  0.16871307043E+03  0.37868181271E+04  0.37830579466E+04 0.  0.
        2    1    3    3  502    0 -0.18637132222E+03  0.39193459077E+03  0.19272554165E+04  0.19755152324E+04  0.25500000920E-02 0. -1.
       -2    1    3    3    0  502  0.18637132222E+03 -0.39193459077E+03 -0.17585423461E+04  0.18113028946E+04  0.25500000920E-02 0.  1.
</event>
<event>
 5   0  0.2135314E-07  0.3785723E+04  0.7818609E-02  0.8049226E-01
       -2   -1    0    0    0  501  0.00000000000E+00  0.00000000000E+00  0.14778677489E+04  0.14778677489E+04  0.25500000920E-02 0.  1.
        2   -1    0    0  501    0  0.00000000000E+00  0.00000000000E+00 -0.24243876505E+04  0.24243876505E+04  0.25500000920E-02 0. -1.
    10030    2    1    2    0    0  0.00000000000E+00  0.00000000000E+00 -0.94651990155E+03  0.39022553994E+04  0.37857228211E+04 0.  0.
        4    1    3    3  502    0 -0.54162254475E+03  0.10134822998E+04  0.10771752598E+04  0.15750585723E+04  0.12699999809E+01 0.  1.
       -4    1    3    3    0  502  0.54162254475E+03 -0.10134822998E+04 -0.20236951613E+04  0.23271968271E+04  0.12699999809E+01 0. -1.
</event>
<event>
 5   0  0.1370688E-07  0.3800056E+04  0.7818609E-02  0.8046143E-01
       -2   -1    0    0    0  501  0.00000000000E+00  0.00000000000E+00  0.13514972493E+04  0.13514972493E+04  0.25500000920E-02 0. -1.
        2   -1    0    0  501    0  0.00000000000E+00  0.00000000000E+00 -0.26711910308E+04  0.26711910308E+04  0.25500000920E-02 0.  1.
    10030    2    1    2    0    0  0.00000000000E+00  0.00000000000E+00 -0.13196937815E+04  0.40226882800E+04  0.38000564892E+04 0.  0.
        5    1    3    3  502    0  0.33684750934E+03  0.82865801728E+03  0.11146499418E+04  0.14291980048E+04  0.46999998093E+01 0. -1.
       -5    1    3    3    0  502 -0.33684750934E+03 -0.82865801728E+03 -0.24343437234E+04  0.25934902752E+04  0.46999998093E+01 0.  1.
</event>
<event>
 5   0  0.2203998E-07  0.3807030E+04  0.7818609E-02  0.8044648E-01
        2   -1    0    0  501    0  0.00000000000E+00  0.00000000000E+00  0.25468700007E+04  0.25468700007E+04  0.25500000920E-02 0.  1.
       -2   -1    0    0    0  501  0.00000000000E+00  0.00000000000E+00 -0.14226750694E+04  0.14226750694E+04  0.25500000920E-02 0. -1.
    10030    2    1    2    0    0  0.00000000000E+00  0.00000000000E+00  0.11241949314E+04  0.39695450701E+04  0.38070295271E+04 0.  0.
        3    1    3    3  502    0 -0.10380504498E+03 -0.18088271369E+04  0.11707428886E+04  0.21571439498E+04  0.10100000352E+00 0.  1.
       -3    1    3    3    0  502  0.10380504498E+03  0.18088271369E+04 -0.46547957236E+02  0.18124011204E+04  0.10100000352E+00 0. -1.
</event>
<event>
 5   0  0.1370688E-07  0.3860450E+04  0.7818609E-02  0.8033306E-01
       -2   -1    0    0    0  501  0.00000000000E+00  0.00000000000E+00  0.23823862556E+04  0.23823862556E+04  0.25500000920E-02 0. -1.
        2   -1    0    0  501    0  0.00000000000E+00  0.00000000000E+00 -0.15638808880E+04  0.15638808880E+04  0.25500000920E-02 0.  1.
    10030    2    1    2    0    0  0.00000000000E+00  0.00000000000E+00  0.81850536757E+03  0.39462671436E+04  0.38604498872E+04 0.  0.
        5    1    3    3  502    0  0.16752957622E+04 -0.51876451598E+03  0.12334094474E+04  0.21440740353E+04  0.46999998093E+01 0. -1.
       -5    1    3    3    0  502 -0.16752957622E+04  0.51876451598E+03 -0.41490407987E+03  0.18021931082E+04  0.46999998093E+01 0.  1.
</event>
<event>
 5   0  0.2205204E-07  0.3753849E+04  0.7818609E-02  0.8056132E-01
       -2   -1    0    0    0  501  0.00000000000E+00  0.00000000000E+00  0.16145121444E+04  0.16145121444E+04  0.25500000920E-02 0.  1.
        2   -1    0    0  501    0  0.00000000000E+00  0.00000000000E+00 -0.21819879978E+04  0.21819879978E+04  0.25500000920E-02 0. -1.
    10030    2    1    2    0    0  0.00000000000E+00  0.00000000000E+00 -0.56747585342E+03  0.37965001422E+04  0.37538492891E+04 0.  0.
        2    1    3    3  502    0 -0.40230417237E+03  0.18213060507E+04 -0.49550112982E+03  0.19299030409E+04  0.25500000920E-02 0. -1.
       -2    1    3    3    0  502  0.40230417237E+03 -0.18213060507E+04 -0.71974723605E+02  0.18665971013E+04  0.25500000920E-02 0.  1.
</event>
<event>
 5   0  0.6661000E-08  0.3813454E+04  0.7818609E-02  0.8043274E-01
        1   -1    0    0  501    0  0.00000000000E+00  0.00000000000E+00  0.21530248186E+04  0.21530248186E+04  0.50400001928E-02 0.  1.
       -1   -1    0    0    0  501  0.00000000000E+00  0.00000000000E+00 -0.16886050686E+04  0.16886050686E+04  0.50400001928E-02 0. -1.
    10030    2    1    2    0    0  0.00000000000E+00  0.00000000000E+00  0.46441974997E+03  0.38416298872E+04  0.38134544034E+04 0.  0.
        1    1    3    3  502    0  0.60526929588E+02 -0.14758521327E+04 -0.98243726351E+03  0.17739746345E+04  0.50400001928E-02 0. -1.
       -1    1    3    3    0  502 -0.60526929588E+02  0.14758521327E+04  0.14468570135E+04  0.20676552528E+04  0.50400001928E-02 0.  1.
</event>
<event>
 5   0  0.6661000E-08  0.3769640E+04  0.7818609E-02  0.8052702E-01
       -1   -1    0    0    0  501  0.00000000000E+00  0.00000000000E+00  0.13975260173E+04  0.13975260173E+04  0.50400001928E-02 0. -1.
        1   -1    0    0  501    0  0.00000000000E+00  0.00000000000E+00 -0.25420259176E+04  0.25420259176E+04  0.50400001928E-02 0.  1.
    10030    2    1    2    0    0  0.00000000000E+00  0.00000000000E+00 -0.11444999003E+04  0.39395519349E+04  0.37696404903E+04 0.  0.
        4    1    3    3  502    0  0.18016936890E+04  0.14708266117E+03 -0.14517060453E+02  0.18077460597E+04  0.12699999809E+01 0. -1.
       -4    1    3    3    0  502 -0.18016936890E+04 -0.14708266117E+03 -0.11299828399E+04  0.21318058752E+04  0.12699999809E+01 0.  1.
</event>
<event>
 5   0  0.2081337E-07  0.3802721E+04  0.7818609E-02  0.8045571E-01
        2   -1    0    0  501    0  0.00000000000E+00  0.00000000000E+00  0.25519804053E+04  0.25519804053E+04  0.25500000920E-02 0.  1.
       -2   -1    0    0    0  501  0.00000000000E+00  0.00000000000E+00 -0.14166138757E+04  0.14166138757E+04  0.25500000920E-02 0. -1.
    10030    2    1    2    0    0  0.00000000000E+00  0.00000000000E+00  0.11353665296E+04  0.39685942809E+04  0.38027205275E+04 0.  0.
        1    1    3    3  502    0  0.17708626093E+04 -0.68692672240E+03  0.65714375823E+03  0.20098906990E+04  0.50400001928E-02 0.  1.
       -1    1    3    3    0  502 -0.17708626093E+04  0.68692672240E+03  0.47822277134E+03  0.19587035820E+04  0.50400001928E-02 0. -1.
</event>
<event>
 5   0  0.2135314E-07  0.3743860E+04  0.7818609E-02  0.8058311E-01
        2   -1    0    0  501    0  0.00000000000E+00  0.00000000000E+00  0.27284788390E+04  0.27284788390E+04  0.25500000920E-02 0.  1.
       -2   -1    0    0    0  501  0.00000000000E+00  0.00000000000E+00 -0.12842765176E+04  0.12842765176E+04  0.25500000920E-02 0. -1.
    10030    2    1    2    0    0  0.00000000000E+00  0.00000000000E+00  0.14442023215E+04  0.40127553566E+04  0.37438596671E+04 0.  0.
        4    1    3    3  502    0 -0.87778701830E+03 -0.14382835265E+04 -0.15191137466E+03  0.16918180253E+04  0.12699999809E+01 0. -1.
       -4    1    3    3    0  502  0.87778701830E+03  0.14382835265E+04  0.15961136961E+04  0.23209373313E+04  0.12699999809E+01 0.  1.
</event>
<event>
 5   0  0.6661000E-08  0.3782450E+04  0.7818609E-02  0.8049932E-01
        1   -1    0    0  501    0  0.00000000000E+00  0.00000000000E+00  0.23234711304E+04  0.23234711304E+04  0.50400001928E-02 0. -1.
       -1   -1    0    0    0  501  0.00000000000E+00  0.00000000000E+00 -0.15393914094E+04  0.15393914094E+04  0.50400001928E-02 0.  1.
    10030    2    1    2    0    0  0.00000000000E+00  0.00000000000E+00  0.78407972105E+03  0.38628625398E+04  0.37824497343E+04 0.  0.
        2    1    3    3  502    0 -0.24081634423E+03  0.18064970033E+04  0.90806151763E+03  0.20361727958E+04  0.25500000920E-02 0. -1.
       -2    1    3    3    0  502  0.24081634423E+03 -0.18064970033E+04 -0.12398179658E+03  0.18266897439E+04  0.25500000920E-02 0.  1.
</event>
<event>
 5   0  0.1370688E-07  0.3792064E+04  0.7818609E-02  0.8047860E-01
       -2   -1    0    0    0  501  0.00000000000E+00  0.00000000000E+00  0.17530995716E+04  0.17530995716E+04  0.25500000920E-02 0. -1.
        2   -1    0    0  501    0  0.00000000000E+00  0.00000000000E+00 -0.20506183261E+04  0.20506183261E+04  0.25500000920E-02 0.  1.
    10030    2    1    2    0    0  0.00000000000E+00  0.00000000000E+00 -0.29751875450E+03  0.38037178977E+04  0.37920644029E+04 0.  0.
        5    1    3    3  502    0 -0.11325181227E+04 -0.15177552212E+04 -0.54995862750E+02  0.18945249654E+04  0.46999998093E+01 0.  1.
       -5    1    3    3    0  502  0.11325181227E+04  0.15177552212E+04 -0.24252289175E+03  0.19091929323E+04  0.46999998093E+01 0. -1.
</event>
<event>
 5   0  0.2205204E-07  0.3929585E+04  0.7818609E-02  0.8018904E-01
        2   -1    0    0  501    0  0.00000000000E+00  0.00000000000E+00  0.25040961914E+04  0.25040961914E+04  0.25500000920E-02 0. -1.
       -2   -1    0    0    0  501  0.00000000000E+00  0.00000000000E+00 -0.15416380667E+04  0.15416380667E+04  0.25500000920E-02 0.  1.
    10030    2    1    2    0    0  0.00000000000E+00  0.00000000000E+00  0.96245812464E+03  0.40457342581E+04  0.39295852256E+04 0.  0.
        2    1    3    3  502    0  0.10305024986E+04 -0.10665592184E+04 -0.84563303510E+03  0.17072138695E+04  0.25500000920E-02 0.  1.
       -2    1    3    3    0  502 -0.10305024986E+04  0.10665592184E+04  0.18080911597E+04  0.23385203886E+04  0.25500000920E-02 0. -1.
</event>
<event>
 5   0  0.2203998E-07  0.3773497E+04  0.7818609E-02  0.8051866E-01
        2   -1    0    0  501    0  0.00000000000E+00  0.00000000000E+00  0.22359989068E+04  0.22359989068E+04  0.25500000920E-02 0.  1.
       -2   -1    0    0    0  501  0.00000000000E+00  0.00000000000E+00 -0.15920490543E+04  0.15920490543E+04  0.25500000920E-02 0. -1.
    10030    2    1    2    0    0  0.00000000000E+00  0.00000000000E+00  0.64394985247E+03  0.38280479611E+04  0.37734970226E+04 0.  0.
        3    1    3    3  502    0 -0.17575452020E+04  0.66344001630E+03  0.49972823704E+03  0.19439254393E+04  0.10100000352E+00 0. -1.
       -3    1    3    3    0  502  0.17575452020E+04 -0.66344001630E+03  0.14422161542E+03  0.18841225218E+04  0.10100000352E+00 0.  1.
</event>
<event>
 5   0  0.2205204E-07  0.3798108E+04  0.7818609E-02  0.8046561E-01
        2   -1    0    0  501    0  0.00000000000E+00  0.00000000000E+00  0.29810535369E+04  0.29810535369E+04  0.25500000920E-02 0. -1.
       -2   -1    0    0    0  501  0.00000000000E+00  0.00000000000E+00 -0.12097755373E+04  0.12097755373E+04  0.25500000920E-02 0.  1.
    10030    2    1    2    0    0  0.00000000000E+00  0.00000000000E+00  0.17712779996E+04  0.41908290742E+04  0.37981077627E+04 0.  0.
        2    1    3    3  502    0  0.16141581502E+04 -0.95568728242E+03  0.55913549697E+03  0.19574159547E+04  0.25500000920E-02 0.  1.
       -2    1    3    3    0  502 -0.16141581502E+04  0.95568728242E+03  0.12121425026E+04  0.22334131195E+04  0.25500000920E-02 0. -1.
</event>
<event>
 5   0  0.2081337E-07  0.3813796E+04  0.7818609E-02  0.8043201E-01
       -2   -1    0    0    0  501  0.00000000000E+00  0.00000000000E+00  0.16406055336E+04  0.16406055336E+04  0.25500000920E-02 0.  1.
        2   -1    0    0  501    0  0.00000000000E+00  0.00000000000E+00 -0.22164133970E+04  0.22164133970E+04  0.25500000920E-02 0. -1.
    10030    2    1    2    0    0  0.00000000000E+00  0.00000000000E+00 -0.57580786339E+03  0.38570189307E+04  0.38137960533E+04 0.  0.
        1    1    3    3  502    0  0.22627260013E+03  0.10669127606E+04  0.12940353489E+04  0.16923444131E+04  0.50400001928E-02 0.  1.
       -1    1    3    3    0  502 -0.22627260013E+03 -0.10669127606E+04 -0.18698432123E+04  0.21646745176E+04  0.50400001928E-02 0. -1.
</event>
<event>
 5   0  0.6661000E-08  0.3809997E+04  0.7818609E-02  0.8044013E-01
        1   -1    0    0  501    0  0.00000000000E+00  0.00000000000E+00  0.28408871850E+04  0.28408871850E+04  0.50400001928E-02 0. -1.
       -1   -1    0    0    0  501  0.00000000000E+00  0.00000000000E+00 -0.12774249005E+04  0.12774249005E+04  0.50400001928E-02 0.  1.
    10030    2    1    2    0    0  0.00000000000E+00  0.00000000000E+00  0.15634622845E+04  0.41183120855E+04  0.38099973908E+04 0.  0.
        3    1    3    3  502    0  0.16906040212E+04  0.78992961617E+03  0.36745530455E+03  0.19018817434E+04  0.10100000352E+00 0.  1.
       -3    1    3    3    0  502 -0.16906040212E+04 -0.78992961617E+03  0.11960069800E+04  0.22164303420E+04  0.10100000352E+00 0. -1.
</event>
<event>
 5   0  0.1370688E-07  0.3786699E+04  0.7818609E-02  0.8049015E-01
        2   -1    0    0  501    0  0.00000000000E+00  0.00000000000E+00  0.16019078085E+04  0.16019078085E+04  0.25500000920E-02 0. -1.
       -2   -1    0    0    0  501  0.00000000000E+00  0.00000000000E+00 -0.22378149325E+04  0.22378149325E+04  0.25500000920E-02 0.  1.
    10030    2    1    2    0    0  0.00000000000E+00  0.00000000000E+00 -0.63590712395E+03  0.38397227410E+04  0.37866994676E+04 0.  0.
        5    1    3    3  502    0  0.24710094155E+03  0.13757485132E+04 -0.16129456347E+04  0.21343285964E+04  0.46999998093E+01 0.  1.
       -5    1    3    3    0  502 -0.24710094155E+03 -0.13757485132E+04  0.97703851077E+03  0.17053941446E+04  0.46999998093E+01 0. -1.
</event>
<event>
 5   0  0.2135314E-07  0.3855382E+04  0.7818609E-02  0.8034373E-01
       -2   -1    0    0    0  501  0.00000000000E+00  0.00000000000E+00  0.16608881017E+04  0.16608881017E+04  0.25500000920E-02 0.  1.
        2   -1    0    0  501    0  0.00000000000E+00  0.00000000000E+00 -0.22373523988E+04  0.22373523988E+04  0.25500000920E-02 0. -1.
    10030    2    1    2    0    0  0.00000000000E+00  0.00000000000E+00 -0.57646429708E+03  0.38982405006E+04  0.38553816821E+04 0.  0.
        4    1    3    3  502    0  0.10543364789E+03  0.14181420817E+04  0.10276758845E+04  0.17545263048E+04  0.12699999809E+01 0.  1.
       -4    1    3    3    0  502 -0.10543364789E+03 -0.14181420817E+04 -0.16041401815E+04  0.21437141957E+04  0.12699999809E+01 0. -1.
</event>
<event>
 5   0  0.2205204E-07  0.3778942E+04  0.7818609E-02  0.8050689E-01
        2   -1    0    0  501    0  0.00000000000E+00  0.00000000000E+00  0.23139092490E+04  0.23139092490E+04  0.25500000920E-02 0.  1.
       -2   -1    0    0    0  501  0.00000000000E+00  0.00000000000E+00 -0.15428868884E+04  0.15428868884E+04  0.25500000920E-02 0. -1.
    10030    2    1    2    0    0  0.00000000000E+00  0.00000000000E+00  0.77102236069E+03  0.38567961374E+04  0.37789417784E+04 0.  0.
        2    1    3    3  502    0 -0.18654369685E+04  0.15888432731E+03  0.12530580599E+03  0.18763797211E+04  0.25500000920E-02 0. -1.
       -2    1    3    3    0  502  0.18654369685E+04 -0.15888432731E+03  0.64571655471E+03  0.19804164163E+04  0.25500000920E-02 0.  1.
</event>
<event>
 5   0  0.6661000E-08  0.3782467E+04  0.7818609E-02  0.8049928E-01
       -1   -1    0    0    0  501  0.00000000000E+00  0.00000000000E+00  0.22799680589E+04  0.22799680589E+04  0.50400001928E-02 0. -1.
        1   -1    0    0  501    0  0.00000000000E+00  0.00000000000E+00 -0.15687780622E+04  0.15687780622E+04  0.50400001928E-02 0.  1.
    10030    2    1    2    0    0  0.00000000000E+00  0.00000000000E+00  0.71118999665E+03  0.38487461211E+04  0.37824668529E+04 0.  0.
        3    1    3    3  502    0  0.41876447935E+03 -0.22887605973E+03 -0.15065038847E+04  0.15802853871E+04  0.10100000352E+00 0.  1.
       -3    1    3    3    0  502 -0.41876447935E+03  0.22887605973E+03  0.22176938814E+04  0.22684607340E+04  0.10100000352E+00 0. -1.
</event>
<event>
 5   0  0.6725199E-08  0.3868411E+04  0.7818609E-02  0.8031631E-01
        1   -1    0    0  501    0  0.00000000000E+00  0.00000000000E+00  0.16485336817E+04  0.16485336817E+04  0.50400001928E-02 0.  1.
       -1   -1    0    0    0  501  0.00000000000E+00  0.00000000000E+00 -0.22693808516E+04  0.22693808516E+04  0.50400001928E-02 0. -1.
    10030    2    1    2    0    0  0.00000000000E+00  0.00000000000E+00 -0.62084716987E+03  0.39179145334E+04  0.38684109247E+04 0.  0.
        5    1    3    3  502    0 -0.11689621819E+04 -0.15384618762E+04 -0.39982064459E+03  0.19731234541E+04  0.46999998093E+01 0.  1.
       -5    1    3    3    0  502  0.11689621819E+04  0.15384618762E+04 -0.22102652528E+03  0.19447910793E+04  0.46999998093E+01 0. -1.
</event>
<event>
 5   0  0.2081337E-07  0.3815465E+04  0.7818609E-02  0.8042844E-01
        2   -1    0    0  501    0  0.00000000000E+00  0.00000000000E+00  0.21425596622E+04  0.21425596622E+04  0.25500000920E-02 0. -1.
       -2   -1    0    0    0  501  0.00000000000E+00  0.00000000000E+00 -0.16986430141E+04  0.16986430141E+04  0.25500000920E-02 0.  1.
    10030    2    1    2    0    0  0.00000000000E+00  0.00000000000E+00  0.44391664803E+03  0.38412026763E+04  0.38154653727E+04 0.  0.
        1    1    3    3  502    0  0.10857674904E+04  0.10754784964E+03  0.17974383252E+04  0.21026749906E+04  0.50400001928E-02 0. -1.
       -1    1    3    3    0  502 -0.10857674904E+04 -0.10754784964E+03 -0.13535216772E+04  0.17385276857E+04  0.50400001928E-02 0.  1.
</event>
<event>
 5   0  0.1370688E-07  0.3830610E+04  0.7818609E-02  0.8039618E-01
       -2   -1    0    0    0  501  0.00000000000E+00  0.00000000000E+00  0.11261616120E+04  0.11261616120E+04  0.25500000920E-02 0.  1.
        2   -1    0    0  501    0  0.00000000000E+00  0.00000000000E+00 -0.32574299788E+04  0.32574299788E+04  0.25500000920E-02 0. -1.
    10030    2    1    2    0    0  0.00000000000E+00  0.00000000000E+00 -0.21312683668E+04  0.43835915908E+04  0.38306096621E+04 0.  0.
        5    1    3    3  502    0  0.40324027446E+03  0.10566192828E+03 -0.32048821578E+04  0.32318816342E+04  0.46999998093E+01 0. -1.
       -5    1    3    3    0  502 -0.40324027446E+03 -0.10566192828E+03  0.10736137910E+04  0.11517099566E+04  0.46999998093E+01 0.  1.
</event>
<event>
 5   0  0.1370688E-07  0.3853850E+04  0.7818609E-02  0.8034696E-01
        2   -1    0    0  501    0  0.00000000000E+00  0.00000000000E+00  0.22322176569E+04  0.22322176569E+04  0.25500000920E-02 0.  1.
       -2   -1    0    0    0  501  0.00000000000E+00  0.00000000000E+00 -0.16633865844E+04  0.16633865844E+04  0.25500000920E-02 0. -1.
    10030    2    1    2    0    0  0.00000000000E+00  0.00000000000E+00  0.56883107252E+03  0.38956042414E+04  0.38538504922E+04 0.  0.
        5    1    3    3  502    0 -0.90868622084E+03 -0.56048700502E+03 -0.13370718438E+04  0.17110346391E+04  0.46999998093E+01 0. -1.
       -5    1    3    3    0  502  0.90868622084E+03  0.56048700502E+03  0.19059029163E+04  0.21845696023E+04  0.46999998093E+01 0.  1.
</event>
<event>
 5   0  0.6661000E-08  0.3778236E+04  0.7818609E-02  0.8050842E-01
       -1   -1    0    0    0  501  0.00000000000E+00  0.00000000000E+00  0.25402945581E+04  0.25402945582E+04  0.50400001928E-02 0. -1.
        1   -1    0    0  501    0  0.00000000000E+00  0.00000000000E+00 -0.14048633799E+04  0.14048633800E+04  0.50400001928E-02 0.  1.
    10030    2    1    2    0    0  0.00000000000E+00  0.00000000000E+00  0.11354311782E+04  0.39451579381E+04  0.37782359900E+04 0.  0.
        2    1    3    3  502    0 -0.86242091411E+03 -0.14984015658E+04  0.13627951084E+04  0.22014058220E+04  0.25500000920E-02 0. -1.
       -2    1    3    3    0  502  0.86242091411E+03  0.14984015658E+04 -0.22736393024E+03  0.17437521161E+04  0.25500000920E-02 0.  1.
</event>
<event>
 5   0  0.6661000E-08  0.3791100E+04  0.7818609E-02  0.8048067E-01
        1   -1    0    0  501    0  0.00000000000E+00  0.00000000000E+00  0.12957225734E+04  0.12957225734E+04  0.50400001928E-02 0. -1.
       -1   -1    0    0    0  501  0.00000000000E+00  0.00000000000E+00 -0.27730554421E+04  0.27730554421E+04  0.50400001928E-02 0.  1.
    10030    2    1    2    0    0  0.00000000000E+00  0.00000000000E+00 -0.14773328687E+04  0.40687780155E+04  0.37911003857E+04 0.  0.
        4    1    3    3  502    0 -0.68802898527E+03  0.14012923518E+04 -0.18926438528E+04  0.24533867421E+04  0.12699999809E+01 0.  1.
       -4    1    3    3    0  502  0.68802898527E+03 -0.14012923518E+04  0.41531098414E+03  0.16153912734E+04  0.12699999809E+01 0. -1.
</event>
<event>
 5   0  0.6661000E-08  0.3747528E+04  0.7818609E-02  0.8057510E-01
        1   -1    0    0  501    0  0.00000000000E+00  0.00000000000E+00  0.21908753525E+04  0.21908753525E+04  0.50400001928E-02 0. -1.
       -1   -1    0    0    0  501  0.00000000000E+00  0.00000000000E+00 -0.16025519996E+04  0.16025519996E+04  0.50400001928E-02 0.  1.
    10030    2    1    2    0    0  0.00000000000E+00  0.00000000000E+00  0.58832335293E+03  0.37934273522E+04  0.37475280797E+04 0.  0.
        2    1    3    3  502    0  0.21364367834E+03  0.17211157401E+03  0.21704350481E+04  0.21877052619E+04  0.25500000920E-02 0. -1.
       -2    1    3    3    0  502 -0.21364367834E+03 -0.17211157401E+03 -0.15821116951E+04  0.16057220902E+04  0.25500000920E-02 0.  1.
</event>
<event>
 5   0  0.2081337E-07  0.3806544E+04  0.7818609E-02  0.8044752E-01
        2   -1    0    0  501    0  0.00000000000E+00  0.00000000000E+00  0.12211437142E+04  0.12211437142E+04  0.25500000920E-02 0.  1.
       -2   -1    0    0    0  501  0.00000000000E+00  0.00000000000E+00 -0.29664350364E+04  0.29664350364E+04  0.25500000920E-02 0. -1.
    10030    2    1    2    0    0  0.00000000000E+00  0.00000000000E+00 -0.17452913222E+04  0.41875787507E+04  0.38065435757E+04 0.  0.
        1    1    3    3  502    0  0.37791985976E+03  0.33077894995E+03 -0.28922224205E+04  0.29355048397E+04  0.50400001928E-02 0. -1.
       -1    1    3    3    0  502 -0.37791985976E+03 -0.33077894995E+03  0.11469310983E+04  0.12520739109E+04  0.50400001928E-02 0.  1.
</event>
<event>
 5   0  0.1370688E-07  0.3792192E+04  0.7818609E-02  0.8047833E-01
        2   -1    0    0  501    0  0.00000000000E+00  0.00000000000E+00  0.25786383169E+04  0.25786383169E+04  0.25500000920E-02 0.  1.
       -2   -1    0    0    0  501  0.00000000000E+00  0.00000000000E+00 -0.13942164686E+04  0.13942164686E+04  0.25500000920E-02 0. -1.
    10030    2    1    2    0    0  0.00000000000E+00  0.00000000000E+00  0.11844218484E+04  0.39728547855E+04  0.37921919824E+04 0.  0.
        5    1    3    3  502    0 -0.15725494866E+04  0.59497453827E+03  0.15104674756E+04  0.22601859821E+04  0.46999998093E+01 0.  1.
       -5    1    3    3    0  502  0.15725494866E+04 -0.59497453827E+03 -0.32604562726E+03  0.17126688033E+04  0.46999998093E+01 0. -1.
</event>
<event>
 5   0  0.2203998E-07  0.3801522E+04  0.7818609E-02  0.8045828E-01
       -2   -1    0    0    0  501  0.00000000000E+00  0.00000000000E+00  0.32461091433E+04  0.32461091433E+04  0.25500000920E-02 0. -1.
        2   -1    0    0  501    0  0.00000000000E+00  0.00000000000E+00 -0.11129919007E+04  0.11129919007E+04  0.25500000920E-02 0.  1.
    10030    2    1    2    0    0  0.00000000000E+00  0.00000000000E+00  0.21331172425E+04  0.43591010440E+04  0.38015224242E+04 0.  0.
        3    1    3    3  502    0 -0.39222937591E+03 -0.34893197266E+03 -0.10282132256E+04  0.11544781732E+04  0.10100000352E+00 0.  1.
       -3    1    3    3    0  502  0.39222937591E+03  0.34893197266E+03  0.31613304682E+04  0.32046228708E+04  0.10100000352E+00 0. -1.
</event>
<event>
 5   0  0.6661000E-08  0.3432352E+04  0.7818609E-02  0.8130011E-01
        1   -1    0    0  501    0  0.00000000000E+00  0.00000000000E+00  0.15645324338E+04  0.15645324338E+04  0.50400001928E-02 0. -1.
       -1   -1    0    0    0  501  0.00000000000E+00  0.00000000000E+00 -0.18825180298E+04  0.18825180298E+04  0.50400001928E-02 0.  1.
    10030    2    1    2    0    0  0.00000000000E+00  0.00000000000E+00 -0.31798559608E+03  0.34470504636E+04  0.34323522633E+04 0.  0.
        4    1    3    3  502    0 -0.11131148150E+03 -0.13363581362E+04 -0.12345671762E+04  0.18227454676E+04  0.12699999809E+01 0.  1.
       -4    1    3    3    0  502  0.11131148150E+03  0.13363581362E+04  0.91658158013E+03  0.16243049960E+04  0.12699999809E+01 0. -1.
</event>
<event>
 5   0  0.2081337E-07  0.3801540E+04  0.7818609E-02  0.8045824E-01
        2   -1    0    0  501    0  0.00000000000E+00  0.00000000000E+00  0.12796023438E+04  0.12796023438E+04  0.25500000920E-02 0.  1.
       -2   -1    0    0    0  501  0.00000000000E+00  0.00000000000E+00 -0.28234764663E+04  0.28234764663E+04  0.25500000920E-02 0. -1.
    10030    2    1    2    0    0  0.00000000000E+00  0.00000000000E+00 -0.15438741225E+04  0.41030788101E+04  0.38015402688E+04 0.  0.
        1    1    3    3  502    0  0.27159202337E+03 -0.11010178895E+04  0.87448587717E+03  0.14320363716E+04  0.50400001928E-02 0.  1.
       -1    1    3    3    0  502 -0.27159202337E+03  0.11010178895E+04 -0.24183599997E+04  0.26710424385E+04  0.50400001928E-02 0. -1.
</event>
<event>
 5   0  0.6661000E-08  0.3776790E+04  0.7818609E-02  0.8051154E-01
        1   -1    0    0  501    0  0.00000000000E+00  0.00000000000E+00  0.20745985534E+04  0.20745985534E+04  0.50400001928E-02 0. -1.
       -1   -1    0    0    0  501  0.00000000000E+00  0.00000000000E+00 -0.17189043019E+04  0.17189043019E+04  0.50400001928E-02 0.  1.
    10030    2    1    2    0    0  0.00000000000E+00  0.00000000000E+00  0.35569425144E+03  0.37935028553E+04  0.37767903718E+04 0.  0.
        4    1    3    3  502    0 -0.90165692528E+03  0.99947922232E+02 -0.14857002978E+04  0.17407704575E+04  0.12699999809E+01 0.  1.
       -4    1    3    3    0  502  0.90165692528E+03 -0.99947922232E+02  0.18413945492E+04  0.20527323978E+04  0.12699999809E+01 0. -1.
</event>
<event>
 5   0  0.2203998E-07  0.3813044E+04  0.7818609E-02  0.8043362E-01
       -2   -1    0    0    0  501  0.00000000000E+00  0.00000000000E+00  0.19963724035E+04  0.19963724035E+04  0.25500000920E-02 0.  1.
        2   -1    0    0  501    0  0.00000000000E+00  0.00000000000E+00 -0.18207150599E+04  0.18207150599E+04  0.25500000920E-02 0. -1.
    10030    2    1    2    0    0  0.00000000000E+00  0.00000000000E+00  0.17565734362E+03  0.38170874635E+04  0.38130435614E+04 0.  0.
        3    1    3    3  502    0 -0.83391928099E+03 -0.11219866947E+04  0.13855637239E+04  0.19682637916E+04  0.10100000352E+00 0.  1.
       -3    1    3    3    0  502  0.83391928099E+03  0.11219866947E+04 -0.12099063803E+04  0.18488236718E+04  0.10100000352E+00 0. -1.
</event>
<event>
 5   0  0.2135314E-07  0.3812968E+04  0.7818609E-02  0.8043378E-01
        2   -1    0    0  501    0  0.00000000000E+00  0.00000000000E+00  0.18539603212E+04  0.18539603212E+04  0.25500000920E-02 0.  1.
       -2   -1    0    0    0  501  0.00000000000E+00  0.00000000000E+00 -0.19604960781E+04  0.19604960781E+04  0.25500000920E-02 0. -1.
    10030    2    1    2    0    0  0.00000000000E+00  0.00000000000E+00 -0.10653575685E+03  0.38144563993E+04  0.38129683653E+04 0.  0.
        4    1    3    3  502    0  0.18051982296E+04  0.38368875064E+03 -0.53170405581E+03  0.19205906699E+04  0.12699999809E+01 0.  1.
       -4    1    3    3    0  502 -0.18051982296E+04 -0.38368875064E+03  0.42516829896E+03  0.18938657294E+04  0.12699999809E+01 0. -1.
</event>
<event>
 5   0  0.6661000E-08  0.3784152E+04  0.7818609E-02  0.8049564E-01
        1   -1    0    0  501    0  0.00000000000E+00  0.00000000000E+00  0.19601714104E+04  0.19601714104E+04  0.50400001928E-02 0. -1.
       -1   -1    0    0    0  501  0.00000000000E+00  0.00000000000E+00 -0.18263463032E+04  0.18263463032E+04  0.50400001928E-02 0.  1.
    10030    2    1    2    0    0  0.00000000000E+00  0.00000000000E+00  0.13382510725E+03  0.37865177136E+04  0.37841521159E+04 0.  0.
        1    1    3    3  502    0 -0.17946803653E+04  0.22479962960E+02  0.66609307157E+03  0.19144354109E+04  0.50400001928E-02 0.  1.
       -1    1    3    3    0  502  0.17946803653E+04 -0.22479962960E+02 -0.53226796432E+03  0.18720823027E+04  0.50400001928E-02 0. -1.
</event>
<event>
 5   0  0.2081337E-07  0.3780850E+04  0.7818609E-02  0.8050277E-01
       -2   -1    0    0    0  501  0.00000000000E+00  0.00000000000E+00  0.23109381743E+04  0.23109381743E+04  0.25500000920E-02 0.  1.
        2   -1    0    0  501    0  0.00000000000E+00  0.00000000000E+00 -0.15464314660E+04  0.15464314660E+04  0.25500000920E-02 0. -1.
    10030    2    1    2    0    0  0.00000000000E+00  0.00000000000E+00  0.76450670829E+03  0.38573696402E+04  0.37808504380E+04 0.  0.
        1    1    3    3  502    0  0.15737543830E+04  0.56464056208E+03 -0.51774844808E+03  0.17503100520E+04  0.50400001928E-02 0. -1.
       -1    1    3    3    0  502 -0.15737543830E+04 -0.56464056208E+03  0.12822551564E+04  0.21070595883E+04  0.50400001928E-02 0.  1.
</event>
<event>
 5   0  0.6661000E-08  0.3790536E+04  0.7818609E-02  0.8048189E-01
       -1   -1    0    0    0  501  0.00000000000E+00  0.00000000000E+00  0.13744121268E+04  0.13744121268E+04  0.50400001928E-02 0. -1.
        1   -1    0    0  501    0  0.00000000000E+00  0.00000000000E+00 -0.26135102789E+04  0.26135102789E+04  0.50400001928E-02 0.  1.
    10030    2    1    2    0    0  0.00000000000E+00  0.00000000000E+00 -0.12390981521E+04  0.39879224057E+04  0.37905356988E+04 0.  0.
        3    1    3    3  502    0 -0.83790671128E+03 -0.67596101075E+03 -0.22605913728E+04  0.25038538915E+04  0.10100000352E+00 0.  1.
       -3    1    3    3    0  502  0.83790671128E+03  0.67596101075E+03  0.10214932207E+04  0.14840685143E+04  0.10100000352E+00 0. -1.
</event>
<event>
 5   0  0.6725199E-08  0.3782473E+04  0.7818609E-02  0.8049927E-01
        1   -1    0    0  501    0  0.00000000000E+00  0.00000000000E+00  0.13443753575E+04  0.13443753575E+04  0.50400001928E-02 0. -1.
       -1   -1    0    0    0  501  0.00000000000E+00  0.00000000000E+00 -0.26605483522E+04  0.26605483522E+04  0.50400001928E-02 0.  1.
    10030    2    1    2    0    0  0.00000000000E+00  0.00000000000E+00 -0.13161729947E+04  0.40049237097E+04  0.37824730757E+04 0.  0.
        5    1    3    3  502    0  0.12224308800E+04 -0.24518608901E+03  0.84762304070E+03  0.15076274022E+04  0.46999998093E+01 0. -1.
       -5    1    3    3    0  502 -0.12224308800E+04  0.24518608901E+03 -0.21637960354E+04  0.24972963075E+04  0.46999998093E+01 0.  1.
</event>
<event>
 5   0  0.6661000E-08  0.3802843E+04  0.7818609E-02  0.8045545E-01
        1   -1    0    0  501    0  0.00000000000E+00  0.00000000000E+00  0.21973471411E+04  0.21973471411E+04  0.50400001928E-02 0. -1.
       -1   -1    0    0    0  501  0.00000000000E+00  0.00000000000E+00 -0.16453497507E+04  0.16453497507E+04  0.50400001928E-02 0.  1.
    10030    2    1    2    0    0  0.00000000000E+00  0.00000000000E+00  0.55199739041E+03  0.38426968919E+04  0.38028434472E+04 0.  0.
        4    1    3    3  502    0  0.10738134286E+04 -0.15560088916E+04  0.48101410583E+03  0.19507985886E+04  0.12699999809E+01 0. -1.
       -4    1    3    3    0  502 -0.10738134286E+04  0.15560088916E+04  0.70983284576E+02  0.18918983033E+04  0.12699999809E+01 0.  1.
</event>
<event>
 5   0  0.6661000E-08  0.3806792E+04  0.7818609E-02  0.8044699E-01
       -1   -1    0    0    0  501  0.00000000000E+00  0.00000000000E+00  0.32070355660E+04  0.32070355660E+04  0.50400001928E-02 0.  1.
        1   -1    0    0  501    0  0.00000000000E+00  0.00000000000E+00 -0.11296779154E+04  0.11296779154E+04  0.50400001928E-02 0. -1.
    10030    2    1    2    0    0  0.00000000000E+00  0.00000000000E+00  0.20773576506E+04  0.43367134814E+04  0.38067924834E+04 0.  0.
        3    1    3    3  502    0  0.75804324728E+03  0.94717166762E+03  0.27095279239E+04  0.29687211579E+04  0.10100000352E+00 0.  1.
       -3    1    3    3    0  502 -0.75804324728E+03 -0.94717166762E+03 -0.63217027329E+03  0.13679923236E+04  0.10100000352E+00 0. -1.
</event>
<event>
 5   0  0.6661000E-08  0.3769036E+04  0.7818609E-02  0.8052832E-01
        1   -1    0    0  501    0  0.00000000000E+00  0.00000000000E+00  0.29385171875E+04  0.29385171875E+04  0.50400001928E-02 0. -1.
       -1   -1    0    0    0  501  0.00000000000E+00  0.00000000000E+00 -0.12085718006E+04  0.12085718006E+04  0.50400001928E-02 0.  1.
    10030    2    1    2    0    0  0.00000000000E+00  0.00000000000E+00  0.17299453870E+04  0.41470889881E+04  0.37690364861E+04 0.  0.
        3    1    3    3  502    0  0.16460389894E+04  0.84985763905E+03  0.48428211609E+03  0.19147405933E+04  0.10100000352E+00 0.  1.
       -3    1    3    3    0  502 -0.16460389894E+04 -0.84985763905E+03  0.12456632709E+04  0.22323483948E+04  0.10100000352E+00 0. -1.
</event>
<event>
 5   0  0.6661000E-08  0.3785309E+04  0.7818609E-02  0.8049315E-01
       -1   -1    0    0    0  501  0.00000000000E+00  0.00000000000E+00  0.26259309571E+04  0.26259309571E+04  0.50400001928E-02 0. -1.
        1   -1    0    0  501    0  0.00000000000E+00  0.00000000000E+00 -0.13641412734E+04  0.13641412734E+04  0.50400001928E-02 0.  1.
    10030    2    1    2    0    0  0.00000000000E+00  0.00000000000E+00  0.12617896838E+04  0.39900722305E+04  0.37853088644E+04 0.  0.
        4    1    3    3  502    0  0.15997984778E+04 -0.99975457112E+03  0.47008132423E+03  0.19441816881E+04  0.12699999809E+01 0.  1.
       -4    1    3    3    0  502 -0.15997984778E+04  0.99975457112E+03  0.79170835953E+03  0.20458905424E+04  0.12699999809E+01 0. -1.
</event>
<event>
 5   0  0.6661000E-08  0.3796056E+04  0.7818609E-02  0.8047002E-01
       -1   -1    0    0    0  501  0.00000000000E+00  0.00000000000E+00  0.17669515687E+04  0.17669515687E+04  0.50400001928E-02 0.  1.
        1   -1    0    0  501    0  0.00000000000E+00  0.00000000000E+00 -0.20388275537E+04  0.20388275537E+04  0.50400001928E-02 0. -1.
    10030    2    1    2    0    0  0.00000000000E+00  0.00000000000E+00 -0.27187598503E+03  0.38057791224E+04  0.37960556078E+04 0.  0.
        3    1    3    3  502    0 -0.12727357253E+04  0.11050722183E+04  0.73891894869E+03  0.18403918216E+04  0.10100000352E+00 0.  1.
       -3    1    3    3    0  502  0.12727357253E+04 -0.11050722183E+04 -0.10107949337E+04  0.19653873008E+04  0.10100000352E+00 0. -1.
</event>
<event>
 5   0  0.6661000E-08  0.3771883E+04  0.7818609E-02  0.8052216E-01
       -1   -1    0    0    0  501  0.00000000000E+00  0.00000000000E+00  0.17737115478E+04  0.17737115478E+04  0.50400001928E-02 0.  1.
        1   -1    0    0  501    0  0.00000000000E+00  0.00000000000E+00 -0.20052730628E+04  0.20052730628E+04  0.50400001928E-02 0. -1.
    10030    2    1    2    0    0  0.00000000000E+00  0.00000000000E+00 -0.23156151501E+03  0.37789846106E+04  0.37718833428E+04 0.  0.
        1    1    3    3  502    0  0.26312543333E+03  0.10862407129E+04 -0.16377266625E+04  0.19827512454E+04  0.50400001928E-02 0. -1.
       -1    1    3    3    0  502 -0.26312543333E+03 -0.10862407129E+04  0.14061651475E+04  0.17962333652E+04  0.50400001928E-02 0.  1.
</event>
<event>
 5   0  0.6661000E-08  0.3799528E+04  0.7818609E-02  0.8046256E-01
       -1   -1    0    0    0  501  0.00000000000E+00  0.00000000000E+00  0.23152186612E+04  0.23152186612E+04  0.50400001928E-02 0. -1.
        1   -1    0    0  501    0  0.00000000000E+00  0.00000000000E+00 -0.15588606683E+04  0.15588606683E+04  0.50400001928E-02 0.  1.
    10030    2    1    2    0    0  0.00000000000E+00  0.00000000000E+00  0.75635799290E+03  0.38740793296E+04  0.37995280284E+04 0.  0.
        3    1    3    3  502    0 -0.11549721934E+04  0.13036372703E+04  0.11517969870E+04  0.20880773955E+04  0.10100000352E+00 0. -1.
       -3    1    3    3    0  502  0.11549721934E+04 -0.13036372703E+04 -0.39543899411E+03  0.17860019341E+04  0.10100000352E+00 0.  1.
</event>
<event>
 5   0  0.2203998E-07  0.3808933E+04  0.7818609E-02  0.8044241E-01
        2   -1    0    0  501    0  0.00000000000E+00  0.00000000000E+00  0.23994598795E+04  0.23994598795E+04  0.25500000920E-02 0.  1.
       -2   -1    0    0    0  501  0.00000000000E+00  0.00000000000E+00 -0.15115871839E+04  0.15115871839E+04  0.25500000920E-02 0. -1.
    10030    2    1    2    0    0  0.00000000000E+00  0.00000000000E+00  0.88787269560E+03  0.39110470635E+04  0.38089330802E+04 0.  0.
        3    1    3    3  502    0  0.13670392889E+04  0.31051823378E+03 -0.87972163784E+03  0.16550311662E+04  0.10100000352E+00 0. -1.
       -3    1    3    3    0  502 -0.13670392889E+04 -0.31051823378E+03  0.17675943334E+04  0.22560158973E+04  0.10100000352E+00 0.  1.
</event>
<event>
 5   0  0.2205204E-07  0.3785904E+04  0.7818609E-02  0.8049187E-01
       -2   -1    0    0    0  501  0.00000000000E+00  0.00000000000E+00  0.21447400216E+04  0.21447400216E+04  0.25500000920E-02 0.  1.
        2   -1    0    0  501    0  0.00000000000E+00  0.00000000000E+00 -0.16707231450E+04  0.16707231450E+04  0.25500000920E-02 0. -1.
    10030    2    1    2    0    0  0.00000000000E+00  0.00000000000E+00  0.47401687656E+03  0.38154631666E+04  0.37859037463E+04 0.  0.
        2    1    3    3  502    0  0.14576234512E+04 -0.16816733541E+03 -0.96828936778E+03  0.17579905227E+04  0.25500000920E-02 0. -1.
       -2    1    3    3    0  502 -0.14576234512E+04  0.16816733541E+03  0.14423062443E+04  0.20574726439E+04  0.25500000920E-02 0.  1.
</event>
<event>
 5   0  0.6725199E-08  0.3865951E+04  0.7818609E-02  0.8032148E-01
        1   -1    0    0  501    0  0.00000000000E+00  0.00000000000E+00  0.25630196460E+04  0.25630196460E+04  0.50400001928E-02 0. -1.
       -1   -1    0    0    0  501  0.00000000000E+00  0.00000000000E+00 -0.14578091848E+04  0.14578091848E+04  0.50400001928E-02 0.  1.
    10030    2    1    2    0    0  0.00000000000E+00  0.00000000000E+00  0.11052104612E+04  0.40208288309E+04  0.38659506365E+04 0.  0.
        5    1    3    3  502    0 -0.87633704689E+03  0.15907121014E+04 -0.13575553253E+03  0.18212037953E+04  0.46999998093E+01 0. -1.
       -5    1    3    3    0  502  0.87633704689E+03 -0.15907121014E+04  0.12409659938E+04  0.21996250356E+04  0.46999998093E+01 0.  1.
</event>
<event>
 5   0  0.2203998E-07  0.3799860E+04  0.7818609E-02  0.8046185E-01
       -2   -1    0    0    0  501  0.00000000000E+00  0.00000000000E+00  0.17222088122E+04  0.17222088122E+04  0.25500000920E-02 0.  1.
        2   -1    0    0  501    0  0.00000000000E+00  0.00000000000E+00 -0.20959907022E+04  0.20959907022E+04  0.25500000920E-02 0. -1.
    10030    2    1    2    0    0  0.00000000000E+00  0.00000000000E+00 -0.37378188996E+03  0.38181995144E+04  0.37998598172E+04 0.  0.
        3    1    3    3  502    0 -0.24166324178E+03 -0.18231695139E+04 -0.66604192114E+03  0.19560061477E+04  0.10100000352E+00 0. -1.
       -3    1    3    3    0  502  0.24166324178E+03  0.18231695139E+04  0.29226003118E+03  0.18621933667E+04  0.10100000352E+00 0.  1.
</event>
<event>
 5   0  0.2081337E-07  0.3765466E+04  0.7818609E-02  0.8053607E-01
       -2   -1    0    0    0  501  0.00000000000E+00  0.00000000000E+00  0.16033035139E+04  0.16033035139E+04  0.25500000920E-02 0.  1.
        2   -1    0    0  501    0  0.00000000000E+00  0.00000000000E+00 -0.22108622322E+04  0.22108622322E+04  0.25500000920E-02 0. -1.
    10030    2    1    2    0    0  0.00000000000E+00  0.00000000000E+00 -0.60755871836E+03  0.38141657461E+04  0.37654658068E+04 0.  0.
        1    1    3    3  502    0  0.40628486502E+03  0.14012154370E+04 -0.15092172795E+04  0.20990971605E+04  0.50400001928E-02 0. -1.
       -1    1    3    3    0  502 -0.40628486502E+03 -0.14012154370E+04  0.90165856117E+03  0.17150685856E+04  0.50400001928E-02 0.  1.
</event>
<event>
 5   0  0.2135314E-07  0.3907649E+04  0.7818609E-02  0.8023440E-01
        2   -1    0    0  501    0  0.00000000000E+00  0.00000000000E+00  0.22867332185E+04  0.22867332185E+04  0.25500000920E-02 0. -1.
       -2   -1    0    0    0  501  0.00000000000E+00  0.00000000000E+00 -0.16693814046E+04  0.16693814046E+04  0.25500000920E-02 0.  1.
    10030    2    1    2    0    0  0.00000000000E+00  0.00000000000E+00  0.61735181398E+03  0.39561146231E+04  0.39076488646E+04 0.  0.
        4    1    3    3  502    0  0.57541748028E+03 -0.20076829880E+03  0.21880443202E+04  0.22713328128E+04  0.12699999809E+01 0. -1.
       -4    1    3    3    0  502 -0.57541748028E+03  0.20076829880E+03 -0.15706925062E+04  0.16847818103E+04  0.12699999809E+01 0.  1.
</event>
<event>
 5   0  0.2205204E-07  0.3800687E+04  0.7818609E-02  0.8046007E-01
        2   -1    0    0  501    0  0.00000000000E+00  0.00000000000E+00  0.19962031493E+04  0.19962031493E+04  0.25500000920E-02 0. -1.
       -2   -1    0    0    0  501  0.00000000000E+00  0.00000000000E+00 -0.18090870985E+04  0.18090870985E+04  0.25500000920E-02 0.  1.
    10030    2    1    2    0    0  0.00000000000E+00  0.00000000000E+00  0.18711605084E+03  0.38052902478E+04  0.38006869713E+04 0.  0.
        2    1    3    3  502    0  0.10074810927E+04  0.11585899924E+04 -0.10276002097E+04  0.18475148480E+04  0.25500000920E-02 0.  1.
       -2    1    3    3    0  502 -0.10074810927E+04 -0.11585899924E+04  0.12147162605E+04  0.19577753998E+04  0.25500000920E-02 0. -1.
</event>
<event>
 5   0  0.6725199E-08  0.3809535E+04  0.7818609E-02  0.8044112E-01
       -1   -1    0    0    0  501  0.00000000000E+00  0.00000000000E+00  0.17440531520E+04  0.17440531520E+04  0.50400001928E-02 0. -1.
        1   -1    0    0  501    0  0.00000000000E+00  0.00000000000E+00 -0.20802918519E+04  0.20802918519E+04  0.50400001928E-02 0.  1.
    10030    2    1    2    0    0  0.00000000000E+00  0.00000000000E+00 -0.33623869994E+03  0.38243450039E+04  0.38095351745E+04 0.  0.
        5    1    3    3  502    0  0.14642348235E+04 -0.24381802018E+03 -0.13663619347E+04  0.20175227066E+04  0.46999998093E+01 0.  1.
       -5    1    3    3    0  502 -0.14642348235E+04  0.24381802018E+03  0.10301232347E+04  0.18068222973E+04  0.46999998093E+01 0. -1.
</event>
<event>
 5   0  0.2205204E-07  0.3803318E+04  0.7818609E-02  0.8045443E-01
       -2   -1    0    0    0  501  0.00000000000E+00  0.00000000000E+00  0.15592814551E+04  0.15592814551E+04  0.25500000920E-02 0.  1.
        2   -1    0    0  501    0  0.00000000000E+00  0.00000000000E+00 -0.23192142883E+04  0.23192142883E+04  0.25500000920E-02 0. -1.
    10030    2    1    2    0    0  0.00000000000E+00  0.00000000000E+00 -0.75993283321E+03  0.38784957435E+04  0.38033184617E+04 0.  0.
        2    1    3    3  502    0 -0.10564611153E+04  0.94923802080E+03  0.90960244896E+03  0.16865762726E+04  0.25500000920E-02 0.  1.
       -2    1    3    3    0  502  0.10564611153E+04 -0.94923802080E+03 -0.16695352822E+04  0.21919194708E+04  0.25500000920E-02 0. -1.
</event>
<event>
 5   0  0.6725199E-08  0.3440468E+04  0.7818609E-02  0.8128045E-01
        1   -1    0    0  501    0  0.00000000000E+00  0.00000000000E+00  0.21393366863E+04  0.21393366863E+04  0.50400001928E-02 0. -1.
       -1   -1    0    0    0  501  0.00000000000E+00  0.00000000000E+00 -0.13832345897E+04  0.13832345897E+04  0.50400001928E-02 0.  1.
    10030    2    1    2    0    0  0.00000000000E+00  0.00000000000E+00  0.75610209662E+03  0.35225712760E+04  0.34404677028E+04 0.  0.
        5    1    3    3  502    0 -0.48504458090E+03 -0.12625272545E+04 -0.71030206161E+03  0.15276761511E+04  0.46999998093E+01 0.  1.
       -5    1    3    3    0  502  0.48504458090E+03  0.12625272545E+04  0.14664041582E+04  0.19948951249E+04  0.46999998093E+01 0. -1.
</event>
<event>
 5   0  0.6661000E-08  0.3726882E+04  0.7818609E-02  0.8062030E-01
        1   -1    0    0  501    0  0.00000000000E+00  0.00000000000E+00  0.13955627170E+04  0.13955627170E+04  0.50400001928E-02 0. -1.
       -1   -1    0    0    0  501  0.00000000000E+00  0.00000000000E+00 -0.24881810215E+04  0.24881810215E+04  0.50400001928E-02 0.  1.
    10030    2    1    2    0    0  0.00000000000E+00  0.00000000000E+00 -0.10926183045E+04  0.38837437385E+04  0.37268821643E+04 0.  0.
        2    1    3    3  502    0 -0.10541437729E+04 -0.14592078738E+04 -0.10481440442E+04  0.20830536839E+04  0.25500000920E-02 0.  1.
       -2    1    3    3    0  502  0.10541437729E+04  0.14592078738E+04 -0.44474260305E+02  0.18006900546E+04  0.25500000920E-02 0. -1.
</event>
<event>
 5   0  0.1370688E-07  0.3809235E+04  0.7818609E-02  0.8044176E-01
       -2   -1    0    0    0  501  0.00000000000E+00  0.00000000000E+00  0.19124953267E+04  0.19124953267E+04  0.25500000920E-02 0. -1.
        2   -1    0    0  501    0  0.00000000000E+00  0.00000000000E+00 -0.18967725724E+04  0.18967725724E+04  0.25500000920E-02 0.  1.
    10030    2    1    2    0    0  0.00000000000E+00  0.00000000000E+00  0.15722754241E+02  0.38092678991E+04  0.38092354511E+04 0.  0.
        5    1    3    3  502    0 -0.14854174587E+04 -0.27957835618E+03  0.11667144244E+04  0.19094171158E+04  0.46999998093E+01 0. -1.
       -5    1    3    3    0  502  0.14854174587E+04  0.27957835618E+03 -0.11509916701E+04  0.18998507833E+04  0.46999998093E+01 0.  1.
</event>
<event>
 5   0  0.6661000E-08  0.4097379E+04  0.7818609E-02  0.7985185E-01
       -1   -1    0    0    0  501  0.00000000000E+00  0.00000000000E+00  0.13323781605E+04  0.13323781605E+04  0.50400001928E-02 0.  1.
        1   -1    0    0  501    0  0.00000000000E+00  0.00000000000E+00 -0.31501024278E+04  0.31501024278E+04  0.50400001928E-02 0. -1.
    10030    2    1    2    0    0  0.00000000000E+00  0.00000000000E+00 -0.18177242672E+04  0.44824805883E+04  0.40973785172E+04 0.  0.
        2    1    3    3  502    0 -0.43948349736E+03 -0.32314739449E+03 -0.30691916855E+04  0.31172917069E+04  0.25500000920E-02 0. -1.
       -2    1    3    3    0  502  0.43948349736E+03  0.32314739449E+03  0.12514674183E+04  0.13651888815E+04  0.25500000920E-02 0.  1.
</event>
<event>
 5   0  0.2081337E-07  0.3762288E+04  0.7818609E-02  0.8054297E-01
       -2   -1    0    0    0  501  0.00000000000E+00  0.00000000000E+00  0.26035105265E+04  0.26035105265E+04  0.25500000920E-02 0.  1.
        2   -1    0    0  501    0  0.00000000000E+00  0.00000000000E+00 -0.13592040063E+04  0.13592040063E+04  0.25500000920E-02 0. -1.
    10030    2    1    2    0    0  0.00000000000E+00  0.00000000000E+00  0.12443065202E+04  0.39627145328E+04  0.37622875691E+04 0.  0.
        1    1    3    3  502    0  0.13682628641E+04 -0.93194926169E+03 -0.31876133223E+03  0.16859067230E+04  0.50400001928E-02 0. -1.
       -1    1    3    3    0  502 -0.13682628641E+04  0.93194926169E+03  0.15630678525E+04  0.22768078099E+04  0.50400001928E-02 0.  1.
</event>
<event>
 5   0  0.2135314E-07  0.3781383E+04  0.7818609E-02  0.8050162E-01
        2   -1    0    0  501    0  0.00000000000E+00  0.00000000000E+00  0.21700031387E+04  0.21700031387E+04  0.25500000920E-02 0.  1.
       -2   -1    0    0    0  501  0.00000000000E+00  0.00000000000E+00 -0.16473315484E+04  0.16473315484E+04  0.25500000920E-02 0. -1.
    10030    2    1    2    0    0  0.00000000000E+00  0.00000000000E+00  0.52267159033E+03  0.38173346871E+04  0.37813831494E+04 0.  0.
        4    1    3    3  502    0 -0.68113519911E+03  0.10795526831E+02 -0.15191364994E+04  0.16648840859E+04  0.12699999809E+01 0. -1.
       -4    1    3    3    0  502  0.68113519911E+03 -0.10795526831E+02  0.20418080897E+04  0.21524506013E+04  0.12699999809E+01 0.  1.
</event>
<event>
 5   0  0.6661000E-08  0.3738134E+04  0.7818609E-02  0.8059563E-01
        1   -1    0    0  501    0  0.00000000000E+00  0.00000000000E+00  0.21655657849E+04  0.21655657849E+04  0.50400001928E-02 0. -1.
       -1   -1    0    0    0  501  0.00000000000E+00  0.00000000000E+00 -0.16131631460E+04  0.16131631460E+04  0.50400001928E-02 0.  1.
    10030    2    1    2    0    0  0.00000000000E+00  0.00000000000E+00  0.55240263892E+03  0.37787289309E+04  0.37381337132E+04 0.  0.
        3    1    3    3  502    0 -0.16514174896E+04 -0.54991061044E+03 -0.41224501190E+03  0.17887222714E+04  0.10100000352E+00 0.  1.
       -3    1    3    3    0  502  0.16514174896E+04  0.54991061044E+03  0.96464765082E+03  0.19900066595E+04  0.10100000352E+00 0. -1.
</event>
<event>
 5   0  0.2203998E-07  0.3736054E+04  0.7818609E-02  0.8060018E-01
        2   -1    0    0  501    0  0.00000000000E+00  0.00000000000E+00  0.29063307053E+04  0.29063307053E+04  0.25500000920E-02 0.  1.
       -2   -1    0    0    0  501  0.00000000000E+00  0.00000000000E+00 -0.12006636972E+04  0.12006636972E+04  0.25500000920E-02 0. -1.
    10030    2    1    2    0    0  0.00000000000E+00  0.00000000000E+00  0.17056670081E+04  0.41069944026E+04  0.37360544803E+04 0.  0.
        3    1    3    3  502    0  0.13109500145E+02 -0.73211267405E+03  0.27419966614E+04  0.28380814871E+04  0.10100000352E+00 0.  1.
       -3    1    3    3    0  502 -0.13109500145E+02  0.73211267405E+03 -0.10363296533E+04  0.12689129154E+04  0.10100000352E+00 0. -1.
</event>
<event>
 5   0  0.6661000E-08  0.3815549E+04  0.7818609E-02  0.8042826E-01
        1   -1    0    0  501    0  0.00000000000E+00  0.00000000000E+00  0.21432074023E+04  0.21432074023E+04  0.50400001928E-02 0.  1.
       -1   -1    0    0    0  501  0.00000000000E+00  0.00000000000E+00 -0.16982039496E+04  0.16982039496E+04  0.50400001928E-02 0. -1.
    10030    2    1    2    0    0  0.00000000000E+00  0.00000000000E+00  0.44500345271E+03  0.38414113518E+04  0.38155488597E+04 0.  0.
        3    1    3    3  502    0 -0.15356391454E+04 -0.54024423882E+03 -0.77900315889E+03  0.18046876057E+04  0.10100000352E+00 0. -1.
       -3    1    3    3    0  502  0.15356391454E+04  0.54024423882E+03  0.12240066116E+04  0.20367237461E+04  0.10100000352E+00 0.  1.
</event>
<event>
 5   0  0.6661000E-08  0.3851138E+04  0.7818609E-02  0.8035269E-01
        1   -1    0    0  501    0  0.00000000000E+00  0.00000000000E+00  0.27835913775E+04  0.27835913775E+04  0.50400001928E-02 0.  1.
       -1   -1    0    0    0  501  0.00000000000E+00  0.00000000000E+00 -0.13320262392E+04  0.13320262392E+04  0.50400001928E-02 0. -1.
    10030    2    1    2    0    0  0.00000000000E+00  0.00000000000E+00  0.14515651383E+04  0.41156176167E+04  0.38511384052E+04 0.  0.
        2    1    3    3  502    0 -0.73874159800E+03  0.15363081318E+04  0.16827306507E+04  0.23953213286E+04  0.25500000920E-02 0. -1.
       -2    1    3    3    0  502  0.73874159800E+03 -0.15363081318E+04 -0.23116551236E+03  0.17202962881E+04  0.25500000920E-02 0.  1.
</event>
<event>
 5   0  0.2205204E-07  0.3807264E+04  0.7818609E-02  0.8044598E-01
       -2   -1    0    0    0  501  0.00000000000E+00  0.00000000000E+00  0.16101197815E+04  0.16101197815E+04  0.25500000920E-02 0. -1.
        2   -1    0    0  501    0  0.00000000000E+00  0.00000000000E+00 -0.22506490544E+04  0.22506490544E+04  0.25500000920E-02 0.  1.
    10030    2    1    2    0    0  0.00000000000E+00  0.00000000000E+00 -0.64052927293E+03  0.38607688359E+04  0.38072638804E+04 0.  0.
        2    1    3    3  502    0  0.49749571049E+03  0.10317584254E+04 -0.18620884227E+04  0.21861840555E+04  0.25500000920E-02 0.  1.
       -2    1    3    3    0  502 -0.49749571049E+03 -0.10317584254E+04  0.12215591498E+04  0.16745847804E+04  0.25500000920E-02 0. -1.
</event>
<event>
 5   0  0.6725199E-08  0.3720944E+04  0.7818609E-02  0.8063336E-01
       -1   -1    0    0    0  501  0.00000000000E+00  0.00000000000E+00  0.14991763362E+04  0.14991763362E+04  0.50400001928E-02 0. -1.
        1   -1    0    0  501    0  0.00000000000E+00  0.00000000000E+00 -0.23088388618E+04  0.23088388618E+04  0.50400001928E-02 0.  1.
    10030    2    1    2    0    0  0.00000000000E+00  0.00000000000E+00 -0.80966252558E+03  0.38080151980E+04  0.37209442811E+04 0.  0.
        5    1    3    3  502    0 -0.67521110179E+03  0.11530095422E+04  0.92006436212E+03  0.16223074791E+04  0.46999998093E+01 0. -1.
       -5    1    3    3    0  502  0.67521110179E+03 -0.11530095422E+04 -0.17297268877E+04  0.21857077189E+04  0.46999998093E+01 0.  1.
</event>
<event>
 5   0  0.6661000E-08  0.3741466E+04  0.7818609E-02  0.8058834E-01
        1   -1    0    0  501    0  0.00000000000E+00  0.00000000000E+00  0.11959996363E+04  0.11959996363E+04  0.50400001928E-02 0.  1.
       -1   -1    0    0    0  501  0.00000000000E+00  0.00000000000E+00 -0.29261230208E+04  0.29261230208E+04  0.50400001928E-02 0. -1.
    10030    2    1    2    0    0  0.00000000000E+00  0.00000000000E+00 -0.17301233845E+04  0.41221226571E+04  0.37414660595E+04 0.  0.
        4    1    3    3  502    0  0.18567706049E+04  0.57869876243E+02 -0.62194272071E+03  0.19590202558E+04  0.12699999809E+01 0.  1.
       -4    1    3    3    0  502 -0.18567706049E+04 -0.57869876243E+02 -0.11081806638E+04  0.21631024013E+04  0.12699999809E+01 0. -1.
</event>
<event>
 5   0  0.2135314E-07  0.3841643E+04  0.7818609E-02  0.8037277E-01
       -2   -1    0    0    0  501  0.00000000000E+00  0.00000000000E+00  0.19632257202E+04  0.19632257202E+04  0.25500000920E-02 0. -1.
        2   -1    0    0  501    0  0.00000000000E+00  0.00000000000E+00 -0.18793336430E+04  0.18793336430E+04  0.25500000920E-02 0.  1.
    10030    2    1    2    0    0  0.00000000000E+00  0.00000000000E+00  0.83892077216E+02  0.38425593632E+04  0.38416434737E+04 0.  0.
        4    1    3    3  502    0  0.16302953792E+04  0.10065977057E+04 -0.93926574619E+02  0.19183132640E+04  0.12699999809E+01 0.  1.
       -4    1    3    3    0  502 -0.16302953792E+04 -0.10065977057E+04  0.17781865183E+03  0.19242460992E+04  0.12699999809E+01 0. -1.
</event>
<event>
 5   0  0.6661000E-08  0.3792054E+04  0.7818609E-02  0.8047862E-01
        1   -1    0    0  501    0  0.00000000000E+00  0.00000000000E+00  0.23797970595E+04  0.23797970595E+04  0.50400001928E-02 0.  1.
       -1   -1    0    0    0  501  0.00000000000E+00  0.00000000000E+00 -0.15105990556E+04  0.15105990556E+04  0.50400001928E-02 0. -1.
    10030    2    1    2    0    0  0.00000000000E+00  0.00000000000E+00  0.86919800384E+03  0.38903961151E+04  0.37920544250E+04 0.  0.
        1    1    3    3  502    0  0.38979743707E+03  0.18451927766E+04  0.23397515617E+03  0.19003743838E+04  0.50400001928E-02 0.  1.
       -1    1    3    3    0  502 -0.38979743707E+03 -0.18451927766E+04  0.63522284767E+03  0.19900217313E+04  0.50400001928E-02 0. -1.
</event>
<event>
 5   0  0.2135314E-07  0.3781287E+04  0.7818609E-02  0.8050183E-01
        2   -1    0    0  501    0  0.00000000000E+00  0.00000000000E+00  0.22653427287E+04  0.22653427287E+04  0.25500000920E-02 0. -1.
       -2   -1    0    0    0  501  0.00000000000E+00  0.00000000000E+00 -0.15779217390E+04  0.15779217390E+04  0.25500000920E-02 0.  1.
    10030    2    1    2    0    0  0.00000000000E+00  0.00000000000E+00  0.68742098978E+03  0.38432644677E+04  0.37812873670E+04 0.  0.
        4    1    3    3  502    0 -0.16674828142E+04  0.46624943673E+03  0.11155280386E+04  0.20596824732E+04  0.12699999809E+01 0.  1.
       -4    1    3    3    0  502  0.16674828142E+04 -0.46624943673E+03 -0.42810704880E+03  0.17835819945E+04  0.12699999809E+01 0. -1.
</event>
<event>
 5   0  0.1370688E-07  0.3812210E+04  0.7818609E-02  0.8043540E-01
       -2   -1    0    0    0  501  0.00000000000E+00  0.00000000000E+00  0.22880214140E+04  0.22880214140E+04  0.25500000920E-02 0.  1.
        2   -1    0    0  501    0  0.00000000000E+00  0.00000000000E+00 -0.15879376886E+04  0.15879376886E+04  0.25500000920E-02 0. -1.
    10030    2    1    2    0    0  0.00000000000E+00  0.00000000000E+00  0.70008372537E+03  0.38759591026E+04  0.38122095617E+04 0.  0.
        5    1    3    3  502    0  0.60758335698E+03  0.82054005403E+02 -0.14849444502E+04  0.16065405397E+04  0.46999998093E+01 0. -1.
       -5    1    3    3    0  502 -0.60758335698E+03 -0.82054005403E+02  0.21850281756E+04  0.22694185629E+04  0.46999998093E+01 0.  1.
</event>
<event>
 5   0  0.6661000E-08  0.3482756E+04  0.7818609E-02  0.8117889E-01
       -1   -1    0    0    0  501  0.00000000000E+00  0.00000000000E+00  0.18437813782E+04  0.18437813783E+04  0.50400001928E-02 0.  1.
        1   -1    0    0  501    0  0.00000000000E+00  0.00000000000E+00 -0.16446625373E+04  0.16446625373E+04  0.50400001928E-02 0. -1.
    10030    2    1    2    0    0  0.00000000000E+00  0.00000000000E+00  0.19911884097E+03  0.34884439155E+04  0.34827564714E+04 0.  0.
        4    1    3    3  502    0  0.25903435120E+03  0.17003685569E+04  0.37211501776E+03  0.17597793111E+04  0.12699999809E+01 0. -1.
       -4    1    3    3    0  502 -0.25903435120E+03 -0.17003685569E+04 -0.17299617679E+03  0.17286646044E+04  0.12699999809E+01 0.  1.
</event>
<event>
 5   0  0.1370688E-07  0.3623418E+04  0.7818609E-02  0.8085149E-01
       -2   -1    0    0    0  501  0.00000000000E+00  0.00000000000E+00  0.28751324302E+04  0.28751324302E+04  0.25500000920E-02 0. -1.
        2   -1    0    0  501    0  0.00000000000E+00  0.00000000000E+00 -0.11416132399E+04  0.11416132399E+04  0.25500000920E-02 0.  1.
    10030    2    1    2    0    0  0.00000000000E+00  0.00000000000E+00  0.17335191903E+04  0.40167456701E+04  0.36234178610E+04 0.  0.
        5    1    3    3  502    0 -0.13501733570E+04  0.45866750526E+03  0.21056240067E+04  0.25430333309E+04  0.46999998093E+01 0. -1.
       -5    1    3    3    0  502  0.13501733570E+04 -0.45866750526E+03 -0.37210481645E+03  0.14737123392E+04  0.46999998093E+01 0.  1.
</event>
<event>
 5   0  0.1370688E-07  0.3760432E+04  0.7818609E-02  0.8054700E-01
       -2   -1    0    0    0  501  0.00000000000E+00  0.00000000000E+00  0.21442936435E+04  0.21442936435E+04  0.25500000920E-02 0. -1.
        2   -1    0    0  501    0  0.00000000000E+00  0.00000000000E+00 -0.16486604240E+04  0.16486604240E+04  0.25500000920E-02 0.  1.
    10030    2    1    2    0    0  0.00000000000E+00  0.00000000000E+00  0.49563321950E+03  0.37929540675E+04  0.37604319260E+04 0.  0.
        5    1    3    3  502    0  0.82019117313E+03  0.78163897881E+01 -0.14586829327E+04  0.16734851791E+04  0.46999998093E+01 0.  1.
       -5    1    3    3    0  502 -0.82019117313E+03 -0.78163897881E+01  0.19543161522E+04  0.21194688885E+04  0.46999998093E+01 0. -1.
</event>
<event>
 5   0  0.2205204E-07  0.3805922E+04  0.7818609E-02  0.8044885E-01
       -2   -1    0    0    0  501  0.00000000000E+00  0.00000000000E+00  0.16460703669E+04  0.16460703669E+04  0.25500000920E-02 0. -1.
        2   -1    0    0  501    0  0.00000000000E+00  0.00000000000E+00 -0.21999427943E+04  0.21999427943E+04  0.25500000920E-02 0.  1.
    10030    2    1    2    0    0  0.00000000000E+00  0.00000000000E+00 -0.55387242735E+03  0.38460131612E+04  0.38059220395E+04 0.  0.
        2    1    3    3  502    0 -0.66013076897E+03  0.93399897973E+03  0.12599838014E+04  0.17016715036E+04  0.25500000920E-02 0. -1.
       -2    1    3    3    0  502  0.66013076897E+03 -0.93399897973E+03 -0.18138562287E+04  0.21443416577E+04  0.25500000920E-02 0.  1.
</event>
<event>
 5   0  0.6661000E-08  0.3780792E+04  0.7818609E-02  0.8050289E-01
        1   -1    0    0  501    0  0.00000000000E+00  0.00000000000E+00  0.18185739230E+04  0.18185739230E+04  0.50400001928E-02 0. -1.
       -1   -1    0    0    0  501  0.00000000000E+00  0.00000000000E+00 -0.19650547150E+04  0.19650547150E+04  0.50400001928E-02 0.  1.
    10030    2    1    2    0    0  0.00000000000E+00  0.00000000000E+00 -0.14648079204E+03  0.37836286380E+04  0.37807921191E+04 0.  0.
        3    1    3    3  502    0 -0.85148860015E+03 -0.32343671085E+03 -0.17309713531E+04  0.19559923256E+04  0.10100000352E+00 0.  1.
       -3    1    3    3    0  502  0.85148860015E+03  0.32343671085E+03  0.15844905611E+04  0.18276363124E+04  0.10100000352E+00 0. -1.
</event>
</LesHouchesEvents>
